
     Program PWSCF v.5.4.0 starts on 16Mar2020 at 22:54:42 

     This program is part of the open-source Quantum ESPRESSO suite
     for quantum simulation of materials; please cite
         "P. Giannozzi et al., J. Phys.:Condens. Matter 21 395502 (2009);
          URL http://www.quantum-espresso.org", 
     in publications or presentations arising from this work. More details at
     http://www.quantum-espresso.org/quote

     Parallel version (MPI & OpenMP), running on      16 processor cores
     Number of MPI processes:                16
     Threads/MPI process:                     1
     R & G space division:  proc/nbgrp/npool/nimage =      16
     Waiting for input...
     Reading input from standard input
Warning: card &IONS ignored
Warning: card / ignored
Warning: card &CELL ignored
Warning: card / ignored

     Current dimensions of program PWSCF are:
     Max number of different atomic species (ntypx) = 10
     Max number of k-points (npk) =  40000
     Max angular momentum in pseudopotentials (lmaxx) =  3
               file Sn.pbe-dn-rrkjus_psl.1.0.0.UPF: wavefunction(s)  5S 4D renormalized
     Message from routine setup:
     At least one non s.o. pseudo

     Subspace diagonalization in iterative solution of the eigenvalue problem:
     a serial algorithm will be used

 
     Parallelization info
     --------------------
     sticks:   dense  smooth     PW     G-vecs:    dense   smooth      PW
     Min         122     122     34                 3603     3603     547
     Max         125     125     35                 3604     3604     551
     Sum        1969    1969    559                57655    57655    8801
 

     Title: 
     Sn                                                                         


     bravais-lattice index     =            0
     lattice parameter (alat)  =       8.9127  a.u.
     unit-cell volume          =     500.6268 (a.u.)^3
     number of atoms/cell      =            2
     number of atomic types    =            1
     number of electrons       =        28.00
     number of Kohn-Sham states=           36
     kinetic-energy cutoff     =      90.0000  Ry
     charge density cutoff     =     360.0000  Ry
     convergence threshold     =      1.0E-06
     mixing beta               =       0.7000
     number of iterations used =            8  plain     mixing
     Exchange-correlation      = PBE ( 1  4  3  4 0 0)
     Non magnetic calculation with spin-orbit


     celldm(1)=   8.912709  celldm(2)=   0.000000  celldm(3)=   0.000000
     celldm(4)=   0.000000  celldm(5)=   0.000000  celldm(6)=   0.000000

     crystal axes: (cart. coord. in units of alat)
               a(1) = (   0.000000   0.707107   0.707107 )  
               a(2) = (   0.707107   0.000000   0.707107 )  
               a(3) = (   0.707107   0.707107   0.000000 )  

     reciprocal axes: (cart. coord. in units 2 pi/alat)
               b(1) = ( -0.707107  0.707107  0.707107 )  
               b(2) = (  0.707107 -0.707107  0.707107 )  
               b(3) = (  0.707107  0.707107 -0.707107 )  


     PseudoPot. # 1 for Sn read from file:
     ../PseudopotentialDatabase/Sn.pbe-dn-rrkjus_psl.1.0.0.UPF
     MD5 check sum: 72e22d5a9e1ec4fde6a02e1f963898e9
     Pseudo is Ultrasoft + core correction, Zval = 14.0
     Generated using "atomic" code by A. Dal Corso  v.6.3
     Using radial grid of 1243 points,  6 beta functions with: 
                l(1) =   0
                l(2) =   0
                l(3) =   1
                l(4) =   1
                l(5) =   2
                l(6) =   2
     Q(r) pseudized with 0 coefficients 


     atomic species   valence    mass     pseudopotential
        Sn            14.00   118.71000     Sn( 1.00)

     24 Sym. Ops. (no inversion) found
          (note: 24 additional sym.ops. were found but ignored
           their fractional translations are incommensurate with FFT grid)

                                    s                        frac. trans.

      isym =  1     identity                                     

 cryst.   s( 1) = (     1          0          0      )
                  (     0          1          0      )
                  (     0          0          1      )

 cart.    s( 1) = (  1.0000000  0.0000000  0.0000000 )
                  (  0.0000000  1.0000000  0.0000000 )
                  (  0.0000000  0.0000000  1.0000000 )


      isym =  2     180 deg rotation - cart. axis [0,0,1]        

 cryst.   s( 2) = (     0          1         -1      )
                  (     1          0         -1      )
                  (     0          0         -1      )

 cart.    s( 2) = ( -1.0000000  0.0000000  0.0000000 )
                  (  0.0000000 -1.0000000  0.0000000 )
                  (  0.0000000  0.0000000  1.0000000 )


      isym =  3     180 deg rotation - cart. axis [0,1,0]        

 cryst.   s( 3) = (     0         -1          1      )
                  (     0         -1          0      )
                  (     1         -1          0      )

 cart.    s( 3) = ( -1.0000000  0.0000000  0.0000000 )
                  (  0.0000000  1.0000000  0.0000000 )
                  (  0.0000000  0.0000000 -1.0000000 )


      isym =  4     180 deg rotation - cart. axis [1,0,0]        

 cryst.   s( 4) = (    -1          0          0      )
                  (    -1          0          1      )
                  (    -1          1          0      )

 cart.    s( 4) = (  1.0000000  0.0000000  0.0000000 )
                  (  0.0000000 -1.0000000  0.0000000 )
                  (  0.0000000  0.0000000 -1.0000000 )


      isym =  5     120 deg rotation - cart. axis [-1,-1,-1]     

 cryst.   s( 5) = (     0          0          1      )
                  (     1          0          0      )
                  (     0          1          0      )

 cart.    s( 5) = (  0.0000000  1.0000000  0.0000000 )
                  (  0.0000000  0.0000000  1.0000000 )
                  (  1.0000000  0.0000000  0.0000000 )


      isym =  6     120 deg rotation - cart. axis [-1,1,1]       

 cryst.   s( 6) = (     1         -1          0      )
                  (     0         -1          1      )
                  (     0         -1          0      )

 cart.    s( 6) = (  0.0000000 -1.0000000  0.0000000 )
                  (  0.0000000  0.0000000  1.0000000 )
                  ( -1.0000000  0.0000000  0.0000000 )


      isym =  7     120 deg rotation - cart. axis [1,1,-1]       

 cryst.   s( 7) = (    -1          1          0      )
                  (    -1          0          0      )
                  (    -1          0          1      )

 cart.    s( 7) = (  0.0000000  1.0000000  0.0000000 )
                  (  0.0000000  0.0000000 -1.0000000 )
                  ( -1.0000000  0.0000000  0.0000000 )


      isym =  8     120 deg rotation - cart. axis [1,-1,1]       

 cryst.   s( 8) = (     0          0         -1      )
                  (     0          1         -1      )
                  (     1          0         -1      )

 cart.    s( 8) = (  0.0000000 -1.0000000  0.0000000 )
                  (  0.0000000  0.0000000 -1.0000000 )
                  (  1.0000000  0.0000000  0.0000000 )


      isym =  9     120 deg rotation - cart. axis [1,1,1]        

 cryst.   s( 9) = (     0          1          0      )
                  (     0          0          1      )
                  (     1          0          0      )

 cart.    s( 9) = (  0.0000000  0.0000000  1.0000000 )
                  (  1.0000000  0.0000000  0.0000000 )
                  (  0.0000000  1.0000000  0.0000000 )


      isym = 10     120 deg rotation - cart. axis [-1,1,-1]      

 cryst.   s(10) = (    -1          0          1      )
                  (    -1          1          0      )
                  (    -1          0          0      )

 cart.    s(10) = (  0.0000000  0.0000000  1.0000000 )
                  ( -1.0000000  0.0000000  0.0000000 )
                  (  0.0000000 -1.0000000  0.0000000 )


      isym = 11     120 deg rotation - cart. axis [1,-1,-1]      

 cryst.   s(11) = (     1          0         -1      )
                  (     0          0         -1      )
                  (     0          1         -1      )

 cart.    s(11) = (  0.0000000  0.0000000 -1.0000000 )
                  ( -1.0000000  0.0000000  0.0000000 )
                  (  0.0000000  1.0000000  0.0000000 )


      isym = 12     120 deg rotation - cart. axis [-1,-1,1]      

 cryst.   s(12) = (     0         -1          0      )
                  (     1         -1          0      )
                  (     0         -1          1      )

 cart.    s(12) = (  0.0000000  0.0000000 -1.0000000 )
                  (  1.0000000  0.0000000  0.0000000 )
                  (  0.0000000 -1.0000000  0.0000000 )


      isym = 13     inv. 180 deg rotation - cart. axis [1,1,0]   

 cryst.   s(13) = (     1          0         -1      )
                  (     0          1         -1      )
                  (     0          0         -1      )

 cart.    s(13) = (  0.0000000 -1.0000000  0.0000000 )
                  ( -1.0000000  0.0000000  0.0000000 )
                  (  0.0000000  0.0000000  1.0000000 )


      isym = 14     inv. 180 deg rotation - cart. axis [1,-1,0]  

 cryst.   s(14) = (     0          1          0      )
                  (     1          0          0      )
                  (     0          0          1      )

 cart.    s(14) = (  0.0000000  1.0000000  0.0000000 )
                  (  1.0000000  0.0000000  0.0000000 )
                  (  0.0000000  0.0000000  1.0000000 )


      isym = 15     inv.  90 deg rotation - cart. axis [0,0,-1]  

 cryst.   s(15) = (     0         -1          0      )
                  (     0         -1          1      )
                  (     1         -1          0      )

 cart.    s(15) = (  0.0000000 -1.0000000  0.0000000 )
                  (  1.0000000  0.0000000  0.0000000 )
                  (  0.0000000  0.0000000 -1.0000000 )


      isym = 16     inv.  90 deg rotation - cart. axis [0,0,1]   

 cryst.   s(16) = (    -1          0          1      )
                  (    -1          0          0      )
                  (    -1          1          0      )

 cart.    s(16) = (  0.0000000  1.0000000  0.0000000 )
                  ( -1.0000000  0.0000000  0.0000000 )
                  (  0.0000000  0.0000000 -1.0000000 )


      isym = 17     inv. 180 deg rotation - cart. axis [1,0,1]   

 cryst.   s(17) = (     1         -1          0      )
                  (     0         -1          0      )
                  (     0         -1          1      )

 cart.    s(17) = (  0.0000000  0.0000000 -1.0000000 )
                  (  0.0000000  1.0000000  0.0000000 )
                  ( -1.0000000  0.0000000  0.0000000 )


      isym = 18     inv. 180 deg rotation - cart. axis [-1,0,1]  

 cryst.   s(18) = (     0          0          1      )
                  (     0          1          0      )
                  (     1          0          0      )

 cart.    s(18) = (  0.0000000  0.0000000  1.0000000 )
                  (  0.0000000  1.0000000  0.0000000 )
                  (  1.0000000  0.0000000  0.0000000 )


      isym = 19     inv.  90 deg rotation - cart. axis [0,1,0]   

 cryst.   s(19) = (     0          0         -1      )
                  (     1          0         -1      )
                  (     0          1         -1      )

 cart.    s(19) = (  0.0000000  0.0000000 -1.0000000 )
                  (  0.0000000 -1.0000000  0.0000000 )
                  (  1.0000000  0.0000000  0.0000000 )


      isym = 20     inv.  90 deg rotation - cart. axis [0,-1,0]  

 cryst.   s(20) = (    -1          1          0      )
                  (    -1          0          1      )
                  (    -1          0          0      )

 cart.    s(20) = (  0.0000000  0.0000000  1.0000000 )
                  (  0.0000000 -1.0000000  0.0000000 )
                  ( -1.0000000  0.0000000  0.0000000 )


      isym = 21     inv. 180 deg rotation - cart. axis [0,1,1]   

 cryst.   s(21) = (    -1          0          0      )
                  (    -1          1          0      )
                  (    -1          0          1      )

 cart.    s(21) = (  1.0000000  0.0000000  0.0000000 )
                  (  0.0000000  0.0000000 -1.0000000 )
                  (  0.0000000 -1.0000000  0.0000000 )


      isym = 22     inv. 180 deg rotation - cart. axis [0,1,-1]  

 cryst.   s(22) = (     1          0          0      )
                  (     0          0          1      )
                  (     0          1          0      )

 cart.    s(22) = (  1.0000000  0.0000000  0.0000000 )
                  (  0.0000000  0.0000000  1.0000000 )
                  (  0.0000000  1.0000000  0.0000000 )


      isym = 23     inv.  90 deg rotation - cart. axis [-1,0,0]  

 cryst.   s(23) = (     0          1         -1      )
                  (     0          0         -1      )
                  (     1          0         -1      )

 cart.    s(23) = ( -1.0000000  0.0000000  0.0000000 )
                  (  0.0000000  0.0000000 -1.0000000 )
                  (  0.0000000  1.0000000  0.0000000 )


      isym = 24     inv.  90 deg rotation - cart. axis [1,0,0]   

 cryst.   s(24) = (     0         -1          1      )
                  (     1         -1          0      )
                  (     0         -1          0      )

 cart.    s(24) = ( -1.0000000  0.0000000  0.0000000 )
                  (  0.0000000  0.0000000  1.0000000 )
                  (  0.0000000 -1.0000000  0.0000000 )


   Cartesian axes

     site n.     atom                  positions (alat units)
         1           Sn  tau(   1) = (   0.0000000   0.0000000   0.0000000  )
         2           Sn  tau(   2) = (   0.3535534   0.3535534   0.3535534  )

   Crystallographic axes

     site n.     atom                  positions (cryst. coord.)
         1           Sn  tau(   1) = (  0.0000000  0.0000000  0.0000000  )
         2           Sn  tau(   2) = (  0.2500000  0.2500000  0.2500000  )

     number of k points=   145  gaussian smearing, width (Ry)=  0.0001
                       cart. coord. in units 2pi/alat
        k(    1) = (   0.0000000   0.0000000   0.0000000), wk =   0.0002441
        k(    2) = (   0.0441942   0.0441942  -0.0441942), wk =   0.0019531
        k(    3) = (   0.0883883   0.0883883  -0.0883883), wk =   0.0019531
        k(    4) = (   0.1325825   0.1325825  -0.1325825), wk =   0.0019531
        k(    5) = (   0.1767767   0.1767767  -0.1767767), wk =   0.0019531
        k(    6) = (   0.2209709   0.2209709  -0.2209709), wk =   0.0019531
        k(    7) = (   0.2651650   0.2651650  -0.2651650), wk =   0.0019531
        k(    8) = (   0.3093592   0.3093592  -0.3093592), wk =   0.0019531
        k(    9) = (  -0.3535534  -0.3535534   0.3535534), wk =   0.0009766
        k(   10) = (   0.0883883   0.0000000   0.0000000), wk =   0.0014648
        k(   11) = (   0.1325825   0.0441942  -0.0441942), wk =   0.0058594
        k(   12) = (   0.1767767   0.0883883  -0.0883883), wk =   0.0058594
        k(   13) = (   0.2209709   0.1325825  -0.1325825), wk =   0.0058594
        k(   14) = (   0.2651650   0.1767767  -0.1767767), wk =   0.0058594
        k(   15) = (   0.3093592   0.2209709  -0.2209709), wk =   0.0058594
        k(   16) = (   0.3535534   0.2651650  -0.2651650), wk =   0.0058594
        k(   17) = (  -0.3093592  -0.3977476   0.3977476), wk =   0.0058594
        k(   18) = (  -0.2651650  -0.3535534   0.3535534), wk =   0.0058594
        k(   19) = (  -0.2209709  -0.3093592   0.3093592), wk =   0.0058594
        k(   20) = (  -0.1767767  -0.2651650   0.2651650), wk =   0.0058594
        k(   21) = (  -0.1325825  -0.2209709   0.2209709), wk =   0.0058594
        k(   22) = (  -0.0883883  -0.1767767   0.1767767), wk =   0.0058594
        k(   23) = (  -0.0441942  -0.1325825   0.1325825), wk =   0.0058594
        k(   24) = (   0.0000000  -0.0883883   0.0883883), wk =   0.0029297
        k(   25) = (   0.1767767   0.0000000   0.0000000), wk =   0.0014648
        k(   26) = (   0.2209709   0.0441942  -0.0441942), wk =   0.0058594
        k(   27) = (   0.2651650   0.0883883  -0.0883883), wk =   0.0058594
        k(   28) = (   0.3093592   0.1325825  -0.1325825), wk =   0.0058594
        k(   29) = (   0.3535534   0.1767767  -0.1767767), wk =   0.0058594
        k(   30) = (   0.3977476   0.2209709  -0.2209709), wk =   0.0058594
        k(   31) = (  -0.2651650  -0.4419417   0.4419417), wk =   0.0058594
        k(   32) = (  -0.2209709  -0.3977476   0.3977476), wk =   0.0058594
        k(   33) = (  -0.1767767  -0.3535534   0.3535534), wk =   0.0058594
        k(   34) = (  -0.1325825  -0.3093592   0.3093592), wk =   0.0058594
        k(   35) = (  -0.0883883  -0.2651650   0.2651650), wk =   0.0058594
        k(   36) = (  -0.0441942  -0.2209709   0.2209709), wk =   0.0058594
        k(   37) = (   0.0000000  -0.1767767   0.1767767), wk =   0.0029297
        k(   38) = (   0.2651650   0.0000000   0.0000000), wk =   0.0014648
        k(   39) = (   0.3093592   0.0441942  -0.0441942), wk =   0.0058594
        k(   40) = (   0.3535534   0.0883883  -0.0883883), wk =   0.0058594
        k(   41) = (   0.3977476   0.1325825  -0.1325825), wk =   0.0058594
        k(   42) = (   0.4419417   0.1767767  -0.1767767), wk =   0.0058594
        k(   43) = (  -0.2209709  -0.4861359   0.4861359), wk =   0.0058594
        k(   44) = (  -0.1767767  -0.4419417   0.4419417), wk =   0.0058594
        k(   45) = (  -0.1325825  -0.3977476   0.3977476), wk =   0.0058594
        k(   46) = (  -0.0883883  -0.3535534   0.3535534), wk =   0.0058594
        k(   47) = (  -0.0441942  -0.3093592   0.3093592), wk =   0.0058594
        k(   48) = (   0.0000000  -0.2651650   0.2651650), wk =   0.0029297
        k(   49) = (   0.3535534   0.0000000   0.0000000), wk =   0.0014648
        k(   50) = (   0.3977476   0.0441942  -0.0441942), wk =   0.0058594
        k(   51) = (   0.4419417   0.0883883  -0.0883883), wk =   0.0058594
        k(   52) = (   0.4861359   0.1325825  -0.1325825), wk =   0.0058594
        k(   53) = (  -0.1767767  -0.5303301   0.5303301), wk =   0.0058594
        k(   54) = (  -0.1325825  -0.4861359   0.4861359), wk =   0.0058594
        k(   55) = (  -0.0883883  -0.4419417   0.4419417), wk =   0.0058594
        k(   56) = (  -0.0441942  -0.3977476   0.3977476), wk =   0.0058594
        k(   57) = (   0.0000000  -0.3535534   0.3535534), wk =   0.0029297
        k(   58) = (   0.4419417   0.0000000   0.0000000), wk =   0.0014648
        k(   59) = (   0.4861359   0.0441942  -0.0441942), wk =   0.0058594
        k(   60) = (   0.5303301   0.0883883  -0.0883883), wk =   0.0058594
        k(   61) = (  -0.1325825  -0.5745243   0.5745243), wk =   0.0058594
        k(   62) = (  -0.0883883  -0.5303301   0.5303301), wk =   0.0058594
        k(   63) = (  -0.0441942  -0.4861359   0.4861359), wk =   0.0058594
        k(   64) = (   0.0000000  -0.4419417   0.4419417), wk =   0.0029297
        k(   65) = (   0.5303301   0.0000000   0.0000000), wk =   0.0014648
        k(   66) = (   0.5745243   0.0441942  -0.0441942), wk =   0.0058594
        k(   67) = (  -0.0883883  -0.6187184   0.6187184), wk =   0.0058594
        k(   68) = (  -0.0441942  -0.5745243   0.5745243), wk =   0.0058594
        k(   69) = (   0.0000000  -0.5303301   0.5303301), wk =   0.0029297
        k(   70) = (   0.6187184   0.0000000   0.0000000), wk =   0.0014648
        k(   71) = (  -0.0441942  -0.6629126   0.6629126), wk =   0.0058594
        k(   72) = (   0.0000000  -0.6187184   0.6187184), wk =   0.0029297
        k(   73) = (  -0.7071068   0.0000000   0.0000000), wk =   0.0007324
        k(   74) = (   0.1767767   0.0883883   0.0000000), wk =   0.0058594
        k(   75) = (   0.2209709   0.1325825  -0.0441942), wk =   0.0117188
        k(   76) = (   0.2651650   0.1767767  -0.0883883), wk =   0.0117188
        k(   77) = (   0.3093592   0.2209709  -0.1325825), wk =   0.0117188
        k(   78) = (   0.3535534   0.2651650  -0.1767767), wk =   0.0117188
        k(   79) = (  -0.3093592  -0.3977476   0.4861359), wk =   0.0117188
        k(   80) = (  -0.2651650  -0.3535534   0.4419417), wk =   0.0058594
        k(   81) = (   0.2651650   0.0883883   0.0000000), wk =   0.0058594
        k(   82) = (   0.3093592   0.1325825  -0.0441942), wk =   0.0117188
        k(   83) = (   0.3535534   0.1767767  -0.0883883), wk =   0.0117188
        k(   84) = (   0.3977476   0.2209709  -0.1325825), wk =   0.0117188
        k(   85) = (  -0.2651650  -0.4419417   0.5303301), wk =   0.0117188
        k(   86) = (  -0.2209709  -0.3977476   0.4861359), wk =   0.0117188
        k(   87) = (  -0.1767767  -0.3535534   0.4419417), wk =   0.0117188
        k(   88) = (  -0.1325825  -0.3093592   0.3977476), wk =   0.0117188
        k(   89) = (  -0.0883883  -0.2651650   0.3535534), wk =   0.0117188
        k(   90) = (  -0.0441942  -0.2209709   0.3093592), wk =   0.0117188
        k(   91) = (   0.0000000  -0.1767767   0.2651650), wk =   0.0058594
        k(   92) = (   0.3535534   0.0883883   0.0000000), wk =   0.0058594
        k(   93) = (   0.3977476   0.1325825  -0.0441942), wk =   0.0117188
        k(   94) = (   0.4419417   0.1767767  -0.0883883), wk =   0.0117188
        k(   95) = (  -0.2209709  -0.4861359   0.5745243), wk =   0.0117188
        k(   96) = (  -0.1767767  -0.4419417   0.5303301), wk =   0.0117188
        k(   97) = (  -0.1325825  -0.3977476   0.4861359), wk =   0.0117188
        k(   98) = (  -0.0883883  -0.3535534   0.4419417), wk =   0.0117188
        k(   99) = (  -0.0441942  -0.3093592   0.3977476), wk =   0.0117188
        k(  100) = (   0.0000000  -0.2651650   0.3535534), wk =   0.0058594
        k(  101) = (   0.4419417   0.0883883   0.0000000), wk =   0.0058594
        k(  102) = (   0.4861359   0.1325825  -0.0441942), wk =   0.0117188
        k(  103) = (  -0.1767767  -0.5303301   0.6187184), wk =   0.0117188
        k(  104) = (  -0.1325825  -0.4861359   0.5745243), wk =   0.0117188
        k(  105) = (  -0.0883883  -0.4419417   0.5303301), wk =   0.0117188
        k(  106) = (  -0.0441942  -0.3977476   0.4861359), wk =   0.0117188
        k(  107) = (   0.0000000  -0.3535534   0.4419417), wk =   0.0058594
        k(  108) = (   0.5303301   0.0883883   0.0000000), wk =   0.0058594
        k(  109) = (  -0.1325825  -0.5745243   0.6629126), wk =   0.0117188
        k(  110) = (  -0.0883883  -0.5303301   0.6187184), wk =   0.0117188
        k(  111) = (  -0.0441942  -0.4861359   0.5745243), wk =   0.0117188
        k(  112) = (   0.0000000  -0.4419417   0.5303301), wk =   0.0058594
        k(  113) = (  -0.0883883  -0.6187184   0.7071068), wk =   0.0058594
        k(  114) = (  -0.0441942  -0.5745243   0.6629126), wk =   0.0117188
        k(  115) = (  -0.0000000  -0.5303301   0.6187184), wk =   0.0058594
        k(  116) = (  -0.7071068   0.0883883   0.0000000), wk =   0.0029297
        k(  117) = (   0.3535534   0.1767767   0.0000000), wk =   0.0058594
        k(  118) = (   0.3977476   0.2209709  -0.0441942), wk =   0.0117188
        k(  119) = (  -0.2651650  -0.4419417   0.6187184), wk =   0.0117188
        k(  120) = (  -0.2209709  -0.3977476   0.5745243), wk =   0.0117188
        k(  121) = (  -0.1767767  -0.3535534   0.5303301), wk =   0.0058594
        k(  122) = (   0.4419417   0.1767767   0.0000000), wk =   0.0058594
        k(  123) = (  -0.2209709  -0.4861359   0.6629126), wk =   0.0117188
        k(  124) = (  -0.1767767  -0.4419417   0.6187184), wk =   0.0117188
        k(  125) = (  -0.1325825  -0.3977476   0.5745243), wk =   0.0117188
        k(  126) = (  -0.0883883  -0.3535534   0.5303301), wk =   0.0117188
        k(  127) = (  -0.0441942  -0.3093592   0.4861359), wk =   0.0117188
        k(  128) = (   0.0000000  -0.2651650   0.4419417), wk =   0.0058594
        k(  129) = (  -0.1767767  -0.5303301   0.7071068), wk =   0.0058594
        k(  130) = (  -0.1325825  -0.4861359   0.6629126), wk =   0.0117188
        k(  131) = (  -0.0883883  -0.4419417   0.6187184), wk =   0.0117188
        k(  132) = (  -0.0441942  -0.3977476   0.5745243), wk =   0.0117188
        k(  133) = (   0.0000000  -0.3535534   0.5303301), wk =   0.0058594
        k(  134) = (  -0.0883883  -0.5303301   0.7071068), wk =   0.0058594
        k(  135) = (  -0.0441942  -0.4861359   0.6629126), wk =   0.0117188
        k(  136) = (   0.0000000  -0.4419417   0.6187184), wk =   0.0058594
        k(  137) = (  -0.7071068   0.1767767   0.0000000), wk =   0.0029297
        k(  138) = (  -0.1767767  -0.4419417   0.7071068), wk =   0.0058594
        k(  139) = (  -0.1325825  -0.3977476   0.6629126), wk =   0.0117188
        k(  140) = (  -0.0883883  -0.3535534   0.6187184), wk =   0.0058594
        k(  141) = (  -0.0883883  -0.4419417   0.7071068), wk =   0.0058594
        k(  142) = (  -0.0441942  -0.3977476   0.6629126), wk =   0.0117188
        k(  143) = (  -0.0000000  -0.3535534   0.6187184), wk =   0.0058594
        k(  144) = (  -0.7071068   0.2651650   0.0000000), wk =   0.0029297
        k(  145) = (  -0.7071068   0.3535534   0.0000000), wk =   0.0014648

                       cryst. coord.
        k(    1) = (   0.0000000   0.0000000   0.0000000), wk =   0.0002441
        k(    2) = (   0.0000000   0.0000000   0.0625000), wk =   0.0019531
        k(    3) = (   0.0000000   0.0000000   0.1250000), wk =   0.0019531
        k(    4) = (   0.0000000   0.0000000   0.1875000), wk =   0.0019531
        k(    5) = (   0.0000000   0.0000000   0.2500000), wk =   0.0019531
        k(    6) = (   0.0000000   0.0000000   0.3125000), wk =   0.0019531
        k(    7) = (   0.0000000   0.0000000   0.3750000), wk =   0.0019531
        k(    8) = (   0.0000000   0.0000000   0.4375000), wk =   0.0019531
        k(    9) = (   0.0000000   0.0000000  -0.5000000), wk =   0.0009766
        k(   10) = (   0.0000000   0.0625000   0.0625000), wk =   0.0014648
        k(   11) = (   0.0000000   0.0625000   0.1250000), wk =   0.0058594
        k(   12) = (   0.0000000   0.0625000   0.1875000), wk =   0.0058594
        k(   13) = (   0.0000000   0.0625000   0.2500000), wk =   0.0058594
        k(   14) = (   0.0000000   0.0625000   0.3125000), wk =   0.0058594
        k(   15) = (   0.0000000   0.0625000   0.3750000), wk =   0.0058594
        k(   16) = (   0.0000000   0.0625000   0.4375000), wk =   0.0058594
        k(   17) = (   0.0000000   0.0625000  -0.5000000), wk =   0.0058594
        k(   18) = (   0.0000000   0.0625000  -0.4375000), wk =   0.0058594
        k(   19) = (   0.0000000   0.0625000  -0.3750000), wk =   0.0058594
        k(   20) = (   0.0000000   0.0625000  -0.3125000), wk =   0.0058594
        k(   21) = (   0.0000000   0.0625000  -0.2500000), wk =   0.0058594
        k(   22) = (   0.0000000   0.0625000  -0.1875000), wk =   0.0058594
        k(   23) = (   0.0000000   0.0625000  -0.1250000), wk =   0.0058594
        k(   24) = (   0.0000000   0.0625000  -0.0625000), wk =   0.0029297
        k(   25) = (   0.0000000   0.1250000   0.1250000), wk =   0.0014648
        k(   26) = (   0.0000000   0.1250000   0.1875000), wk =   0.0058594
        k(   27) = (   0.0000000   0.1250000   0.2500000), wk =   0.0058594
        k(   28) = (   0.0000000   0.1250000   0.3125000), wk =   0.0058594
        k(   29) = (   0.0000000   0.1250000   0.3750000), wk =   0.0058594
        k(   30) = (   0.0000000   0.1250000   0.4375000), wk =   0.0058594
        k(   31) = (   0.0000000   0.1250000  -0.5000000), wk =   0.0058594
        k(   32) = (   0.0000000   0.1250000  -0.4375000), wk =   0.0058594
        k(   33) = (   0.0000000   0.1250000  -0.3750000), wk =   0.0058594
        k(   34) = (   0.0000000   0.1250000  -0.3125000), wk =   0.0058594
        k(   35) = (   0.0000000   0.1250000  -0.2500000), wk =   0.0058594
        k(   36) = (   0.0000000   0.1250000  -0.1875000), wk =   0.0058594
        k(   37) = (   0.0000000   0.1250000  -0.1250000), wk =   0.0029297
        k(   38) = (   0.0000000   0.1875000   0.1875000), wk =   0.0014648
        k(   39) = (   0.0000000   0.1875000   0.2500000), wk =   0.0058594
        k(   40) = (   0.0000000   0.1875000   0.3125000), wk =   0.0058594
        k(   41) = (   0.0000000   0.1875000   0.3750000), wk =   0.0058594
        k(   42) = (   0.0000000   0.1875000   0.4375000), wk =   0.0058594
        k(   43) = (   0.0000000   0.1875000  -0.5000000), wk =   0.0058594
        k(   44) = (   0.0000000   0.1875000  -0.4375000), wk =   0.0058594
        k(   45) = (   0.0000000   0.1875000  -0.3750000), wk =   0.0058594
        k(   46) = (   0.0000000   0.1875000  -0.3125000), wk =   0.0058594
        k(   47) = (   0.0000000   0.1875000  -0.2500000), wk =   0.0058594
        k(   48) = (   0.0000000   0.1875000  -0.1875000), wk =   0.0029297
        k(   49) = (   0.0000000   0.2500000   0.2500000), wk =   0.0014648
        k(   50) = (   0.0000000   0.2500000   0.3125000), wk =   0.0058594
        k(   51) = (   0.0000000   0.2500000   0.3750000), wk =   0.0058594
        k(   52) = (   0.0000000   0.2500000   0.4375000), wk =   0.0058594
        k(   53) = (   0.0000000   0.2500000  -0.5000000), wk =   0.0058594
        k(   54) = (   0.0000000   0.2500000  -0.4375000), wk =   0.0058594
        k(   55) = (   0.0000000   0.2500000  -0.3750000), wk =   0.0058594
        k(   56) = (   0.0000000   0.2500000  -0.3125000), wk =   0.0058594
        k(   57) = (   0.0000000   0.2500000  -0.2500000), wk =   0.0029297
        k(   58) = (   0.0000000   0.3125000   0.3125000), wk =   0.0014648
        k(   59) = (   0.0000000   0.3125000   0.3750000), wk =   0.0058594
        k(   60) = (   0.0000000   0.3125000   0.4375000), wk =   0.0058594
        k(   61) = (   0.0000000   0.3125000  -0.5000000), wk =   0.0058594
        k(   62) = (   0.0000000   0.3125000  -0.4375000), wk =   0.0058594
        k(   63) = (   0.0000000   0.3125000  -0.3750000), wk =   0.0058594
        k(   64) = (   0.0000000   0.3125000  -0.3125000), wk =   0.0029297
        k(   65) = (   0.0000000   0.3750000   0.3750000), wk =   0.0014648
        k(   66) = (   0.0000000   0.3750000   0.4375000), wk =   0.0058594
        k(   67) = (   0.0000000   0.3750000  -0.5000000), wk =   0.0058594
        k(   68) = (   0.0000000   0.3750000  -0.4375000), wk =   0.0058594
        k(   69) = (   0.0000000   0.3750000  -0.3750000), wk =   0.0029297
        k(   70) = (   0.0000000   0.4375000   0.4375000), wk =   0.0014648
        k(   71) = (   0.0000000   0.4375000  -0.5000000), wk =   0.0058594
        k(   72) = (   0.0000000   0.4375000  -0.4375000), wk =   0.0029297
        k(   73) = (   0.0000000  -0.5000000  -0.5000000), wk =   0.0007324
        k(   74) = (   0.0625000   0.1250000   0.1875000), wk =   0.0058594
        k(   75) = (   0.0625000   0.1250000   0.2500000), wk =   0.0117188
        k(   76) = (   0.0625000   0.1250000   0.3125000), wk =   0.0117188
        k(   77) = (   0.0625000   0.1250000   0.3750000), wk =   0.0117188
        k(   78) = (   0.0625000   0.1250000   0.4375000), wk =   0.0117188
        k(   79) = (   0.0625000   0.1250000  -0.5000000), wk =   0.0117188
        k(   80) = (   0.0625000   0.1250000  -0.4375000), wk =   0.0058594
        k(   81) = (   0.0625000   0.1875000   0.2500000), wk =   0.0058594
        k(   82) = (   0.0625000   0.1875000   0.3125000), wk =   0.0117188
        k(   83) = (   0.0625000   0.1875000   0.3750000), wk =   0.0117188
        k(   84) = (   0.0625000   0.1875000   0.4375000), wk =   0.0117188
        k(   85) = (   0.0625000   0.1875000  -0.5000000), wk =   0.0117188
        k(   86) = (   0.0625000   0.1875000  -0.4375000), wk =   0.0117188
        k(   87) = (   0.0625000   0.1875000  -0.3750000), wk =   0.0117188
        k(   88) = (   0.0625000   0.1875000  -0.3125000), wk =   0.0117188
        k(   89) = (   0.0625000   0.1875000  -0.2500000), wk =   0.0117188
        k(   90) = (   0.0625000   0.1875000  -0.1875000), wk =   0.0117188
        k(   91) = (   0.0625000   0.1875000  -0.1250000), wk =   0.0058594
        k(   92) = (   0.0625000   0.2500000   0.3125000), wk =   0.0058594
        k(   93) = (   0.0625000   0.2500000   0.3750000), wk =   0.0117188
        k(   94) = (   0.0625000   0.2500000   0.4375000), wk =   0.0117188
        k(   95) = (   0.0625000   0.2500000  -0.5000000), wk =   0.0117188
        k(   96) = (   0.0625000   0.2500000  -0.4375000), wk =   0.0117188
        k(   97) = (   0.0625000   0.2500000  -0.3750000), wk =   0.0117188
        k(   98) = (   0.0625000   0.2500000  -0.3125000), wk =   0.0117188
        k(   99) = (   0.0625000   0.2500000  -0.2500000), wk =   0.0117188
        k(  100) = (   0.0625000   0.2500000  -0.1875000), wk =   0.0058594
        k(  101) = (   0.0625000   0.3125000   0.3750000), wk =   0.0058594
        k(  102) = (   0.0625000   0.3125000   0.4375000), wk =   0.0117188
        k(  103) = (   0.0625000   0.3125000  -0.5000000), wk =   0.0117188
        k(  104) = (   0.0625000   0.3125000  -0.4375000), wk =   0.0117188
        k(  105) = (   0.0625000   0.3125000  -0.3750000), wk =   0.0117188
        k(  106) = (   0.0625000   0.3125000  -0.3125000), wk =   0.0117188
        k(  107) = (   0.0625000   0.3125000  -0.2500000), wk =   0.0058594
        k(  108) = (   0.0625000   0.3750000   0.4375000), wk =   0.0058594
        k(  109) = (   0.0625000   0.3750000  -0.5000000), wk =   0.0117188
        k(  110) = (   0.0625000   0.3750000  -0.4375000), wk =   0.0117188
        k(  111) = (   0.0625000   0.3750000  -0.3750000), wk =   0.0117188
        k(  112) = (   0.0625000   0.3750000  -0.3125000), wk =   0.0058594
        k(  113) = (   0.0625000   0.4375000  -0.5000000), wk =   0.0058594
        k(  114) = (   0.0625000   0.4375000  -0.4375000), wk =   0.0117188
        k(  115) = (   0.0625000   0.4375000  -0.3750000), wk =   0.0058594
        k(  116) = (   0.0625000  -0.5000000  -0.4375000), wk =   0.0029297
        k(  117) = (   0.1250000   0.2500000   0.3750000), wk =   0.0058594
        k(  118) = (   0.1250000   0.2500000   0.4375000), wk =   0.0117188
        k(  119) = (   0.1250000   0.2500000  -0.5000000), wk =   0.0117188
        k(  120) = (   0.1250000   0.2500000  -0.4375000), wk =   0.0117188
        k(  121) = (   0.1250000   0.2500000  -0.3750000), wk =   0.0058594
        k(  122) = (   0.1250000   0.3125000   0.4375000), wk =   0.0058594
        k(  123) = (   0.1250000   0.3125000  -0.5000000), wk =   0.0117188
        k(  124) = (   0.1250000   0.3125000  -0.4375000), wk =   0.0117188
        k(  125) = (   0.1250000   0.3125000  -0.3750000), wk =   0.0117188
        k(  126) = (   0.1250000   0.3125000  -0.3125000), wk =   0.0117188
        k(  127) = (   0.1250000   0.3125000  -0.2500000), wk =   0.0117188
        k(  128) = (   0.1250000   0.3125000  -0.1875000), wk =   0.0058594
        k(  129) = (   0.1250000   0.3750000  -0.5000000), wk =   0.0058594
        k(  130) = (   0.1250000   0.3750000  -0.4375000), wk =   0.0117188
        k(  131) = (   0.1250000   0.3750000  -0.3750000), wk =   0.0117188
        k(  132) = (   0.1250000   0.3750000  -0.3125000), wk =   0.0117188
        k(  133) = (   0.1250000   0.3750000  -0.2500000), wk =   0.0058594
        k(  134) = (   0.1250000   0.4375000  -0.4375000), wk =   0.0058594
        k(  135) = (   0.1250000   0.4375000  -0.3750000), wk =   0.0117188
        k(  136) = (   0.1250000   0.4375000  -0.3125000), wk =   0.0058594
        k(  137) = (   0.1250000  -0.5000000  -0.3750000), wk =   0.0029297
        k(  138) = (   0.1875000   0.3750000  -0.4375000), wk =   0.0058594
        k(  139) = (   0.1875000   0.3750000  -0.3750000), wk =   0.0117188
        k(  140) = (   0.1875000   0.3750000  -0.3125000), wk =   0.0058594
        k(  141) = (   0.1875000   0.4375000  -0.3750000), wk =   0.0058594
        k(  142) = (   0.1875000   0.4375000  -0.3125000), wk =   0.0117188
        k(  143) = (   0.1875000   0.4375000  -0.2500000), wk =   0.0058594
        k(  144) = (   0.1875000  -0.5000000  -0.3125000), wk =   0.0029297
        k(  145) = (   0.2500000  -0.5000000  -0.2500000), wk =   0.0014648

     Dense  grid:    57655 G-vectors     FFT dimensions: (  54,  54,  54)

     Largest allocated arrays     est. size (Mb)     dimensions
        Kohn-Sham Wavefunctions         0.51 Mb     (     920,   36)
        NL pseudopotentials             0.25 Mb     (     460,   36)
        Each V/rho on FFT grid          0.18 Mb     (   11664)
        Each G-vector array             0.03 Mb     (    3604)
        G-vector shells                 0.00 Mb     (     461)
     Largest temporary arrays     est. size (Mb)     dimensions
        Auxiliary wavefunctions         2.02 Mb     (     920,  144)
        Each subspace H/S matrix        0.32 Mb     (     144,  144)
        Each <psi_i|beta_j> matrix      0.04 Mb     (      36,   2,   36)
        Arrays for rho mixing           1.42 Mb     (   11664,    8)

     Check: negative/imaginary core charge=   -0.000001    0.000000

     Initial potential from superposition of free atoms

     starting charge   27.99723, renormalised to   28.00000
     Starting wfc are   36 randomized atomic wfcs

     total cpu time spent up to now is       16.2 secs

     Self-consistent Calculation

     iteration #  1     ecut=    90.00 Ry     beta=0.70
     Davidson diagonalization with overlap
     ethr =  1.00E-02,  avg # of iterations =  3.4

     Threshold (ethr) on eigenvalues was too large:
     Diagonalizing with lowered threshold

     Davidson diagonalization with overlap
     ethr =  6.57E-05,  avg # of iterations =  3.3

     total cpu time spent up to now is      115.2 secs

     total energy              =    -326.06252795 Ry
     Harris-Foulkes estimate   =    -326.06561755 Ry
     estimated scf accuracy    <       0.02222216 Ry

     iteration #  2     ecut=    90.00 Ry     beta=0.70
     Davidson diagonalization with overlap
     ethr =  7.94E-05,  avg # of iterations =  1.0

     total cpu time spent up to now is      154.2 secs

     total energy              =    -326.06321183 Ry
     Harris-Foulkes estimate   =    -326.06326231 Ry
     estimated scf accuracy    <       0.00146578 Ry

     iteration #  3     ecut=    90.00 Ry     beta=0.70
     Davidson diagonalization with overlap
     ethr =  5.23E-06,  avg # of iterations =  2.7

     total cpu time spent up to now is      208.5 secs

     total energy              =    -326.06340072 Ry
     Harris-Foulkes estimate   =    -326.06341921 Ry
     estimated scf accuracy    <       0.00004908 Ry

     iteration #  4     ecut=    90.00 Ry     beta=0.70
     Davidson diagonalization with overlap
     ethr =  1.75E-07,  avg # of iterations =  2.0

     total cpu time spent up to now is      259.7 secs

     total energy              =    -326.06341417 Ry
     Harris-Foulkes estimate   =    -326.06341251 Ry
     estimated scf accuracy    <       0.00000300 Ry

     iteration #  5     ecut=    90.00 Ry     beta=0.70
     Davidson diagonalization with overlap
     ethr =  1.07E-08,  avg # of iterations =  2.0

     total cpu time spent up to now is      302.8 secs

     End of self-consistent calculation

          k = 0.0000 0.0000 0.0000 (  7239 PWs)   bands (ev):

   -14.6448 -14.6448 -14.6448 -14.6448 -14.6448 -14.6448 -14.5968 -14.5968
   -14.5968 -14.5968 -14.3477 -14.3477 -14.3477 -14.3477 -14.3476 -14.3476
   -14.3476 -14.3476 -14.3476 -14.3476  -3.1843  -3.1843   5.7037   5.7037
     6.9849   6.9849   6.9849   6.9849   6.9849   6.9849   9.0498   9.0498
     9.0498   9.0498   9.0498   9.0498

     occupation numbers 
     1.0000   1.0000   1.0000   1.0000   1.0000   1.0000   1.0000   1.0000
     1.0000   1.0000   1.0000   1.0000   1.0000   1.0000   1.0000   1.0000
     1.0000   1.0000   1.0000   1.0000   1.0000   1.0000   1.0000   1.0000
     0.0000   0.0000   0.0000   0.0000   0.0000   0.0000   0.0000   0.0000
     0.0000   0.0000   0.0000   0.0000

          k = 0.0442 0.0442-0.0442 (  7267 PWs)   bands (ev):

   -14.6474 -14.6474 -14.6474 -14.6474 -14.6440 -14.6440 -14.5934 -14.5934
   -14.5934 -14.5934 -14.3584 -14.3584 -14.3584 -14.3584 -14.3486 -14.3486
   -14.3375 -14.3375 -14.3375 -14.3375  -3.1495  -3.1495   5.3091   5.3091
     6.9124   6.9124   6.9124   6.9124   7.1668   7.1668   9.1446   9.1446
     9.1446   9.1446   9.1788   9.1788

     occupation numbers 
     1.0000   1.0000   1.0000   1.0000   1.0000   1.0000   1.0000   1.0000
     1.0000   1.0000   1.0000   1.0000   1.0000   1.0000   1.0000   1.0000
     1.0000   1.0000   1.0000   1.0000   1.0000   1.0000   1.0000   1.0000
     0.0243   0.0243   0.0243   0.0243   0.0000   0.0000   0.0000   0.0000
     0.0000   0.0000   0.0000   0.0000

          k = 0.0884 0.0884-0.0884 (  7240 PWs)   bands (ev):

   -14.6533 -14.6533 -14.6533 -14.6533 -14.6416 -14.6416 -14.5850 -14.5850
   -14.5850 -14.5850 -14.3690 -14.3690 -14.3690 -14.3690 -14.3514 -14.3514
   -14.3284 -14.3284 -14.3284 -14.3284  -3.0460  -3.0460   4.5486   4.5486
     6.7351   6.7351   6.7351   6.7351   7.2965   7.2965   9.3787   9.3787
     9.3787   9.3787   9.6108   9.6108

     occupation numbers 
     1.0000   1.0000   1.0000   1.0000   1.0000   1.0000   1.0000   1.0000
     1.0000   1.0000   1.0000   1.0000   1.0000   1.0000   1.0000   1.0000
     1.0000   1.0000   1.0000   1.0000   1.0000   1.0000   1.0000   1.0000
     1.0000   1.0000   1.0000   1.0000   0.0000   0.0000   0.0000   0.0000
     0.0000   0.0000   0.0000   0.0000

          k = 0.1326 0.1326-0.1326 (  7237 PWs)   bands (ev):

   -14.6596 -14.6596 -14.6596 -14.6596 -14.6380 -14.6380 -14.5750 -14.5750
   -14.5750 -14.5750 -14.3789 -14.3789 -14.3789 -14.3789 -14.3556 -14.3556
   -14.3207 -14.3207 -14.3207 -14.3207  -2.8768  -2.8768   3.7192   3.7192
     6.5203   6.5203   6.5203   6.5203   7.2332   7.2332   9.6541   9.6541
     9.6541   9.6541  10.2907  10.2907

     occupation numbers 
     1.0000   1.0000   1.0000   1.0000   1.0000   1.0000   1.0000   1.0000
     1.0000   1.0000   1.0000   1.0000   1.0000   1.0000   1.0000   1.0000
     1.0000   1.0000   1.0000   1.0000   1.0000   1.0000   1.0000   1.0000
     1.0000   1.0000   1.0000   1.0000   0.0000   0.0000   0.0000   0.0000
     0.0000   0.0000   0.0000   0.0000

          k = 0.1768 0.1768-0.1768 (  7243 PWs)   bands (ev):

   -14.6651 -14.6651 -14.6651 -14.6651 -14.6337 -14.6337 -14.5656 -14.5656
   -14.5656 -14.5656 -14.3874 -14.3874 -14.3874 -14.3874 -14.3608 -14.3608
   -14.3146 -14.3146 -14.3146 -14.3146  -2.6481  -2.6481   2.9078   2.9078
     6.3137   6.3137   6.3137   6.3137   7.0935   7.0935   9.8847   9.8847
     9.8847   9.8847  11.0993  11.0993

     occupation numbers 
     1.0000   1.0000   1.0000   1.0000   1.0000   1.0000   1.0000   1.0000
     1.0000   1.0000   1.0000   1.0000   1.0000   1.0000   1.0000   1.0000
     1.0000   1.0000   1.0000   1.0000   1.0000   1.0000   1.0000   1.0000
     1.0000   1.0000   1.0000   1.0000   0.0000   0.0000   0.0000   0.0000
     0.0000   0.0000   0.0000   0.0000

          k = 0.2210 0.2210-0.2210 (  7237 PWs)   bands (ev):

   -14.6692 -14.6692 -14.6692 -14.6692 -14.6293 -14.6293 -14.5580 -14.5580
   -14.5580 -14.5580 -14.3939 -14.3939 -14.3939 -14.3939 -14.3660 -14.3660
   -14.3100 -14.3100 -14.3100 -14.3100  -2.3731  -2.3731   2.1598   2.1598
     6.1389   6.1389   6.1389   6.1389   6.9518   6.9518  10.0246  10.0246
    10.0246  10.0246  11.9637  11.9637

     occupation numbers 
     1.0000   1.0000   1.0000   1.0000   1.0000   1.0000   1.0000   1.0000
     1.0000   1.0000   1.0000   1.0000   1.0000   1.0000   1.0000   1.0000
     1.0000   1.0000   1.0000   1.0000   1.0000   1.0000   1.0000   1.0000
     1.0000   1.0000   1.0000   1.0000   0.0000   0.0000   0.0000   0.0000
     0.0000   0.0000   0.0000   0.0000

          k = 0.2652 0.2652-0.2652 (  7228 PWs)   bands (ev):

   -14.6719 -14.6719 -14.6719 -14.6719 -14.6254 -14.6254 -14.5526 -14.5526
   -14.5526 -14.5526 -14.3983 -14.3983 -14.3983 -14.3983 -14.3705 -14.3705
   -14.3069 -14.3069 -14.3069 -14.3069  -2.0798  -2.0798   1.5199   1.5199
     6.0082   6.0082   6.0082   6.0082   6.8391   6.8391  10.0818  10.0818
    10.0818  10.0818  12.6250  12.6251

     occupation numbers 
     1.0000   1.0000   1.0000   1.0000   1.0000   1.0000   1.0000   1.0000
     1.0000   1.0000   1.0000   1.0000   1.0000   1.0000   1.0000   1.0000
     1.0000   1.0000   1.0000   1.0000   1.0000   1.0000   1.0000   1.0000
     1.0000   1.0000   1.0000   1.0000   1.0000   1.0000   0.0000   0.0000
     0.0000   0.0000   0.0000   0.0000

          k = 0.3094 0.3094-0.3094 (  7234 PWs)   bands (ev):

   -14.6735 -14.6735 -14.6735 -14.6735 -14.6227 -14.6227 -14.5495 -14.5495
   -14.5495 -14.5495 -14.4007 -14.4007 -14.4007 -14.4007 -14.3736 -14.3736
   -14.3052 -14.3052 -14.3052 -14.3052  -1.8283  -1.8283   1.0574   1.0574
     5.9278   5.9278   5.9278   5.9278   6.7683   6.7683  10.0944  10.0944
    10.0944  10.0944  12.6490  12.6490

     occupation numbers 
     1.0000   1.0000   1.0000   1.0000   1.0000   1.0000   1.0000   1.0000
     1.0000   1.0000   1.0000   1.0000   1.0000   1.0000   1.0000   1.0000
     1.0000   1.0000   1.0000   1.0000   1.0000   1.0000   1.0000   1.0000
     1.0000   1.0000   1.0000   1.0000   1.0000   1.0000   0.0000   0.0000
     0.0000   0.0000   0.0000   0.0000

          k =-0.3536-0.3536 0.3536 (  7192 PWs)   bands (ev):

   -14.6739 -14.6739 -14.6739 -14.6739 -14.6218 -14.6218 -14.5485 -14.5485
   -14.5485 -14.5485 -14.4014 -14.4014 -14.4014 -14.4014 -14.3747 -14.3747
   -14.3046 -14.3046 -14.3046 -14.3046  -1.7220  -1.7220   0.8802   0.8802
     5.9007   5.9007   5.9007   5.9007   6.7443   6.7443  10.0947  10.0947
    10.0947  10.0947  12.6238  12.6238

     occupation numbers 
     1.0000   1.0000   1.0000   1.0000   1.0000   1.0000   1.0000   1.0000
     1.0000   1.0000   1.0000   1.0000   1.0000   1.0000   1.0000   1.0000
     1.0000   1.0000   1.0000   1.0000   1.0000   1.0000   1.0000   1.0000
     1.0000   1.0000   1.0000   1.0000   1.0000   1.0000   0.0000   0.0000
     0.0000   0.0000   0.0000   0.0000

          k = 0.0884 0.0000 0.0000 (  7255 PWs)   bands (ev):

   -14.6471 -14.6471 -14.6466 -14.6466 -14.6466 -14.6466 -14.5944 -14.5944
   -14.5898 -14.5898 -14.3675 -14.3675 -14.3500 -14.3500 -14.3451 -14.3451
   -14.3451 -14.3451 -14.3334 -14.3334  -3.1379  -3.1379   5.2291   5.2291
     6.7798   6.7798   6.7798   6.7798   7.4402   7.4402   8.9048   8.9048
     9.3144   9.3144   9.3144   9.3144

     occupation numbers 
     1.0000   1.0000   1.0000   1.0000   1.0000   1.0000   1.0000   1.0000
     1.0000   1.0000   1.0000   1.0000   1.0000   1.0000   1.0000   1.0000
     1.0000   1.0000   1.0000   1.0000   1.0000   1.0000   1.0000   1.0000
     1.0000   1.0000   1.0000   1.0000   0.0000   0.0000   0.0000   0.0000
     0.0000   0.0000   0.0000   0.0000

          k = 0.1326 0.0442-0.0442 (  7242 PWs)   bands (ev):

   -14.6532 -14.6532 -14.6504 -14.6504 -14.6445 -14.6445 -14.5892 -14.5892
   -14.5812 -14.5812 -14.3789 -14.3789 -14.3589 -14.3589 -14.3453 -14.3453
   -14.3366 -14.3366 -14.3264 -14.3264  -3.0571  -3.0571   4.6653   4.6653
     6.5719   6.5719   6.6032   6.6032   7.6929   7.6929   8.9035   8.9035
     9.5973   9.5973   9.6709   9.6709

     occupation numbers 
     1.0000   1.0000   1.0000   1.0000   1.0000   1.0000   1.0000   1.0000
     1.0000   1.0000   1.0000   1.0000   1.0000   1.0000   1.0000   1.0000
     1.0000   1.0000   1.0000   1.0000   1.0000   1.0000   1.0000   1.0000
     1.0000   1.0000   1.0000   1.0000   0.0000   0.0000   0.0000   0.0000
     0.0000   0.0000   0.0000   0.0000

          k = 0.1768 0.0884-0.0884 (  7236 PWs)   bands (ev):

   -14.6604 -14.6604 -14.6562 -14.6562 -14.6404 -14.6404 -14.5805 -14.5805
   -14.5707 -14.5707 -14.3896 -14.3896 -14.3691 -14.3691 -14.3493 -14.3493
   -14.3277 -14.3277 -14.3186 -14.3186  -2.9093  -2.9093   3.9119   3.9119
     6.3497   6.3497   6.3858   6.3858   7.7113   7.7113   9.1305   9.1305
     9.9030   9.9030  10.2222  10.2222

     occupation numbers 
     1.0000   1.0000   1.0000   1.0000   1.0000   1.0000   1.0000   1.0000
     1.0000   1.0000   1.0000   1.0000   1.0000   1.0000   1.0000   1.0000
     1.0000   1.0000   1.0000   1.0000   1.0000   1.0000   1.0000   1.0000
     1.0000   1.0000   1.0000   1.0000   0.0000   0.0000   0.0000   0.0000
     0.0000   0.0000   0.0000   0.0000

          k = 0.2210 0.1326-0.1326 (  7246 PWs)   bands (ev):

   -14.6670 -14.6670 -14.6620 -14.6620 -14.6351 -14.6351 -14.5712 -14.5712
   -14.5606 -14.5606 -14.3987 -14.3987 -14.3785 -14.3785 -14.3554 -14.3554
   -14.3203 -14.3203 -14.3117 -14.3117  -2.6995  -2.6995   3.1238   3.1238
     6.1453   6.1453   6.1494   6.1494   7.5965   7.5965   9.4430   9.4430
    10.1506  10.1506  10.8667  10.8667

     occupation numbers 
     1.0000   1.0000   1.0000   1.0000   1.0000   1.0000   1.0000   1.0000
     1.0000   1.0000   1.0000   1.0000   1.0000   1.0000   1.0000   1.0000
     1.0000   1.0000   1.0000   1.0000   1.0000   1.0000   1.0000   1.0000
     1.0000   1.0000   1.0000   1.0000   0.0000   0.0000   0.0000   0.0000
     0.0000   0.0000   0.0000   0.0000

          k = 0.2652 0.1768-0.1768 (  7237 PWs)   bands (ev):

   -14.6722 -14.6722 -14.6668 -14.6668 -14.6291 -14.6291 -14.5626 -14.5626
   -14.5524 -14.5524 -14.4051 -14.4051 -14.3867 -14.3867 -14.3625 -14.3625
   -14.3142 -14.3142 -14.3062 -14.3062  -2.4378  -2.4378   2.3702   2.3702
     5.9200   5.9200   5.9902   5.9902   7.4512   7.4512   9.7037   9.7037
    10.2891  10.2891  11.5452  11.5452

     occupation numbers 
     1.0000   1.0000   1.0000   1.0000   1.0000   1.0000   1.0000   1.0000
     1.0000   1.0000   1.0000   1.0000   1.0000   1.0000   1.0000   1.0000
     1.0000   1.0000   1.0000   1.0000   1.0000   1.0000   1.0000   1.0000
     1.0000   1.0000   1.0000   1.0000   0.0000   0.0000   0.0000   0.0000
     0.0000   0.0000   0.0000   0.0000

          k = 0.3094 0.2210-0.2210 (  7234 PWs)   bands (ev):

   -14.6758 -14.6758 -14.6704 -14.6704 -14.6234 -14.6234 -14.5555 -14.5555
   -14.5472 -14.5472 -14.4082 -14.4082 -14.3935 -14.3935 -14.3696 -14.3696
   -14.3096 -14.3096 -14.3024 -14.3024  -2.1457  -2.1457   1.6999   1.6999
     5.7317   5.7317   5.8818   5.8818   7.3218   7.3218   9.8631   9.8631
    10.3210  10.3210  12.2137  12.2137

     occupation numbers 
     1.0000   1.0000   1.0000   1.0000   1.0000   1.0000   1.0000   1.0000
     1.0000   1.0000   1.0000   1.0000   1.0000   1.0000   1.0000   1.0000
     1.0000   1.0000   1.0000   1.0000   1.0000   1.0000   1.0000   1.0000
     1.0000   1.0000   1.0000   1.0000   0.0000   0.0000   0.0000   0.0000
     0.0000   0.0000   0.0000   0.0000

          k = 0.3536 0.2652-0.2652 (  7233 PWs)   bands (ev):

   -14.6779 -14.6779 -14.6730 -14.6730 -14.6189 -14.6189 -14.5501 -14.5501
   -14.5451 -14.5451 -14.4081 -14.4081 -14.3990 -14.3990 -14.3756 -14.3756
   -14.3061 -14.3061 -14.3004 -14.3004  -1.8701  -1.8701   1.1739   1.1739
     5.5912   5.5912   5.8288   5.8288   7.2274   7.2274   9.9501   9.9501
    10.2878  10.2879  12.6449  12.6449

     occupation numbers 
     1.0000   1.0000   1.0000   1.0000   1.0000   1.0000   1.0000   1.0000
     1.0000   1.0000   1.0000   1.0000   1.0000   1.0000   1.0000   1.0000
     1.0000   1.0000   1.0000   1.0000   1.0000   1.0000   1.0000   1.0000
     1.0000   1.0000   1.0000   1.0000   0.0000   0.0000   0.0000   0.0000
     0.0000   0.0000   0.0000   0.0000

          k =-0.3094-0.3977 0.3977 (  7214 PWs)   bands (ev):

   -14.6784 -14.6784 -14.6746 -14.6746 -14.6164 -14.6164 -14.5464 -14.5464
   -14.5457 -14.5457 -14.4054 -14.4054 -14.4032 -14.4032 -14.3794 -14.3794
   -14.3038 -14.3038 -14.3000 -14.3000  -1.7023  -1.7023   0.8911   0.8911
     5.5045   5.5045   5.8325   5.8325   7.1766   7.1766  10.0110  10.0110
    10.2302  10.2302  12.7380  12.7380

     occupation numbers 
     1.0000   1.0000   1.0000   1.0000   1.0000   1.0000   1.0000   1.0000
     1.0000   1.0000   1.0000   1.0000   1.0000   1.0000   1.0000   1.0000
     1.0000   1.0000   1.0000   1.0000   1.0000   1.0000   1.0000   1.0000
     1.0000   1.0000   1.0000   1.0000   0.0000   0.0000   0.0000   0.0000
     0.0000   0.0000   0.0000   0.0000

          k =-0.2652-0.3536 0.3536 (  7222 PWs)   bands (ev):

   -14.6776 -14.6776 -14.6753 -14.6753 -14.6165 -14.6165 -14.5483 -14.5483
   -14.5447 -14.5447 -14.4058 -14.4058 -14.4015 -14.4015 -14.3798 -14.3798
   -14.3027 -14.3027 -14.3013 -14.3013  -1.7393  -1.7393   0.9514   0.9514
     5.4752   5.4752   5.8919   5.8919   7.1722   7.1722  10.0708  10.0708
    10.1679  10.1679  12.7509  12.7509

     occupation numbers 
     1.0000   1.0000   1.0000   1.0000   1.0000   1.0000   1.0000   1.0000
     1.0000   1.0000   1.0000   1.0000   1.0000   1.0000   1.0000   1.0000
     1.0000   1.0000   1.0000   1.0000   1.0000   1.0000   1.0000   1.0000
     1.0000   1.0000   1.0000   1.0000   0.0000   0.0000   0.0000   0.0000
     0.0000   0.0000   0.0000   0.0000

          k =-0.2210-0.3094 0.3094 (  7239 PWs)   bands (ev):

   -14.6754 -14.6754 -14.6749 -14.6749 -14.6192 -14.6192 -14.5525 -14.5525
   -14.5454 -14.5454 -14.4064 -14.4064 -14.3974 -14.3974 -14.3763 -14.3763
   -14.3043 -14.3043 -14.3030 -14.3030  -1.9561  -1.9561   1.3291   1.3291
     5.5057   5.5057   6.0039   6.0039   7.2139   7.2139  10.0971  10.0971
    10.1264  10.1264  12.6380  12.6380

     occupation numbers 
     1.0000   1.0000   1.0000   1.0000   1.0000   1.0000   1.0000   1.0000
     1.0000   1.0000   1.0000   1.0000   1.0000   1.0000   1.0000   1.0000
     1.0000   1.0000   1.0000   1.0000   1.0000   1.0000   1.0000   1.0000
     1.0000   1.0000   1.0000   1.0000   0.0000   0.0000   0.0000   0.0000
     0.0000   0.0000   0.0000   0.0000

          k =-0.1768-0.2652 0.2652 (  7233 PWs)   bands (ev):

   -14.6731 -14.6731 -14.6718 -14.6718 -14.6239 -14.6239 -14.5582 -14.5582
   -14.5490 -14.5490 -14.4042 -14.4042 -14.3931 -14.3931 -14.3696 -14.3696
   -14.3089 -14.3089 -14.3047 -14.3047  -2.2449  -2.2449   1.9120   1.9120
     5.5974   5.5974   6.1629   6.1629   7.2971   7.2971   9.9935   9.9935
    10.1438  10.1438  12.0678  12.0678

     occupation numbers 
     1.0000   1.0000   1.0000   1.0000   1.0000   1.0000   1.0000   1.0000
     1.0000   1.0000   1.0000   1.0000   1.0000   1.0000   1.0000   1.0000
     1.0000   1.0000   1.0000   1.0000   1.0000   1.0000   1.0000   1.0000
     1.0000   1.0000   1.0000   1.0000   0.0000   0.0000   0.0000   0.0000
     0.0000   0.0000   0.0000   0.0000

          k =-0.1326-0.2210 0.2210 (  7244 PWs)   bands (ev):

   -14.6699 -14.6699 -14.6669 -14.6669 -14.6297 -14.6297 -14.5653 -14.5653
   -14.5559 -14.5559 -14.3989 -14.3989 -14.3875 -14.3875 -14.3616 -14.3616
   -14.3151 -14.3151 -14.3080 -14.3080  -2.5303  -2.5303   2.6146   2.6146
     5.7508   5.7508   6.3588   6.3588   7.4098   7.4098   9.8259   9.8259
    10.0555  10.0555  11.3382  11.3382

     occupation numbers 
     1.0000   1.0000   1.0000   1.0000   1.0000   1.0000   1.0000   1.0000
     1.0000   1.0000   1.0000   1.0000   1.0000   1.0000   1.0000   1.0000
     1.0000   1.0000   1.0000   1.0000   1.0000   1.0000   1.0000   1.0000
     1.0000   1.0000   1.0000   1.0000   0.0000   0.0000   0.0000   0.0000
     0.0000   0.0000   0.0000   0.0000

          k =-0.0884-0.1768 0.1768 (  7245 PWs)   bands (ev):

   -14.6650 -14.6650 -14.6608 -14.6608 -14.6356 -14.6356 -14.5738 -14.5738
   -14.5653 -14.5653 -14.3909 -14.3909 -14.3803 -14.3803 -14.3536 -14.3536
   -14.3228 -14.3228 -14.3131 -14.3131  -2.7763  -2.7763   3.3822   3.3822
     5.9656   5.9656   6.5741   6.5741   7.5228   7.5228   9.5900   9.5900
     9.7996   9.7996  10.6840  10.6840

     occupation numbers 
     1.0000   1.0000   1.0000   1.0000   1.0000   1.0000   1.0000   1.0000
     1.0000   1.0000   1.0000   1.0000   1.0000   1.0000   1.0000   1.0000
     1.0000   1.0000   1.0000   1.0000   1.0000   1.0000   1.0000   1.0000
     1.0000   1.0000   1.0000   1.0000   0.0000   0.0000   0.0000   0.0000
     0.0000   0.0000   0.0000   0.0000

          k =-0.0442-0.1326 0.1326 (  7233 PWs)   bands (ev):

   -14.6589 -14.6589 -14.6541 -14.6541 -14.6406 -14.6406 -14.5826 -14.5826
   -14.5760 -14.5760 -14.3808 -14.3808 -14.3718 -14.3718 -14.3467 -14.3467
   -14.3319 -14.3319 -14.3198 -14.3198  -2.9661  -2.9661   4.1612   4.1612
     6.2410   6.2410   6.7764   6.7764   7.5665   7.5665   9.3360   9.3360
     9.4430   9.4430  10.1130  10.1130

     occupation numbers 
     1.0000   1.0000   1.0000   1.0000   1.0000   1.0000   1.0000   1.0000
     1.0000   1.0000   1.0000   1.0000   1.0000   1.0000   1.0000   1.0000
     1.0000   1.0000   1.0000   1.0000   1.0000   1.0000   1.0000   1.0000
     1.0000   1.0000   1.0000   1.0000   0.0000   0.0000   0.0000   0.0000
     0.0000   0.0000   0.0000   0.0000

          k = 0.0000-0.0884 0.0884 (  7257 PWs)   bands (ev):

   -14.6524 -14.6524 -14.6486 -14.6486 -14.6438 -14.6438 -14.5902 -14.5902
   -14.5862 -14.5862 -14.3697 -14.3697 -14.3628 -14.3628 -14.3425 -14.3425
   -14.3407 -14.3407 -14.3281 -14.3281  -3.0918  -3.0918   4.8640   4.8640
     6.5759   6.5759   6.9097   6.9097   7.4269   7.4269   9.1571   9.1571
     9.1957   9.1957   9.5911   9.5911

     occupation numbers 
     1.0000   1.0000   1.0000   1.0000   1.0000   1.0000   1.0000   1.0000
     1.0000   1.0000   1.0000   1.0000   1.0000   1.0000   1.0000   1.0000
     1.0000   1.0000   1.0000   1.0000   1.0000   1.0000   1.0000   1.0000
     1.0000   1.0000   0.8010   0.8010   0.0000   0.0000   0.0000   0.0000
     0.0000   0.0000   0.0000   0.0000

          k = 0.1768 0.0000 0.0000 (  7219 PWs)   bands (ev):

   -14.6517 -14.6517 -14.6517 -14.6517 -14.6502 -14.6502 -14.5871 -14.5871
   -14.5722 -14.5722 -14.3922 -14.3922 -14.3569 -14.3569 -14.3381 -14.3381
   -14.3381 -14.3381 -14.3254 -14.3254  -2.9990  -2.9990   4.4158   4.4158
     6.3496   6.3496   6.3496   6.3496   8.1612   8.1612   8.5840   8.5840
     9.9211   9.9211   9.9211   9.9211

     occupation numbers 
     1.0000   1.0000   1.0000   1.0000   1.0000   1.0000   1.0000   1.0000
     1.0000   1.0000   1.0000   1.0000   1.0000   1.0000   1.0000   1.0000
     1.0000   1.0000   1.0000   1.0000   1.0000   1.0000   1.0000   1.0000
     1.0000   1.0000   1.0000   1.0000   0.0000   0.0000   0.0000   0.0000
     0.0000   0.0000   0.0000   0.0000

          k = 0.2210 0.0442-0.0442 (  7224 PWs)   bands (ev):

   -14.6595 -14.6595 -14.6561 -14.6561 -14.6460 -14.6460 -14.5804 -14.5804
   -14.5610 -14.5610 -14.4050 -14.4050 -14.3647 -14.3647 -14.3386 -14.3386
   -14.3310 -14.3310 -14.3198 -14.3198  -2.8731  -2.8731   3.8727   3.8727
     6.1064   6.1064   6.1224   6.1224   8.3439   8.3439   8.5790   8.5790
    10.2676  10.2676  10.3493  10.3493

     occupation numbers 
     1.0000   1.0000   1.0000   1.0000   1.0000   1.0000   1.0000   1.0000
     1.0000   1.0000   1.0000   1.0000   1.0000   1.0000   1.0000   1.0000
     1.0000   1.0000   1.0000   1.0000   1.0000   1.0000   1.0000   1.0000
     1.0000   1.0000   1.0000   1.0000   0.0000   0.0000   0.0000   0.0000
     0.0000   0.0000   0.0000   0.0000

          k = 0.2652 0.0884-0.0884 (  7236 PWs)   bands (ev):

   -14.6678 -14.6678 -14.6615 -14.6615 -14.6389 -14.6389 -14.5716 -14.5716
   -14.5500 -14.5500 -14.4161 -14.4161 -14.3744 -14.3744 -14.3455 -14.3455
   -14.3230 -14.3230 -14.3113 -14.3113  -2.6831  -2.6831   3.1969   3.1969
     5.8260   5.8260   5.9231   5.9231   8.2703   8.2703   8.8727   8.8727
    10.5567  10.5567  10.7838  10.7838

     occupation numbers 
     1.0000   1.0000   1.0000   1.0000   1.0000   1.0000   1.0000   1.0000
     1.0000   1.0000   1.0000   1.0000   1.0000   1.0000   1.0000   1.0000
     1.0000   1.0000   1.0000   1.0000   1.0000   1.0000   1.0000   1.0000
     1.0000   1.0000   1.0000   1.0000   0.0000   0.0000   0.0000   0.0000
     0.0000   0.0000   0.0000   0.0000

          k = 0.3094 0.1326-0.1326 (  7236 PWs)   bands (ev):

   -14.6751 -14.6751 -14.6665 -14.6665 -14.6302 -14.6302 -14.5625 -14.5625
   -14.5409 -14.5409 -14.4241 -14.4241 -14.3840 -14.3840 -14.3552 -14.3552
   -14.3159 -14.3159 -14.3035 -14.3035  -2.4369  -2.4369   2.4952   2.4952
     5.5428   5.5428   5.7697   5.7697   8.1288   8.1288   9.2567   9.2567
    10.7259  10.7259  11.1058  11.1058

     occupation numbers 
     1.0000   1.0000   1.0000   1.0000   1.0000   1.0000   1.0000   1.0000
     1.0000   1.0000   1.0000   1.0000   1.0000   1.0000   1.0000   1.0000
     1.0000   1.0000   1.0000   1.0000   1.0000   1.0000   1.0000   1.0000
     1.0000   1.0000   1.0000   1.0000   0.0000   0.0000   0.0000   0.0000
     0.0000   0.0000   0.0000   0.0000

          k = 0.3536 0.1768-0.1768 (  7223 PWs)   bands (ev):

   -14.6810 -14.6810 -14.6707 -14.6707 -14.6210 -14.6210 -14.5540 -14.5540
   -14.5352 -14.5352 -14.4278 -14.4278 -14.3929 -14.3929 -14.3658 -14.3658
   -14.3099 -14.3099 -14.2972 -14.2972  -2.1509  -2.1509   1.8343   1.8343
     5.2917   5.2917   5.6715   5.6715   7.9859   7.9859   9.5819   9.5819
    10.7630  10.7630  11.4647  11.4647

     occupation numbers 
     1.0000   1.0000   1.0000   1.0000   1.0000   1.0000   1.0000   1.0000
     1.0000   1.0000   1.0000   1.0000   1.0000   1.0000   1.0000   1.0000
     1.0000   1.0000   1.0000   1.0000   1.0000   1.0000   1.0000   1.0000
     1.0000   1.0000   1.0000   1.0000   0.0000   0.0000   0.0000   0.0000
     0.0000   0.0000   0.0000   0.0000

          k = 0.3977 0.2210-0.2210 (  7214 PWs)   bands (ev):

   -14.6849 -14.6849 -14.6741 -14.6741 -14.6127 -14.6127 -14.5465 -14.5465
   -14.5337 -14.5337 -14.4268 -14.4268 -14.4011 -14.4011 -14.3761 -14.3761
   -14.3051 -14.3051 -14.2929 -14.2929  -1.8606  -1.8606   1.2762   1.2762
     5.0905   5.0905   5.6329   5.6329   7.8697   7.8697   9.7815   9.7815
    10.7077  10.7077  11.9826  11.9826

     occupation numbers 
     1.0000   1.0000   1.0000   1.0000   1.0000   1.0000   1.0000   1.0000
     1.0000   1.0000   1.0000   1.0000   1.0000   1.0000   1.0000   1.0000
     1.0000   1.0000   1.0000   1.0000   1.0000   1.0000   1.0000   1.0000
     1.0000   1.0000   1.0000   1.0000   0.0000   0.0000   0.0000   0.0000
     0.0000   0.0000   0.0000   0.0000

          k =-0.2652-0.4419 0.4419 (  7221 PWs)   bands (ev):

   -14.6869 -14.6869 -14.6765 -14.6765 -14.6065 -14.6065 -14.5404 -14.5404
   -14.5361 -14.5361 -14.4212 -14.4212 -14.4082 -14.4082 -14.3845 -14.3845
   -14.3016 -14.3016 -14.2910 -14.2910  -1.6423  -1.6423   0.9109   0.9109
     4.9485   4.9485   5.6549   5.6549   7.7930   7.7930   9.9009   9.9009
    10.6082  10.6082  12.5511  12.5511

     occupation numbers 
     1.0000   1.0000   1.0000   1.0000   1.0000   1.0000   1.0000   1.0000
     1.0000   1.0000   1.0000   1.0000   1.0000   1.0000   1.0000   1.0000
     1.0000   1.0000   1.0000   1.0000   1.0000   1.0000   1.0000   1.0000
     1.0000   1.0000   1.0000   1.0000   0.0000   0.0000   0.0000   0.0000
     0.0000   0.0000   0.0000   0.0000

          k =-0.2210-0.3977 0.3977 (  7216 PWs)   bands (ev):

   -14.6867 -14.6867 -14.6780 -14.6780 -14.6038 -14.6038 -14.5412 -14.5412
   -14.5362 -14.5362 -14.4137 -14.4137 -14.4121 -14.4121 -14.3901 -14.3901
   -14.2994 -14.2994 -14.2915 -14.2915  -1.6069  -1.6069   0.8557   0.8557
     4.8715   4.8715   5.7359   5.7359   7.7606   7.7606  10.0004  10.0004
    10.4928  10.4928  12.8574  12.8574

     occupation numbers 
     1.0000   1.0000   1.0000   1.0000   1.0000   1.0000   1.0000   1.0000
     1.0000   1.0000   1.0000   1.0000   1.0000   1.0000   1.0000   1.0000
     1.0000   1.0000   1.0000   1.0000   1.0000   1.0000   1.0000   1.0000
     1.0000   1.0000   1.0000   1.0000   0.0000   0.0000   0.0000   0.0000
     0.0000   0.0000   0.0000   0.0000

          k =-0.1768-0.3536 0.3536 (  7215 PWs)   bands (ev):

   -14.6845 -14.6845 -14.6784 -14.6784 -14.6054 -14.6054 -14.5477 -14.5477
   -14.5348 -14.5348 -14.4168 -14.4168 -14.4018 -14.4018 -14.3910 -14.3910
   -14.2986 -14.2986 -14.2946 -14.2946  -1.7789  -1.7789   1.1350   1.1350
     4.8651   4.8651   5.8711   5.8711   7.7713   7.7713  10.1017  10.1017
    10.3642  10.3642  12.6023  12.6023

     occupation numbers 
     1.0000   1.0000   1.0000   1.0000   1.0000   1.0000   1.0000   1.0000
     1.0000   1.0000   1.0000   1.0000   1.0000   1.0000   1.0000   1.0000
     1.0000   1.0000   1.0000   1.0000   1.0000   1.0000   1.0000   1.0000
     1.0000   1.0000   1.0000   1.0000   0.0000   0.0000   0.0000   0.0000
     0.0000   0.0000   0.0000   0.0000

          k =-0.1326-0.3094 0.3094 (  7231 PWs)   bands (ev):

   -14.6802 -14.6802 -14.6774 -14.6774 -14.6109 -14.6109 -14.5546 -14.5546
   -14.5372 -14.5372 -14.4162 -14.4162 -14.3963 -14.3963 -14.3827 -14.3827
   -14.3002 -14.3002 -14.2994 -14.2994  -2.0570  -2.0570   1.6419   1.6419
     4.9357   4.9357   6.0525   6.0525   7.8179   7.8179  10.1821  10.1821
    10.2043  10.2043  11.9497  11.9497

     occupation numbers 
     1.0000   1.0000   1.0000   1.0000   1.0000   1.0000   1.0000   1.0000
     1.0000   1.0000   1.0000   1.0000   1.0000   1.0000   1.0000   1.0000
     1.0000   1.0000   1.0000   1.0000   1.0000   1.0000   1.0000   1.0000
     1.0000   1.0000   1.0000   1.0000   0.0000   0.0000   0.0000   0.0000
     0.0000   0.0000   0.0000   0.0000

          k =-0.0884-0.2652 0.2652 (  7243 PWs)   bands (ev):

   -14.6749 -14.6749 -14.6743 -14.6743 -14.6191 -14.6191 -14.5616 -14.5616
   -14.5436 -14.5436 -14.4115 -14.4115 -14.3925 -14.3925 -14.3697 -14.3697
   -14.3081 -14.3081 -14.3019 -14.3019  -2.3495  -2.3495   2.2699   2.2699
     5.0926   5.0926   6.2662   6.2662   7.8819   7.8819   9.9896   9.9896
    10.1494  10.1494  11.3402  11.3402

     occupation numbers 
     1.0000   1.0000   1.0000   1.0000   1.0000   1.0000   1.0000   1.0000
     1.0000   1.0000   1.0000   1.0000   1.0000   1.0000   1.0000   1.0000
     1.0000   1.0000   1.0000   1.0000   1.0000   1.0000   1.0000   1.0000
     1.0000   1.0000   1.0000   1.0000   0.0000   0.0000   0.0000   0.0000
     0.0000   0.0000   0.0000   0.0000

          k =-0.0442-0.2210 0.2210 (  7238 PWs)   bands (ev):

   -14.6708 -14.6708 -14.6670 -14.6670 -14.6281 -14.6281 -14.5690 -14.5690
   -14.5533 -14.5533 -14.4033 -14.4033 -14.3870 -14.3870 -14.3570 -14.3570
   -14.3178 -14.3178 -14.3062 -14.3062  -2.6105  -2.6105   2.9457   2.9457
     5.3509   5.3509   6.4885   6.4885   7.9188   7.9188   9.7267   9.7268
     9.8895   9.8895  10.9572  10.9572

     occupation numbers 
     1.0000   1.0000   1.0000   1.0000   1.0000   1.0000   1.0000   1.0000
     1.0000   1.0000   1.0000   1.0000   1.0000   1.0000   1.0000   1.0000
     1.0000   1.0000   1.0000   1.0000   1.0000   1.0000   1.0000   1.0000
     1.0000   1.0000   1.0000   1.0000   0.0000   0.0000   0.0000   0.0000
     0.0000   0.0000   0.0000   0.0000

          k = 0.0000-0.1768 0.1768 (  7245 PWs)   bands (ev):

   -14.6652 -14.6652 -14.6594 -14.6594 -14.6360 -14.6360 -14.5765 -14.5765
   -14.5647 -14.5647 -14.3927 -14.3927 -14.3797 -14.3797 -14.3471 -14.3471
   -14.3281 -14.3281 -14.3123 -14.3123  -2.8193  -2.8193   3.6013   3.6013
     5.7313   5.7313   6.6785   6.6785   7.8379   7.8379   9.4768   9.4768
     9.5747   9.5747  10.6166  10.6166

     occupation numbers 
     1.0000   1.0000   1.0000   1.0000   1.0000   1.0000   1.0000   1.0000
     1.0000   1.0000   1.0000   1.0000   1.0000   1.0000   1.0000   1.0000
     1.0000   1.0000   1.0000   1.0000   1.0000   1.0000   1.0000   1.0000
     1.0000   1.0000   1.0000   1.0000   0.0000   0.0000   0.0000   0.0000
     0.0000   0.0000   0.0000   0.0000

          k = 0.2652 0.0000 0.0000 (  7231 PWs)   bands (ev):

   -14.6590 -14.6590 -14.6590 -14.6590 -14.6503 -14.6503 -14.5754 -14.5754
   -14.5487 -14.5487 -14.4206 -14.4206 -14.3682 -14.3682 -14.3279 -14.3279
   -14.3279 -14.3279 -14.3239 -14.3239  -2.7687  -2.7687   3.5607   3.5607
     5.8908   5.8908   5.8908   5.8908   8.2425   8.2425   8.7238   8.7238
    10.6686  10.6686  10.6686  10.6686

     occupation numbers 
     1.0000   1.0000   1.0000   1.0000   1.0000   1.0000   1.0000   1.0000
     1.0000   1.0000   1.0000   1.0000   1.0000   1.0000   1.0000   1.0000
     1.0000   1.0000   1.0000   1.0000   1.0000   1.0000   1.0000   1.0000
     1.0000   1.0000   1.0000   1.0000   0.0000   0.0000   0.0000   0.0000
     0.0000   0.0000   0.0000   0.0000

          k = 0.3094 0.0442-0.0442 (  7237 PWs)   bands (ev):

   -14.6665 -14.6665 -14.6635 -14.6635 -14.6444 -14.6444 -14.5673 -14.5673
   -14.5361 -14.5361 -14.4345 -14.4345 -14.3765 -14.3765 -14.3344 -14.3344
   -14.3213 -14.3213 -14.3147 -14.3147  -2.5991  -2.5991   3.0559   3.0559
     5.6314   5.6314   5.6879   5.6879   8.2275   8.2275   8.8258   8.8258
    10.9968  10.9968  11.0253  11.0253

     occupation numbers 
     1.0000   1.0000   1.0000   1.0000   1.0000   1.0000   1.0000   1.0000
     1.0000   1.0000   1.0000   1.0000   1.0000   1.0000   1.0000   1.0000
     1.0000   1.0000   1.0000   1.0000   1.0000   1.0000   1.0000   1.0000
     1.0000   1.0000   1.0000   1.0000   0.0000   0.0000   0.0000   0.0000
     0.0000   0.0000   0.0000   0.0000

          k = 0.3536 0.0884-0.0884 (  7224 PWs)   bands (ev):

   -14.6754 -14.6754 -14.6682 -14.6682 -14.6339 -14.6339 -14.5579 -14.5579
   -14.5253 -14.5253 -14.4453 -14.4453 -14.3863 -14.3863 -14.3463 -14.3463
   -14.3143 -14.3143 -14.3041 -14.3041  -2.3700  -2.3700   2.4642   2.4642
     5.3117   5.3117   5.5320   5.5320   8.3213   8.3213   8.9710   8.9710
    11.0664  11.0664  11.2607  11.2607

     occupation numbers 
     1.0000   1.0000   1.0000   1.0000   1.0000   1.0000   1.0000   1.0000
     1.0000   1.0000   1.0000   1.0000   1.0000   1.0000   1.0000   1.0000
     1.0000   1.0000   1.0000   1.0000   1.0000   1.0000   1.0000   1.0000
     1.0000   1.0000   1.0000   1.0000   0.0000   0.0000   0.0000   0.0000
     0.0000   0.0000   0.0000   0.0000

          k = 0.3977 0.1326-0.1326 (  7227 PWs)   bands (ev):

   -14.6834 -14.6834 -14.6725 -14.6725 -14.6217 -14.6217 -14.5484 -14.5484
   -14.5179 -14.5179 -14.4517 -14.4517 -14.3965 -14.3965 -14.3600 -14.3600
   -14.3080 -14.3080 -14.2949 -14.2949  -2.0937  -2.0937   1.8623   1.8623
     4.9932   4.9932   5.4334   5.4334   8.2915   8.2915   9.3543   9.3543
    11.0725  11.0725  11.3389  11.3389

     occupation numbers 
     1.0000   1.0000   1.0000   1.0000   1.0000   1.0000   1.0000   1.0000
     1.0000   1.0000   1.0000   1.0000   1.0000   1.0000   1.0000   1.0000
     1.0000   1.0000   1.0000   1.0000   1.0000   1.0000   1.0000   1.0000
     1.0000   1.0000   1.0000   1.0000   0.0000   0.0000   0.0000   0.0000
     0.0000   0.0000   0.0000   0.0000

          k = 0.4419 0.1768-0.1768 (  7220 PWs)   bands (ev):

   -14.6897 -14.6897 -14.6761 -14.6761 -14.6095 -14.6095 -14.5394 -14.5394
   -14.5157 -14.5157 -14.4522 -14.4522 -14.4065 -14.4065 -14.3737 -14.3737
   -14.3027 -14.3027 -14.2878 -14.2878  -1.7968  -1.7968   1.3142   1.3142
     4.7193   4.7193   5.3969   5.3969   8.2142   8.2142   9.7716   9.7716
    11.2502  11.2502  11.2894  11.2894

     occupation numbers 
     1.0000   1.0000   1.0000   1.0000   1.0000   1.0000   1.0000   1.0000
     1.0000   1.0000   1.0000   1.0000   1.0000   1.0000   1.0000   1.0000
     1.0000   1.0000   1.0000   1.0000   1.0000   1.0000   1.0000   1.0000
     1.0000   1.0000   1.0000   1.0000   0.0000   0.0000   0.0000   0.0000
     0.0000   0.0000   0.0000   0.0000

          k =-0.2210-0.4861 0.4861 (  7219 PWs)   bands (ev):

   -14.6937 -14.6937 -14.6790 -14.6790 -14.5992 -14.5992 -14.5314 -14.5314
   -14.5188 -14.5188 -14.4467 -14.4467 -14.4158 -14.4158 -14.3857 -14.3857
   -14.2986 -14.2986 -14.2834 -14.2834  -1.5399  -1.5399   0.9017   0.9017
     4.5109   4.5109   5.4239   5.4239   8.1560   8.1560  10.0294  10.0294
    11.1675  11.1675  11.7297  11.7297

     occupation numbers 
     1.0000   1.0000   1.0000   1.0000   1.0000   1.0000   1.0000   1.0000
     1.0000   1.0000   1.0000   1.0000   1.0000   1.0000   1.0000   1.0000
     1.0000   1.0000   1.0000   1.0000   1.0000   1.0000   1.0000   1.0000
     1.0000   1.0000   1.0000   1.0000   0.0000   0.0000   0.0000   0.0000
     0.0000   0.0000   0.0000   0.0000

          k =-0.1768-0.4419 0.4419 (  7212 PWs)   bands (ev):

   -14.6952 -14.6952 -14.6809 -14.6809 -14.5926 -14.5926 -14.5264 -14.5264
   -14.5251 -14.5251 -14.4361 -14.4361 -14.4236 -14.4236 -14.3941 -14.3941
   -14.2958 -14.2958 -14.2820 -14.2820  -1.4348  -1.4348   0.7469   0.7469
     4.3794   4.3794   5.5127   5.5127   8.1342   8.1342  10.1639  10.1639
    11.0107  11.0107  12.3665  12.3665

     occupation numbers 
     1.0000   1.0000   1.0000   1.0000   1.0000   1.0000   1.0000   1.0000
     1.0000   1.0000   1.0000   1.0000   1.0000   1.0000   1.0000   1.0000
     1.0000   1.0000   1.0000   1.0000   1.0000   1.0000   1.0000   1.0000
     1.0000   1.0000   1.0000   1.0000   0.0000   0.0000   0.0000   0.0000
     0.0000   0.0000   0.0000   0.0000

          k =-0.1326-0.3977 0.3977 (  7214 PWs)   bands (ev):

   -14.6939 -14.6939 -14.6817 -14.6817 -14.5912 -14.5912 -14.5365 -14.5365
   -14.5220 -14.5220 -14.4285 -14.4285 -14.4214 -14.4214 -14.3986 -14.3986
   -14.2945 -14.2945 -14.2839 -14.2839  -1.5542  -1.5542   0.9242   0.9242
     4.3347   4.3347   5.6581   5.6581   8.1482   8.1482  10.2725  10.2725
    10.8273  10.8273  12.4753  12.4754

     occupation numbers 
     1.0000   1.0000   1.0000   1.0000   1.0000   1.0000   1.0000   1.0000
     1.0000   1.0000   1.0000   1.0000   1.0000   1.0000   1.0000   1.0000
     1.0000   1.0000   1.0000   1.0000   1.0000   1.0000   1.0000   1.0000
     1.0000   1.0000   1.0000   1.0000   0.0000   0.0000   0.0000   0.0000
     0.0000   0.0000   0.0000   0.0000

          k =-0.0884-0.3536 0.3536 (  7211 PWs)   bands (ev):

   -14.6899 -14.6899 -14.6812 -14.6812 -14.5955 -14.5955 -14.5469 -14.5469
   -14.5237 -14.5237 -14.4288 -14.4288 -14.4041 -14.4041 -14.3995 -14.3995
   -14.2949 -14.2949 -14.2891 -14.2891  -1.8161  -1.8161   1.3433   1.3433
     4.3891   4.3891   5.8509   5.8509   8.1843   8.1843  10.3819  10.3819
    10.6021  10.6021  11.8060  11.8060

     occupation numbers 
     1.0000   1.0000   1.0000   1.0000   1.0000   1.0000   1.0000   1.0000
     1.0000   1.0000   1.0000   1.0000   1.0000   1.0000   1.0000   1.0000
     1.0000   1.0000   1.0000   1.0000   1.0000   1.0000   1.0000   1.0000
     1.0000   1.0000   1.0000   1.0000   0.0000   0.0000   0.0000   0.0000
     0.0000   0.0000   0.0000   0.0000

          k =-0.0442-0.3094 0.3094 (  7217 PWs)   bands (ev):

   -14.6836 -14.6836 -14.6792 -14.6792 -14.6049 -14.6049 -14.5556 -14.5556
   -14.5304 -14.5304 -14.4238 -14.4238 -14.3975 -14.3975 -14.3861 -14.3861
   -14.2972 -14.2972 -14.2969 -14.2969  -2.1120  -2.1120   1.8755   1.8755
     4.5611   4.5611   6.0747   6.0747   8.2091   8.2091  10.3193  10.3193
    10.4131  10.4131  11.1925  11.1925

     occupation numbers 
     1.0000   1.0000   1.0000   1.0000   1.0000   1.0000   1.0000   1.0000
     1.0000   1.0000   1.0000   1.0000   1.0000   1.0000   1.0000   1.0000
     1.0000   1.0000   1.0000   1.0000   1.0000   1.0000   1.0000   1.0000
     1.0000   1.0000   1.0000   1.0000   0.0000   0.0000   0.0000   0.0000
     0.0000   0.0000   0.0000   0.0000

          k = 0.0000-0.2652 0.2652 (  7225 PWs)   bands (ev):

   -14.6757 -14.6757 -14.6755 -14.6755 -14.6169 -14.6169 -14.5628 -14.5628
   -14.5410 -14.5410 -14.4148 -14.4148 -14.3931 -14.3931 -14.3695 -14.3695
   -14.3075 -14.3075 -14.3007 -14.3007  -2.3852  -2.3852   2.4309   2.4309
     4.8754   4.8754   6.3022   6.3022   8.1522   8.1522  10.0021  10.0021
    10.1566  10.1566  11.0027  11.0027

     occupation numbers 
     1.0000   1.0000   1.0000   1.0000   1.0000   1.0000   1.0000   1.0000
     1.0000   1.0000   1.0000   1.0000   1.0000   1.0000   1.0000   1.0000
     1.0000   1.0000   1.0000   1.0000   1.0000   1.0000   1.0000   1.0000
     1.0000   1.0000   1.0000   1.0000   0.0000   0.0000   0.0000   0.0000
     0.0000   0.0000   0.0000   0.0000

          k = 0.3536 0.0000 0.0000 (  7187 PWs)   bands (ev):

   -14.6671 -14.6671 -14.6671 -14.6671 -14.6456 -14.6456 -14.5596 -14.5596
   -14.5215 -14.5215 -14.4516 -14.4516 -14.3834 -14.3834 -14.3289 -14.3289
   -14.3164 -14.3164 -14.3164 -14.3164  -2.4492  -2.4492   2.7117   2.7117
     5.4784   5.4784   5.4784   5.4784   7.9571   7.9571   8.8916   8.8916
    11.4751  11.4751  11.4751  11.4751

     occupation numbers 
     1.0000   1.0000   1.0000   1.0000   1.0000   1.0000   1.0000   1.0000
     1.0000   1.0000   1.0000   1.0000   1.0000   1.0000   1.0000   1.0000
     1.0000   1.0000   1.0000   1.0000   1.0000   1.0000   1.0000   1.0000
     1.0000   1.0000   1.0000   1.0000   0.0000   0.0000   0.0000   0.0000
     0.0000   0.0000   0.0000   0.0000

          k = 0.3977 0.0442-0.0442 (  7226 PWs)   bands (ev):

   -14.6739 -14.6739 -14.6713 -14.6713 -14.6375 -14.6375 -14.5501 -14.5501
   -14.5083 -14.5083 -14.4659 -14.4659 -14.3928 -14.3928 -14.3391 -14.3391
   -14.3104 -14.3104 -14.3066 -14.3066  -2.2378  -2.2378   2.2453   2.2453
     5.2275   5.2275   5.3150   5.3150   7.9811   7.9811   8.8571   8.8571
    11.6147  11.6147  11.8167  11.8167

     occupation numbers 
     1.0000   1.0000   1.0000   1.0000   1.0000   1.0000   1.0000   1.0000
     1.0000   1.0000   1.0000   1.0000   1.0000   1.0000   1.0000   1.0000
     1.0000   1.0000   1.0000   1.0000   1.0000   1.0000   1.0000   1.0000
     1.0000   1.0000   1.0000   1.0000   0.0000   0.0000   0.0000   0.0000
     0.0000   0.0000   0.0000   0.0000

          k = 0.4419 0.0884-0.0884 (  7204 PWs)   bands (ev):

   -14.6827 -14.6827 -14.6752 -14.6752 -14.6242 -14.6242 -14.5400 -14.5400
   -14.4983 -14.4983 -14.4757 -14.4757 -14.4034 -14.4034 -14.3542 -14.3542
   -14.3045 -14.3045 -14.2958 -14.2958  -1.9738  -1.9738   1.7324   1.7324
     4.8904   4.8904   5.2090   5.2090   8.1273   8.1273   8.9910   8.9910
    11.4841  11.4841  11.9809  11.9809

     occupation numbers 
     1.0000   1.0000   1.0000   1.0000   1.0000   1.0000   1.0000   1.0000
     1.0000   1.0000   1.0000   1.0000   1.0000   1.0000   1.0000   1.0000
     1.0000   1.0000   1.0000   1.0000   1.0000   1.0000   1.0000   1.0000
     1.0000   1.0000   1.0000   1.0000   0.0000   0.0000   0.0000   0.0000
     0.0000   0.0000   0.0000   0.0000

          k = 0.4861 0.1326-0.1326 (  7211 PWs)   bands (ev):

   -14.6908 -14.6908 -14.6787 -14.6787 -14.6091 -14.6091 -14.5299 -14.5299
   -14.4947 -14.4947 -14.4784 -14.4784 -14.4144 -14.4144 -14.3707 -14.3707
   -14.2994 -14.2994 -14.2864 -14.2864  -1.6768  -1.6768   1.2320   1.2320
     4.5519   4.5519   5.1662   5.1662   8.1698   8.1698   9.4511   9.4511
    11.3583  11.3583  11.9713  11.9713

     occupation numbers 
     1.0000   1.0000   1.0000   1.0000   1.0000   1.0000   1.0000   1.0000
     1.0000   1.0000   1.0000   1.0000   1.0000   1.0000   1.0000   1.0000
     1.0000   1.0000   1.0000   1.0000   1.0000   1.0000   1.0000   1.0000
     1.0000   1.0000   1.0000   1.0000   0.0000   0.0000   0.0000   0.0000
     0.0000   0.0000   0.0000   0.0000

          k =-0.1768-0.5303 0.5303 (  7203 PWs)   bands (ev):

   -14.6970 -14.6970 -14.6814 -14.6814 -14.5954 -14.5954 -14.5204 -14.5204
   -14.4971 -14.4971 -14.4744 -14.4744 -14.4251 -14.4251 -14.3856 -14.3856
   -14.2954 -14.2954 -14.2795 -14.2795  -1.3928  -1.3928   0.8122   0.8122
     4.2691   4.2691   5.1887   5.1887   8.1661   8.1661  10.0714  10.0714
    11.3408  11.3408  11.8469  11.8469

     occupation numbers 
     1.0000   1.0000   1.0000   1.0000   1.0000   1.0000   1.0000   1.0000
     1.0000   1.0000   1.0000   1.0000   1.0000   1.0000   1.0000   1.0000
     1.0000   1.0000   1.0000   1.0000   1.0000   1.0000   1.0000   1.0000
     1.0000   1.0000   1.0000   1.0000   0.0000   0.0000   0.0000   0.0000
[...]

   -14.6976 -14.6976 -14.6871 -14.6871 -14.5830 -14.5830 -14.5208 -14.5208
   -14.4923 -14.4923 -14.4760 -14.4760 -14.4278 -14.4278 -14.3984 -14.3984
   -14.2891 -14.2891 -14.2788 -14.2788  -1.3177  -1.3177   0.7484   0.7484
     4.1555   4.1555   5.0133   5.0133   8.8236   8.8236   9.9094   9.9094
    10.8405  10.8405  12.3817  12.3817

     occupation numbers 
     1.0000   1.0000   1.0000   1.0000   1.0000   1.0000   1.0000   1.0000
     1.0000   1.0000   1.0000   1.0000   1.0000   1.0000   1.0000   1.0000
     1.0000   1.0000   1.0000   1.0000   1.0000   1.0000   1.0000   1.0000
     1.0000   1.0000   1.0000   1.0000   0.0000   0.0000   0.0000   0.0000
     0.0000   0.0000   0.0000   0.0000

          k =-0.1326-0.3977 0.5745 (  7218 PWs)   bands (ev):

   -14.7008 -14.7008 -14.6881 -14.6881 -14.5749 -14.5749 -14.5146 -14.5146
   -14.4941 -14.4941 -14.4717 -14.4717 -14.4373 -14.4373 -14.4059 -14.4059
   -14.2877 -14.2877 -14.2752 -14.2752  -1.1360  -1.1360   0.5148   0.5148
     4.0348   4.0348   4.9961   4.9961   8.8433   8.8433  10.0845  10.0845
    11.3621  11.3621  12.0478  12.0478

     occupation numbers 
     1.0000   1.0000   1.0000   1.0000   1.0000   1.0000   1.0000   1.0000
     1.0000   1.0000   1.0000   1.0000   1.0000   1.0000   1.0000   1.0000
     1.0000   1.0000   1.0000   1.0000   1.0000   1.0000   1.0000   1.0000
     1.0000   1.0000   1.0000   1.0000   0.0000   0.0000   0.0000   0.0000
     0.0000   0.0000   0.0000   0.0000

          k =-0.0884-0.3536 0.5303 (  7222 PWs)   bands (ev):

   -14.7007 -14.7007 -14.6882 -14.6882 -14.5743 -14.5743 -14.5176 -14.5176
   -14.4955 -14.4955 -14.4676 -14.4676 -14.4367 -14.4367 -14.4070 -14.4070
   -14.2876 -14.2876 -14.2755 -14.2755  -1.1906  -1.1906   0.5841   0.5841
     4.0017   4.0017   5.0652   5.0652   8.8886   8.8886  10.0761  10.0761
    11.4260  11.4260  12.0089  12.0089

     occupation numbers 
     1.0000   1.0000   1.0000   1.0000   1.0000   1.0000   1.0000   1.0000
     1.0000   1.0000   1.0000   1.0000   1.0000   1.0000   1.0000   1.0000
     1.0000   1.0000   1.0000   1.0000   1.0000   1.0000   1.0000   1.0000
     1.0000   1.0000   1.0000   1.0000   0.0000   0.0000   0.0000   0.0000
     0.0000   0.0000   0.0000   0.0000

          k =-0.0442-0.3094 0.4861 (  7219 PWs)   bands (ev):

   -14.6974 -14.6974 -14.6872 -14.6872 -14.5813 -14.5813 -14.5281 -14.5281
   -14.4979 -14.4979 -14.4652 -14.4652 -14.4235 -14.4235 -14.4026 -14.4026
   -14.2888 -14.2888 -14.2796 -14.2796  -1.4343  -1.4343   0.9035   0.9035
     4.0729   4.0729   5.2078   5.2078   8.9406   8.9406   9.9605   9.9605
    10.8476  10.8476  12.2357  12.2357

     occupation numbers 
     1.0000   1.0000   1.0000   1.0000   1.0000   1.0000   1.0000   1.0000
     1.0000   1.0000   1.0000   1.0000   1.0000   1.0000   1.0000   1.0000
     1.0000   1.0000   1.0000   1.0000   1.0000   1.0000   1.0000   1.0000
     1.0000   1.0000   1.0000   1.0000   0.0000   0.0000   0.0000   0.0000
     0.0000   0.0000   0.0000   0.0000

          k = 0.0000-0.2652 0.4419 (  7224 PWs)   bands (ev):

   -14.6913 -14.6913 -14.6848 -14.6848 -14.5941 -14.5941 -14.5389 -14.5389
   -14.5054 -14.5054 -14.4591 -14.4591 -14.4087 -14.4087 -14.3920 -14.3920
   -14.2915 -14.2915 -14.2871 -14.2871  -1.7325  -1.7325   1.3228   1.3228
     4.2678   4.2678   5.3982   5.3982   8.9403   8.9403   9.6061   9.6061
    10.6710  10.6711  12.0093  12.0093

     occupation numbers 
     1.0000   1.0000   1.0000   1.0000   1.0000   1.0000   1.0000   1.0000
     1.0000   1.0000   1.0000   1.0000   1.0000   1.0000   1.0000   1.0000
     1.0000   1.0000   1.0000   1.0000   1.0000   1.0000   1.0000   1.0000
     1.0000   1.0000   1.0000   1.0000   0.0000   0.0000   0.0000   0.0000
     0.0000   0.0000   0.0000   0.0000

          k =-0.1768-0.5303 0.7071 (  7209 PWs)   bands (ev):

   -14.6895 -14.6895 -14.6877 -14.6877 -14.5977 -14.5977 -14.5193 -14.5193
   -14.5001 -14.5001 -14.4742 -14.4742 -14.4251 -14.4251 -14.3815 -14.3815
   -14.2887 -14.2887 -14.2875 -14.2875  -1.4410  -1.4410   0.9412   0.9412
     4.4384   4.4384   4.8691   4.8691   8.5846   8.5846   8.9403   8.9403
    11.3595  11.3595  12.9704  12.9704

     occupation numbers 
     1.0000   1.0000   1.0000   1.0000   1.0000   1.0000   1.0000   1.0000
     1.0000   1.0000   1.0000   1.0000   1.0000   1.0000   1.0000   1.0000
     1.0000   1.0000   1.0000   1.0000   1.0000   1.0000   1.0000   1.0000
     1.0000   1.0000   1.0000   1.0000   0.0000   0.0000   0.0000   0.0000
     0.0000   0.0000   0.0000   0.0000

          k =-0.1326-0.4861 0.6629 (  7205 PWs)   bands (ev):

   -14.6962 -14.6962 -14.6900 -14.6900 -14.5804 -14.5804 -14.5091 -14.5091
   -14.5049 -14.5049 -14.4681 -14.4681 -14.4374 -14.4374 -14.3988 -14.3988
   -14.2858 -14.2858 -14.2797 -14.2797  -1.1370  -1.1370   0.5571   0.5571
     4.2086   4.2086   4.7475   4.7475   8.7508   8.7508   9.4151   9.4151
    11.1846  11.1846  12.9236  12.9236

     occupation numbers 
     1.0000   1.0000   1.0000   1.0000   1.0000   1.0000   1.0000   1.0000
     1.0000   1.0000   1.0000   1.0000   1.0000   1.0000   1.0000   1.0000
     1.0000   1.0000   1.0000   1.0000   1.0000   1.0000   1.0000   1.0000
     1.0000   1.0000   1.0000   1.0000   0.0000   0.0000   0.0000   0.0000
     0.0000   0.0000   0.0000   0.0000

          k =-0.0884-0.4419 0.6187 (  7214 PWs)   bands (ev):

   -14.7013 -14.7013 -14.6910 -14.6910 -14.5677 -14.5677 -14.5047 -14.5047
   -14.4972 -14.4972 -14.4701 -14.4701 -14.4486 -14.4486 -14.4106 -14.4106
   -14.2844 -14.2844 -14.2742 -14.2742  -0.8990  -0.8990   0.2815   0.2815
     4.0107   4.0107   4.7380   4.7380   8.8060   8.8060  10.1422  10.1422
    11.0811  11.0811  12.3439  12.3439

     occupation numbers 
     1.0000   1.0000   1.0000   1.0000   1.0000   1.0000   1.0000   1.0000
     1.0000   1.0000   1.0000   1.0000   1.0000   1.0000   1.0000   1.0000
     1.0000   1.0000   1.0000   1.0000   1.0000   1.0000   1.0000   1.0000
     1.0000   1.0000   1.0000   1.0000   0.0000   0.0000   0.0000   0.0000
     0.0000   0.0000   0.0000   0.0000

          k =-0.0442-0.3977 0.5745 (  7217 PWs)   bands (ev):

   -14.7032 -14.7032 -14.6910 -14.6910 -14.5645 -14.5645 -14.5012 -14.5012
   -14.4887 -14.4887 -14.4781 -14.4781 -14.4530 -14.4530 -14.4135 -14.4135
   -14.2843 -14.2843 -14.2724 -14.2724  -0.9011  -0.9011   0.2863   0.2863
     3.8980   3.8980   4.8270   4.8270   8.8831   8.8831  10.6105  10.6105
    11.2974  11.2974  11.6146  11.6146

     occupation numbers 
     1.0000   1.0000   1.0000   1.0000   1.0000   1.0000   1.0000   1.0000
     1.0000   1.0000   1.0000   1.0000   1.0000   1.0000   1.0000   1.0000
     1.0000   1.0000   1.0000   1.0000   1.0000   1.0000   1.0000   1.0000
     1.0000   1.0000   1.0000   1.0000   0.0000   0.0000   0.0000   0.0000
     0.0000   0.0000   0.0000   0.0000

          k = 0.0000-0.3536 0.5303 (  7218 PWs)   bands (ev):

   -14.7018 -14.7018 -14.6898 -14.6898 -14.5697 -14.5697 -14.5133 -14.5133
   -14.4858 -14.4858 -14.4776 -14.4776 -14.4424 -14.4424 -14.4101 -14.4101
   -14.2856 -14.2856 -14.2743 -14.2743  -1.1366  -1.1366   0.5555   0.5555
     3.9104   3.9104   4.9926   4.9926   8.9615   8.9615  10.4686  10.4686
    10.9204  10.9204  12.1000  12.1000

     occupation numbers 
     1.0000   1.0000   1.0000   1.0000   1.0000   1.0000   1.0000   1.0000
     1.0000   1.0000   1.0000   1.0000   1.0000   1.0000   1.0000   1.0000
     1.0000   1.0000   1.0000   1.0000   1.0000   1.0000   1.0000   1.0000
     1.0000   1.0000   1.0000   1.0000   0.0000   0.0000   0.0000   0.0000
     0.0000   0.0000   0.0000   0.0000

          k =-0.0884-0.5303 0.7071 (  7204 PWs)   bands (ev):

   -14.6929 -14.6929 -14.6917 -14.6917 -14.5785 -14.5785 -14.5288 -14.5288
   -14.4963 -14.4963 -14.4480 -14.4480 -14.4475 -14.4475 -14.3998 -14.3998
   -14.2836 -14.2836 -14.2825 -14.2825  -0.9145  -0.9145   0.2896   0.2896
     4.3649   4.3649   4.5790   4.5790   8.5530   8.5530   8.7613   8.7613
    12.0331  12.0331  13.2591  13.2591

     occupation numbers 
     1.0000   1.0000   1.0000   1.0000   1.0000   1.0000   1.0000   1.0000
     1.0000   1.0000   1.0000   1.0000   1.0000   1.0000   1.0000   1.0000
     1.0000   1.0000   1.0000   1.0000   1.0000   1.0000   1.0000   1.0000
     1.0000   1.0000   1.0000   1.0000   0.0000   0.0000   0.0000   0.0000
     0.0000   0.0000   0.0000   0.0000

          k =-0.0442-0.4861 0.6629 (  7211 PWs)   bands (ev):

   -14.6986 -14.6986 -14.6928 -14.6928 -14.5618 -14.5618 -14.5296 -14.5296
   -14.4857 -14.4857 -14.4606 -14.4606 -14.4456 -14.4456 -14.4157 -14.4157
   -14.2822 -14.2822 -14.2765 -14.2765  -0.6307  -0.6307  -0.0105  -0.0105
     4.1548   4.1548   4.5376   4.5376   8.6983   8.6983   9.3627   9.3627
    11.8504  11.8504  12.5609  12.5609

     occupation numbers 
     1.0000   1.0000   1.0000   1.0000   1.0000   1.0000   1.0000   1.0000
     1.0000   1.0000   1.0000   1.0000   1.0000   1.0000   1.0000   1.0000
     1.0000   1.0000   1.0000   1.0000   1.0000   1.0000   1.0000   1.0000
     1.0000   1.0000   1.0000   1.0000   0.0000   0.0000   0.0000   0.0000
     0.0000   0.0000   0.0000   0.0000

          k = 0.0000-0.4419 0.6187 (  7217 PWs)   bands (ev):

   -14.7025 -14.7025 -14.6925 -14.6925 -14.5588 -14.5588 -14.5135 -14.5135
   -14.4848 -14.4848 -14.4648 -14.4648 -14.4590 -14.4590 -14.4181 -14.4181
   -14.2826 -14.2826 -14.2727 -14.2727  -0.6329  -0.6329   0.0009   0.0009
     3.9618   3.9618   4.6423   4.6423   8.7857   8.7857  10.1806  10.1806
    11.6920  11.6920  11.7033  11.7033

     occupation numbers 
     1.0000   1.0000   1.0000   1.0000   1.0000   1.0000   1.0000   1.0000
     1.0000   1.0000   1.0000   1.0000   1.0000   1.0000   1.0000   1.0000
     1.0000   1.0000   1.0000   1.0000   1.0000   1.0000   1.0000   1.0000
     1.0000   1.0000   1.0000   1.0000   0.0000   0.0000   0.0000   0.0000
     0.0000   0.0000   0.0000   0.0000

          k =-0.7071 0.1768 0.0000 (  7202 PWs)   bands (ev):

   -14.6937 -14.6937 -14.6937 -14.6937 -14.5553 -14.5553 -14.5553 -14.5553
   -14.4721 -14.4721 -14.4721 -14.4721 -14.4223 -14.4223 -14.4222 -14.4222
   -14.2812 -14.2812 -14.2812 -14.2812  -0.3334  -0.3334  -0.3334  -0.3334
     4.4106   4.4106   4.4106   4.4106   8.6163   8.6163   8.6163   8.6163
    12.7554  12.7554  12.7554  12.7554

     occupation numbers 
     1.0000   1.0000   1.0000   1.0000   1.0000   1.0000   1.0000   1.0000
     1.0000   1.0000   1.0000   1.0000   1.0000   1.0000   1.0000   1.0000
     1.0000   1.0000   1.0000   1.0000   1.0000   1.0000   1.0000   1.0000
     1.0000   1.0000   1.0000   1.0000   0.0000   0.0000   0.0000   0.0000
     0.0000   0.0000   0.0000   0.0000

          k =-0.1768-0.4419 0.7071 (  7218 PWs)   bands (ev):

   -14.6964 -14.6964 -14.6901 -14.6901 -14.5797 -14.5797 -14.5196 -14.5196
   -14.4865 -14.4865 -14.4824 -14.4824 -14.4290 -14.4290 -14.4012 -14.4012
   -14.2858 -14.2858 -14.2802 -14.2802  -1.3073  -1.3073   0.7684   0.7684
     4.1297   4.1297   4.9053   4.9053   9.3396   9.3396   9.4696   9.4696
    10.6246  10.6246  12.6998  12.6998

     occupation numbers 
     1.0000   1.0000   1.0000   1.0000   1.0000   1.0000   1.0000   1.0000
     1.0000   1.0000   1.0000   1.0000   1.0000   1.0000   1.0000   1.0000
     1.0000   1.0000   1.0000   1.0000   1.0000   1.0000   1.0000   1.0000
     1.0000   1.0000   1.0000   1.0000   0.0000   0.0000   0.0000   0.0000
     0.0000   0.0000   0.0000   0.0000

          k =-0.1326-0.3977 0.6629 (  7217 PWs)   bands (ev):

   -14.7007 -14.7007 -14.6922 -14.6922 -14.5661 -14.5661 -14.5091 -14.5091
   -14.4915 -14.4915 -14.4761 -14.4761 -14.4432 -14.4432 -14.4128 -14.4128
   -14.2833 -14.2833 -14.2751 -14.2751  -1.0237  -1.0237   0.4293   0.4293
     4.0023   4.0023   4.7499   4.7499   9.3649   9.3649   9.9626   9.9626
    10.7361  10.7361  12.2300  12.2300

     occupation numbers 
     1.0000   1.0000   1.0000   1.0000   1.0000   1.0000   1.0000   1.0000
     1.0000   1.0000   1.0000   1.0000   1.0000   1.0000   1.0000   1.0000
     1.0000   1.0000   1.0000   1.0000   1.0000   1.0000   1.0000   1.0000
     1.0000   1.0000   1.0000   1.0000   0.0000   0.0000   0.0000   0.0000
     0.0000   0.0000   0.0000   0.0000

          k =-0.0884-0.3536 0.6187 (  7222 PWs)   bands (ev):

   -14.7023 -14.7023 -14.6928 -14.6928 -14.5607 -14.5607 -14.5052 -14.5052
   -14.4894 -14.4894 -14.4769 -14.4769 -14.4498 -14.4498 -14.4169 -14.4169
   -14.2826 -14.2826 -14.2733 -14.2733  -0.8857  -0.8857   0.2718   0.2718
     3.9619   3.9619   4.6930   4.6930   9.3645   9.3646  10.0866  10.0866
    11.2591  11.2591  11.5497  11.5497

     occupation numbers 
     1.0000   1.0000   1.0000   1.0000   1.0000   1.0000   1.0000   1.0000
     1.0000   1.0000   1.0000   1.0000   1.0000   1.0000   1.0000   1.0000
     1.0000   1.0000   1.0000   1.0000   1.0000   1.0000   1.0000   1.0000
     1.0000   1.0000   1.0000   1.0000   0.0000   0.0000   0.0000   0.0000
     0.0000   0.0000   0.0000   0.0000

          k =-0.0884-0.4419 0.7071 (  7218 PWs)   bands (ev):

   -14.6987 -14.6987 -14.6949 -14.6949 -14.5612 -14.5612 -14.5135 -14.5135
   -14.4977 -14.4977 -14.4587 -14.4587 -14.4514 -14.4514 -14.4163 -14.4163
   -14.2804 -14.2804 -14.2768 -14.2768  -0.8310  -0.8310   0.2194   0.2194
     4.1199   4.1199   4.5115   4.5115   9.4110   9.4110   9.4541   9.4541
    11.0052  11.0052  12.3984  12.3984

     occupation numbers 
     1.0000   1.0000   1.0000   1.0000   1.0000   1.0000   1.0000   1.0000
     1.0000   1.0000   1.0000   1.0000   1.0000   1.0000   1.0000   1.0000
     1.0000   1.0000   1.0000   1.0000   1.0000   1.0000   1.0000   1.0000
     1.0000   1.0000   1.0000   1.0000   0.0000   0.0000   0.0000   0.0000
     0.0000   0.0000   0.0000   0.0000

          k =-0.0442-0.3977 0.6629 (  7213 PWs)   bands (ev):

   -14.7014 -14.7014 -14.6962 -14.6962 -14.5488 -14.5488 -14.5151 -14.5151
   -14.4886 -14.4886 -14.4645 -14.4645 -14.4552 -14.4552 -14.4267 -14.4267
   -14.2790 -14.2790 -14.2738 -14.2738  -0.6111  -0.6111  -0.0099  -0.0099
     4.0384   4.0384   4.4312   4.4312   9.4913   9.4913  10.1626  10.1626
    10.9246  10.9246  11.5405  11.5405

     occupation numbers 
     1.0000   1.0000   1.0000   1.0000   1.0000   1.0000   1.0000   1.0000
     1.0000   1.0000   1.0000   1.0000   1.0000   1.0000   1.0000   1.0000
     1.0000   1.0000   1.0000   1.0000   1.0000   1.0000   1.0000   1.0000
     1.0000   1.0000   1.0000   1.0000   0.0000   0.0000   0.0000   0.0000
     0.0000   0.0000   0.0000   0.0000

          k =-0.0000-0.3536 0.6187 (  7212 PWs)   bands (ev):

   -14.7022 -14.7022 -14.6952 -14.6952 -14.5526 -14.5526 -14.5049 -14.5049
   -14.4950 -14.4950 -14.4639 -14.4639 -14.4593 -14.4593 -14.4233 -14.4233
   -14.2800 -14.2800 -14.2731 -14.2731  -0.7331  -0.7331   0.1200   0.1200
     3.9730   3.9730   4.5352   4.5352   9.5422   9.5422  10.3437  10.3437
    10.8138  10.8138  11.4447  11.4447

     occupation numbers 
     1.0000   1.0000   1.0000   1.0000   1.0000   1.0000   1.0000   1.0000
     1.0000   1.0000   1.0000   1.0000   1.0000   1.0000   1.0000   1.0000
     1.0000   1.0000   1.0000   1.0000   1.0000   1.0000   1.0000   1.0000
     1.0000   1.0000   1.0000   1.0000   0.0000   0.0000   0.0000   0.0000
     0.0000   0.0000   0.0000   0.0000

          k =-0.7071 0.2652 0.0000 (  7204 PWs)   bands (ev):

   -14.6981 -14.6981 -14.6981 -14.6981 -14.5388 -14.5388 -14.5388 -14.5388
   -14.4746 -14.4746 -14.4746 -14.4746 -14.4361 -14.4361 -14.4361 -14.4361
   -14.2770 -14.2770 -14.2770 -14.2770  -0.3175  -0.3175  -0.3175  -0.3175
     4.2466   4.2466   4.2466   4.2466   9.4221   9.4221   9.4221   9.4221
    11.6743  11.6743  11.6743  11.6743

     occupation numbers 
     1.0000   1.0000   1.0000   1.0000   1.0000   1.0000   1.0000   1.0000
     1.0000   1.0000   1.0000   1.0000   1.0000   1.0000   1.0000   1.0000
     1.0000   1.0000   1.0000   1.0000   1.0000   1.0000   1.0000   1.0000
     1.0000   1.0000   1.0000   1.0000   0.0000   0.0000   0.0000   0.0000
     0.0000   0.0000   0.0000   0.0000

          k =-0.7071 0.3536 0.0000 (  7228 PWs)   bands (ev):

   -14.6998 -14.6998 -14.6998 -14.6998 -14.5305 -14.5305 -14.5305 -14.5305
   -14.4770 -14.4770 -14.4769 -14.4769 -14.4421 -14.4421 -14.4421 -14.4421
   -14.2753 -14.2753 -14.2753 -14.2753  -0.3108  -0.3108  -0.3108  -0.3108
     4.1843   4.1843   4.1843   4.1843  10.0881  10.0881  10.0881  10.0881
    10.9116  10.9116  10.9116  10.9116

     occupation numbers 
     1.0000   1.0000   1.0000   1.0000   1.0000   1.0000   1.0000   1.0000
     1.0000   1.0000   1.0000   1.0000   1.0000   1.0000   1.0000   1.0000
     1.0000   1.0000   1.0000   1.0000   1.0000   1.0000   1.0000   1.0000
     1.0000   1.0000   1.0000   1.0000   0.0000   0.0000   0.0000   0.0000
     0.0000   0.0000   0.0000   0.0000

     the Fermi energy is     6.9105 ev

!    total energy              =    -326.06341474 Ry
     Harris-Foulkes estimate   =    -326.06341461 Ry
     estimated scf accuracy    <       0.00000011 Ry

     The total energy is the sum of the following terms:

     one-electron contribution =    -157.90754477 Ry
     hartree contribution      =      95.59984677 Ry
     xc contribution           =     -96.22592126 Ry
     ewald contribution        =    -167.52979533 Ry
     smearing contrib. (-TS)   =      -0.00000015 Ry

     convergence has been achieved in   5 iterations

     Writing output data file Sn.save
 
     init_run     :     13.85s CPU     15.05s WALL (       1 calls)
     electrons    :    268.48s CPU    286.65s WALL (       1 calls)

     Called by init_run:
     wfcinit      :     13.40s CPU     14.28s WALL (       1 calls)
     potinit      :      0.04s CPU      0.05s WALL (       1 calls)

     Called by electrons:
     c_bands      :    226.99s CPU    242.69s WALL (       6 calls)
     sum_band     :     41.25s CPU     43.64s WALL (       6 calls)
     v_of_rho     :      0.09s CPU      0.10s WALL (       6 calls)
     v_h          :      0.01s CPU      0.01s WALL (       6 calls)
     v_xc         :      0.08s CPU      0.09s WALL (       6 calls)
     newd         :      0.10s CPU      0.14s WALL (       6 calls)
     mix_rho      :      0.04s CPU      0.06s WALL (       6 calls)

     Called by c_bands:
     init_us_2    :      0.49s CPU      0.55s WALL (    1885 calls)
     cegterg      :    222.63s CPU    238.08s WALL (     870 calls)

     Called by sum_band:
     sum_band:bec :      0.13s CPU      0.13s WALL (     870 calls)
     addusdens    :      0.14s CPU      0.18s WALL (       6 calls)

     Called by *egterg:
     h_psi        :    195.65s CPU    207.77s WALL (    3108 calls)
     s_psi        :      2.84s CPU      2.86s WALL (    3108 calls)
     g_psi        :      0.61s CPU      0.61s WALL (    2093 calls)
     cdiaghg      :     11.65s CPU     11.87s WALL (    2818 calls)
     cegterg:over :      9.70s CPU      9.76s WALL (    2093 calls)
     cegterg:upda :      4.90s CPU      4.92s WALL (    2093 calls)
     cegterg:last :      2.73s CPU      2.74s WALL (     870 calls)

     Called by h_psi:
     h_psi:vloc   :    187.70s CPU    199.66s WALL (    3108 calls)
     h_psi:vnl    :      7.39s CPU      7.51s WALL (    3108 calls)
     add_vuspsi   :      2.91s CPU      2.94s WALL (    3108 calls)

     General routines
     calbec       :      5.98s CPU      6.12s WALL (    3978 calls)
     fft          :      0.15s CPU      0.23s WALL (     116 calls)
     fftw         :    211.29s CPU    224.62s WALL (  393656 calls)
     davcio       :      0.05s CPU      0.83s WALL (     145 calls)
 
     Parallel routines
     fft_scatter  :    136.66s CPU    145.55s WALL (  393772 calls)
 
     PWSCF        :  4m43.32s CPU     5m 4.31s WALL

 
   This run was terminated on:  22:59:46  16Mar2020            

=------------------------------------------------------------------------------=
   JOB DONE.
=------------------------------------------------------------------------------=
