
     Program PWSCF v.5.4.0 starts on 15Mar2020 at 19:57:10 

     This program is part of the open-source Quantum ESPRESSO suite
     for quantum simulation of materials; please cite
         "P. Giannozzi et al., J. Phys.:Condens. Matter 21 395502 (2009);
          URL http://www.quantum-espresso.org", 
     in publications or presentations arising from this work. More details at
     http://www.quantum-espresso.org/quote

     Parallel version (MPI & OpenMP), running on      16 processor cores
     Number of MPI processes:                16
     Threads/MPI process:                     1
     R & G space division:  proc/nbgrp/npool/nimage =      16
     Waiting for input...
     Reading input from standard input
Warning: card &IONS ignored
Warning: card / ignored
Warning: card &CELL ignored
Warning: card / ignored

     Current dimensions of program PWSCF are:
     Max number of different atomic species (ntypx) = 10
     Max number of k-points (npk) =  40000
     Max angular momentum in pseudopotentials (lmaxx) =  3
               file Sn.pbe-dn-rrkjus_psl.1.0.0.UPF: wavefunction(s)  5S 4D renormalized
     Message from routine setup:
     At least one non s.o. pseudo

     Subspace diagonalization in iterative solution of the eigenvalue problem:
     a serial algorithm will be used

 
     Parallelization info
     --------------------
     sticks:   dense  smooth     PW     G-vecs:    dense   smooth      PW
     Min          88      88     26                 2220     2220     349
     Max          89      89     27                 2224     2224     352
     Sum        1417    1417    421                35557    35557    5601
 

     Title: 
     Sn                                                                         


     bravais-lattice index     =            0
     lattice parameter (alat)  =       8.9127  a.u.
     unit-cell volume          =     500.6268 (a.u.)^3
     number of atoms/cell      =            2
     number of atomic types    =            1
     number of electrons       =        28.00
     number of Kohn-Sham states=           36
     kinetic-energy cutoff     =      65.0000  Ry
     charge density cutoff     =     260.0000  Ry
     convergence threshold     =      1.0E-06
     mixing beta               =       0.7000
     number of iterations used =            8  plain     mixing
     Exchange-correlation      = PBE ( 1  4  3  4 0 0)
     Non magnetic calculation with spin-orbit


     celldm(1)=   8.912709  celldm(2)=   0.000000  celldm(3)=   0.000000
     celldm(4)=   0.000000  celldm(5)=   0.000000  celldm(6)=   0.000000

     crystal axes: (cart. coord. in units of alat)
               a(1) = (   0.000000   0.707107   0.707107 )  
               a(2) = (   0.707107   0.000000   0.707107 )  
               a(3) = (   0.707107   0.707107   0.000000 )  

     reciprocal axes: (cart. coord. in units 2 pi/alat)
               b(1) = ( -0.707107  0.707107  0.707107 )  
               b(2) = (  0.707107 -0.707107  0.707107 )  
               b(3) = (  0.707107  0.707107 -0.707107 )  


     PseudoPot. # 1 for Sn read from file:
     ../PseudopotentialDatabase/Sn.pbe-dn-rrkjus_psl.1.0.0.UPF
     MD5 check sum: 72e22d5a9e1ec4fde6a02e1f963898e9
     Pseudo is Ultrasoft + core correction, Zval = 14.0
     Generated using "atomic" code by A. Dal Corso  v.6.3
     Using radial grid of 1243 points,  6 beta functions with: 
                l(1) =   0
                l(2) =   0
                l(3) =   1
                l(4) =   1
                l(5) =   2
                l(6) =   2
     Q(r) pseudized with 0 coefficients 


     atomic species   valence    mass     pseudopotential
        Sn            14.00   118.71000     Sn( 1.00)

     24 Sym. Ops. (no inversion) found
          (note: 24 additional sym.ops. were found but ignored
           their fractional translations are incommensurate with FFT grid)

                                    s                        frac. trans.

      isym =  1     identity                                     

 cryst.   s( 1) = (     1          0          0      )
                  (     0          1          0      )
                  (     0          0          1      )

 cart.    s( 1) = (  1.0000000  0.0000000  0.0000000 )
                  (  0.0000000  1.0000000  0.0000000 )
                  (  0.0000000  0.0000000  1.0000000 )


      isym =  2     180 deg rotation - cart. axis [0,0,1]        

 cryst.   s( 2) = (     0          1         -1      )
                  (     1          0         -1      )
                  (     0          0         -1      )

 cart.    s( 2) = ( -1.0000000  0.0000000  0.0000000 )
                  (  0.0000000 -1.0000000  0.0000000 )
                  (  0.0000000  0.0000000  1.0000000 )


      isym =  3     180 deg rotation - cart. axis [0,1,0]        

 cryst.   s( 3) = (     0         -1          1      )
                  (     0         -1          0      )
                  (     1         -1          0      )

 cart.    s( 3) = ( -1.0000000  0.0000000  0.0000000 )
                  (  0.0000000  1.0000000  0.0000000 )
                  (  0.0000000  0.0000000 -1.0000000 )


      isym =  4     180 deg rotation - cart. axis [1,0,0]        

 cryst.   s( 4) = (    -1          0          0      )
                  (    -1          0          1      )
                  (    -1          1          0      )

 cart.    s( 4) = (  1.0000000  0.0000000  0.0000000 )
                  (  0.0000000 -1.0000000  0.0000000 )
                  (  0.0000000  0.0000000 -1.0000000 )


      isym =  5     120 deg rotation - cart. axis [-1,-1,-1]     

 cryst.   s( 5) = (     0          0          1      )
                  (     1          0          0      )
                  (     0          1          0      )

 cart.    s( 5) = (  0.0000000  1.0000000  0.0000000 )
                  (  0.0000000  0.0000000  1.0000000 )
                  (  1.0000000  0.0000000  0.0000000 )


      isym =  6     120 deg rotation - cart. axis [-1,1,1]       

 cryst.   s( 6) = (     1         -1          0      )
                  (     0         -1          1      )
                  (     0         -1          0      )

 cart.    s( 6) = (  0.0000000 -1.0000000  0.0000000 )
                  (  0.0000000  0.0000000  1.0000000 )
                  ( -1.0000000  0.0000000  0.0000000 )


      isym =  7     120 deg rotation - cart. axis [1,1,-1]       

 cryst.   s( 7) = (    -1          1          0      )
                  (    -1          0          0      )
                  (    -1          0          1      )

 cart.    s( 7) = (  0.0000000  1.0000000  0.0000000 )
                  (  0.0000000  0.0000000 -1.0000000 )
                  ( -1.0000000  0.0000000  0.0000000 )


      isym =  8     120 deg rotation - cart. axis [1,-1,1]       

 cryst.   s( 8) = (     0          0         -1      )
                  (     0          1         -1      )
                  (     1          0         -1      )

 cart.    s( 8) = (  0.0000000 -1.0000000  0.0000000 )
                  (  0.0000000  0.0000000 -1.0000000 )
                  (  1.0000000  0.0000000  0.0000000 )


      isym =  9     120 deg rotation - cart. axis [1,1,1]        

 cryst.   s( 9) = (     0          1          0      )
                  (     0          0          1      )
                  (     1          0          0      )

 cart.    s( 9) = (  0.0000000  0.0000000  1.0000000 )
                  (  1.0000000  0.0000000  0.0000000 )
                  (  0.0000000  1.0000000  0.0000000 )


      isym = 10     120 deg rotation - cart. axis [-1,1,-1]      

 cryst.   s(10) = (    -1          0          1      )
                  (    -1          1          0      )
                  (    -1          0          0      )

 cart.    s(10) = (  0.0000000  0.0000000  1.0000000 )
                  ( -1.0000000  0.0000000  0.0000000 )
                  (  0.0000000 -1.0000000  0.0000000 )


      isym = 11     120 deg rotation - cart. axis [1,-1,-1]      

 cryst.   s(11) = (     1          0         -1      )
                  (     0          0         -1      )
                  (     0          1         -1      )

 cart.    s(11) = (  0.0000000  0.0000000 -1.0000000 )
                  ( -1.0000000  0.0000000  0.0000000 )
                  (  0.0000000  1.0000000  0.0000000 )


      isym = 12     120 deg rotation - cart. axis [-1,-1,1]      

 cryst.   s(12) = (     0         -1          0      )
                  (     1         -1          0      )
                  (     0         -1          1      )

 cart.    s(12) = (  0.0000000  0.0000000 -1.0000000 )
                  (  1.0000000  0.0000000  0.0000000 )
                  (  0.0000000 -1.0000000  0.0000000 )


      isym = 13     inv. 180 deg rotation - cart. axis [1,1,0]   

 cryst.   s(13) = (     1          0         -1      )
                  (     0          1         -1      )
                  (     0          0         -1      )

 cart.    s(13) = (  0.0000000 -1.0000000  0.0000000 )
                  ( -1.0000000  0.0000000  0.0000000 )
                  (  0.0000000  0.0000000  1.0000000 )


      isym = 14     inv. 180 deg rotation - cart. axis [1,-1,0]  

 cryst.   s(14) = (     0          1          0      )
                  (     1          0          0      )
                  (     0          0          1      )

 cart.    s(14) = (  0.0000000  1.0000000  0.0000000 )
                  (  1.0000000  0.0000000  0.0000000 )
                  (  0.0000000  0.0000000  1.0000000 )


      isym = 15     inv.  90 deg rotation - cart. axis [0,0,-1]  

 cryst.   s(15) = (     0         -1          0      )
                  (     0         -1          1      )
                  (     1         -1          0      )

 cart.    s(15) = (  0.0000000 -1.0000000  0.0000000 )
                  (  1.0000000  0.0000000  0.0000000 )
                  (  0.0000000  0.0000000 -1.0000000 )


      isym = 16     inv.  90 deg rotation - cart. axis [0,0,1]   

 cryst.   s(16) = (    -1          0          1      )
                  (    -1          0          0      )
                  (    -1          1          0      )

 cart.    s(16) = (  0.0000000  1.0000000  0.0000000 )
                  ( -1.0000000  0.0000000  0.0000000 )
                  (  0.0000000  0.0000000 -1.0000000 )


      isym = 17     inv. 180 deg rotation - cart. axis [1,0,1]   

 cryst.   s(17) = (     1         -1          0      )
                  (     0         -1          0      )
                  (     0         -1          1      )

 cart.    s(17) = (  0.0000000  0.0000000 -1.0000000 )
                  (  0.0000000  1.0000000  0.0000000 )
                  ( -1.0000000  0.0000000  0.0000000 )


      isym = 18     inv. 180 deg rotation - cart. axis [-1,0,1]  

 cryst.   s(18) = (     0          0          1      )
                  (     0          1          0      )
                  (     1          0          0      )

 cart.    s(18) = (  0.0000000  0.0000000  1.0000000 )
                  (  0.0000000  1.0000000  0.0000000 )
                  (  1.0000000  0.0000000  0.0000000 )


      isym = 19     inv.  90 deg rotation - cart. axis [0,1,0]   

 cryst.   s(19) = (     0          0         -1      )
                  (     1          0         -1      )
                  (     0          1         -1      )

 cart.    s(19) = (  0.0000000  0.0000000 -1.0000000 )
                  (  0.0000000 -1.0000000  0.0000000 )
                  (  1.0000000  0.0000000  0.0000000 )


      isym = 20     inv.  90 deg rotation - cart. axis [0,-1,0]  

 cryst.   s(20) = (    -1          1          0      )
                  (    -1          0          1      )
                  (    -1          0          0      )

 cart.    s(20) = (  0.0000000  0.0000000  1.0000000 )
                  (  0.0000000 -1.0000000  0.0000000 )
                  ( -1.0000000  0.0000000  0.0000000 )


      isym = 21     inv. 180 deg rotation - cart. axis [0,1,1]   

 cryst.   s(21) = (    -1          0          0      )
                  (    -1          1          0      )
                  (    -1          0          1      )

 cart.    s(21) = (  1.0000000  0.0000000  0.0000000 )
                  (  0.0000000  0.0000000 -1.0000000 )
                  (  0.0000000 -1.0000000  0.0000000 )


      isym = 22     inv. 180 deg rotation - cart. axis [0,1,-1]  

 cryst.   s(22) = (     1          0          0      )
                  (     0          0          1      )
                  (     0          1          0      )

 cart.    s(22) = (  1.0000000  0.0000000  0.0000000 )
                  (  0.0000000  0.0000000  1.0000000 )
                  (  0.0000000  1.0000000  0.0000000 )


      isym = 23     inv.  90 deg rotation - cart. axis [-1,0,0]  

 cryst.   s(23) = (     0          1         -1      )
                  (     0          0         -1      )
                  (     1          0         -1      )

 cart.    s(23) = ( -1.0000000  0.0000000  0.0000000 )
                  (  0.0000000  0.0000000 -1.0000000 )
                  (  0.0000000  1.0000000  0.0000000 )


      isym = 24     inv.  90 deg rotation - cart. axis [1,0,0]   

 cryst.   s(24) = (     0         -1          1      )
                  (     1         -1          0      )
                  (     0         -1          0      )

 cart.    s(24) = ( -1.0000000  0.0000000  0.0000000 )
                  (  0.0000000  0.0000000  1.0000000 )
                  (  0.0000000 -1.0000000  0.0000000 )


   Cartesian axes

     site n.     atom                  positions (alat units)
         1           Sn  tau(   1) = (   0.0000000   0.0000000   0.0000000  )
         2           Sn  tau(   2) = (   0.3535534   0.3535534   0.3535534  )

   Crystallographic axes

     site n.     atom                  positions (cryst. coord.)
         1           Sn  tau(   1) = (  0.0000000  0.0000000  0.0000000  )
         2           Sn  tau(   2) = (  0.2500000  0.2500000  0.2500000  )

     number of k points=   145  gaussian smearing, width (Ry)=  0.0001
                       cart. coord. in units 2pi/alat
        k(    1) = (   0.0000000   0.0000000   0.0000000), wk =   0.0002441
        k(    2) = (   0.0441942   0.0441942  -0.0441942), wk =   0.0019531
        k(    3) = (   0.0883883   0.0883883  -0.0883883), wk =   0.0019531
        k(    4) = (   0.1325825   0.1325825  -0.1325825), wk =   0.0019531
        k(    5) = (   0.1767767   0.1767767  -0.1767767), wk =   0.0019531
        k(    6) = (   0.2209709   0.2209709  -0.2209709), wk =   0.0019531
        k(    7) = (   0.2651650   0.2651650  -0.2651650), wk =   0.0019531
        k(    8) = (   0.3093592   0.3093592  -0.3093592), wk =   0.0019531
        k(    9) = (  -0.3535534  -0.3535534   0.3535534), wk =   0.0009766
        k(   10) = (   0.0883883   0.0000000   0.0000000), wk =   0.0014648
        k(   11) = (   0.1325825   0.0441942  -0.0441942), wk =   0.0058594
        k(   12) = (   0.1767767   0.0883883  -0.0883883), wk =   0.0058594
        k(   13) = (   0.2209709   0.1325825  -0.1325825), wk =   0.0058594
        k(   14) = (   0.2651650   0.1767767  -0.1767767), wk =   0.0058594
        k(   15) = (   0.3093592   0.2209709  -0.2209709), wk =   0.0058594
        k(   16) = (   0.3535534   0.2651650  -0.2651650), wk =   0.0058594
        k(   17) = (  -0.3093592  -0.3977476   0.3977476), wk =   0.0058594
        k(   18) = (  -0.2651650  -0.3535534   0.3535534), wk =   0.0058594
        k(   19) = (  -0.2209709  -0.3093592   0.3093592), wk =   0.0058594
        k(   20) = (  -0.1767767  -0.2651650   0.2651650), wk =   0.0058594
        k(   21) = (  -0.1325825  -0.2209709   0.2209709), wk =   0.0058594
        k(   22) = (  -0.0883883  -0.1767767   0.1767767), wk =   0.0058594
        k(   23) = (  -0.0441942  -0.1325825   0.1325825), wk =   0.0058594
        k(   24) = (   0.0000000  -0.0883883   0.0883883), wk =   0.0029297
        k(   25) = (   0.1767767   0.0000000   0.0000000), wk =   0.0014648
        k(   26) = (   0.2209709   0.0441942  -0.0441942), wk =   0.0058594
        k(   27) = (   0.2651650   0.0883883  -0.0883883), wk =   0.0058594
        k(   28) = (   0.3093592   0.1325825  -0.1325825), wk =   0.0058594
        k(   29) = (   0.3535534   0.1767767  -0.1767767), wk =   0.0058594
        k(   30) = (   0.3977476   0.2209709  -0.2209709), wk =   0.0058594
        k(   31) = (  -0.2651650  -0.4419417   0.4419417), wk =   0.0058594
        k(   32) = (  -0.2209709  -0.3977476   0.3977476), wk =   0.0058594
        k(   33) = (  -0.1767767  -0.3535534   0.3535534), wk =   0.0058594
        k(   34) = (  -0.1325825  -0.3093592   0.3093592), wk =   0.0058594
        k(   35) = (  -0.0883883  -0.2651650   0.2651650), wk =   0.0058594
        k(   36) = (  -0.0441942  -0.2209709   0.2209709), wk =   0.0058594
        k(   37) = (   0.0000000  -0.1767767   0.1767767), wk =   0.0029297
        k(   38) = (   0.2651650   0.0000000   0.0000000), wk =   0.0014648
        k(   39) = (   0.3093592   0.0441942  -0.0441942), wk =   0.0058594
        k(   40) = (   0.3535534   0.0883883  -0.0883883), wk =   0.0058594
        k(   41) = (   0.3977476   0.1325825  -0.1325825), wk =   0.0058594
        k(   42) = (   0.4419417   0.1767767  -0.1767767), wk =   0.0058594
        k(   43) = (  -0.2209709  -0.4861359   0.4861359), wk =   0.0058594
        k(   44) = (  -0.1767767  -0.4419417   0.4419417), wk =   0.0058594
        k(   45) = (  -0.1325825  -0.3977476   0.3977476), wk =   0.0058594
        k(   46) = (  -0.0883883  -0.3535534   0.3535534), wk =   0.0058594
        k(   47) = (  -0.0441942  -0.3093592   0.3093592), wk =   0.0058594
        k(   48) = (   0.0000000  -0.2651650   0.2651650), wk =   0.0029297
        k(   49) = (   0.3535534   0.0000000   0.0000000), wk =   0.0014648
        k(   50) = (   0.3977476   0.0441942  -0.0441942), wk =   0.0058594
        k(   51) = (   0.4419417   0.0883883  -0.0883883), wk =   0.0058594
        k(   52) = (   0.4861359   0.1325825  -0.1325825), wk =   0.0058594
        k(   53) = (  -0.1767767  -0.5303301   0.5303301), wk =   0.0058594
        k(   54) = (  -0.1325825  -0.4861359   0.4861359), wk =   0.0058594
        k(   55) = (  -0.0883883  -0.4419417   0.4419417), wk =   0.0058594
        k(   56) = (  -0.0441942  -0.3977476   0.3977476), wk =   0.0058594
        k(   57) = (   0.0000000  -0.3535534   0.3535534), wk =   0.0029297
        k(   58) = (   0.4419417   0.0000000   0.0000000), wk =   0.0014648
        k(   59) = (   0.4861359   0.0441942  -0.0441942), wk =   0.0058594
        k(   60) = (   0.5303301   0.0883883  -0.0883883), wk =   0.0058594
        k(   61) = (  -0.1325825  -0.5745243   0.5745243), wk =   0.0058594
        k(   62) = (  -0.0883883  -0.5303301   0.5303301), wk =   0.0058594
        k(   63) = (  -0.0441942  -0.4861359   0.4861359), wk =   0.0058594
        k(   64) = (   0.0000000  -0.4419417   0.4419417), wk =   0.0029297
        k(   65) = (   0.5303301   0.0000000   0.0000000), wk =   0.0014648
        k(   66) = (   0.5745243   0.0441942  -0.0441942), wk =   0.0058594
        k(   67) = (  -0.0883883  -0.6187184   0.6187184), wk =   0.0058594
        k(   68) = (  -0.0441942  -0.5745243   0.5745243), wk =   0.0058594
        k(   69) = (   0.0000000  -0.5303301   0.5303301), wk =   0.0029297
        k(   70) = (   0.6187184   0.0000000   0.0000000), wk =   0.0014648
        k(   71) = (  -0.0441942  -0.6629126   0.6629126), wk =   0.0058594
        k(   72) = (   0.0000000  -0.6187184   0.6187184), wk =   0.0029297
        k(   73) = (  -0.7071068   0.0000000   0.0000000), wk =   0.0007324
        k(   74) = (   0.1767767   0.0883883   0.0000000), wk =   0.0058594
        k(   75) = (   0.2209709   0.1325825  -0.0441942), wk =   0.0117188
        k(   76) = (   0.2651650   0.1767767  -0.0883883), wk =   0.0117188
        k(   77) = (   0.3093592   0.2209709  -0.1325825), wk =   0.0117188
        k(   78) = (   0.3535534   0.2651650  -0.1767767), wk =   0.0117188
        k(   79) = (  -0.3093592  -0.3977476   0.4861359), wk =   0.0117188
        k(   80) = (  -0.2651650  -0.3535534   0.4419417), wk =   0.0058594
        k(   81) = (   0.2651650   0.0883883   0.0000000), wk =   0.0058594
        k(   82) = (   0.3093592   0.1325825  -0.0441942), wk =   0.0117188
        k(   83) = (   0.3535534   0.1767767  -0.0883883), wk =   0.0117188
        k(   84) = (   0.3977476   0.2209709  -0.1325825), wk =   0.0117188
        k(   85) = (  -0.2651650  -0.4419417   0.5303301), wk =   0.0117188
        k(   86) = (  -0.2209709  -0.3977476   0.4861359), wk =   0.0117188
        k(   87) = (  -0.1767767  -0.3535534   0.4419417), wk =   0.0117188
        k(   88) = (  -0.1325825  -0.3093592   0.3977476), wk =   0.0117188
        k(   89) = (  -0.0883883  -0.2651650   0.3535534), wk =   0.0117188
        k(   90) = (  -0.0441942  -0.2209709   0.3093592), wk =   0.0117188
        k(   91) = (   0.0000000  -0.1767767   0.2651650), wk =   0.0058594
        k(   92) = (   0.3535534   0.0883883   0.0000000), wk =   0.0058594
        k(   93) = (   0.3977476   0.1325825  -0.0441942), wk =   0.0117188
        k(   94) = (   0.4419417   0.1767767  -0.0883883), wk =   0.0117188
        k(   95) = (  -0.2209709  -0.4861359   0.5745243), wk =   0.0117188
        k(   96) = (  -0.1767767  -0.4419417   0.5303301), wk =   0.0117188
        k(   97) = (  -0.1325825  -0.3977476   0.4861359), wk =   0.0117188
        k(   98) = (  -0.0883883  -0.3535534   0.4419417), wk =   0.0117188
        k(   99) = (  -0.0441942  -0.3093592   0.3977476), wk =   0.0117188
        k(  100) = (   0.0000000  -0.2651650   0.3535534), wk =   0.0058594
        k(  101) = (   0.4419417   0.0883883   0.0000000), wk =   0.0058594
        k(  102) = (   0.4861359   0.1325825  -0.0441942), wk =   0.0117188
        k(  103) = (  -0.1767767  -0.5303301   0.6187184), wk =   0.0117188
        k(  104) = (  -0.1325825  -0.4861359   0.5745243), wk =   0.0117188
        k(  105) = (  -0.0883883  -0.4419417   0.5303301), wk =   0.0117188
        k(  106) = (  -0.0441942  -0.3977476   0.4861359), wk =   0.0117188
        k(  107) = (   0.0000000  -0.3535534   0.4419417), wk =   0.0058594
        k(  108) = (   0.5303301   0.0883883   0.0000000), wk =   0.0058594
        k(  109) = (  -0.1325825  -0.5745243   0.6629126), wk =   0.0117188
        k(  110) = (  -0.0883883  -0.5303301   0.6187184), wk =   0.0117188
        k(  111) = (  -0.0441942  -0.4861359   0.5745243), wk =   0.0117188
        k(  112) = (   0.0000000  -0.4419417   0.5303301), wk =   0.0058594
        k(  113) = (  -0.0883883  -0.6187184   0.7071068), wk =   0.0058594
        k(  114) = (  -0.0441942  -0.5745243   0.6629126), wk =   0.0117188
        k(  115) = (  -0.0000000  -0.5303301   0.6187184), wk =   0.0058594
        k(  116) = (  -0.7071068   0.0883883   0.0000000), wk =   0.0029297
        k(  117) = (   0.3535534   0.1767767   0.0000000), wk =   0.0058594
        k(  118) = (   0.3977476   0.2209709  -0.0441942), wk =   0.0117188
        k(  119) = (  -0.2651650  -0.4419417   0.6187184), wk =   0.0117188
        k(  120) = (  -0.2209709  -0.3977476   0.5745243), wk =   0.0117188
        k(  121) = (  -0.1767767  -0.3535534   0.5303301), wk =   0.0058594
        k(  122) = (   0.4419417   0.1767767   0.0000000), wk =   0.0058594
        k(  123) = (  -0.2209709  -0.4861359   0.6629126), wk =   0.0117188
        k(  124) = (  -0.1767767  -0.4419417   0.6187184), wk =   0.0117188
        k(  125) = (  -0.1325825  -0.3977476   0.5745243), wk =   0.0117188
        k(  126) = (  -0.0883883  -0.3535534   0.5303301), wk =   0.0117188
        k(  127) = (  -0.0441942  -0.3093592   0.4861359), wk =   0.0117188
        k(  128) = (   0.0000000  -0.2651650   0.4419417), wk =   0.0058594
        k(  129) = (  -0.1767767  -0.5303301   0.7071068), wk =   0.0058594
        k(  130) = (  -0.1325825  -0.4861359   0.6629126), wk =   0.0117188
        k(  131) = (  -0.0883883  -0.4419417   0.6187184), wk =   0.0117188
        k(  132) = (  -0.0441942  -0.3977476   0.5745243), wk =   0.0117188
        k(  133) = (   0.0000000  -0.3535534   0.5303301), wk =   0.0058594
        k(  134) = (  -0.0883883  -0.5303301   0.7071068), wk =   0.0058594
        k(  135) = (  -0.0441942  -0.4861359   0.6629126), wk =   0.0117188
        k(  136) = (   0.0000000  -0.4419417   0.6187184), wk =   0.0058594
        k(  137) = (  -0.7071068   0.1767767   0.0000000), wk =   0.0029297
        k(  138) = (  -0.1767767  -0.4419417   0.7071068), wk =   0.0058594
        k(  139) = (  -0.1325825  -0.3977476   0.6629126), wk =   0.0117188
        k(  140) = (  -0.0883883  -0.3535534   0.6187184), wk =   0.0058594
        k(  141) = (  -0.0883883  -0.4419417   0.7071068), wk =   0.0058594
        k(  142) = (  -0.0441942  -0.3977476   0.6629126), wk =   0.0117188
        k(  143) = (  -0.0000000  -0.3535534   0.6187184), wk =   0.0058594
        k(  144) = (  -0.7071068   0.2651650   0.0000000), wk =   0.0029297
        k(  145) = (  -0.7071068   0.3535534   0.0000000), wk =   0.0014648

                       cryst. coord.
        k(    1) = (   0.0000000   0.0000000   0.0000000), wk =   0.0002441
        k(    2) = (   0.0000000   0.0000000   0.0625000), wk =   0.0019531
        k(    3) = (   0.0000000   0.0000000   0.1250000), wk =   0.0019531
        k(    4) = (   0.0000000   0.0000000   0.1875000), wk =   0.0019531
        k(    5) = (   0.0000000   0.0000000   0.2500000), wk =   0.0019531
        k(    6) = (   0.0000000   0.0000000   0.3125000), wk =   0.0019531
        k(    7) = (   0.0000000   0.0000000   0.3750000), wk =   0.0019531
        k(    8) = (   0.0000000   0.0000000   0.4375000), wk =   0.0019531
        k(    9) = (   0.0000000   0.0000000  -0.5000000), wk =   0.0009766
        k(   10) = (   0.0000000   0.0625000   0.0625000), wk =   0.0014648
        k(   11) = (   0.0000000   0.0625000   0.1250000), wk =   0.0058594
        k(   12) = (   0.0000000   0.0625000   0.1875000), wk =   0.0058594
        k(   13) = (   0.0000000   0.0625000   0.2500000), wk =   0.0058594
        k(   14) = (   0.0000000   0.0625000   0.3125000), wk =   0.0058594
        k(   15) = (   0.0000000   0.0625000   0.3750000), wk =   0.0058594
        k(   16) = (   0.0000000   0.0625000   0.4375000), wk =   0.0058594
        k(   17) = (   0.0000000   0.0625000  -0.5000000), wk =   0.0058594
        k(   18) = (   0.0000000   0.0625000  -0.4375000), wk =   0.0058594
        k(   19) = (   0.0000000   0.0625000  -0.3750000), wk =   0.0058594
        k(   20) = (   0.0000000   0.0625000  -0.3125000), wk =   0.0058594
        k(   21) = (   0.0000000   0.0625000  -0.2500000), wk =   0.0058594
        k(   22) = (   0.0000000   0.0625000  -0.1875000), wk =   0.0058594
        k(   23) = (   0.0000000   0.0625000  -0.1250000), wk =   0.0058594
        k(   24) = (   0.0000000   0.0625000  -0.0625000), wk =   0.0029297
        k(   25) = (   0.0000000   0.1250000   0.1250000), wk =   0.0014648
        k(   26) = (   0.0000000   0.1250000   0.1875000), wk =   0.0058594
        k(   27) = (   0.0000000   0.1250000   0.2500000), wk =   0.0058594
        k(   28) = (   0.0000000   0.1250000   0.3125000), wk =   0.0058594
        k(   29) = (   0.0000000   0.1250000   0.3750000), wk =   0.0058594
        k(   30) = (   0.0000000   0.1250000   0.4375000), wk =   0.0058594
        k(   31) = (   0.0000000   0.1250000  -0.5000000), wk =   0.0058594
        k(   32) = (   0.0000000   0.1250000  -0.4375000), wk =   0.0058594
        k(   33) = (   0.0000000   0.1250000  -0.3750000), wk =   0.0058594
        k(   34) = (   0.0000000   0.1250000  -0.3125000), wk =   0.0058594
        k(   35) = (   0.0000000   0.1250000  -0.2500000), wk =   0.0058594
        k(   36) = (   0.0000000   0.1250000  -0.1875000), wk =   0.0058594
        k(   37) = (   0.0000000   0.1250000  -0.1250000), wk =   0.0029297
        k(   38) = (   0.0000000   0.1875000   0.1875000), wk =   0.0014648
        k(   39) = (   0.0000000   0.1875000   0.2500000), wk =   0.0058594
        k(   40) = (   0.0000000   0.1875000   0.3125000), wk =   0.0058594
        k(   41) = (   0.0000000   0.1875000   0.3750000), wk =   0.0058594
        k(   42) = (   0.0000000   0.1875000   0.4375000), wk =   0.0058594
        k(   43) = (   0.0000000   0.1875000  -0.5000000), wk =   0.0058594
        k(   44) = (   0.0000000   0.1875000  -0.4375000), wk =   0.0058594
        k(   45) = (   0.0000000   0.1875000  -0.3750000), wk =   0.0058594
        k(   46) = (   0.0000000   0.1875000  -0.3125000), wk =   0.0058594
        k(   47) = (   0.0000000   0.1875000  -0.2500000), wk =   0.0058594
        k(   48) = (   0.0000000   0.1875000  -0.1875000), wk =   0.0029297
        k(   49) = (   0.0000000   0.2500000   0.2500000), wk =   0.0014648
        k(   50) = (   0.0000000   0.2500000   0.3125000), wk =   0.0058594
        k(   51) = (   0.0000000   0.2500000   0.3750000), wk =   0.0058594
        k(   52) = (   0.0000000   0.2500000   0.4375000), wk =   0.0058594
        k(   53) = (   0.0000000   0.2500000  -0.5000000), wk =   0.0058594
        k(   54) = (   0.0000000   0.2500000  -0.4375000), wk =   0.0058594
        k(   55) = (   0.0000000   0.2500000  -0.3750000), wk =   0.0058594
        k(   56) = (   0.0000000   0.2500000  -0.3125000), wk =   0.0058594
        k(   57) = (   0.0000000   0.2500000  -0.2500000), wk =   0.0029297
        k(   58) = (   0.0000000   0.3125000   0.3125000), wk =   0.0014648
        k(   59) = (   0.0000000   0.3125000   0.3750000), wk =   0.0058594
        k(   60) = (   0.0000000   0.3125000   0.4375000), wk =   0.0058594
        k(   61) = (   0.0000000   0.3125000  -0.5000000), wk =   0.0058594
        k(   62) = (   0.0000000   0.3125000  -0.4375000), wk =   0.0058594
        k(   63) = (   0.0000000   0.3125000  -0.3750000), wk =   0.0058594
        k(   64) = (   0.0000000   0.3125000  -0.3125000), wk =   0.0029297
        k(   65) = (   0.0000000   0.3750000   0.3750000), wk =   0.0014648
        k(   66) = (   0.0000000   0.3750000   0.4375000), wk =   0.0058594
        k(   67) = (   0.0000000   0.3750000  -0.5000000), wk =   0.0058594
        k(   68) = (   0.0000000   0.3750000  -0.4375000), wk =   0.0058594
        k(   69) = (   0.0000000   0.3750000  -0.3750000), wk =   0.0029297
        k(   70) = (   0.0000000   0.4375000   0.4375000), wk =   0.0014648
        k(   71) = (   0.0000000   0.4375000  -0.5000000), wk =   0.0058594
        k(   72) = (   0.0000000   0.4375000  -0.4375000), wk =   0.0029297
        k(   73) = (   0.0000000  -0.5000000  -0.5000000), wk =   0.0007324
        k(   74) = (   0.0625000   0.1250000   0.1875000), wk =   0.0058594
        k(   75) = (   0.0625000   0.1250000   0.2500000), wk =   0.0117188
        k(   76) = (   0.0625000   0.1250000   0.3125000), wk =   0.0117188
        k(   77) = (   0.0625000   0.1250000   0.3750000), wk =   0.0117188
        k(   78) = (   0.0625000   0.1250000   0.4375000), wk =   0.0117188
        k(   79) = (   0.0625000   0.1250000  -0.5000000), wk =   0.0117188
        k(   80) = (   0.0625000   0.1250000  -0.4375000), wk =   0.0058594
        k(   81) = (   0.0625000   0.1875000   0.2500000), wk =   0.0058594
        k(   82) = (   0.0625000   0.1875000   0.3125000), wk =   0.0117188
        k(   83) = (   0.0625000   0.1875000   0.3750000), wk =   0.0117188
        k(   84) = (   0.0625000   0.1875000   0.4375000), wk =   0.0117188
        k(   85) = (   0.0625000   0.1875000  -0.5000000), wk =   0.0117188
        k(   86) = (   0.0625000   0.1875000  -0.4375000), wk =   0.0117188
        k(   87) = (   0.0625000   0.1875000  -0.3750000), wk =   0.0117188
        k(   88) = (   0.0625000   0.1875000  -0.3125000), wk =   0.0117188
        k(   89) = (   0.0625000   0.1875000  -0.2500000), wk =   0.0117188
        k(   90) = (   0.0625000   0.1875000  -0.1875000), wk =   0.0117188
        k(   91) = (   0.0625000   0.1875000  -0.1250000), wk =   0.0058594
        k(   92) = (   0.0625000   0.2500000   0.3125000), wk =   0.0058594
        k(   93) = (   0.0625000   0.2500000   0.3750000), wk =   0.0117188
        k(   94) = (   0.0625000   0.2500000   0.4375000), wk =   0.0117188
        k(   95) = (   0.0625000   0.2500000  -0.5000000), wk =   0.0117188
        k(   96) = (   0.0625000   0.2500000  -0.4375000), wk =   0.0117188
        k(   97) = (   0.0625000   0.2500000  -0.3750000), wk =   0.0117188
        k(   98) = (   0.0625000   0.2500000  -0.3125000), wk =   0.0117188
        k(   99) = (   0.0625000   0.2500000  -0.2500000), wk =   0.0117188
        k(  100) = (   0.0625000   0.2500000  -0.1875000), wk =   0.0058594
        k(  101) = (   0.0625000   0.3125000   0.3750000), wk =   0.0058594
        k(  102) = (   0.0625000   0.3125000   0.4375000), wk =   0.0117188
        k(  103) = (   0.0625000   0.3125000  -0.5000000), wk =   0.0117188
        k(  104) = (   0.0625000   0.3125000  -0.4375000), wk =   0.0117188
        k(  105) = (   0.0625000   0.3125000  -0.3750000), wk =   0.0117188
        k(  106) = (   0.0625000   0.3125000  -0.3125000), wk =   0.0117188
        k(  107) = (   0.0625000   0.3125000  -0.2500000), wk =   0.0058594
        k(  108) = (   0.0625000   0.3750000   0.4375000), wk =   0.0058594
        k(  109) = (   0.0625000   0.3750000  -0.5000000), wk =   0.0117188
        k(  110) = (   0.0625000   0.3750000  -0.4375000), wk =   0.0117188
        k(  111) = (   0.0625000   0.3750000  -0.3750000), wk =   0.0117188
        k(  112) = (   0.0625000   0.3750000  -0.3125000), wk =   0.0058594
        k(  113) = (   0.0625000   0.4375000  -0.5000000), wk =   0.0058594
        k(  114) = (   0.0625000   0.4375000  -0.4375000), wk =   0.0117188
        k(  115) = (   0.0625000   0.4375000  -0.3750000), wk =   0.0058594
        k(  116) = (   0.0625000  -0.5000000  -0.4375000), wk =   0.0029297
        k(  117) = (   0.1250000   0.2500000   0.3750000), wk =   0.0058594
        k(  118) = (   0.1250000   0.2500000   0.4375000), wk =   0.0117188
        k(  119) = (   0.1250000   0.2500000  -0.5000000), wk =   0.0117188
        k(  120) = (   0.1250000   0.2500000  -0.4375000), wk =   0.0117188
        k(  121) = (   0.1250000   0.2500000  -0.3750000), wk =   0.0058594
        k(  122) = (   0.1250000   0.3125000   0.4375000), wk =   0.0058594
        k(  123) = (   0.1250000   0.3125000  -0.5000000), wk =   0.0117188
        k(  124) = (   0.1250000   0.3125000  -0.4375000), wk =   0.0117188
        k(  125) = (   0.1250000   0.3125000  -0.3750000), wk =   0.0117188
        k(  126) = (   0.1250000   0.3125000  -0.3125000), wk =   0.0117188
        k(  127) = (   0.1250000   0.3125000  -0.2500000), wk =   0.0117188
        k(  128) = (   0.1250000   0.3125000  -0.1875000), wk =   0.0058594
        k(  129) = (   0.1250000   0.3750000  -0.5000000), wk =   0.0058594
        k(  130) = (   0.1250000   0.3750000  -0.4375000), wk =   0.0117188
        k(  131) = (   0.1250000   0.3750000  -0.3750000), wk =   0.0117188
        k(  132) = (   0.1250000   0.3750000  -0.3125000), wk =   0.0117188
        k(  133) = (   0.1250000   0.3750000  -0.2500000), wk =   0.0058594
        k(  134) = (   0.1250000   0.4375000  -0.4375000), wk =   0.0058594
        k(  135) = (   0.1250000   0.4375000  -0.3750000), wk =   0.0117188
        k(  136) = (   0.1250000   0.4375000  -0.3125000), wk =   0.0058594
        k(  137) = (   0.1250000  -0.5000000  -0.3750000), wk =   0.0029297
        k(  138) = (   0.1875000   0.3750000  -0.4375000), wk =   0.0058594
        k(  139) = (   0.1875000   0.3750000  -0.3750000), wk =   0.0117188
        k(  140) = (   0.1875000   0.3750000  -0.3125000), wk =   0.0058594
        k(  141) = (   0.1875000   0.4375000  -0.3750000), wk =   0.0058594
        k(  142) = (   0.1875000   0.4375000  -0.3125000), wk =   0.0117188
        k(  143) = (   0.1875000   0.4375000  -0.2500000), wk =   0.0058594
        k(  144) = (   0.1875000  -0.5000000  -0.3125000), wk =   0.0029297
        k(  145) = (   0.2500000  -0.5000000  -0.2500000), wk =   0.0014648

     Dense  grid:    35557 G-vectors     FFT dimensions: (  45,  45,  45)

     Largest allocated arrays     est. size (Mb)     dimensions
        Kohn-Sham Wavefunctions         0.31 Mb     (     570,   36)
        NL pseudopotentials             0.16 Mb     (     285,   36)
        Each V/rho on FFT grid          0.09 Mb     (    6075)
        Each G-vector array             0.02 Mb     (    2224)
        G-vector shells                 0.00 Mb     (     334)
     Largest temporary arrays     est. size (Mb)     dimensions
        Auxiliary wavefunctions         1.25 Mb     (     570,  144)
        Each subspace H/S matrix        0.32 Mb     (     144,  144)
        Each <psi_i|beta_j> matrix      0.04 Mb     (      36,   2,   36)
        Arrays for rho mixing           0.74 Mb     (    6075,    8)

     Check: negative/imaginary core charge=   -0.000003    0.000000

     Initial potential from superposition of free atoms

     starting charge   27.99723, renormalised to   28.00000
     Starting wfc are   36 randomized atomic wfcs

     total cpu time spent up to now is       11.5 secs

     Self-consistent Calculation

     iteration #  1     ecut=    65.00 Ry     beta=0.70
     Davidson diagonalization with overlap
     ethr =  1.00E-02,  avg # of iterations =  3.4

     Threshold (ethr) on eigenvalues was too large:
     Diagonalizing with lowered threshold

     Davidson diagonalization with overlap
     ethr =  6.59E-05,  avg # of iterations =  3.3

     total cpu time spent up to now is       82.7 secs

     total energy              =    -326.05812491 Ry
     Harris-Foulkes estimate   =    -326.06116877 Ry
     estimated scf accuracy    <       0.02225659 Ry

     iteration #  2     ecut=    65.00 Ry     beta=0.70
     Davidson diagonalization with overlap
     ethr =  7.95E-05,  avg # of iterations =  1.0

     total cpu time spent up to now is      110.4 secs

     total energy              =    -326.05882239 Ry
     Harris-Foulkes estimate   =    -326.05887207 Ry
     estimated scf accuracy    <       0.00147803 Ry

     iteration #  3     ecut=    65.00 Ry     beta=0.70
     Davidson diagonalization with overlap
     ethr =  5.28E-06,  avg # of iterations =  2.6

     total cpu time spent up to now is      150.2 secs

     total energy              =    -326.05901667 Ry
     Harris-Foulkes estimate   =    -326.05903636 Ry
     estimated scf accuracy    <       0.00005157 Ry

     iteration #  4     ecut=    65.00 Ry     beta=0.70
     Davidson diagonalization with overlap
     ethr =  1.84E-07,  avg # of iterations =  2.0

     total cpu time spent up to now is      188.3 secs

     total energy              =    -326.05903068 Ry
     Harris-Foulkes estimate   =    -326.05902893 Ry
     estimated scf accuracy    <       0.00000304 Ry

     iteration #  5     ecut=    65.00 Ry     beta=0.70
     Davidson diagonalization with overlap
     ethr =  1.08E-08,  avg # of iterations =  2.0

     total cpu time spent up to now is      219.3 secs

     End of self-consistent calculation

          k = 0.0000 0.0000 0.0000 (  4477 PWs)   bands (ev):

   -14.6421 -14.6421 -14.6421 -14.6421 -14.6421 -14.6421 -14.5951 -14.5951
   -14.5951 -14.5951 -14.3460 -14.3460 -14.3460 -14.3460 -14.3460 -14.3460
   -14.3452 -14.3452 -14.3452 -14.3452  -3.1831  -3.1831   5.7051   5.7051
     6.9856   6.9856   6.9856   6.9856   6.9856   6.9856   9.0505   9.0505
     9.0505   9.0505   9.0505   9.0505

     occupation numbers 
     1.0000   1.0000   1.0000   1.0000   1.0000   1.0000   1.0000   1.0000
     1.0000   1.0000   1.0000   1.0000   1.0000   1.0000   1.0000   1.0000
     1.0000   1.0000   1.0000   1.0000   1.0000   1.0000   1.0000   1.0000
     0.0000   0.0000   0.0000   0.0000   0.0000   0.0000   0.0000   0.0000
     0.0000   0.0000   0.0000   0.0000

          k = 0.0442 0.0442-0.0442 (  4453 PWs)   bands (ev):

   -14.6448 -14.6448 -14.6448 -14.6448 -14.6414 -14.6414 -14.5911 -14.5911
   -14.5911 -14.5911 -14.3562 -14.3562 -14.3562 -14.3562 -14.3465 -14.3465
   -14.3354 -14.3354 -14.3354 -14.3354  -3.1483  -3.1483   5.3104   5.3104
     6.9132   6.9132   6.9132   6.9132   7.1677   7.1677   9.1453   9.1453
     9.1453   9.1453   9.1798   9.1798

     occupation numbers 
     1.0000   1.0000   1.0000   1.0000   1.0000   1.0000   1.0000   1.0000
     1.0000   1.0000   1.0000   1.0000   1.0000   1.0000   1.0000   1.0000
     1.0000   1.0000   1.0000   1.0000   1.0000   1.0000   1.0000   1.0000
     0.0238   0.0238   0.0238   0.0238   0.0000   0.0000   0.0000   0.0000
     0.0000   0.0000   0.0000   0.0000

          k = 0.0884 0.0884-0.0884 (  4456 PWs)   bands (ev):

   -14.6507 -14.6507 -14.6507 -14.6507 -14.6392 -14.6392 -14.5826 -14.5826
   -14.5826 -14.5826 -14.3669 -14.3669 -14.3669 -14.3669 -14.3495 -14.3495
   -14.3263 -14.3263 -14.3263 -14.3263  -3.0448  -3.0448   4.5498   4.5498
     6.7358   6.7358   6.7358   6.7358   7.2977   7.2977   9.3794   9.3794
     9.3794   9.3794   9.6125   9.6125

     occupation numbers 
     1.0000   1.0000   1.0000   1.0000   1.0000   1.0000   1.0000   1.0000
     1.0000   1.0000   1.0000   1.0000   1.0000   1.0000   1.0000   1.0000
     1.0000   1.0000   1.0000   1.0000   1.0000   1.0000   1.0000   1.0000
     1.0000   1.0000   1.0000   1.0000   0.0000   0.0000   0.0000   0.0000
     0.0000   0.0000   0.0000   0.0000

          k = 0.1326 0.1326-0.1326 (  4444 PWs)   bands (ev):

   -14.6572 -14.6572 -14.6572 -14.6572 -14.6356 -14.6356 -14.5725 -14.5725
   -14.5725 -14.5725 -14.3766 -14.3766 -14.3766 -14.3766 -14.3537 -14.3537
   -14.3185 -14.3185 -14.3185 -14.3185  -2.8756  -2.8756   3.7204   3.7204
     6.5211   6.5211   6.5211   6.5211   7.2347   7.2347   9.6548   9.6548
     9.6548   9.6548  10.2929  10.2929

     occupation numbers 
     1.0000   1.0000   1.0000   1.0000   1.0000   1.0000   1.0000   1.0000
     1.0000   1.0000   1.0000   1.0000   1.0000   1.0000   1.0000   1.0000
     1.0000   1.0000   1.0000   1.0000   1.0000   1.0000   1.0000   1.0000
     1.0000   1.0000   1.0000   1.0000   0.0000   0.0000   0.0000   0.0000
     0.0000   0.0000   0.0000   0.0000

          k = 0.1768 0.1768-0.1768 (  4432 PWs)   bands (ev):

   -14.6626 -14.6626 -14.6626 -14.6626 -14.6310 -14.6310 -14.5631 -14.5631
   -14.5631 -14.5631 -14.3850 -14.3850 -14.3850 -14.3850 -14.3586 -14.3586
   -14.3125 -14.3125 -14.3125 -14.3125  -2.6470  -2.6470   2.9089   2.9089
     6.3144   6.3144   6.3144   6.3144   7.0952   7.0952   9.8855   9.8855
     9.8855   9.8855  11.1018  11.1018

     occupation numbers 
     1.0000   1.0000   1.0000   1.0000   1.0000   1.0000   1.0000   1.0000
     1.0000   1.0000   1.0000   1.0000   1.0000   1.0000   1.0000   1.0000
     1.0000   1.0000   1.0000   1.0000   1.0000   1.0000   1.0000   1.0000
     1.0000   1.0000   1.0000   1.0000   0.0000   0.0000   0.0000   0.0000
     0.0000   0.0000   0.0000   0.0000

          k = 0.2210 0.2210-0.2210 (  4438 PWs)   bands (ev):

   -14.6667 -14.6667 -14.6667 -14.6667 -14.6265 -14.6265 -14.5555 -14.5555
   -14.5555 -14.5555 -14.3916 -14.3916 -14.3916 -14.3916 -14.3641 -14.3641
   -14.3078 -14.3078 -14.3078 -14.3078  -2.3720  -2.3720   2.1610   2.1610
     6.1396   6.1396   6.1396   6.1396   6.9536   6.9536  10.0255  10.0255
    10.0255  10.0255  11.9665  11.9665

     occupation numbers 
     1.0000   1.0000   1.0000   1.0000   1.0000   1.0000   1.0000   1.0000
     1.0000   1.0000   1.0000   1.0000   1.0000   1.0000   1.0000   1.0000
     1.0000   1.0000   1.0000   1.0000   1.0000   1.0000   1.0000   1.0000
     1.0000   1.0000   1.0000   1.0000   0.0000   0.0000   0.0000   0.0000
     0.0000   0.0000   0.0000   0.0000

          k = 0.2652 0.2652-0.2652 (  4437 PWs)   bands (ev):

   -14.6694 -14.6694 -14.6694 -14.6694 -14.6227 -14.6227 -14.5502 -14.5502
   -14.5502 -14.5502 -14.3961 -14.3961 -14.3961 -14.3961 -14.3684 -14.3684
   -14.3048 -14.3048 -14.3048 -14.3048  -2.0787  -2.0787   1.5212   1.5212
     6.0089   6.0089   6.0089   6.0089   6.8411   6.8411  10.0828  10.0828
    10.0828  10.0828  12.6295  12.6295

     occupation numbers 
     1.0000   1.0000   1.0000   1.0000   1.0000   1.0000   1.0000   1.0000
     1.0000   1.0000   1.0000   1.0000   1.0000   1.0000   1.0000   1.0000
     1.0000   1.0000   1.0000   1.0000   1.0000   1.0000   1.0000   1.0000
     1.0000   1.0000   1.0000   1.0000   1.0000   1.0000   0.0000   0.0000
     0.0000   0.0000   0.0000   0.0000

          k = 0.3094 0.3094-0.3094 (  4431 PWs)   bands (ev):

   -14.6707 -14.6707 -14.6707 -14.6707 -14.6201 -14.6201 -14.5472 -14.5472
   -14.5472 -14.5472 -14.3983 -14.3983 -14.3983 -14.3983 -14.3714 -14.3714
   -14.3031 -14.3031 -14.3031 -14.3031  -1.8272  -1.8272   1.0586   1.0586
     5.9285   5.9285   5.9285   5.9285   6.7703   6.7703  10.0953  10.0953
    10.0953  10.0953  12.6550  12.6550

     occupation numbers 
     1.0000   1.0000   1.0000   1.0000   1.0000   1.0000   1.0000   1.0000
     1.0000   1.0000   1.0000   1.0000   1.0000   1.0000   1.0000   1.0000
     1.0000   1.0000   1.0000   1.0000   1.0000   1.0000   1.0000   1.0000
     1.0000   1.0000   1.0000   1.0000   1.0000   1.0000   0.0000   0.0000
     0.0000   0.0000   0.0000   0.0000

          k =-0.3536-0.3536 0.3536 (  4446 PWs)   bands (ev):

   -14.6714 -14.6714 -14.6714 -14.6714 -14.6191 -14.6191 -14.5462 -14.5462
   -14.5462 -14.5462 -14.3993 -14.3993 -14.3993 -14.3993 -14.3725 -14.3725
   -14.3026 -14.3026 -14.3026 -14.3026  -1.7210  -1.7210   0.8815   0.8815
     5.9013   5.9013   5.9013   5.9013   6.7463   6.7463  10.0957  10.0957
    10.0957  10.0957  12.6300  12.6300

     occupation numbers 
     1.0000   1.0000   1.0000   1.0000   1.0000   1.0000   1.0000   1.0000
     1.0000   1.0000   1.0000   1.0000   1.0000   1.0000   1.0000   1.0000
     1.0000   1.0000   1.0000   1.0000   1.0000   1.0000   1.0000   1.0000
     1.0000   1.0000   1.0000   1.0000   1.0000   1.0000   0.0000   0.0000
     0.0000   0.0000   0.0000   0.0000

          k = 0.0884 0.0000 0.0000 (  4453 PWs)   bands (ev):

   -14.6445 -14.6445 -14.6441 -14.6441 -14.6441 -14.6441 -14.5924 -14.5924
   -14.5875 -14.5875 -14.3655 -14.3655 -14.3475 -14.3475 -14.3429 -14.3429
   -14.3429 -14.3429 -14.3314 -14.3314  -3.1367  -3.1367   5.2304   5.2304
     6.7805   6.7805   6.7805   6.7805   7.4411   7.4411   8.9059   8.9059
     9.3151   9.3151   9.3151   9.3151

     occupation numbers 
     1.0000   1.0000   1.0000   1.0000   1.0000   1.0000   1.0000   1.0000
     1.0000   1.0000   1.0000   1.0000   1.0000   1.0000   1.0000   1.0000
     1.0000   1.0000   1.0000   1.0000   1.0000   1.0000   1.0000   1.0000
     1.0000   1.0000   1.0000   1.0000   0.0000   0.0000   0.0000   0.0000
     0.0000   0.0000   0.0000   0.0000

          k = 0.1326 0.0442-0.0442 (  4445 PWs)   bands (ev):

   -14.6506 -14.6506 -14.6480 -14.6480 -14.6421 -14.6421 -14.5868 -14.5868
   -14.5787 -14.5787 -14.3767 -14.3767 -14.3566 -14.3566 -14.3431 -14.3431
   -14.3343 -14.3343 -14.3243 -14.3243  -3.0559  -3.0559   4.6665   4.6665
     6.5727   6.5727   6.6040   6.6040   7.6939   7.6939   8.9049   8.9049
     9.5980   9.5980   9.6718   9.6718

     occupation numbers 
     1.0000   1.0000   1.0000   1.0000   1.0000   1.0000   1.0000   1.0000
     1.0000   1.0000   1.0000   1.0000   1.0000   1.0000   1.0000   1.0000
     1.0000   1.0000   1.0000   1.0000   1.0000   1.0000   1.0000   1.0000
     1.0000   1.0000   1.0000   1.0000   0.0000   0.0000   0.0000   0.0000
     0.0000   0.0000   0.0000   0.0000

          k = 0.1768 0.0884-0.0884 (  4446 PWs)   bands (ev):

   -14.6578 -14.6578 -14.6538 -14.6538 -14.6380 -14.6380 -14.5782 -14.5782
   -14.5681 -14.5681 -14.3874 -14.3874 -14.3669 -14.3669 -14.3473 -14.3473
   -14.3256 -14.3256 -14.3164 -14.3164  -2.9081  -2.9081   3.9130   3.9130
     6.3504   6.3504   6.3867   6.3867   7.7124   7.7124   9.1318   9.1318
     9.9037   9.9037  10.2237  10.2237

     occupation numbers 
     1.0000   1.0000   1.0000   1.0000   1.0000   1.0000   1.0000   1.0000
     1.0000   1.0000   1.0000   1.0000   1.0000   1.0000   1.0000   1.0000
     1.0000   1.0000   1.0000   1.0000   1.0000   1.0000   1.0000   1.0000
     1.0000   1.0000   1.0000   1.0000   0.0000   0.0000   0.0000   0.0000
     0.0000   0.0000   0.0000   0.0000

          k = 0.2210 0.1326-0.1326 (  4437 PWs)   bands (ev):

   -14.6643 -14.6643 -14.6595 -14.6595 -14.6325 -14.6325 -14.5688 -14.5688
   -14.5580 -14.5580 -14.3965 -14.3965 -14.3762 -14.3762 -14.3533 -14.3533
   -14.3181 -14.3181 -14.3095 -14.3095  -2.6983  -2.6983   3.1250   3.1250
     6.1463   6.1463   6.1501   6.1501   7.5978   7.5978   9.4441   9.4441
    10.1514  10.1514  10.8688  10.8688

     occupation numbers 
     1.0000   1.0000   1.0000   1.0000   1.0000   1.0000   1.0000   1.0000
     1.0000   1.0000   1.0000   1.0000   1.0000   1.0000   1.0000   1.0000
     1.0000   1.0000   1.0000   1.0000   1.0000   1.0000   1.0000   1.0000
     1.0000   1.0000   1.0000   1.0000   0.0000   0.0000   0.0000   0.0000
     0.0000   0.0000   0.0000   0.0000

          k = 0.2652 0.1768-0.1768 (  4437 PWs)   bands (ev):

   -14.6696 -14.6696 -14.6642 -14.6642 -14.6265 -14.6265 -14.5602 -14.5602
   -14.5499 -14.5499 -14.4028 -14.4028 -14.3843 -14.3843 -14.3606 -14.3606
   -14.3120 -14.3120 -14.3041 -14.3041  -2.4367  -2.4367   2.3714   2.3714
     5.9211   5.9211   5.9909   5.9909   7.4527   7.4527   9.7048   9.7048
    10.2899  10.2899  11.5478  11.5478

     occupation numbers 
     1.0000   1.0000   1.0000   1.0000   1.0000   1.0000   1.0000   1.0000
     1.0000   1.0000   1.0000   1.0000   1.0000   1.0000   1.0000   1.0000
     1.0000   1.0000   1.0000   1.0000   1.0000   1.0000   1.0000   1.0000
     1.0000   1.0000   1.0000   1.0000   0.0000   0.0000   0.0000   0.0000
     0.0000   0.0000   0.0000   0.0000

          k = 0.3094 0.2210-0.2210 (  4431 PWs)   bands (ev):

   -14.6732 -14.6732 -14.6677 -14.6677 -14.6207 -14.6207 -14.5530 -14.5530
   -14.5447 -14.5447 -14.4060 -14.4060 -14.3913 -14.3913 -14.3675 -14.3675
   -14.3074 -14.3074 -14.3003 -14.3003  -2.1446  -2.1446   1.7011   1.7011
     5.7327   5.7327   5.8825   5.8825   7.3233   7.3233   9.8642   9.8642
    10.3219  10.3219  12.2168  12.2169

     occupation numbers 
     1.0000   1.0000   1.0000   1.0000   1.0000   1.0000   1.0000   1.0000
     1.0000   1.0000   1.0000   1.0000   1.0000   1.0000   1.0000   1.0000
     1.0000   1.0000   1.0000   1.0000   1.0000   1.0000   1.0000   1.0000
     1.0000   1.0000   1.0000   1.0000   0.0000   0.0000   0.0000   0.0000
     0.0000   0.0000   0.0000   0.0000

          k = 0.3536 0.2652-0.2652 (  4435 PWs)   bands (ev):

   -14.6753 -14.6753 -14.6704 -14.6704 -14.6163 -14.6163 -14.5477 -14.5477
   -14.5427 -14.5427 -14.4058 -14.4058 -14.3967 -14.3967 -14.3734 -14.3734
   -14.3041 -14.3041 -14.2982 -14.2982  -1.8690  -1.8690   1.1752   1.1752
     5.5922   5.5922   5.8295   5.8295   7.2291   7.2291   9.9514   9.9514
    10.2888  10.2888  12.6496  12.6496

     occupation numbers 
     1.0000   1.0000   1.0000   1.0000   1.0000   1.0000   1.0000   1.0000
     1.0000   1.0000   1.0000   1.0000   1.0000   1.0000   1.0000   1.0000
     1.0000   1.0000   1.0000   1.0000   1.0000   1.0000   1.0000   1.0000
     1.0000   1.0000   1.0000   1.0000   0.0000   0.0000   0.0000   0.0000
     0.0000   0.0000   0.0000   0.0000

          k =-0.3094-0.3977 0.3977 (  4433 PWs)   bands (ev):

   -14.6757 -14.6757 -14.6719 -14.6719 -14.6138 -14.6138 -14.5442 -14.5442
   -14.5434 -14.5434 -14.4030 -14.4030 -14.4008 -14.4008 -14.3771 -14.3771
   -14.3018 -14.3018 -14.2978 -14.2978  -1.7012  -1.7012   0.8924   0.8924
     5.5055   5.5055   5.8332   5.8332   7.1782   7.1782  10.0123  10.0123
    10.2312  10.2312  12.7436  12.7436

     occupation numbers 
     1.0000   1.0000   1.0000   1.0000   1.0000   1.0000   1.0000   1.0000
     1.0000   1.0000   1.0000   1.0000   1.0000   1.0000   1.0000   1.0000
     1.0000   1.0000   1.0000   1.0000   1.0000   1.0000   1.0000   1.0000
     1.0000   1.0000   1.0000   1.0000   0.0000   0.0000   0.0000   0.0000
     0.0000   0.0000   0.0000   0.0000

          k =-0.2652-0.3536 0.3536 (  4428 PWs)   bands (ev):

   -14.6748 -14.6748 -14.6725 -14.6725 -14.6139 -14.6139 -14.5459 -14.5459
   -14.5423 -14.5423 -14.4035 -14.4035 -14.3992 -14.3992 -14.3776 -14.3776
   -14.3006 -14.3006 -14.2992 -14.2992  -1.7382  -1.7382   0.9526   0.9526
     5.4763   5.4763   5.8926   5.8926   7.1739   7.1739  10.0721  10.0721
    10.1689  10.1689  12.7564  12.7564

     occupation numbers 
     1.0000   1.0000   1.0000   1.0000   1.0000   1.0000   1.0000   1.0000
     1.0000   1.0000   1.0000   1.0000   1.0000   1.0000   1.0000   1.0000
     1.0000   1.0000   1.0000   1.0000   1.0000   1.0000   1.0000   1.0000
     1.0000   1.0000   1.0000   1.0000   0.0000   0.0000   0.0000   0.0000
     0.0000   0.0000   0.0000   0.0000

          k =-0.2210-0.3094 0.3094 (  4440 PWs)   bands (ev):

   -14.6727 -14.6727 -14.6723 -14.6723 -14.6166 -14.6166 -14.5501 -14.5501
   -14.5430 -14.5430 -14.4042 -14.4042 -14.3952 -14.3952 -14.3741 -14.3741
   -14.3022 -14.3022 -14.3008 -14.3008  -1.9550  -1.9550   1.3304   1.3304
     5.5068   5.5068   6.0046   6.0046   7.2156   7.2156  10.0981  10.0981
    10.1277  10.1277  12.6422  12.6422

     occupation numbers 
     1.0000   1.0000   1.0000   1.0000   1.0000   1.0000   1.0000   1.0000
     1.0000   1.0000   1.0000   1.0000   1.0000   1.0000   1.0000   1.0000
     1.0000   1.0000   1.0000   1.0000   1.0000   1.0000   1.0000   1.0000
     1.0000   1.0000   1.0000   1.0000   0.0000   0.0000   0.0000   0.0000
     0.0000   0.0000   0.0000   0.0000

          k =-0.1768-0.2652 0.2652 (  4446 PWs)   bands (ev):

   -14.6706 -14.6706 -14.6693 -14.6693 -14.6212 -14.6212 -14.5558 -14.5558
   -14.5467 -14.5467 -14.4020 -14.4020 -14.3908 -14.3908 -14.3676 -14.3676
   -14.3068 -14.3068 -14.3026 -14.3026  -2.2438  -2.2438   1.9131   1.9131
     5.5984   5.5984   6.1636   6.1636   7.2987   7.2987   9.9944   9.9944
    10.1450  10.1450  12.0706  12.0707

     occupation numbers 
     1.0000   1.0000   1.0000   1.0000   1.0000   1.0000   1.0000   1.0000
     1.0000   1.0000   1.0000   1.0000   1.0000   1.0000   1.0000   1.0000
     1.0000   1.0000   1.0000   1.0000   1.0000   1.0000   1.0000   1.0000
     1.0000   1.0000   1.0000   1.0000   0.0000   0.0000   0.0000   0.0000
     0.0000   0.0000   0.0000   0.0000

          k =-0.1326-0.2210 0.2210 (  4439 PWs)   bands (ev):

   -14.6673 -14.6673 -14.6644 -14.6644 -14.6270 -14.6270 -14.5629 -14.5629
   -14.5533 -14.5533 -14.3967 -14.3967 -14.3853 -14.3853 -14.3595 -14.3595
   -14.3129 -14.3129 -14.3059 -14.3059  -2.5292  -2.5292   2.6157   2.6157
     5.7518   5.7518   6.3595   6.3595   7.4113   7.4113   9.8266   9.8266
    10.0567  10.0567  11.3407  11.3407

     occupation numbers 
     1.0000   1.0000   1.0000   1.0000   1.0000   1.0000   1.0000   1.0000
     1.0000   1.0000   1.0000   1.0000   1.0000   1.0000   1.0000   1.0000
     1.0000   1.0000   1.0000   1.0000   1.0000   1.0000   1.0000   1.0000
     1.0000   1.0000   1.0000   1.0000   0.0000   0.0000   0.0000   0.0000
     0.0000   0.0000   0.0000   0.0000

          k =-0.0884-0.1768 0.1768 (  4436 PWs)   bands (ev):

   -14.6625 -14.6625 -14.6583 -14.6583 -14.6330 -14.6330 -14.5713 -14.5713
   -14.5627 -14.5627 -14.3886 -14.3886 -14.3781 -14.3781 -14.3514 -14.3514
   -14.3206 -14.3206 -14.3109 -14.3109  -2.7751  -2.7751   3.3834   3.3834
     5.9665   5.9665   6.5748   6.5748   7.5240   7.5240   9.5907   9.5907
     9.8010   9.8010  10.6858  10.6858

     occupation numbers 
     1.0000   1.0000   1.0000   1.0000   1.0000   1.0000   1.0000   1.0000
     1.0000   1.0000   1.0000   1.0000   1.0000   1.0000   1.0000   1.0000
     1.0000   1.0000   1.0000   1.0000   1.0000   1.0000   1.0000   1.0000
     1.0000   1.0000   1.0000   1.0000   0.0000   0.0000   0.0000   0.0000
     0.0000   0.0000   0.0000   0.0000

          k =-0.0442-0.1326 0.1326 (  4445 PWs)   bands (ev):

   -14.6563 -14.6563 -14.6517 -14.6517 -14.6382 -14.6382 -14.5804 -14.5804
   -14.5735 -14.5735 -14.3786 -14.3786 -14.3695 -14.3695 -14.3446 -14.3446
   -14.3298 -14.3298 -14.3177 -14.3177  -2.9649  -2.9649   4.1624   4.1624
     6.2419   6.2419   6.7771   6.7771   7.5676   7.5676   9.3367   9.3367
     9.4447   9.4447  10.1141  10.1141

     occupation numbers 
     1.0000   1.0000   1.0000   1.0000   1.0000   1.0000   1.0000   1.0000
     1.0000   1.0000   1.0000   1.0000   1.0000   1.0000   1.0000   1.0000
     1.0000   1.0000   1.0000   1.0000   1.0000   1.0000   1.0000   1.0000
     1.0000   1.0000   1.0000   1.0000   0.0000   0.0000   0.0000   0.0000
     0.0000   0.0000   0.0000   0.0000

          k = 0.0000-0.0884 0.0884 (  4451 PWs)   bands (ev):

   -14.6498 -14.6498 -14.6460 -14.6460 -14.6414 -14.6414 -14.5881 -14.5881
   -14.5837 -14.5837 -14.3675 -14.3675 -14.3605 -14.3605 -14.3405 -14.3405
   -14.3384 -14.3384 -14.3261 -14.3261  -3.0906  -3.0906   4.8652   4.8652
     6.5767   6.5767   6.9104   6.9104   7.4279   7.4279   9.1578   9.1578
     9.1971   9.1971   9.5918   9.5918

     occupation numbers 
     1.0000   1.0000   1.0000   1.0000   1.0000   1.0000   1.0000   1.0000
     1.0000   1.0000   1.0000   1.0000   1.0000   1.0000   1.0000   1.0000
     1.0000   1.0000   1.0000   1.0000   1.0000   1.0000   1.0000   1.0000
     1.0000   1.0000   0.8017   0.8017   0.0000   0.0000   0.0000   0.0000
     0.0000   0.0000   0.0000   0.0000

          k = 0.1768 0.0000 0.0000 (  4464 PWs)   bands (ev):

   -14.6495 -14.6495 -14.6495 -14.6495 -14.6478 -14.6478 -14.5851 -14.5851
   -14.5700 -14.5700 -14.3900 -14.3900 -14.3546 -14.3546 -14.3360 -14.3360
   -14.3360 -14.3360 -14.3233 -14.3233  -2.9978  -2.9978   4.4169   4.4169
     6.3503   6.3503   6.3503   6.3503   8.1622   8.1622   8.5858   8.5858
     9.9218   9.9218   9.9218   9.9218

     occupation numbers 
     1.0000   1.0000   1.0000   1.0000   1.0000   1.0000   1.0000   1.0000
     1.0000   1.0000   1.0000   1.0000   1.0000   1.0000   1.0000   1.0000
     1.0000   1.0000   1.0000   1.0000   1.0000   1.0000   1.0000   1.0000
     1.0000   1.0000   1.0000   1.0000   0.0000   0.0000   0.0000   0.0000
     0.0000   0.0000   0.0000   0.0000

          k = 0.2210 0.0442-0.0442 (  4454 PWs)   bands (ev):

   -14.6570 -14.6570 -14.6538 -14.6538 -14.6436 -14.6436 -14.5781 -14.5781
   -14.5586 -14.5586 -14.4029 -14.4029 -14.3624 -14.3624 -14.3365 -14.3365
   -14.3289 -14.3289 -14.3177 -14.3177  -2.8719  -2.8719   3.8738   3.8738
     6.1072   6.1072   6.1231   6.1231   8.3450   8.3450   8.5808   8.5808
    10.2683  10.2683  10.3503  10.3503

     occupation numbers 
     1.0000   1.0000   1.0000   1.0000   1.0000   1.0000   1.0000   1.0000
     1.0000   1.0000   1.0000   1.0000   1.0000   1.0000   1.0000   1.0000
     1.0000   1.0000   1.0000   1.0000   1.0000   1.0000   1.0000   1.0000
     1.0000   1.0000   1.0000   1.0000   0.0000   0.0000   0.0000   0.0000
     0.0000   0.0000   0.0000   0.0000

          k = 0.2652 0.0884-0.0884 (  4444 PWs)   bands (ev):

   -14.6653 -14.6653 -14.6590 -14.6590 -14.6364 -14.6364 -14.5691 -14.5691
   -14.5474 -14.5474 -14.4139 -14.4139 -14.3722 -14.3722 -14.3433 -14.3433
   -14.3209 -14.3209 -14.3092 -14.3092  -2.6819  -2.6819   3.1980   3.1980
     5.8270   5.8270   5.9239   5.9239   8.2717   8.2717   8.8743   8.8743
    10.5575  10.5575  10.7855  10.7855

     occupation numbers 
     1.0000   1.0000   1.0000   1.0000   1.0000   1.0000   1.0000   1.0000
     1.0000   1.0000   1.0000   1.0000   1.0000   1.0000   1.0000   1.0000
     1.0000   1.0000   1.0000   1.0000   1.0000   1.0000   1.0000   1.0000
     1.0000   1.0000   1.0000   1.0000   0.0000   0.0000   0.0000   0.0000
     0.0000   0.0000   0.0000   0.0000

          k = 0.3094 0.1326-0.1326 (  4431 PWs)   bands (ev):

   -14.6724 -14.6724 -14.6638 -14.6638 -14.6276 -14.6276 -14.5600 -14.5600
   -14.5384 -14.5384 -14.4218 -14.4218 -14.3816 -14.3816 -14.3531 -14.3531
   -14.3137 -14.3137 -14.3013 -14.3013  -2.4358  -2.4358   2.4963   2.4963
     5.5439   5.5439   5.7704   5.7704   8.1303   8.1303   9.2580   9.2580
    10.7267  10.7267  11.1083  11.1084

     occupation numbers 
     1.0000   1.0000   1.0000   1.0000   1.0000   1.0000   1.0000   1.0000
     1.0000   1.0000   1.0000   1.0000   1.0000   1.0000   1.0000   1.0000
     1.0000   1.0000   1.0000   1.0000   1.0000   1.0000   1.0000   1.0000
     1.0000   1.0000   1.0000   1.0000   0.0000   0.0000   0.0000   0.0000
     0.0000   0.0000   0.0000   0.0000

          k = 0.3536 0.1768-0.1768 (  4442 PWs)   bands (ev):

   -14.6783 -14.6783 -14.6681 -14.6681 -14.6185 -14.6185 -14.5516 -14.5516
   -14.5329 -14.5329 -14.4257 -14.4257 -14.3906 -14.3906 -14.3638 -14.3638
   -14.3079 -14.3079 -14.2951 -14.2951  -2.1498  -2.1498   1.8354   1.8354
     5.2929   5.2929   5.6722   5.6722   7.9874   7.9874   9.5832   9.5832
    10.7639  10.7639  11.4677  11.4677

     occupation numbers 
     1.0000   1.0000   1.0000   1.0000   1.0000   1.0000   1.0000   1.0000
     1.0000   1.0000   1.0000   1.0000   1.0000   1.0000   1.0000   1.0000
     1.0000   1.0000   1.0000   1.0000   1.0000   1.0000   1.0000   1.0000
     1.0000   1.0000   1.0000   1.0000   0.0000   0.0000   0.0000   0.0000
     0.0000   0.0000   0.0000   0.0000

          k = 0.3977 0.2210-0.2210 (  4430 PWs)   bands (ev):

   -14.6823 -14.6823 -14.6713 -14.6713 -14.6101 -14.6101 -14.5441 -14.5441
   -14.5314 -14.5314 -14.4245 -14.4245 -14.3987 -14.3987 -14.3738 -14.3738
   -14.3031 -14.3031 -14.2907 -14.2907  -1.8595  -1.8595   1.2773   1.2773
     5.0918   5.0918   5.6336   5.6336   7.8712   7.8712   9.7830   9.7830
    10.7086  10.7086  11.9859  11.9859

     occupation numbers 
     1.0000   1.0000   1.0000   1.0000   1.0000   1.0000   1.0000   1.0000
     1.0000   1.0000   1.0000   1.0000   1.0000   1.0000   1.0000   1.0000
     1.0000   1.0000   1.0000   1.0000   1.0000   1.0000   1.0000   1.0000
     1.0000   1.0000   1.0000   1.0000   0.0000   0.0000   0.0000   0.0000
     0.0000   0.0000   0.0000   0.0000

          k =-0.2652-0.4419 0.4419 (  4438 PWs)   bands (ev):

   -14.6842 -14.6842 -14.6737 -14.6737 -14.6040 -14.6040 -14.5382 -14.5382
   -14.5339 -14.5339 -14.4189 -14.4189 -14.4058 -14.4058 -14.3822 -14.3822
   -14.2996 -14.2996 -14.2889 -14.2889  -1.6412  -1.6412   0.9121   0.9121
     4.9497   4.9497   5.6557   5.6557   7.7946   7.7946   9.9026   9.9027
    10.6092  10.6092  12.5546  12.5546

     occupation numbers 
     1.0000   1.0000   1.0000   1.0000   1.0000   1.0000   1.0000   1.0000
     1.0000   1.0000   1.0000   1.0000   1.0000   1.0000   1.0000   1.0000
     1.0000   1.0000   1.0000   1.0000   1.0000   1.0000   1.0000   1.0000
     1.0000   1.0000   1.0000   1.0000   0.0000   0.0000   0.0000   0.0000
     0.0000   0.0000   0.0000   0.0000

          k =-0.2210-0.3977 0.3977 (  4434 PWs)   bands (ev):

   -14.6840 -14.6840 -14.6753 -14.6753 -14.6013 -14.6013 -14.5390 -14.5390
   -14.5339 -14.5339 -14.4114 -14.4114 -14.4097 -14.4097 -14.3878 -14.3878
   -14.2973 -14.2973 -14.2894 -14.2894  -1.6059  -1.6059   0.8569   0.8569
     4.8728   4.8728   5.7366   5.7366   7.7621   7.7621  10.0022  10.0022
    10.4937  10.4937  12.8611  12.8611

     occupation numbers 
     1.0000   1.0000   1.0000   1.0000   1.0000   1.0000   1.0000   1.0000
     1.0000   1.0000   1.0000   1.0000   1.0000   1.0000   1.0000   1.0000
     1.0000   1.0000   1.0000   1.0000   1.0000   1.0000   1.0000   1.0000
     1.0000   1.0000   1.0000   1.0000   0.0000   0.0000   0.0000   0.0000
     0.0000   0.0000   0.0000   0.0000

          k =-0.1768-0.3536 0.3536 (  4441 PWs)   bands (ev):

   -14.6818 -14.6818 -14.6758 -14.6758 -14.6029 -14.6029 -14.5454 -14.5454
   -14.5325 -14.5325 -14.4145 -14.4145 -14.3995 -14.3995 -14.3888 -14.3888
   -14.2965 -14.2965 -14.2925 -14.2925  -1.7778  -1.7778   1.1362   1.1362
     4.8663   4.8663   5.8718   5.8718   7.7728   7.7728  10.1036  10.1036
    10.3651  10.3651  12.6055  12.6055

     occupation numbers 
     1.0000   1.0000   1.0000   1.0000   1.0000   1.0000   1.0000   1.0000
     1.0000   1.0000   1.0000   1.0000   1.0000   1.0000   1.0000   1.0000
     1.0000   1.0000   1.0000   1.0000   1.0000   1.0000   1.0000   1.0000
     1.0000   1.0000   1.0000   1.0000   0.0000   0.0000   0.0000   0.0000
     0.0000   0.0000   0.0000   0.0000

          k =-0.1326-0.3094 0.3094 (  4429 PWs)   bands (ev):

   -14.6775 -14.6775 -14.6748 -14.6748 -14.6082 -14.6082 -14.5522 -14.5522
   -14.5348 -14.5348 -14.4139 -14.4139 -14.3939 -14.3939 -14.3805 -14.3805
   -14.2981 -14.2981 -14.2972 -14.2972  -2.0559  -2.0559   1.6430   1.6430
     4.9369   4.9369   6.0532   6.0532   7.8193   7.8193  10.1840  10.1840
    10.2051  10.2051  11.9526  11.9526

     occupation numbers 
     1.0000   1.0000   1.0000   1.0000   1.0000   1.0000   1.0000   1.0000
     1.0000   1.0000   1.0000   1.0000   1.0000   1.0000   1.0000   1.0000
     1.0000   1.0000   1.0000   1.0000   1.0000   1.0000   1.0000   1.0000
     1.0000   1.0000   1.0000   1.0000   0.0000   0.0000   0.0000   0.0000
     0.0000   0.0000   0.0000   0.0000

          k =-0.0884-0.2652 0.2652 (  4446 PWs)   bands (ev):

   -14.6724 -14.6724 -14.6715 -14.6715 -14.6166 -14.6166 -14.5592 -14.5592
   -14.5411 -14.5411 -14.4093 -14.4093 -14.3904 -14.3904 -14.3675 -14.3675
   -14.3062 -14.3062 -14.2997 -14.2997  -2.3483  -2.3483   2.2710   2.2710
     5.0938   5.0938   6.2669   6.2669   7.8831   7.8831   9.9903   9.9903
    10.1513  10.1513  11.3429  11.3429

     occupation numbers 
     1.0000   1.0000   1.0000   1.0000   1.0000   1.0000   1.0000   1.0000
     1.0000   1.0000   1.0000   1.0000   1.0000   1.0000   1.0000   1.0000
     1.0000   1.0000   1.0000   1.0000   1.0000   1.0000   1.0000   1.0000
     1.0000   1.0000   1.0000   1.0000   0.0000   0.0000   0.0000   0.0000
     0.0000   0.0000   0.0000   0.0000

          k =-0.0442-0.2210 0.2210 (  4432 PWs)   bands (ev):

   -14.6681 -14.6681 -14.6643 -14.6643 -14.6256 -14.6256 -14.5666 -14.5666
   -14.5507 -14.5507 -14.4010 -14.4010 -14.3848 -14.3848 -14.3547 -14.3547
   -14.3157 -14.3157 -14.3040 -14.3040  -2.6093  -2.6093   2.9468   2.9468
     5.3520   5.3520   6.4892   6.4892   7.9199   7.9199   9.7274   9.7275
     9.8916   9.8917  10.9591  10.9591

     occupation numbers 
     1.0000   1.0000   1.0000   1.0000   1.0000   1.0000   1.0000   1.0000
     1.0000   1.0000   1.0000   1.0000   1.0000   1.0000   1.0000   1.0000
     1.0000   1.0000   1.0000   1.0000   1.0000   1.0000   1.0000   1.0000
     1.0000   1.0000   1.0000   1.0000   0.0000   0.0000   0.0000   0.0000
     0.0000   0.0000   0.0000   0.0000

          k = 0.0000-0.1768 0.1768 (  4443 PWs)   bands (ev):

   -14.6626 -14.6626 -14.6569 -14.6569 -14.6337 -14.6337 -14.5742 -14.5742
   -14.5621 -14.5621 -14.3904 -14.3904 -14.3776 -14.3776 -14.3448 -14.3448
   -14.3260 -14.3260 -14.3100 -14.3100  -2.8181  -2.8181   3.6024   3.6024
     5.7323   5.7323   6.6792   6.6792   7.8389   7.8389   9.4775   9.4775
     9.5769   9.5769  10.6178  10.6178

     occupation numbers 
     1.0000   1.0000   1.0000   1.0000   1.0000   1.0000   1.0000   1.0000
     1.0000   1.0000   1.0000   1.0000   1.0000   1.0000   1.0000   1.0000
     1.0000   1.0000   1.0000   1.0000   1.0000   1.0000   1.0000   1.0000
     1.0000   1.0000   1.0000   1.0000   0.0000   0.0000   0.0000   0.0000
     0.0000   0.0000   0.0000   0.0000

          k = 0.2652 0.0000 0.0000 (  4448 PWs)   bands (ev):

   -14.6567 -14.6567 -14.6567 -14.6567 -14.6478 -14.6478 -14.5731 -14.5731
   -14.5462 -14.5462 -14.4184 -14.4184 -14.3657 -14.3657 -14.3257 -14.3257
   -14.3257 -14.3257 -14.3217 -14.3217  -2.7675  -2.7675   3.5618   3.5618
     5.8916   5.8916   5.8916   5.8916   8.2447   8.2447   8.7250   8.7250
    10.6694  10.6694  10.6694  10.6694

     occupation numbers 
     1.0000   1.0000   1.0000   1.0000   1.0000   1.0000   1.0000   1.0000
     1.0000   1.0000   1.0000   1.0000   1.0000   1.0000   1.0000   1.0000
     1.0000   1.0000   1.0000   1.0000   1.0000   1.0000   1.0000   1.0000
     1.0000   1.0000   1.0000   1.0000   0.0000   0.0000   0.0000   0.0000
     0.0000   0.0000   0.0000   0.0000

          k = 0.3094 0.0442-0.0442 (  4449 PWs)   bands (ev):

   -14.6640 -14.6640 -14.6611 -14.6611 -14.6419 -14.6419 -14.5649 -14.5649
   -14.5337 -14.5337 -14.4324 -14.4324 -14.3742 -14.3742 -14.3322 -14.3322
   -14.3191 -14.3191 -14.3126 -14.3126  -2.5979  -2.5979   3.0570   3.0570
     5.6323   5.6323   5.6886   5.6886   8.2299   8.2299   8.8271   8.8271
    10.9980  10.9980  11.0261  11.0261

     occupation numbers 
     1.0000   1.0000   1.0000   1.0000   1.0000   1.0000   1.0000   1.0000
     1.0000   1.0000   1.0000   1.0000   1.0000   1.0000   1.0000   1.0000
     1.0000   1.0000   1.0000   1.0000   1.0000   1.0000   1.0000   1.0000
     1.0000   1.0000   1.0000   1.0000   0.0000   0.0000   0.0000   0.0000
     0.0000   0.0000   0.0000   0.0000

          k = 0.3536 0.0884-0.0884 (  4441 PWs)   bands (ev):

   -14.6728 -14.6728 -14.6656 -14.6656 -14.6315 -14.6315 -14.5555 -14.5555
   -14.5229 -14.5229 -14.4431 -14.4431 -14.3840 -14.3840 -14.3441 -14.3441
   -14.3122 -14.3122 -14.3019 -14.3019  -2.3688  -2.3688   2.4653   2.4653
     5.3128   5.3128   5.5328   5.5328   8.3235   8.3235   8.9723   8.9723
    11.0686  11.0686  11.2615  11.2615

     occupation numbers 
     1.0000   1.0000   1.0000   1.0000   1.0000   1.0000   1.0000   1.0000
     1.0000   1.0000   1.0000   1.0000   1.0000   1.0000   1.0000   1.0000
     1.0000   1.0000   1.0000   1.0000   1.0000   1.0000   1.0000   1.0000
     1.0000   1.0000   1.0000   1.0000   0.0000   0.0000   0.0000   0.0000
     0.0000   0.0000   0.0000   0.0000

          k = 0.3977 0.1326-0.1326 (  4438 PWs)   bands (ev):

   -14.6808 -14.6808 -14.6698 -14.6698 -14.6192 -14.6192 -14.5460 -14.5460
   -14.5157 -14.5157 -14.4494 -14.4494 -14.3942 -14.3942 -14.3578 -14.3578
   -14.3059 -14.3059 -14.2927 -14.2927  -2.0925  -2.0925   1.8634   1.8634
     4.9944   4.9944   5.4341   5.4341   8.2935   8.2935   9.3555   9.3555
    11.0755  11.0755  11.3398  11.3398

     occupation numbers 
     1.0000   1.0000   1.0000   1.0000   1.0000   1.0000   1.0000   1.0000
     1.0000   1.0000   1.0000   1.0000   1.0000   1.0000   1.0000   1.0000
     1.0000   1.0000   1.0000   1.0000   1.0000   1.0000   1.0000   1.0000
     1.0000   1.0000   1.0000   1.0000   0.0000   0.0000   0.0000   0.0000
     0.0000   0.0000   0.0000   0.0000

          k = 0.4419 0.1768-0.1768 (  4436 PWs)   bands (ev):

   -14.6871 -14.6871 -14.6734 -14.6734 -14.6070 -14.6070 -14.5370 -14.5370
   -14.5134 -14.5134 -14.4500 -14.4500 -14.4041 -14.4041 -14.3715 -14.3715
   -14.3007 -14.3007 -14.2856 -14.2856  -1.7957  -1.7957   1.3153   1.3153
     4.7206   4.7206   5.3977   5.3977   8.2162   8.2162   9.7728   9.7728
    11.2535  11.2535  11.2903  11.2903

     occupation numbers 
     1.0000   1.0000   1.0000   1.0000   1.0000   1.0000   1.0000   1.0000
     1.0000   1.0000   1.0000   1.0000   1.0000   1.0000   1.0000   1.0000
     1.0000   1.0000   1.0000   1.0000   1.0000   1.0000   1.0000   1.0000
     1.0000   1.0000   1.0000   1.0000   0.0000   0.0000   0.0000   0.0000
     0.0000   0.0000   0.0000   0.0000

          k =-0.2210-0.4861 0.4861 (  4428 PWs)   bands (ev):

   -14.6910 -14.6910 -14.6762 -14.6762 -14.5967 -14.5967 -14.5290 -14.5290
   -14.5165 -14.5165 -14.4444 -14.4444 -14.4134 -14.4134 -14.3834 -14.3834
   -14.2965 -14.2965 -14.2811 -14.2811  -1.5389  -1.5389   0.9028   0.9028
     4.5122   4.5122   5.4247   5.4247   8.1578   8.1578  10.0309  10.0309
    11.1685  11.1685  11.7328  11.7328

     occupation numbers 
     1.0000   1.0000   1.0000   1.0000   1.0000   1.0000   1.0000   1.0000
     1.0000   1.0000   1.0000   1.0000   1.0000   1.0000   1.0000   1.0000
     1.0000   1.0000   1.0000   1.0000   1.0000   1.0000   1.0000   1.0000
     1.0000   1.0000   1.0000   1.0000   0.0000   0.0000   0.0000   0.0000
     0.0000   0.0000   0.0000   0.0000

          k =-0.1768-0.4419 0.4419 (  4426 PWs)   bands (ev):

   -14.6925 -14.6925 -14.6781 -14.6781 -14.5901 -14.5901 -14.5241 -14.5241
   -14.5228 -14.5228 -14.4337 -14.4337 -14.4212 -14.4212 -14.3919 -14.3919
   -14.2937 -14.2937 -14.2797 -14.2797  -1.4337  -1.4337   0.7481   0.7481
     4.3808   4.3808   5.5134   5.5134   8.1359   8.1359  10.1659  10.1659
    11.0117  11.0117  12.3691  12.3691

     occupation numbers 
     1.0000   1.0000   1.0000   1.0000   1.0000   1.0000   1.0000   1.0000
     1.0000   1.0000   1.0000   1.0000   1.0000   1.0000   1.0000   1.0000
     1.0000   1.0000   1.0000   1.0000   1.0000   1.0000   1.0000   1.0000
     1.0000   1.0000   1.0000   1.0000   0.0000   0.0000   0.0000   0.0000
     0.0000   0.0000   0.0000   0.0000

          k =-0.1326-0.3977 0.3977 (  4416 PWs)   bands (ev):

   -14.6912 -14.6912 -14.6789 -14.6789 -14.5886 -14.5886 -14.5341 -14.5341
   -14.5196 -14.5196 -14.4261 -14.4261 -14.4189 -14.4189 -14.3963 -14.3963
   -14.2923 -14.2923 -14.2816 -14.2816  -1.5532  -1.5532   0.9254   0.9254
     4.3360   4.3360   5.6588   5.6588   8.1498   8.1498  10.2748  10.2748
    10.8282  10.8282  12.4777  12.4777

     occupation numbers 
     1.0000   1.0000   1.0000   1.0000   1.0000   1.0000   1.0000   1.0000
     1.0000   1.0000   1.0000   1.0000   1.0000   1.0000   1.0000   1.0000
     1.0000   1.0000   1.0000   1.0000   1.0000   1.0000   1.0000   1.0000
     1.0000   1.0000   1.0000   1.0000   0.0000   0.0000   0.0000   0.0000
     0.0000   0.0000   0.0000   0.0000

          k =-0.0884-0.3536 0.3536 (  4433 PWs)   bands (ev):

   -14.6873 -14.6873 -14.6786 -14.6786 -14.5929 -14.5929 -14.5445 -14.5445
   -14.5213 -14.5213 -14.4265 -14.4265 -14.4017 -14.4017 -14.3974 -14.3974
   -14.2926 -14.2926 -14.2869 -14.2869  -1.8150  -1.8150   1.3444   1.3444
     4.3904   4.3904   5.8516   5.8516   8.1857   8.1857  10.3843  10.3843
    10.6029  10.6029  11.8087  11.8087

     occupation numbers 
     1.0000   1.0000   1.0000   1.0000   1.0000   1.0000   1.0000   1.0000
     1.0000   1.0000   1.0000   1.0000   1.0000   1.0000   1.0000   1.0000
     1.0000   1.0000   1.0000   1.0000   1.0000   1.0000   1.0000   1.0000
     1.0000   1.0000   1.0000   1.0000   0.0000   0.0000   0.0000   0.0000
     0.0000   0.0000   0.0000   0.0000

          k =-0.0442-0.3094 0.3094 (  4434 PWs)   bands (ev):

   -14.6808 -14.6808 -14.6767 -14.6767 -14.6023 -14.6023 -14.5532 -14.5532
   -14.5280 -14.5280 -14.4215 -14.4215 -14.3954 -14.3954 -14.3838 -14.3838
   -14.2951 -14.2951 -14.2946 -14.2946  -2.1109  -2.1109   1.8766   1.8766
     4.5624   4.5624   6.0754   6.0754   8.2103   8.2103  10.3200  10.3200
    10.4155  10.4155  11.1954  11.1954

     occupation numbers 
     1.0000   1.0000   1.0000   1.0000   1.0000   1.0000   1.0000   1.0000
     1.0000   1.0000   1.0000   1.0000   1.0000   1.0000   1.0000   1.0000
     1.0000   1.0000   1.0000   1.0000   1.0000   1.0000   1.0000   1.0000
     1.0000   1.0000   1.0000   1.0000   0.0000   0.0000   0.0000   0.0000
     0.0000   0.0000   0.0000   0.0000

          k = 0.0000-0.2652 0.2652 (  4423 PWs)   bands (ev):

   -14.6730 -14.6730 -14.6726 -14.6726 -14.6143 -14.6143 -14.5603 -14.5603
   -14.5384 -14.5384 -14.4124 -14.4124 -14.3910 -14.3910 -14.3671 -14.3671
   -14.3055 -14.3055 -14.2984 -14.2984  -2.3840  -2.3840   2.4320   2.4320
     4.8767   4.8767   6.3029   6.3029   8.1532   8.1532  10.0028  10.0028
    10.1591  10.1591  11.0052  11.0052

     occupation numbers 
     1.0000   1.0000   1.0000   1.0000   1.0000   1.0000   1.0000   1.0000
     1.0000   1.0000   1.0000   1.0000   1.0000   1.0000   1.0000   1.0000
     1.0000   1.0000   1.0000   1.0000   1.0000   1.0000   1.0000   1.0000
     1.0000   1.0000   1.0000   1.0000   0.0000   0.0000   0.0000   0.0000
     0.0000   0.0000   0.0000   0.0000

          k = 0.3536 0.0000 0.0000 (  4432 PWs)   bands (ev):

   -14.6646 -14.6646 -14.6646 -14.6646 -14.6431 -14.6431 -14.5572 -14.5572
   -14.5192 -14.5192 -14.4493 -14.4493 -14.3808 -14.3808 -14.3265 -14.3265
   -14.3142 -14.3142 -14.3142 -14.3142  -2.4480  -2.4480   2.7127   2.7127
     5.4792   5.4792   5.4792   5.4792   7.9597   7.9597   8.8932   8.8932
    11.4759  11.4759  11.4759  11.4759

     occupation numbers 
     1.0000   1.0000   1.0000   1.0000   1.0000   1.0000   1.0000   1.0000
     1.0000   1.0000   1.0000   1.0000   1.0000   1.0000   1.0000   1.0000
     1.0000   1.0000   1.0000   1.0000   1.0000   1.0000   1.0000   1.0000
     1.0000   1.0000   1.0000   1.0000   0.0000   0.0000   0.0000   0.0000
     0.0000   0.0000   0.0000   0.0000

          k = 0.3977 0.0442-0.0442 (  4445 PWs)   bands (ev):

   -14.6712 -14.6712 -14.6686 -14.6686 -14.6352 -14.6352 -14.5477 -14.5477
   -14.5061 -14.5061 -14.4636 -14.4636 -14.3905 -14.3905 -14.3369 -14.3369
   -14.3084 -14.3084 -14.3045 -14.3045  -2.2366  -2.2366   2.2463   2.2463
     5.2284   5.2284   5.3157   5.3157   7.9836   7.9836   8.8589   8.8589
    11.6163  11.6163  11.8175  11.8175

     occupation numbers 
     1.0000   1.0000   1.0000   1.0000   1.0000   1.0000   1.0000   1.0000
     1.0000   1.0000   1.0000   1.0000   1.0000   1.0000   1.0000   1.0000
     1.0000   1.0000   1.0000   1.0000   1.0000   1.0000   1.0000   1.0000
     1.0000   1.0000   1.0000   1.0000   0.0000   0.0000   0.0000   0.0000
     0.0000   0.0000   0.0000   0.0000

          k = 0.4419 0.0884-0.0884 (  4440 PWs)   bands (ev):

   -14.6801 -14.6801 -14.6725 -14.6725 -14.6218 -14.6218 -14.5375 -14.5375
   -14.4961 -14.4961 -14.4735 -14.4735 -14.4010 -14.4010 -14.3520 -14.3520
   -14.3025 -14.3025 -14.2936 -14.2936  -1.9727  -1.9727   1.7334   1.7334
     4.8915   4.8915   5.2097   5.2097   8.1298   8.1298   8.9928   8.9928
    11.4863  11.4864  11.9817  11.9817

     occupation numbers 
     1.0000   1.0000   1.0000   1.0000   1.0000   1.0000   1.0000   1.0000
     1.0000   1.0000   1.0000   1.0000   1.0000   1.0000   1.0000   1.0000
     1.0000   1.0000   1.0000   1.0000   1.0000   1.0000   1.0000   1.0000
     1.0000   1.0000   1.0000   1.0000   0.0000   0.0000   0.0000   0.0000
     0.0000   0.0000   0.0000   0.0000

          k = 0.4861 0.1326-0.1326 (  4432 PWs)   bands (ev):

   -14.6882 -14.6882 -14.6758 -14.6758 -14.6067 -14.6067 -14.5274 -14.5274
   -14.4924 -14.4924 -14.4761 -14.4761 -14.4120 -14.4120 -14.3684 -14.3684
   -14.2972 -14.2972 -14.2842 -14.2842  -1.6757  -1.6757   1.2330   1.2330
     4.5531   4.5531   5.1670   5.1670   8.1722   8.1722   9.4527   9.4527
    11.3610  11.3610  11.9722  11.9722

     occupation numbers 
     1.0000   1.0000   1.0000   1.0000   1.0000   1.0000   1.0000   1.0000
     1.0000   1.0000   1.0000   1.0000   1.0000   1.0000   1.0000   1.0000
     1.0000   1.0000   1.0000   1.0000   1.0000   1.0000   1.0000   1.0000
     1.0000   1.0000   1.0000   1.0000   0.0000   0.0000   0.0000   0.0000
     0.0000   0.0000   0.0000   0.0000

          k =-0.1768-0.5303 0.5303 (  4427 PWs)   bands (ev):

   -14.6944 -14.6944 -14.6786 -14.6786 -14.5929 -14.5929 -14.5179 -14.5179
   -14.4948 -14.4948 -14.4721 -14.4721 -14.4228 -14.4228 -14.3833 -14.3833
   -14.2932 -14.2932 -14.2773 -14.2773  -1.3917  -1.3917   0.8133   0.8133
     4.2705   4.2705   5.1895   5.1895   8.1684   8.1684  10.0727  10.0727
    11.3440  11.3440  11.8478  11.8478

     occupation numbers 
     1.0000   1.0000   1.0000   1.0000   1.0000   1.0000   1.0000   1.0000
     1.0000   1.0000   1.0000   1.0000   1.0000   1.0000   1.0000   1.0000
     1.0000   1.0000   1.0000   1.0000   1.0000   1.0000   1.0000   1.0000
     1.0000   1.0000   1.0000   1.0000   0.0000   0.0000   0.0000   0.0000
[...]

   -14.6950 -14.6950 -14.6844 -14.6844 -14.5805 -14.5805 -14.5184 -14.5184
   -14.4900 -14.4900 -14.4737 -14.4737 -14.4253 -14.4253 -14.3961 -14.3961
   -14.2869 -14.2869 -14.2765 -14.2765  -1.3166  -1.3166   0.7495   0.7495
     4.1569   4.1569   5.0143   5.0143   8.8253   8.8253   9.9109   9.9109
    10.8436  10.8436  12.3827  12.3827

     occupation numbers 
     1.0000   1.0000   1.0000   1.0000   1.0000   1.0000   1.0000   1.0000
     1.0000   1.0000   1.0000   1.0000   1.0000   1.0000   1.0000   1.0000
     1.0000   1.0000   1.0000   1.0000   1.0000   1.0000   1.0000   1.0000
     1.0000   1.0000   1.0000   1.0000   0.0000   0.0000   0.0000   0.0000
     0.0000   0.0000   0.0000   0.0000

          k =-0.1326-0.3977 0.5745 (  4422 PWs)   bands (ev):

   -14.6982 -14.6982 -14.6854 -14.6854 -14.5723 -14.5723 -14.5123 -14.5123
   -14.4918 -14.4918 -14.4693 -14.4693 -14.4349 -14.4349 -14.4036 -14.4036
   -14.2856 -14.2856 -14.2729 -14.2729  -1.1349  -1.1349   0.5159   0.5159
     4.0362   4.0362   4.9971   4.9971   8.8449   8.8449  10.0865  10.0866
    11.3644  11.3644  12.0491  12.0491

     occupation numbers 
     1.0000   1.0000   1.0000   1.0000   1.0000   1.0000   1.0000   1.0000
     1.0000   1.0000   1.0000   1.0000   1.0000   1.0000   1.0000   1.0000
     1.0000   1.0000   1.0000   1.0000   1.0000   1.0000   1.0000   1.0000
     1.0000   1.0000   1.0000   1.0000   0.0000   0.0000   0.0000   0.0000
     0.0000   0.0000   0.0000   0.0000

          k =-0.0884-0.3536 0.5303 (  4424 PWs)   bands (ev):

   -14.6981 -14.6981 -14.6855 -14.6855 -14.5718 -14.5718 -14.5152 -14.5152
   -14.4932 -14.4932 -14.4651 -14.4651 -14.4342 -14.4342 -14.4047 -14.4047
   -14.2854 -14.2854 -14.2732 -14.2732  -1.1895  -1.1895   0.5851   0.5851
     4.0031   4.0031   5.0662   5.0662   8.8900   8.8900  10.0784  10.0784
    11.4281  11.4281  12.0102  12.0102

     occupation numbers 
     1.0000   1.0000   1.0000   1.0000   1.0000   1.0000   1.0000   1.0000
     1.0000   1.0000   1.0000   1.0000   1.0000   1.0000   1.0000   1.0000
     1.0000   1.0000   1.0000   1.0000   1.0000   1.0000   1.0000   1.0000
     1.0000   1.0000   1.0000   1.0000   0.0000   0.0000   0.0000   0.0000
     0.0000   0.0000   0.0000   0.0000

          k =-0.0442-0.3094 0.4861 (  4427 PWs)   bands (ev):

   -14.6947 -14.6947 -14.6845 -14.6845 -14.5787 -14.5787 -14.5258 -14.5258
   -14.4956 -14.4956 -14.4628 -14.4628 -14.4210 -14.4210 -14.4003 -14.4003
   -14.2866 -14.2866 -14.2774 -14.2774  -1.4332  -1.4332   0.9046   0.9046
     4.0744   4.0744   5.2087   5.2087   8.9418   8.9418   9.9625   9.9625
    10.8505  10.8505  12.2366  12.2366

     occupation numbers 
     1.0000   1.0000   1.0000   1.0000   1.0000   1.0000   1.0000   1.0000
     1.0000   1.0000   1.0000   1.0000   1.0000   1.0000   1.0000   1.0000
     1.0000   1.0000   1.0000   1.0000   1.0000   1.0000   1.0000   1.0000
     1.0000   1.0000   1.0000   1.0000   0.0000   0.0000   0.0000   0.0000
     0.0000   0.0000   0.0000   0.0000

          k = 0.0000-0.2652 0.4419 (  4429 PWs)   bands (ev):

   -14.6886 -14.6886 -14.6822 -14.6822 -14.5915 -14.5915 -14.5365 -14.5365
   -14.5031 -14.5031 -14.4569 -14.4569 -14.4063 -14.4063 -14.3897 -14.3897
   -14.2892 -14.2892 -14.2849 -14.2849  -1.7314  -1.7314   1.3238   1.3238
     4.2692   4.2692   5.3991   5.3991   8.9413   8.9413   9.6081   9.6081
    10.6743  10.6743  12.0104  12.0104

     occupation numbers 
     1.0000   1.0000   1.0000   1.0000   1.0000   1.0000   1.0000   1.0000
     1.0000   1.0000   1.0000   1.0000   1.0000   1.0000   1.0000   1.0000
     1.0000   1.0000   1.0000   1.0000   1.0000   1.0000   1.0000   1.0000
     1.0000   1.0000   1.0000   1.0000   0.0000   0.0000   0.0000   0.0000
     0.0000   0.0000   0.0000   0.0000

          k =-0.1768-0.5303 0.7071 (  4426 PWs)   bands (ev):

   -14.6867 -14.6867 -14.6849 -14.6849 -14.5953 -14.5953 -14.5167 -14.5167
   -14.4978 -14.4978 -14.4720 -14.4720 -14.4227 -14.4227 -14.3791 -14.3791
   -14.2866 -14.2866 -14.2853 -14.2853  -1.4399  -1.4399   0.9422   0.9422
     4.4396   4.4396   4.8701   4.8701   8.5870   8.5870   8.9422   8.9422
    11.3618  11.3618  12.9712  12.9712

     occupation numbers 
     1.0000   1.0000   1.0000   1.0000   1.0000   1.0000   1.0000   1.0000
     1.0000   1.0000   1.0000   1.0000   1.0000   1.0000   1.0000   1.0000
     1.0000   1.0000   1.0000   1.0000   1.0000   1.0000   1.0000   1.0000
     1.0000   1.0000   1.0000   1.0000   0.0000   0.0000   0.0000   0.0000
     0.0000   0.0000   0.0000   0.0000

          k =-0.1326-0.4861 0.6629 (  4425 PWs)   bands (ev):

   -14.6936 -14.6936 -14.6873 -14.6873 -14.5779 -14.5779 -14.5067 -14.5067
   -14.5025 -14.5025 -14.4658 -14.4658 -14.4349 -14.4349 -14.3965 -14.3965
   -14.2836 -14.2836 -14.2774 -14.2774  -1.1360  -1.1360   0.5581   0.5581
     4.2099   4.2099   4.7486   4.7486   8.7530   8.7530   9.4169   9.4169
    11.1872  11.1872  12.9245  12.9245

     occupation numbers 
     1.0000   1.0000   1.0000   1.0000   1.0000   1.0000   1.0000   1.0000
     1.0000   1.0000   1.0000   1.0000   1.0000   1.0000   1.0000   1.0000
     1.0000   1.0000   1.0000   1.0000   1.0000   1.0000   1.0000   1.0000
     1.0000   1.0000   1.0000   1.0000   0.0000   0.0000   0.0000   0.0000
     0.0000   0.0000   0.0000   0.0000

          k =-0.0884-0.4419 0.6187 (  4420 PWs)   bands (ev):

   -14.6986 -14.6986 -14.6883 -14.6883 -14.5652 -14.5652 -14.5022 -14.5022
   -14.4948 -14.4948 -14.4678 -14.4678 -14.4461 -14.4461 -14.4083 -14.4083
   -14.2822 -14.2822 -14.2719 -14.2719  -0.8980  -0.8980   0.2825   0.2825
     4.0121   4.0121   4.7391   4.7391   8.8081   8.8081  10.1436  10.1436
    11.0840  11.0840  12.3455  12.3455

     occupation numbers 
     1.0000   1.0000   1.0000   1.0000   1.0000   1.0000   1.0000   1.0000
     1.0000   1.0000   1.0000   1.0000   1.0000   1.0000   1.0000   1.0000
     1.0000   1.0000   1.0000   1.0000   1.0000   1.0000   1.0000   1.0000
     1.0000   1.0000   1.0000   1.0000   0.0000   0.0000   0.0000   0.0000
     0.0000   0.0000   0.0000   0.0000

          k =-0.0442-0.3977 0.5745 (  4421 PWs)   bands (ev):

   -14.7006 -14.7006 -14.6883 -14.6883 -14.5620 -14.5620 -14.4989 -14.4989
   -14.4862 -14.4862 -14.4757 -14.4757 -14.4505 -14.4505 -14.4112 -14.4112
   -14.2820 -14.2820 -14.2701 -14.2701  -0.9001  -0.9001   0.2874   0.2874
     3.8994   3.8994   4.8281   4.8281   8.8850   8.8850  10.6120  10.6120
    11.2999  11.2999  11.6170  11.6170

     occupation numbers 
     1.0000   1.0000   1.0000   1.0000   1.0000   1.0000   1.0000   1.0000
     1.0000   1.0000   1.0000   1.0000   1.0000   1.0000   1.0000   1.0000
     1.0000   1.0000   1.0000   1.0000   1.0000   1.0000   1.0000   1.0000
     1.0000   1.0000   1.0000   1.0000   0.0000   0.0000   0.0000   0.0000
     0.0000   0.0000   0.0000   0.0000

          k = 0.0000-0.3536 0.5303 (  4423 PWs)   bands (ev):

   -14.6992 -14.6992 -14.6871 -14.6871 -14.5671 -14.5671 -14.5109 -14.5109
   -14.4835 -14.4835 -14.4752 -14.4752 -14.4399 -14.4399 -14.4078 -14.4078
   -14.2834 -14.2834 -14.2720 -14.2720  -1.1356  -1.1356   0.5565   0.5565
     3.9118   3.9118   4.9936   4.9936   8.9631   8.9631  10.4703  10.4703
    10.9233  10.9233  12.1015  12.1015

     occupation numbers 
     1.0000   1.0000   1.0000   1.0000   1.0000   1.0000   1.0000   1.0000
     1.0000   1.0000   1.0000   1.0000   1.0000   1.0000   1.0000   1.0000
     1.0000   1.0000   1.0000   1.0000   1.0000   1.0000   1.0000   1.0000
     1.0000   1.0000   1.0000   1.0000   0.0000   0.0000   0.0000   0.0000
     0.0000   0.0000   0.0000   0.0000

          k =-0.0884-0.5303 0.7071 (  4416 PWs)   bands (ev):

   -14.6901 -14.6901 -14.6890 -14.6890 -14.5761 -14.5761 -14.5265 -14.5265
   -14.4937 -14.4937 -14.4455 -14.4455 -14.4452 -14.4452 -14.3975 -14.3975
   -14.2812 -14.2812 -14.2802 -14.2802  -0.9134  -0.9134   0.2906   0.2906
     4.3660   4.3660   4.5801   4.5801   8.5555   8.5555   8.7636   8.7636
    12.0352  12.0352  13.2603  13.2603

     occupation numbers 
     1.0000   1.0000   1.0000   1.0000   1.0000   1.0000   1.0000   1.0000
     1.0000   1.0000   1.0000   1.0000   1.0000   1.0000   1.0000   1.0000
     1.0000   1.0000   1.0000   1.0000   1.0000   1.0000   1.0000   1.0000
     1.0000   1.0000   1.0000   1.0000   0.0000   0.0000   0.0000   0.0000
     0.0000   0.0000   0.0000   0.0000

          k =-0.0442-0.4861 0.6629 (  4416 PWs)   bands (ev):

   -14.6959 -14.6959 -14.6901 -14.6901 -14.5593 -14.5593 -14.5272 -14.5272
   -14.4833 -14.4833 -14.4581 -14.4581 -14.4432 -14.4432 -14.4134 -14.4134
   -14.2799 -14.2799 -14.2742 -14.2742  -0.6297  -0.6297  -0.0095  -0.0095
     4.1561   4.1561   4.5387   4.5387   8.7006   8.7006   9.3648   9.3648
    11.8527  11.8527  12.5627  12.5627

     occupation numbers 
     1.0000   1.0000   1.0000   1.0000   1.0000   1.0000   1.0000   1.0000
     1.0000   1.0000   1.0000   1.0000   1.0000   1.0000   1.0000   1.0000
     1.0000   1.0000   1.0000   1.0000   1.0000   1.0000   1.0000   1.0000
     1.0000   1.0000   1.0000   1.0000   0.0000   0.0000   0.0000   0.0000
     0.0000   0.0000   0.0000   0.0000

          k = 0.0000-0.4419 0.6187 (  4415 PWs)   bands (ev):

   -14.6998 -14.6998 -14.6897 -14.6897 -14.5563 -14.5563 -14.5111 -14.5111
   -14.4824 -14.4824 -14.4623 -14.4623 -14.4566 -14.4566 -14.4158 -14.4158
   -14.2803 -14.2803 -14.2704 -14.2704  -0.6319  -0.6319   0.0020   0.0020
     3.9632   3.9632   4.6433   4.6433   8.7878   8.7878  10.1823  10.1823
    11.6943  11.6943  11.7056  11.7056

     occupation numbers 
     1.0000   1.0000   1.0000   1.0000   1.0000   1.0000   1.0000   1.0000
     1.0000   1.0000   1.0000   1.0000   1.0000   1.0000   1.0000   1.0000
     1.0000   1.0000   1.0000   1.0000   1.0000   1.0000   1.0000   1.0000
     1.0000   1.0000   1.0000   1.0000   0.0000   0.0000   0.0000   0.0000
     0.0000   0.0000   0.0000   0.0000

          k =-0.7071 0.1768 0.0000 (  4420 PWs)   bands (ev):

   -14.6909 -14.6909 -14.6909 -14.6909 -14.5530 -14.5530 -14.5530 -14.5530
   -14.4696 -14.4696 -14.4696 -14.4696 -14.4199 -14.4199 -14.4199 -14.4199
   -14.2789 -14.2789 -14.2789 -14.2789  -0.3323  -0.3323  -0.3323  -0.3323
     4.4117   4.4117   4.4117   4.4117   8.6187   8.6187   8.6187   8.6187
    12.7572  12.7572  12.7572  12.7572

     occupation numbers 
     1.0000   1.0000   1.0000   1.0000   1.0000   1.0000   1.0000   1.0000
     1.0000   1.0000   1.0000   1.0000   1.0000   1.0000   1.0000   1.0000
     1.0000   1.0000   1.0000   1.0000   1.0000   1.0000   1.0000   1.0000
     1.0000   1.0000   1.0000   1.0000   0.0000   0.0000   0.0000   0.0000
     0.0000   0.0000   0.0000   0.0000

          k =-0.1768-0.4419 0.7071 (  4426 PWs)   bands (ev):

   -14.6937 -14.6937 -14.6875 -14.6875 -14.5772 -14.5772 -14.5172 -14.5172
   -14.4842 -14.4842 -14.4801 -14.4801 -14.4265 -14.4265 -14.3989 -14.3989
   -14.2836 -14.2836 -14.2780 -14.2780  -1.3062  -1.3062   0.7694   0.7694
     4.1310   4.1310   4.9063   4.9063   9.3407   9.3407   9.4717   9.4717
    10.6279  10.6279  12.7006  12.7006

     occupation numbers 
     1.0000   1.0000   1.0000   1.0000   1.0000   1.0000   1.0000   1.0000
     1.0000   1.0000   1.0000   1.0000   1.0000   1.0000   1.0000   1.0000
     1.0000   1.0000   1.0000   1.0000   1.0000   1.0000   1.0000   1.0000
     1.0000   1.0000   1.0000   1.0000   0.0000   0.0000   0.0000   0.0000
     0.0000   0.0000   0.0000   0.0000

          k =-0.1326-0.3977 0.6629 (  4423 PWs)   bands (ev):

   -14.6980 -14.6980 -14.6895 -14.6895 -14.5635 -14.5635 -14.5067 -14.5067
   -14.4890 -14.4890 -14.4739 -14.4739 -14.4408 -14.4408 -14.4104 -14.4104
   -14.2811 -14.2811 -14.2728 -14.2728  -1.0226  -1.0226   0.4304   0.4304
     4.0037   4.0037   4.7510   4.7510   9.3662   9.3662   9.9645   9.9645
    10.7392  10.7392  12.2316  12.2316

     occupation numbers 
     1.0000   1.0000   1.0000   1.0000   1.0000   1.0000   1.0000   1.0000
     1.0000   1.0000   1.0000   1.0000   1.0000   1.0000   1.0000   1.0000
     1.0000   1.0000   1.0000   1.0000   1.0000   1.0000   1.0000   1.0000
     1.0000   1.0000   1.0000   1.0000   0.0000   0.0000   0.0000   0.0000
     0.0000   0.0000   0.0000   0.0000

          k =-0.0884-0.3536 0.6187 (  4424 PWs)   bands (ev):

   -14.6996 -14.6996 -14.6901 -14.6901 -14.5583 -14.5583 -14.5029 -14.5029
   -14.4870 -14.4870 -14.4745 -14.4745 -14.4473 -14.4473 -14.4146 -14.4146
   -14.2804 -14.2804 -14.2710 -14.2710  -0.8847  -0.8847   0.2728   0.2728
     3.9633   3.9633   4.6941   4.6941   9.3658   9.3658  10.0889  10.0889
    11.2612  11.2612  11.5523  11.5523

     occupation numbers 
     1.0000   1.0000   1.0000   1.0000   1.0000   1.0000   1.0000   1.0000
     1.0000   1.0000   1.0000   1.0000   1.0000   1.0000   1.0000   1.0000
     1.0000   1.0000   1.0000   1.0000   1.0000   1.0000   1.0000   1.0000
     1.0000   1.0000   1.0000   1.0000   0.0000   0.0000   0.0000   0.0000
     0.0000   0.0000   0.0000   0.0000

          k =-0.0884-0.4419 0.7071 (  4429 PWs)   bands (ev):

   -14.6960 -14.6960 -14.6923 -14.6923 -14.5588 -14.5588 -14.5111 -14.5111
   -14.4954 -14.4954 -14.4565 -14.4565 -14.4489 -14.4489 -14.4140 -14.4140
   -14.2781 -14.2781 -14.2745 -14.2745  -0.8300  -0.8300   0.2204   0.2204
     4.1212   4.1212   4.5127   4.5127   9.4131   9.4131   9.4558   9.4558
    11.0080  11.0080  12.4002  12.4002

     occupation numbers 
     1.0000   1.0000   1.0000   1.0000   1.0000   1.0000   1.0000   1.0000
     1.0000   1.0000   1.0000   1.0000   1.0000   1.0000   1.0000   1.0000
     1.0000   1.0000   1.0000   1.0000   1.0000   1.0000   1.0000   1.0000
     1.0000   1.0000   1.0000   1.0000   0.0000   0.0000   0.0000   0.0000
     0.0000   0.0000   0.0000   0.0000

          k =-0.0442-0.3977 0.6629 (  4418 PWs)   bands (ev):

   -14.6988 -14.6988 -14.6935 -14.6935 -14.5463 -14.5463 -14.5126 -14.5126
   -14.4863 -14.4863 -14.4620 -14.4620 -14.4528 -14.4528 -14.4243 -14.4243
   -14.2767 -14.2767 -14.2714 -14.2714  -0.6101  -0.6101  -0.0089  -0.0089
     4.0397   4.0397   4.4324   4.4324   9.4929   9.4929  10.1639  10.1639
    10.9277  10.9277  11.5430  11.5430

     occupation numbers 
     1.0000   1.0000   1.0000   1.0000   1.0000   1.0000   1.0000   1.0000
     1.0000   1.0000   1.0000   1.0000   1.0000   1.0000   1.0000   1.0000
     1.0000   1.0000   1.0000   1.0000   1.0000   1.0000   1.0000   1.0000
     1.0000   1.0000   1.0000   1.0000   0.0000   0.0000   0.0000   0.0000
     0.0000   0.0000   0.0000   0.0000

          k =-0.0000-0.3536 0.6187 (  4418 PWs)   bands (ev):

   -14.6995 -14.6995 -14.6925 -14.6925 -14.5501 -14.5501 -14.5024 -14.5024
   -14.4925 -14.4925 -14.4616 -14.4616 -14.4568 -14.4568 -14.4210 -14.4210
   -14.2777 -14.2777 -14.2708 -14.2708  -0.7320  -0.7320   0.1211   0.1211
     3.9744   3.9744   4.5364   4.5364   9.5436   9.5436  10.3451  10.3451
    10.8169  10.8169  11.4474  11.4474

     occupation numbers 
     1.0000   1.0000   1.0000   1.0000   1.0000   1.0000   1.0000   1.0000
     1.0000   1.0000   1.0000   1.0000   1.0000   1.0000   1.0000   1.0000
     1.0000   1.0000   1.0000   1.0000   1.0000   1.0000   1.0000   1.0000
     1.0000   1.0000   1.0000   1.0000   0.0000   0.0000   0.0000   0.0000
     0.0000   0.0000   0.0000   0.0000

          k =-0.7071 0.2652 0.0000 (  4416 PWs)   bands (ev):

   -14.6953 -14.6953 -14.6953 -14.6953 -14.5364 -14.5364 -14.5364 -14.5364
   -14.4722 -14.4722 -14.4722 -14.4722 -14.4338 -14.4338 -14.4338 -14.4338
   -14.2746 -14.2746 -14.2746 -14.2746  -0.3165  -0.3165  -0.3165  -0.3165
     4.2478   4.2478   4.2478   4.2478   9.4240   9.4240   9.4241   9.4241
    11.6766  11.6766  11.6767  11.6767

     occupation numbers 
     1.0000   1.0000   1.0000   1.0000   1.0000   1.0000   1.0000   1.0000
     1.0000   1.0000   1.0000   1.0000   1.0000   1.0000   1.0000   1.0000
     1.0000   1.0000   1.0000   1.0000   1.0000   1.0000   1.0000   1.0000
     1.0000   1.0000   1.0000   1.0000   0.0000   0.0000   0.0000   0.0000
     0.0000   0.0000   0.0000   0.0000

          k =-0.7071 0.3536 0.0000 (  4420 PWs)   bands (ev):

   -14.6971 -14.6971 -14.6971 -14.6971 -14.5280 -14.5280 -14.5280 -14.5280
   -14.4746 -14.4746 -14.4746 -14.4746 -14.4397 -14.4397 -14.4397 -14.4397
   -14.2730 -14.2730 -14.2730 -14.2730  -0.3098  -0.3098  -0.3098  -0.3098
     4.1856   4.1856   4.1856   4.1856  10.0892  10.0892  10.0892  10.0892
    10.9148  10.9148  10.9149  10.9149

     occupation numbers 
     1.0000   1.0000   1.0000   1.0000   1.0000   1.0000   1.0000   1.0000
     1.0000   1.0000   1.0000   1.0000   1.0000   1.0000   1.0000   1.0000
     1.0000   1.0000   1.0000   1.0000   1.0000   1.0000   1.0000   1.0000
     1.0000   1.0000   1.0000   1.0000   0.0000   0.0000   0.0000   0.0000
     0.0000   0.0000   0.0000   0.0000

     the Fermi energy is     6.9113 ev

!    total energy              =    -326.05903126 Ry
     Harris-Foulkes estimate   =    -326.05903112 Ry
     estimated scf accuracy    <       0.00000012 Ry

     The total energy is the sum of the following terms:

     one-electron contribution =    -157.90312266 Ry
     hartree contribution      =      95.59906407 Ry
     xc contribution           =     -96.22517719 Ry
     ewald contribution        =    -167.52979534 Ry
     smearing contrib. (-TS)   =      -0.00000015 Ry

     convergence has been achieved in   5 iterations

     Writing output data file Sn.save
 
     init_run     :      9.69s CPU     10.50s WALL (       1 calls)
     electrons    :    202.33s CPU    207.87s WALL (       1 calls)

     Called by init_run:
     wfcinit      :      9.32s CPU      9.68s WALL (       1 calls)
     potinit      :      0.03s CPU      0.05s WALL (       1 calls)

     Called by electrons:
     c_bands      :    172.35s CPU    177.38s WALL (       6 calls)
     sum_band     :     29.83s CPU     30.26s WALL (       6 calls)
     v_of_rho     :      0.06s CPU      0.07s WALL (       6 calls)
     v_h          :      0.00s CPU      0.00s WALL (       6 calls)
     v_xc         :      0.05s CPU      0.06s WALL (       6 calls)
     newd         :      0.07s CPU      0.10s WALL (       6 calls)
     mix_rho      :      0.02s CPU      0.03s WALL (       6 calls)

     Called by c_bands:
     init_us_2    :      0.21s CPU      0.32s WALL (    1885 calls)
     cegterg      :    169.78s CPU    174.48s WALL (     870 calls)

     Called by sum_band:
     sum_band:bec :      0.12s CPU      0.12s WALL (     870 calls)
     addusdens    :      0.08s CPU      0.11s WALL (       6 calls)

     Called by *egterg:
     h_psi        :    148.68s CPU    150.82s WALL (    3098 calls)
     s_psi        :      1.86s CPU      1.88s WALL (    3098 calls)
     g_psi        :      0.38s CPU      0.38s WALL (    2083 calls)
     cdiaghg      :     11.45s CPU     11.80s WALL (    2808 calls)
     cegterg:over :      6.53s CPU      6.59s WALL (    2083 calls)
     cegterg:upda :      3.02s CPU      3.04s WALL (    2083 calls)
     cegterg:last :      1.69s CPU      1.70s WALL (     870 calls)

     Called by h_psi:
     h_psi:vloc   :    142.95s CPU    144.96s WALL (    3098 calls)
     h_psi:vnl    :      5.40s CPU      5.48s WALL (    3098 calls)
     add_vuspsi   :      1.98s CPU      2.00s WALL (    3098 calls)

     General routines
     calbec       :      4.50s CPU      4.58s WALL (    3968 calls)
     fft          :      0.15s CPU      0.25s WALL (     116 calls)
     fftw         :    164.65s CPU    166.92s WALL (  393364 calls)
     davcio       :      0.02s CPU      0.70s WALL (     145 calls)
 
     Parallel routines
     fft_scatter  :    128.24s CPU    130.20s WALL (  393480 calls)
 
     PWSCF        :  3m32.72s CPU     3m40.32s WALL

 
   This run was terminated on:  20: 0:50  15Mar2020            

=------------------------------------------------------------------------------=
   JOB DONE.
=------------------------------------------------------------------------------=
