
     Program PWSCF v.5.4.0 starts on  2Mar2020 at 12:19:12 

     This program is part of the open-source Quantum ESPRESSO suite
     for quantum simulation of materials; please cite
         "P. Giannozzi et al., J. Phys.:Condens. Matter 21 395502 (2009);
          URL http://www.quantum-espresso.org", 
     in publications or presentations arising from this work. More details at
     http://www.quantum-espresso.org/quote

     Parallel version (MPI & OpenMP), running on      16 processor cores
     Number of MPI processes:                16
     Threads/MPI process:                     1
     R & G space division:  proc/nbgrp/npool/nimage =      16
     Waiting for input...
     Reading input from standard input
Warning: card &IONS ignored
Warning: card / ignored
Warning: card &CELL ignored
Warning: card / ignored

     Current dimensions of program PWSCF are:
     Max number of different atomic species (ntypx) = 10
     Max number of k-points (npk) =  40000
     Max angular momentum in pseudopotentials (lmaxx) =  3

     Subspace diagonalization in iterative solution of the eigenvalue problem:
     a serial algorithm will be used

 
     Parallelization info
     --------------------
     sticks:   dense  smooth     PW     G-vecs:    dense   smooth      PW
     Min         109     109     31                 3006     3006     461
     Max         111     111     32                 3009     3009     465
     Sum        1759    1759    499                48119    48119    7391
 

     Title: 
     Sn                                                                         


     bravais-lattice index     =            0
     lattice parameter (alat)  =       8.8993  a.u.
     unit-cell volume          =     498.3785 (a.u.)^3
     number of atoms/cell      =            2
     number of atomic types    =            1
     number of electrons       =        28.00
     number of Kohn-Sham states=           18
     kinetic-energy cutoff     =      80.0000  Ry
     charge density cutoff     =     320.0000  Ry
     convergence threshold     =      1.0E-06
     mixing beta               =       0.7000
     number of iterations used =            8  plain     mixing
     Exchange-correlation      = PBE ( 1  4  3  4 0 0)

     celldm(1)=   8.899346  celldm(2)=   0.000000  celldm(3)=   0.000000
     celldm(4)=   0.000000  celldm(5)=   0.000000  celldm(6)=   0.000000

     crystal axes: (cart. coord. in units of alat)
               a(1) = (   0.000000   0.707107   0.707107 )  
               a(2) = (   0.707107   0.000000   0.707107 )  
               a(3) = (   0.707107   0.707107   0.000000 )  

     reciprocal axes: (cart. coord. in units 2 pi/alat)
               b(1) = ( -0.707107  0.707107  0.707107 )  
               b(2) = (  0.707107 -0.707107  0.707107 )  
               b(3) = (  0.707107  0.707107 -0.707107 )  


     PseudoPot. # 1 for Sn read from file:
     ../PseudopotentialDatabase/Sn_ONCV_PBE-1.0.upf
     MD5 check sum: 4ecdb67ea6112684f1b2ae1cab9d4ca6
     Pseudo is Norm-conserving, Zval = 14.0
     Generated using ONCVPSP code by D. R. Hamann
     Using radial grid of  602 points,  6 beta functions with: 
                l(1) =   0
                l(2) =   0
                l(3) =   1
                l(4) =   1
                l(5) =   2
                l(6) =   2

     atomic species   valence    mass     pseudopotential
        Sn            14.00   118.71000     Sn( 1.00)

     24 Sym. Ops. (no inversion) found
          (note: 24 additional sym.ops. were found but ignored
           their fractional translations are incommensurate with FFT grid)

                                    s                        frac. trans.

      isym =  1     identity                                     

 cryst.   s( 1) = (     1          0          0      )
                  (     0          1          0      )
                  (     0          0          1      )

 cart.    s( 1) = (  1.0000000  0.0000000  0.0000000 )
                  (  0.0000000  1.0000000  0.0000000 )
                  (  0.0000000  0.0000000  1.0000000 )


      isym =  2     180 deg rotation - cart. axis [0,0,1]        

 cryst.   s( 2) = (     0          1         -1      )
                  (     1          0         -1      )
                  (     0          0         -1      )

 cart.    s( 2) = ( -1.0000000  0.0000000  0.0000000 )
                  (  0.0000000 -1.0000000  0.0000000 )
                  (  0.0000000  0.0000000  1.0000000 )


      isym =  3     180 deg rotation - cart. axis [0,1,0]        

 cryst.   s( 3) = (     0         -1          1      )
                  (     0         -1          0      )
                  (     1         -1          0      )

 cart.    s( 3) = ( -1.0000000  0.0000000  0.0000000 )
                  (  0.0000000  1.0000000  0.0000000 )
                  (  0.0000000  0.0000000 -1.0000000 )


      isym =  4     180 deg rotation - cart. axis [1,0,0]        

 cryst.   s( 4) = (    -1          0          0      )
                  (    -1          0          1      )
                  (    -1          1          0      )

 cart.    s( 4) = (  1.0000000  0.0000000  0.0000000 )
                  (  0.0000000 -1.0000000  0.0000000 )
                  (  0.0000000  0.0000000 -1.0000000 )


      isym =  5     120 deg rotation - cart. axis [-1,-1,-1]     

 cryst.   s( 5) = (     0          0          1      )
                  (     1          0          0      )
                  (     0          1          0      )

 cart.    s( 5) = (  0.0000000  1.0000000  0.0000000 )
                  (  0.0000000  0.0000000  1.0000000 )
                  (  1.0000000  0.0000000  0.0000000 )


      isym =  6     120 deg rotation - cart. axis [-1,1,1]       

 cryst.   s( 6) = (     1         -1          0      )
                  (     0         -1          1      )
                  (     0         -1          0      )

 cart.    s( 6) = (  0.0000000 -1.0000000  0.0000000 )
                  (  0.0000000  0.0000000  1.0000000 )
                  ( -1.0000000  0.0000000  0.0000000 )


      isym =  7     120 deg rotation - cart. axis [1,1,-1]       

 cryst.   s( 7) = (    -1          1          0      )
                  (    -1          0          0      )
                  (    -1          0          1      )

 cart.    s( 7) = (  0.0000000  1.0000000  0.0000000 )
                  (  0.0000000  0.0000000 -1.0000000 )
                  ( -1.0000000  0.0000000  0.0000000 )


      isym =  8     120 deg rotation - cart. axis [1,-1,1]       

 cryst.   s( 8) = (     0          0         -1      )
                  (     0          1         -1      )
                  (     1          0         -1      )

 cart.    s( 8) = (  0.0000000 -1.0000000  0.0000000 )
                  (  0.0000000  0.0000000 -1.0000000 )
                  (  1.0000000  0.0000000  0.0000000 )


      isym =  9     120 deg rotation - cart. axis [1,1,1]        

 cryst.   s( 9) = (     0          1          0      )
                  (     0          0          1      )
                  (     1          0          0      )

 cart.    s( 9) = (  0.0000000  0.0000000  1.0000000 )
                  (  1.0000000  0.0000000  0.0000000 )
                  (  0.0000000  1.0000000  0.0000000 )


      isym = 10     120 deg rotation - cart. axis [-1,1,-1]      

 cryst.   s(10) = (    -1          0          1      )
                  (    -1          1          0      )
                  (    -1          0          0      )

 cart.    s(10) = (  0.0000000  0.0000000  1.0000000 )
                  ( -1.0000000  0.0000000  0.0000000 )
                  (  0.0000000 -1.0000000  0.0000000 )


      isym = 11     120 deg rotation - cart. axis [1,-1,-1]      

 cryst.   s(11) = (     1          0         -1      )
                  (     0          0         -1      )
                  (     0          1         -1      )

 cart.    s(11) = (  0.0000000  0.0000000 -1.0000000 )
                  ( -1.0000000  0.0000000  0.0000000 )
                  (  0.0000000  1.0000000  0.0000000 )


      isym = 12     120 deg rotation - cart. axis [-1,-1,1]      

 cryst.   s(12) = (     0         -1          0      )
                  (     1         -1          0      )
                  (     0         -1          1      )

 cart.    s(12) = (  0.0000000  0.0000000 -1.0000000 )
                  (  1.0000000  0.0000000  0.0000000 )
                  (  0.0000000 -1.0000000  0.0000000 )


      isym = 13     inv. 180 deg rotation - cart. axis [1,1,0]   

 cryst.   s(13) = (     1          0         -1      )
                  (     0          1         -1      )
                  (     0          0         -1      )

 cart.    s(13) = (  0.0000000 -1.0000000  0.0000000 )
                  ( -1.0000000  0.0000000  0.0000000 )
                  (  0.0000000  0.0000000  1.0000000 )


      isym = 14     inv. 180 deg rotation - cart. axis [1,-1,0]  

 cryst.   s(14) = (     0          1          0      )
                  (     1          0          0      )
                  (     0          0          1      )

 cart.    s(14) = (  0.0000000  1.0000000  0.0000000 )
                  (  1.0000000  0.0000000  0.0000000 )
                  (  0.0000000  0.0000000  1.0000000 )


      isym = 15     inv.  90 deg rotation - cart. axis [0,0,-1]  

 cryst.   s(15) = (     0         -1          0      )
                  (     0         -1          1      )
                  (     1         -1          0      )

 cart.    s(15) = (  0.0000000 -1.0000000  0.0000000 )
                  (  1.0000000  0.0000000  0.0000000 )
                  (  0.0000000  0.0000000 -1.0000000 )


      isym = 16     inv.  90 deg rotation - cart. axis [0,0,1]   

 cryst.   s(16) = (    -1          0          1      )
                  (    -1          0          0      )
                  (    -1          1          0      )

 cart.    s(16) = (  0.0000000  1.0000000  0.0000000 )
                  ( -1.0000000  0.0000000  0.0000000 )
                  (  0.0000000  0.0000000 -1.0000000 )


      isym = 17     inv. 180 deg rotation - cart. axis [1,0,1]   

 cryst.   s(17) = (     1         -1          0      )
                  (     0         -1          0      )
                  (     0         -1          1      )

 cart.    s(17) = (  0.0000000  0.0000000 -1.0000000 )
                  (  0.0000000  1.0000000  0.0000000 )
                  ( -1.0000000  0.0000000  0.0000000 )


      isym = 18     inv. 180 deg rotation - cart. axis [-1,0,1]  

 cryst.   s(18) = (     0          0          1      )
                  (     0          1          0      )
                  (     1          0          0      )

 cart.    s(18) = (  0.0000000  0.0000000  1.0000000 )
                  (  0.0000000  1.0000000  0.0000000 )
                  (  1.0000000  0.0000000  0.0000000 )


      isym = 19     inv.  90 deg rotation - cart. axis [0,1,0]   

 cryst.   s(19) = (     0          0         -1      )
                  (     1          0         -1      )
                  (     0          1         -1      )

 cart.    s(19) = (  0.0000000  0.0000000 -1.0000000 )
                  (  0.0000000 -1.0000000  0.0000000 )
                  (  1.0000000  0.0000000  0.0000000 )


      isym = 20     inv.  90 deg rotation - cart. axis [0,-1,0]  

 cryst.   s(20) = (    -1          1          0      )
                  (    -1          0          1      )
                  (    -1          0          0      )

 cart.    s(20) = (  0.0000000  0.0000000  1.0000000 )
                  (  0.0000000 -1.0000000  0.0000000 )
                  ( -1.0000000  0.0000000  0.0000000 )


      isym = 21     inv. 180 deg rotation - cart. axis [0,1,1]   

 cryst.   s(21) = (    -1          0          0      )
                  (    -1          1          0      )
                  (    -1          0          1      )

 cart.    s(21) = (  1.0000000  0.0000000  0.0000000 )
                  (  0.0000000  0.0000000 -1.0000000 )
                  (  0.0000000 -1.0000000  0.0000000 )


      isym = 22     inv. 180 deg rotation - cart. axis [0,1,-1]  

 cryst.   s(22) = (     1          0          0      )
                  (     0          0          1      )
                  (     0          1          0      )

 cart.    s(22) = (  1.0000000  0.0000000  0.0000000 )
                  (  0.0000000  0.0000000  1.0000000 )
                  (  0.0000000  1.0000000  0.0000000 )


      isym = 23     inv.  90 deg rotation - cart. axis [-1,0,0]  

 cryst.   s(23) = (     0          1         -1      )
                  (     0          0         -1      )
                  (     1          0         -1      )

 cart.    s(23) = ( -1.0000000  0.0000000  0.0000000 )
                  (  0.0000000  0.0000000 -1.0000000 )
                  (  0.0000000  1.0000000  0.0000000 )


      isym = 24     inv.  90 deg rotation - cart. axis [1,0,0]   

 cryst.   s(24) = (     0         -1          1      )
                  (     1         -1          0      )
                  (     0         -1          0      )

 cart.    s(24) = ( -1.0000000  0.0000000  0.0000000 )
                  (  0.0000000  0.0000000  1.0000000 )
                  (  0.0000000 -1.0000000  0.0000000 )


   Cartesian axes

     site n.     atom                  positions (alat units)
         1           Sn  tau(   1) = (   0.0000000   0.0000000   0.0000000  )
         2           Sn  tau(   2) = (   0.3535534   0.3535534   0.3535534  )

   Crystallographic axes

     site n.     atom                  positions (cryst. coord.)
         1           Sn  tau(   1) = (  0.0000000  0.0000000  0.0000000  )
         2           Sn  tau(   2) = (  0.2500000  0.2500000  0.2500000  )

     number of k points=   120  gaussian smearing, width (Ry)=  0.0001
                       cart. coord. in units 2pi/alat
        k(    1) = (   0.0000000   0.0000000   0.0000000), wk =   0.0005926
        k(    2) = (   0.0471405   0.0471405  -0.0471405), wk =   0.0047407
        k(    3) = (   0.0942809   0.0942809  -0.0942809), wk =   0.0047407
        k(    4) = (   0.1414214   0.1414214  -0.1414214), wk =   0.0047407
        k(    5) = (   0.1885618   0.1885618  -0.1885618), wk =   0.0047407
        k(    6) = (   0.2357023   0.2357023  -0.2357023), wk =   0.0047407
        k(    7) = (   0.2828427   0.2828427  -0.2828427), wk =   0.0047407
        k(    8) = (   0.3299832   0.3299832  -0.3299832), wk =   0.0047407
        k(    9) = (   0.0942809   0.0000000   0.0000000), wk =   0.0035556
        k(   10) = (   0.1414214   0.0471405  -0.0471405), wk =   0.0142222
        k(   11) = (   0.1885618   0.0942809  -0.0942809), wk =   0.0142222
        k(   12) = (   0.2357023   0.1414214  -0.1414214), wk =   0.0142222
        k(   13) = (   0.2828427   0.1885618  -0.1885618), wk =   0.0142222
        k(   14) = (   0.3299832   0.2357023  -0.2357023), wk =   0.0142222
        k(   15) = (   0.3771236   0.2828427  -0.2828427), wk =   0.0142222
        k(   16) = (  -0.2828427  -0.3771236   0.3771236), wk =   0.0142222
        k(   17) = (  -0.2357023  -0.3299832   0.3299832), wk =   0.0142222
        k(   18) = (  -0.1885618  -0.2828427   0.2828427), wk =   0.0142222
        k(   19) = (  -0.1414214  -0.2357023   0.2357023), wk =   0.0142222
        k(   20) = (  -0.0942809  -0.1885618   0.1885618), wk =   0.0142222
        k(   21) = (  -0.0471405  -0.1414214   0.1414214), wk =   0.0142222
        k(   22) = (   0.0000000  -0.0942809   0.0942809), wk =   0.0071111
        k(   23) = (   0.1885618   0.0000000   0.0000000), wk =   0.0035556
        k(   24) = (   0.2357023   0.0471405  -0.0471405), wk =   0.0142222
        k(   25) = (   0.2828427   0.0942809  -0.0942809), wk =   0.0142222
        k(   26) = (   0.3299832   0.1414214  -0.1414214), wk =   0.0142222
        k(   27) = (   0.3771236   0.1885618  -0.1885618), wk =   0.0142222
        k(   28) = (   0.4242641   0.2357023  -0.2357023), wk =   0.0142222
        k(   29) = (  -0.2357023  -0.4242641   0.4242641), wk =   0.0142222
        k(   30) = (  -0.1885618  -0.3771236   0.3771236), wk =   0.0142222
        k(   31) = (  -0.1414214  -0.3299832   0.3299832), wk =   0.0142222
        k(   32) = (  -0.0942809  -0.2828427   0.2828427), wk =   0.0142222
        k(   33) = (  -0.0471405  -0.2357023   0.2357023), wk =   0.0142222
        k(   34) = (   0.0000000  -0.1885618   0.1885618), wk =   0.0071111
        k(   35) = (   0.2828427   0.0000000   0.0000000), wk =   0.0035556
        k(   36) = (   0.3299832   0.0471405  -0.0471405), wk =   0.0142222
        k(   37) = (   0.3771236   0.0942809  -0.0942809), wk =   0.0142222
        k(   38) = (   0.4242641   0.1414214  -0.1414214), wk =   0.0142222
        k(   39) = (   0.4714045   0.1885618  -0.1885618), wk =   0.0142222
        k(   40) = (  -0.1885618  -0.4714045   0.4714045), wk =   0.0142222
        k(   41) = (  -0.1414214  -0.4242641   0.4242641), wk =   0.0142222
        k(   42) = (  -0.0942809  -0.3771236   0.3771236), wk =   0.0142222
        k(   43) = (  -0.0471405  -0.3299832   0.3299832), wk =   0.0142222
        k(   44) = (   0.0000000  -0.2828427   0.2828427), wk =   0.0071111
        k(   45) = (   0.3771236   0.0000000   0.0000000), wk =   0.0035556
        k(   46) = (   0.4242641   0.0471405  -0.0471405), wk =   0.0142222
        k(   47) = (   0.4714045   0.0942809  -0.0942809), wk =   0.0142222
        k(   48) = (   0.5185450   0.1414214  -0.1414214), wk =   0.0142222
        k(   49) = (  -0.1414214  -0.5185450   0.5185450), wk =   0.0142222
        k(   50) = (  -0.0942809  -0.4714045   0.4714045), wk =   0.0142222
        k(   51) = (  -0.0471405  -0.4242641   0.4242641), wk =   0.0142222
        k(   52) = (  -0.0000000  -0.3771236   0.3771236), wk =   0.0071111
        k(   53) = (   0.4714045   0.0000000   0.0000000), wk =   0.0035556
        k(   54) = (   0.5185450   0.0471405  -0.0471405), wk =   0.0142222
        k(   55) = (   0.5656854   0.0942809  -0.0942809), wk =   0.0142222
        k(   56) = (  -0.0942809  -0.5656854   0.5656854), wk =   0.0142222
        k(   57) = (  -0.0471405  -0.5185450   0.5185450), wk =   0.0142222
        k(   58) = (  -0.0000000  -0.4714045   0.4714045), wk =   0.0071111
        k(   59) = (   0.5656854   0.0000000   0.0000000), wk =   0.0035556
        k(   60) = (   0.6128259   0.0471405  -0.0471405), wk =   0.0142222
        k(   61) = (  -0.0471405  -0.6128259   0.6128259), wk =   0.0142222
        k(   62) = (   0.0000000  -0.5656854   0.5656854), wk =   0.0071111
        k(   63) = (   0.6599663   0.0000000   0.0000000), wk =   0.0035556
        k(   64) = (   0.0000000  -0.6599663   0.6599663), wk =   0.0071111
        k(   65) = (   0.1885618   0.0942809  -0.0000000), wk =   0.0142222
        k(   66) = (   0.2357023   0.1414214  -0.0471405), wk =   0.0284444
        k(   67) = (   0.2828427   0.1885618  -0.0942809), wk =   0.0284444
        k(   68) = (   0.3299832   0.2357023  -0.1414214), wk =   0.0284444
        k(   69) = (   0.3771236   0.2828427  -0.1885618), wk =   0.0284444
        k(   70) = (  -0.2828427  -0.3771236   0.4714045), wk =   0.0284444
        k(   71) = (   0.2828427   0.0942809   0.0000000), wk =   0.0142222
        k(   72) = (   0.3299832   0.1414214  -0.0471405), wk =   0.0284444
        k(   73) = (   0.3771236   0.1885618  -0.0942809), wk =   0.0284444
        k(   74) = (   0.4242641   0.2357023  -0.1414214), wk =   0.0284444
        k(   75) = (  -0.2357023  -0.4242641   0.5185450), wk =   0.0284444
        k(   76) = (  -0.1885618  -0.3771236   0.4714045), wk =   0.0284444
        k(   77) = (  -0.1414214  -0.3299832   0.4242641), wk =   0.0284444
        k(   78) = (  -0.0942809  -0.2828427   0.3771236), wk =   0.0284444
        k(   79) = (  -0.0471405  -0.2357023   0.3299832), wk =   0.0284444
        k(   80) = (   0.0000000  -0.1885618   0.2828427), wk =   0.0142222
        k(   81) = (   0.3771236   0.0942809   0.0000000), wk =   0.0142222
        k(   82) = (   0.4242641   0.1414214  -0.0471405), wk =   0.0284444
        k(   83) = (   0.4714045   0.1885618  -0.0942809), wk =   0.0284444
        k(   84) = (  -0.1885618  -0.4714045   0.5656854), wk =   0.0284444
        k(   85) = (  -0.1414214  -0.4242641   0.5185450), wk =   0.0284444
        k(   86) = (  -0.0942809  -0.3771236   0.4714045), wk =   0.0284444
        k(   87) = (  -0.0471405  -0.3299832   0.4242641), wk =   0.0284444
        k(   88) = (   0.0000000  -0.2828427   0.3771236), wk =   0.0142222
        k(   89) = (   0.4714045   0.0942809  -0.0000000), wk =   0.0142222
        k(   90) = (   0.5185450   0.1414214  -0.0471405), wk =   0.0284444
        k(   91) = (  -0.1414214  -0.5185450   0.6128259), wk =   0.0284444
        k(   92) = (  -0.0942809  -0.4714045   0.5656854), wk =   0.0284444
        k(   93) = (  -0.0471405  -0.4242641   0.5185450), wk =   0.0284444
        k(   94) = (  -0.0000000  -0.3771236   0.4714045), wk =   0.0142222
        k(   95) = (   0.5656854   0.0942809   0.0000000), wk =   0.0142222
        k(   96) = (  -0.0942809  -0.5656854   0.6599663), wk =   0.0284444
        k(   97) = (  -0.0471405  -0.5185450   0.6128259), wk =   0.0284444
        k(   98) = (   0.0000000  -0.4714045   0.5656854), wk =   0.0142222
        k(   99) = (  -0.0471405  -0.6128259   0.7071068), wk =   0.0142222
        k(  100) = (   0.0000000  -0.5656854   0.6599663), wk =   0.0142222
        k(  101) = (   0.3771236   0.1885618  -0.0000000), wk =   0.0142222
        k(  102) = (   0.4242641   0.2357023  -0.0471405), wk =   0.0284444
        k(  103) = (  -0.2357023  -0.4242641   0.6128259), wk =   0.0284444
        k(  104) = (  -0.1885618  -0.3771236   0.5656854), wk =   0.0284444
        k(  105) = (   0.4714045   0.1885618  -0.0000000), wk =   0.0142222
        k(  106) = (  -0.1885618  -0.4714045   0.6599663), wk =   0.0284444
        k(  107) = (  -0.1414214  -0.4242641   0.6128259), wk =   0.0284444
        k(  108) = (  -0.0942809  -0.3771236   0.5656854), wk =   0.0284444
        k(  109) = (  -0.0471405  -0.3299832   0.5185450), wk =   0.0284444
        k(  110) = (   0.0000000  -0.2828427   0.4714045), wk =   0.0142222
        k(  111) = (  -0.1414214  -0.5185450   0.7071068), wk =   0.0142222
        k(  112) = (  -0.0942809  -0.4714045   0.6599663), wk =   0.0284444
        k(  113) = (  -0.0471405  -0.4242641   0.6128259), wk =   0.0284444
        k(  114) = (   0.0000000  -0.3771236   0.5656854), wk =   0.0142222
        k(  115) = (  -0.0471405  -0.5185450   0.7071068), wk =   0.0142222
        k(  116) = (   0.0000000  -0.4714045   0.6599663), wk =   0.0142222
        k(  117) = (  -0.1414214  -0.4242641   0.7071068), wk =   0.0142222
        k(  118) = (  -0.0942809  -0.3771236   0.6599663), wk =   0.0284444
        k(  119) = (  -0.0471405  -0.4242641   0.7071068), wk =   0.0142222
        k(  120) = (  -0.0000000  -0.3771236   0.6599663), wk =   0.0142222

                       cryst. coord.
        k(    1) = (   0.0000000   0.0000000   0.0000000), wk =   0.0005926
        k(    2) = (   0.0000000   0.0000000   0.0666667), wk =   0.0047407
        k(    3) = (   0.0000000   0.0000000   0.1333333), wk =   0.0047407
        k(    4) = (   0.0000000   0.0000000   0.2000000), wk =   0.0047407
        k(    5) = (   0.0000000   0.0000000   0.2666667), wk =   0.0047407
        k(    6) = (   0.0000000   0.0000000   0.3333333), wk =   0.0047407
        k(    7) = (   0.0000000   0.0000000   0.4000000), wk =   0.0047407
        k(    8) = (   0.0000000   0.0000000   0.4666667), wk =   0.0047407
        k(    9) = (   0.0000000   0.0666667   0.0666667), wk =   0.0035556
        k(   10) = (   0.0000000   0.0666667   0.1333333), wk =   0.0142222
        k(   11) = (   0.0000000   0.0666667   0.2000000), wk =   0.0142222
        k(   12) = (   0.0000000   0.0666667   0.2666667), wk =   0.0142222
        k(   13) = (   0.0000000   0.0666667   0.3333333), wk =   0.0142222
        k(   14) = (   0.0000000   0.0666667   0.4000000), wk =   0.0142222
        k(   15) = (   0.0000000   0.0666667   0.4666667), wk =   0.0142222
        k(   16) = (   0.0000000   0.0666667  -0.4666667), wk =   0.0142222
        k(   17) = (   0.0000000   0.0666667  -0.4000000), wk =   0.0142222
        k(   18) = (   0.0000000   0.0666667  -0.3333333), wk =   0.0142222
        k(   19) = (   0.0000000   0.0666667  -0.2666667), wk =   0.0142222
        k(   20) = (   0.0000000   0.0666667  -0.2000000), wk =   0.0142222
        k(   21) = (   0.0000000   0.0666667  -0.1333333), wk =   0.0142222
        k(   22) = (   0.0000000   0.0666667  -0.0666667), wk =   0.0071111
        k(   23) = (   0.0000000   0.1333333   0.1333333), wk =   0.0035556
        k(   24) = (   0.0000000   0.1333333   0.2000000), wk =   0.0142222
        k(   25) = (   0.0000000   0.1333333   0.2666667), wk =   0.0142222
        k(   26) = (   0.0000000   0.1333333   0.3333333), wk =   0.0142222
        k(   27) = (   0.0000000   0.1333333   0.4000000), wk =   0.0142222
        k(   28) = (   0.0000000   0.1333333   0.4666667), wk =   0.0142222
        k(   29) = (   0.0000000   0.1333333  -0.4666667), wk =   0.0142222
        k(   30) = (   0.0000000   0.1333333  -0.4000000), wk =   0.0142222
        k(   31) = (   0.0000000   0.1333333  -0.3333333), wk =   0.0142222
        k(   32) = (   0.0000000   0.1333333  -0.2666667), wk =   0.0142222
        k(   33) = (   0.0000000   0.1333333  -0.2000000), wk =   0.0142222
        k(   34) = (   0.0000000   0.1333333  -0.1333333), wk =   0.0071111
        k(   35) = (   0.0000000   0.2000000   0.2000000), wk =   0.0035556
        k(   36) = (   0.0000000   0.2000000   0.2666667), wk =   0.0142222
        k(   37) = (   0.0000000   0.2000000   0.3333333), wk =   0.0142222
        k(   38) = (   0.0000000   0.2000000   0.4000000), wk =   0.0142222
        k(   39) = (   0.0000000   0.2000000   0.4666667), wk =   0.0142222
        k(   40) = (   0.0000000   0.2000000  -0.4666667), wk =   0.0142222
        k(   41) = (   0.0000000   0.2000000  -0.4000000), wk =   0.0142222
        k(   42) = (   0.0000000   0.2000000  -0.3333333), wk =   0.0142222
        k(   43) = (   0.0000000   0.2000000  -0.2666667), wk =   0.0142222
        k(   44) = (   0.0000000   0.2000000  -0.2000000), wk =   0.0071111
        k(   45) = (   0.0000000   0.2666667   0.2666667), wk =   0.0035556
        k(   46) = (   0.0000000   0.2666667   0.3333333), wk =   0.0142222
        k(   47) = (   0.0000000   0.2666667   0.4000000), wk =   0.0142222
        k(   48) = (   0.0000000   0.2666667   0.4666667), wk =   0.0142222
        k(   49) = (   0.0000000   0.2666667  -0.4666667), wk =   0.0142222
        k(   50) = (   0.0000000   0.2666667  -0.4000000), wk =   0.0142222
        k(   51) = (   0.0000000   0.2666667  -0.3333333), wk =   0.0142222
        k(   52) = (   0.0000000   0.2666667  -0.2666667), wk =   0.0071111
        k(   53) = (   0.0000000   0.3333333   0.3333333), wk =   0.0035556
        k(   54) = (   0.0000000   0.3333333   0.4000000), wk =   0.0142222
        k(   55) = (   0.0000000   0.3333333   0.4666667), wk =   0.0142222
        k(   56) = (   0.0000000   0.3333333  -0.4666667), wk =   0.0142222
        k(   57) = (   0.0000000   0.3333333  -0.4000000), wk =   0.0142222
        k(   58) = (   0.0000000   0.3333333  -0.3333333), wk =   0.0071111
        k(   59) = (   0.0000000   0.4000000   0.4000000), wk =   0.0035556
        k(   60) = (   0.0000000   0.4000000   0.4666667), wk =   0.0142222
        k(   61) = (   0.0000000   0.4000000  -0.4666667), wk =   0.0142222
        k(   62) = (   0.0000000   0.4000000  -0.4000000), wk =   0.0071111
        k(   63) = (   0.0000000   0.4666667   0.4666667), wk =   0.0035556
        k(   64) = (   0.0000000   0.4666667  -0.4666667), wk =   0.0071111
        k(   65) = (   0.0666667   0.1333333   0.2000000), wk =   0.0142222
        k(   66) = (   0.0666667   0.1333333   0.2666667), wk =   0.0284444
        k(   67) = (   0.0666667   0.1333333   0.3333333), wk =   0.0284444
        k(   68) = (   0.0666667   0.1333333   0.4000000), wk =   0.0284444
        k(   69) = (   0.0666667   0.1333333   0.4666667), wk =   0.0284444
        k(   70) = (   0.0666667   0.1333333  -0.4666667), wk =   0.0284444
        k(   71) = (   0.0666667   0.2000000   0.2666667), wk =   0.0142222
        k(   72) = (   0.0666667   0.2000000   0.3333333), wk =   0.0284444
        k(   73) = (   0.0666667   0.2000000   0.4000000), wk =   0.0284444
        k(   74) = (   0.0666667   0.2000000   0.4666667), wk =   0.0284444
        k(   75) = (   0.0666667   0.2000000  -0.4666667), wk =   0.0284444
        k(   76) = (   0.0666667   0.2000000  -0.4000000), wk =   0.0284444
        k(   77) = (   0.0666667   0.2000000  -0.3333333), wk =   0.0284444
        k(   78) = (   0.0666667   0.2000000  -0.2666667), wk =   0.0284444
        k(   79) = (   0.0666667   0.2000000  -0.2000000), wk =   0.0284444
        k(   80) = (   0.0666667   0.2000000  -0.1333333), wk =   0.0142222
        k(   81) = (   0.0666667   0.2666667   0.3333333), wk =   0.0142222
        k(   82) = (   0.0666667   0.2666667   0.4000000), wk =   0.0284444
        k(   83) = (   0.0666667   0.2666667   0.4666667), wk =   0.0284444
        k(   84) = (   0.0666667   0.2666667  -0.4666667), wk =   0.0284444
        k(   85) = (   0.0666667   0.2666667  -0.4000000), wk =   0.0284444
        k(   86) = (   0.0666667   0.2666667  -0.3333333), wk =   0.0284444
        k(   87) = (   0.0666667   0.2666667  -0.2666667), wk =   0.0284444
        k(   88) = (   0.0666667   0.2666667  -0.2000000), wk =   0.0142222
        k(   89) = (   0.0666667   0.3333333   0.4000000), wk =   0.0142222
        k(   90) = (   0.0666667   0.3333333   0.4666667), wk =   0.0284444
        k(   91) = (   0.0666667   0.3333333  -0.4666667), wk =   0.0284444
        k(   92) = (   0.0666667   0.3333333  -0.4000000), wk =   0.0284444
        k(   93) = (   0.0666667   0.3333333  -0.3333333), wk =   0.0284444
        k(   94) = (   0.0666667   0.3333333  -0.2666667), wk =   0.0142222
        k(   95) = (   0.0666667   0.4000000   0.4666667), wk =   0.0142222
        k(   96) = (   0.0666667   0.4000000  -0.4666667), wk =   0.0284444
        k(   97) = (   0.0666667   0.4000000  -0.4000000), wk =   0.0284444
        k(   98) = (   0.0666667   0.4000000  -0.3333333), wk =   0.0142222
        k(   99) = (   0.0666667   0.4666667  -0.4666667), wk =   0.0142222
        k(  100) = (   0.0666667   0.4666667  -0.4000000), wk =   0.0142222
        k(  101) = (   0.1333333   0.2666667   0.4000000), wk =   0.0142222
        k(  102) = (   0.1333333   0.2666667   0.4666667), wk =   0.0284444
        k(  103) = (   0.1333333   0.2666667  -0.4666667), wk =   0.0284444
        k(  104) = (   0.1333333   0.2666667  -0.4000000), wk =   0.0284444
        k(  105) = (   0.1333333   0.3333333   0.4666667), wk =   0.0142222
        k(  106) = (   0.1333333   0.3333333  -0.4666667), wk =   0.0284444
        k(  107) = (   0.1333333   0.3333333  -0.4000000), wk =   0.0284444
        k(  108) = (   0.1333333   0.3333333  -0.3333333), wk =   0.0284444
        k(  109) = (   0.1333333   0.3333333  -0.2666667), wk =   0.0284444
        k(  110) = (   0.1333333   0.3333333  -0.2000000), wk =   0.0142222
        k(  111) = (   0.1333333   0.4000000  -0.4666667), wk =   0.0142222
        k(  112) = (   0.1333333   0.4000000  -0.4000000), wk =   0.0284444
        k(  113) = (   0.1333333   0.4000000  -0.3333333), wk =   0.0284444
        k(  114) = (   0.1333333   0.4000000  -0.2666667), wk =   0.0142222
        k(  115) = (   0.1333333   0.4666667  -0.4000000), wk =   0.0142222
        k(  116) = (   0.1333333   0.4666667  -0.3333333), wk =   0.0142222
        k(  117) = (   0.2000000   0.4000000  -0.4000000), wk =   0.0142222
        k(  118) = (   0.2000000   0.4000000  -0.3333333), wk =   0.0284444
        k(  119) = (   0.2000000   0.4666667  -0.3333333), wk =   0.0142222
        k(  120) = (   0.2000000   0.4666667  -0.2666667), wk =   0.0142222

     Dense  grid:    48119 G-vectors     FFT dimensions: (  54,  54,  54)

     Largest allocated arrays     est. size (Mb)     dimensions
        Kohn-Sham Wavefunctions         0.10 Mb     (     378,   18)
        NL pseudopotentials             0.21 Mb     (     378,   36)
        Each V/rho on FFT grid          0.18 Mb     (   11664)
        Each G-vector array             0.02 Mb     (    3009)
        G-vector shells                 0.00 Mb     (     410)
     Largest temporary arrays     est. size (Mb)     dimensions
        Auxiliary wavefunctions         0.42 Mb     (     378,   72)
        Each subspace H/S matrix        0.08 Mb     (      72,   72)
        Each <psi_i|beta_j> matrix      0.01 Mb     (      36,   18)
        Arrays for rho mixing           1.42 Mb     (   11664,    8)

     Initial potential from superposition of free atoms

     starting charge   27.82674, renormalised to   28.00000
     Starting wfc are random

     total cpu time spent up to now is        9.3 secs

     Self-consistent Calculation

     iteration #  1     ecut=    80.00 Ry     beta=0.70
     Davidson diagonalization with overlap
     ethr =  1.00E-02,  avg # of iterations =  7.8

     Threshold (ethr) on eigenvalues was too large:
     Diagonalizing with lowered threshold

     Davidson diagonalization with overlap
     ethr =  1.16E-04,  avg # of iterations =  5.9

     total cpu time spent up to now is      122.5 secs

     total energy              =    -256.21706026 Ry
     Harris-Foulkes estimate   =    -256.22992027 Ry
     estimated scf accuracy    <       0.03199422 Ry

     iteration #  2     ecut=    80.00 Ry     beta=0.70
     Davidson diagonalization with overlap
     ethr =  1.14E-04,  avg # of iterations =  2.1

     total cpu time spent up to now is      149.9 secs

     total energy              =    -256.22152479 Ry
     Harris-Foulkes estimate   =    -256.22176132 Ry
     estimated scf accuracy    <       0.00184534 Ry

     iteration #  3     ecut=    80.00 Ry     beta=0.70
     Davidson diagonalization with overlap
     ethr =  6.59E-06,  avg # of iterations =  3.1

     total cpu time spent up to now is      168.7 secs

     total energy              =    -256.22170006 Ry
     Harris-Foulkes estimate   =    -256.22168158 Ry
     estimated scf accuracy    <       0.00010952 Ry

     iteration #  4     ecut=    80.00 Ry     beta=0.70
     Davidson diagonalization with overlap
     ethr =  3.91E-07,  avg # of iterations =  2.7

     total cpu time spent up to now is      189.7 secs

     End of self-consistent calculation

          k = 0.0000 0.0000 0.0000 (  5985 PWs)   bands (ev):

   -14.0575 -14.0575 -14.0575 -14.0083 -14.0083 -13.7582 -13.7582 -13.7582
   -13.7570 -13.7570  -2.5778   6.3616   7.6173   7.6173   7.6173   9.4125
     9.4148   9.6833

     occupation numbers 
     1.0000   1.0000   1.0000   1.0000   1.0000   1.0000   1.0000   1.0000
     1.0000   1.0000   1.0000   1.0000   0.0000   0.0000   0.0000   0.0000
     0.0000   0.0000

          k = 0.0471 0.0471-0.0471 (  6003 PWs)   bands (ev):

   -14.0604 -14.0604 -14.0566 -14.0043 -14.0043 -13.7690 -13.7690 -13.7593
   -13.7468 -13.7468  -2.5381   5.9138   7.5351   7.5351   7.8209   9.4125
     9.4148   9.7909

     occupation numbers 
     1.0000   1.0000   1.0000   1.0000   1.0000   1.0000   1.0000   1.0000
     1.0000   1.0000   1.0000   1.0000   0.1280   0.1280   0.0000   0.0000
     0.0000   0.0000

          k = 0.0943 0.0943-0.0943 (  6033 PWs)   bands (ev):

   -14.0669 -14.0669 -14.0539 -13.9951 -13.9951 -13.7804 -13.7804 -13.7625
   -13.7373 -13.7373  -2.4199   5.0806   7.3385   7.3385   7.9380   9.4125
     9.4149  10.0501

     occupation numbers 
     1.0000   1.0000   1.0000   1.0000   1.0000   1.0000   1.0000   1.0000
     1.0000   1.0000   1.0000   1.0000   1.0000   1.0000   0.0000   0.0000
     0.0000   0.0000

          k = 0.1414 0.1414-0.1414 (  6036 PWs)   bands (ev):

   -14.0736 -14.0736 -14.0499 -13.9844 -13.9844 -13.7907 -13.7907 -13.7672
   -13.7294 -13.7294  -2.2273   4.1892   7.1077   7.1077   7.8482   9.4125
     9.4148  10.3417

     occupation numbers 
     1.0000   1.0000   1.0000   1.0000   1.0000   1.0000   1.0000   1.0000
     1.0000   1.0000   1.0000   1.0000   1.0000   1.0000   0.0000   0.0000
     0.0000   0.0000

          k = 0.1886 0.1886-0.1886 (  6021 PWs)   bands (ev):

   -14.0792 -14.0792 -14.0452 -13.9746 -13.9746 -13.7993 -13.7993 -13.7728
   -13.7232 -13.7232  -1.9690   3.3311   6.8930   6.8930   7.6931   9.4126
     9.4149  10.5672

     occupation numbers 
     1.0000   1.0000   1.0000   1.0000   1.0000   1.0000   1.0000   1.0000
     1.0000   1.0000   1.0000   1.0000   1.0000   1.0000   0.0000   0.0000
     0.0000   0.0000

          k = 0.2357 0.2357-0.2357 (  6039 PWs)   bands (ev):

   -14.0832 -14.0832 -14.0406 -13.9670 -13.9670 -13.8055 -13.8055 -13.7783
   -13.7189 -13.7189  -1.6642   2.5586   6.7192   6.7192   7.5483   9.4126
     9.4148  10.6860

     occupation numbers 
     1.0000   1.0000   1.0000   1.0000   1.0000   1.0000   1.0000   1.0000
     1.0000   1.0000   1.0000   1.0000   1.0000   1.0000   0.0000   0.0000
     0.0000   0.0000

          k = 0.2828 0.2828-0.2828 (  6026 PWs)   bands (ev):

   -14.0856 -14.0856 -14.0369 -13.9622 -13.9622 -13.8093 -13.8093 -13.7827
   -13.7162 -13.7162  -1.3564   1.9318   6.5986   6.5986   7.4432   9.4126
     9.4147  10.7237

     occupation numbers 
     1.0000   1.0000   1.0000   1.0000   1.0000   1.0000   1.0000   1.0000
     1.0000   1.0000   1.0000   1.0000   1.0000   1.0000   1.0000   0.0000
     0.0000   0.0000

          k = 0.3300 0.3300-0.3300 (  6029 PWs)   bands (ev):

   -14.0868 -14.0868 -14.0348 -13.9599 -13.9599 -13.8110 -13.8110 -13.7852
   -13.7150 -13.7150  -1.1397   1.5537   6.5370   6.5370   7.3887   9.4125
     9.4147  10.7278

     occupation numbers 
     1.0000   1.0000   1.0000   1.0000   1.0000   1.0000   1.0000   1.0000
     1.0000   1.0000   1.0000   1.0000   1.0000   1.0000   1.0000   0.0000
     0.0000   0.0000

          k = 0.0943 0.0000 0.0000 (  6022 PWs)   bands (ev):

   -14.0599 -14.0596 -14.0596 -14.0055 -14.0003 -13.7792 -13.7597 -13.7553
   -13.7553 -13.7425  -2.5247   5.8281   7.3862   7.3862   8.1284   9.4123
     9.4148   9.5192

     occupation numbers 
     1.0000   1.0000   1.0000   1.0000   1.0000   1.0000   1.0000   1.0000
     1.0000   1.0000   1.0000   1.0000   1.0000   1.0000   0.0000   0.0000
     0.0000   0.0000

          k = 0.1414 0.0471-0.0471 (  6019 PWs)   bands (ev):

   -14.0668 -14.0638 -14.0571 -13.9996 -13.9907 -13.7915 -13.7695 -13.7556
   -13.7460 -13.7352  -2.4325   5.2112   7.1584   7.1890   8.3896   9.4121
     9.4148   9.5236

     occupation numbers 
     1.0000   1.0000   1.0000   1.0000   1.0000   1.0000   1.0000   1.0000
     1.0000   1.0000   1.0000   1.0000   1.0000   1.0000   0.0000   0.0000
     0.0000   0.0000

          k = 0.1886 0.0943-0.0943 (  6029 PWs)   bands (ev):

   -14.0746 -14.0701 -14.0524 -13.9901 -13.9794 -13.8028 -13.7803 -13.7602
   -13.7367 -13.7270  -2.2641   4.3985   6.9223   6.9474   8.3830   9.4124
     9.4148   9.7844

     occupation numbers 
     1.0000   1.0000   1.0000   1.0000   1.0000   1.0000   1.0000   1.0000
     1.0000   1.0000   1.0000   1.0000   1.0000   1.0000   0.0000   0.0000
     0.0000   0.0000

          k = 0.2357 0.1414-0.1414 (  6030 PWs)   bands (ev):

   -14.0815 -14.0761 -14.0463 -13.9802 -13.9688 -13.8120 -13.7902 -13.7672
   -13.7290 -13.7199  -2.0263   3.5607   6.6879   6.7174   8.2466   9.4125
     9.4148  10.1208

     occupation numbers 
     1.0000   1.0000   1.0000   1.0000   1.0000   1.0000   1.0000   1.0000
     1.0000   1.0000   1.0000   1.0000   1.0000   1.0000   0.0000   0.0000
     0.0000   0.0000

          k = 0.2828 0.1886-0.1886 (  6037 PWs)   bands (ev):

   -14.0868 -14.0810 -14.0397 -13.9714 -13.9609 -13.8178 -13.7986 -13.7752
   -13.7229 -13.7145  -1.7337   2.7750   6.4532   6.5636   8.0918   9.4126
     9.4148  10.3775

     occupation numbers 
     1.0000   1.0000   1.0000   1.0000   1.0000   1.0000   1.0000   1.0000
     1.0000   1.0000   1.0000   1.0000   1.0000   1.0000   0.0000   0.0000
     0.0000   0.0000

          k = 0.3300 0.2357-0.2357 (  6046 PWs)   bands (ev):

   -14.0902 -14.0845 -14.0338 -13.9642 -13.9565 -13.8197 -13.8056 -13.7828
   -13.7183 -13.7110  -1.4191   2.1024   6.2654   6.4704   7.9636   9.4125
     9.4148  10.5205

     occupation numbers 
     1.0000   1.0000   1.0000   1.0000   1.0000   1.0000   1.0000   1.0000
     1.0000   1.0000   1.0000   1.0000   1.0000   1.0000   0.0000   0.0000
     0.0000   0.0000

          k = 0.3771 0.2828-0.2828 (  6034 PWs)   bands (ev):

   -14.0918 -14.0869 -14.0296 -13.9590 -13.9557 -13.8179 -13.8110 -13.7887
   -13.7150 -13.7095  -1.1568   1.6316   6.1355   6.4417   7.8799   9.4126
     9.4148  10.6004

     occupation numbers 
     1.0000   1.0000   1.0000   1.0000   1.0000   1.0000   1.0000   1.0000
     1.0000   1.0000   1.0000   1.0000   1.0000   1.0000   0.0000   0.0000
     0.0000   0.0000

          k =-0.2828-0.3771 0.3771 (  6037 PWs)   bands (ev):

   -14.0917 -14.0882 -14.0281 -13.9576 -13.9559 -13.8150 -13.8137 -13.7915
   -13.7131 -13.7101  -1.0745   1.4969   6.0694   6.4777   7.8478   9.4125
     9.4148  10.6667

     occupation numbers 
     1.0000   1.0000   1.0000   1.0000   1.0000   1.0000   1.0000   1.0000
     1.0000   1.0000   1.0000   1.0000   1.0000   1.0000   0.0000   0.0000
     0.0000   0.0000

          k =-0.2357-0.3300 0.3300 (  6037 PWs)   bands (ev):

   -14.0899 -14.0883 -14.0297 -13.9616 -13.9552 -13.8170 -13.8090 -13.7898
   -13.7125 -13.7125  -1.2318   1.7595   6.0708   6.5759   7.8689   9.4125
     9.4148  10.7347

     occupation numbers 
     1.0000   1.0000   1.0000   1.0000   1.0000   1.0000   1.0000   1.0000
     1.0000   1.0000   1.0000   1.0000   1.0000   1.0000   0.0000   0.0000
     0.0000   0.0000

          k =-0.1886-0.2828 0.2828 (  6037 PWs)   bands (ev):

   -14.0871 -14.0866 -14.0341 -13.9671 -13.9579 -13.8160 -13.8047 -13.7834
   -13.7169 -13.7136  -1.5238   2.3110   6.1423   6.7305   7.9400   9.4125
     9.4148  10.6761

     occupation numbers 
     1.0000   1.0000   1.0000   1.0000   1.0000   1.0000   1.0000   1.0000
     1.0000   1.0000   1.0000   1.0000   1.0000   1.0000   0.0000   0.0000
     0.0000   0.0000

          k =-0.1414-0.2357 0.2357 (  6027 PWs)   bands (ev):

   -14.0841 -14.0816 -14.0402 -13.9743 -13.9642 -13.8115 -13.7994 -13.7746
   -13.7232 -13.7165  -1.8365   3.0281   6.2855   6.9314   8.0505   9.4125
     9.4148  10.5179

     occupation numbers 
     1.0000   1.0000   1.0000   1.0000   1.0000   1.0000   1.0000   1.0000
     1.0000   1.0000   1.0000   1.0000   1.0000   1.0000   0.0000   0.0000
     0.0000   0.0000

          k =-0.0943-0.1886 0.1886 (  6034 PWs)   bands (ev):

   -14.0793 -14.0753 -14.0467 -13.9830 -13.9737 -13.8036 -13.7923 -13.7654
   -13.7312 -13.7214  -2.1131   3.8346   6.5013   7.1601   8.1726   9.4125
     9.4148  10.2794

     occupation numbers 
     1.0000   1.0000   1.0000   1.0000   1.0000   1.0000   1.0000   1.0000
     1.0000   1.0000   1.0000   1.0000   1.0000   1.0000   0.0000   0.0000
     0.0000   0.0000

          k =-0.0471-0.1414 0.1414 (  6023 PWs)   bands (ev):

   -14.0730 -14.0680 -14.0525 -13.9925 -13.9852 -13.7932 -13.7836 -13.7574
   -13.7409 -13.7282  -2.3287   4.6665   6.7909   7.3814   8.2348   9.4125
     9.4149  10.0062

     occupation numbers 
     1.0000   1.0000   1.0000   1.0000   1.0000   1.0000   1.0000   1.0000
     1.0000   1.0000   1.0000   1.0000   1.0000   1.0000   0.0000   0.0000
     0.0000   0.0000

          k = 0.0000-0.0943 0.0943 (  6027 PWs)   bands (ev):

   -14.0659 -14.0618 -14.0563 -14.0008 -13.9964 -13.7813 -13.7741 -13.7524
   -13.7505 -13.7368  -2.4721   5.4261   7.1566   7.5314   8.1020   9.4125
     9.4148   9.8057

     occupation numbers 
     1.0000   1.0000   1.0000   1.0000   1.0000   1.0000   1.0000   1.0000
     1.0000   1.0000   1.0000   1.0000   1.0000   0.9960   0.0000   0.0000
     0.0000   0.0000

          k = 0.1886 0.0000 0.0000 (  6042 PWs)   bands (ev):

   -14.0654 -14.0654 -14.0631 -13.9972 -13.9807 -13.8062 -13.7676 -13.7473
   -13.7473 -13.7346  -2.3660   4.9448   6.9167   6.9167   8.8974   9.1663
     9.4132   9.4156

     occupation numbers 
     1.0000   1.0000   1.0000   1.0000   1.0000   1.0000   1.0000   1.0000
     1.0000   1.0000   1.0000   1.0000   1.0000   1.0000   0.0000   0.0000
     0.0000   0.0000

          k = 0.2357 0.0471-0.0471 (  6026 PWs)   bands (ev):

   -14.0737 -14.0702 -14.0582 -13.9897 -13.9685 -13.8201 -13.7761 -13.7484
   -13.7398 -13.7285  -2.2223   4.3610   6.6504   6.6761   9.0392   9.2036
     9.4134   9.4162

     occupation numbers 
     1.0000   1.0000   1.0000   1.0000   1.0000   1.0000   1.0000   1.0000
     1.0000   1.0000   1.0000   1.0000   1.0000   1.0000   0.0000   0.0000
     0.0000   0.0000

          k = 0.2828 0.0943-0.0943 (  6024 PWs)   bands (ev):

   -14.0827 -14.0759 -14.0499 -13.9801 -13.9567 -13.8317 -13.7866 -13.7568
   -13.7313 -13.7192  -2.0065   3.6418   6.3413   6.4730   8.9398   9.4115
     9.4147   9.5478

     occupation numbers 
     1.0000   1.0000   1.0000   1.0000   1.0000   1.0000   1.0000   1.0000
     1.0000   1.0000   1.0000   1.0000   1.0000   1.0000   0.0000   0.0000
     0.0000   0.0000

          k = 0.3300 0.1414-0.1414 (  6026 PWs)   bands (ev):

   -14.0905 -14.0811 -14.0399 -13.9703 -13.9477 -13.8393 -13.7969 -13.7680
   -13.7240 -13.7109  -1.7296   2.9063   6.0369   6.3261   8.7885   9.4125
     9.4149   9.9634

     occupation numbers 
     1.0000   1.0000   1.0000   1.0000   1.0000   1.0000   1.0000   1.0000
     1.0000   1.0000   1.0000   1.0000   1.0000   1.0000   0.0000   0.0000
     0.0000   0.0000

          k = 0.3771 0.1886-0.1886 (  6030 PWs)   bands (ev):

   -14.0964 -14.0853 -14.0297 -13.9613 -13.9431 -13.8416 -13.8064 -13.7800
   -13.7179 -13.7045  -1.4158   2.2327   5.7765   6.2449   8.6448   9.4126
     9.4149  10.2883

     occupation numbers 
     1.0000   1.0000   1.0000   1.0000   1.0000   1.0000   1.0000   1.0000
     1.0000   1.0000   1.0000   1.0000   1.0000   1.0000   0.0000   0.0000
     0.0000   0.0000

          k = 0.4243 0.2357-0.2357 (  6023 PWs)   bands (ev):

   -14.1001 -14.0886 -14.0210 -13.9536 -13.9435 -13.8383 -13.8151 -13.7908
   -13.7132 -13.7006  -1.1218   1.7052   5.5785   6.2331   8.5373   9.4126
     9.4149  10.4706

     occupation numbers 
     1.0000   1.0000   1.0000   1.0000   1.0000   1.0000   1.0000   1.0000
     1.0000   1.0000   1.0000   1.0000   1.0000   1.0000   0.0000   0.0000
     0.0000   0.0000

          k =-0.2357-0.4243 0.4243 (  6021 PWs)   bands (ev):

   -14.1013 -14.0908 -14.0156 -13.9480 -13.9477 -13.8298 -13.8224 -13.7991
   -13.7099 -13.6996  -0.9640   1.4534   5.4525   6.2904   8.4777   9.4126
     9.4149  10.5866

     occupation numbers 
     1.0000   1.0000   1.0000   1.0000   1.0000   1.0000   1.0000   1.0000
     1.0000   1.0000   1.0000   1.0000   1.0000   1.0000   0.0000   0.0000
     0.0000   0.0000

          k =-0.1886-0.3771 0.3771 (  6037 PWs)   bands (ev):

   -14.1000 -14.0918 -14.0149 -13.9549 -13.9444 -13.8274 -13.8179 -13.8034
   -13.7082 -13.7017  -1.0508   1.5900   5.4058   6.4130   8.4680   9.4126
     9.4149  10.6966

     occupation numbers 
     1.0000   1.0000   1.0000   1.0000   1.0000   1.0000   1.0000   1.0000
     1.0000   1.0000   1.0000   1.0000   1.0000   1.0000   0.0000   0.0000
     0.0000   0.0000

          k =-0.1414-0.3300 0.3300 (  6026 PWs)   bands (ev):

   -14.0963 -14.0914 -14.0192 -13.9625 -13.9452 -13.8286 -13.8079 -13.7998
   -13.7083 -13.7067  -1.3174   2.0463   5.4462   6.5927   8.5026   9.4126
     9.4149  10.8029

     occupation numbers 
     1.0000   1.0000   1.0000   1.0000   1.0000   1.0000   1.0000   1.0000
     1.0000   1.0000   1.0000   1.0000   1.0000   1.0000   0.0000   0.0000
     0.0000   0.0000

          k =-0.0943-0.2828 0.2828 (  6037 PWs)   bands (ev):

   -14.0903 -14.0892 -14.0275 -13.9702 -13.9508 -13.8250 -13.8045 -13.7856
   -13.7146 -13.7102  -1.6332   2.6775   5.5849   6.8153   8.5637   9.4126
     9.4149  10.7268

     occupation numbers 
     1.0000   1.0000   1.0000   1.0000   1.0000   1.0000   1.0000   1.0000
     1.0000   1.0000   1.0000   1.0000   1.0000   1.0000   0.0000   0.0000
     0.0000   0.0000

          k =-0.0471-0.2357 0.2357 (  6024 PWs)   bands (ev):

   -14.0853 -14.0826 -14.0375 -13.9780 -13.9606 -13.8169 -13.7993 -13.7709
   -13.7248 -13.7143  -1.9251   3.3811   5.8398   7.0552   8.6058   9.4126
     9.4150  10.4482

     occupation numbers 
     1.0000   1.0000   1.0000   1.0000   1.0000   1.0000   1.0000   1.0000
     1.0000   1.0000   1.0000   1.0000   1.0000   1.0000   0.0000   0.0000
     0.0000   0.0000

          k = 0.0000-0.1886 0.1886 (  6031 PWs)   bands (ev):

   -14.0796 -14.0742 -14.0467 -13.9858 -13.9728 -13.8058 -13.7920 -13.7592
   -13.7360 -13.7204  -2.1616   4.0730   6.2377   7.2672   8.5278   9.4125
     9.4150  10.1701

     occupation numbers 
     1.0000   1.0000   1.0000   1.0000   1.0000   1.0000   1.0000   1.0000
     1.0000   1.0000   1.0000   1.0000   1.0000   1.0000   0.0000   0.0000
     0.0000   0.0000

          k = 0.2828 0.0000 0.0000 (  6050 PWs)   bands (ev):

   -14.0735 -14.0735 -14.0623 -13.9838 -13.9547 -13.8373 -13.7805 -13.7360
   -13.7360 -13.7341  -2.1031   4.0272   6.4306   6.4306   8.8067   9.3991
     9.4137   9.4557

     occupation numbers 
     1.0000   1.0000   1.0000   1.0000   1.0000   1.0000   1.0000   1.0000
     1.0000   1.0000   1.0000   1.0000   1.0000   1.0000   0.0000   0.0000
     0.0000   0.0000

          k = 0.3300 0.0471-0.0471 (  6020 PWs)   bands (ev):

   -14.0815 -14.0783 -14.0553 -13.9747 -13.9411 -13.8523 -13.7897 -13.7453
   -13.7290 -13.7227  -1.9099   3.4905   6.1500   6.2226   8.8071   9.4081
     9.4139   9.5196

     occupation numbers 
     1.0000   1.0000   1.0000   1.0000   1.0000   1.0000   1.0000   1.0000
     1.0000   1.0000   1.0000   1.0000   1.0000   1.0000   0.0000   0.0000
     0.0000   0.0000

          k = 0.3771 0.0943-0.0943 (  6029 PWs)   bands (ev):

   -14.0910 -14.0832 -14.0432 -13.9644 -13.9299 -13.8633 -13.8005 -13.7593
   -13.7218 -13.7111  -1.6509   2.8701   5.7994   6.0722   8.9209   9.4114
     9.4144   9.6822

     occupation numbers 
     1.0000   1.0000   1.0000   1.0000   1.0000   1.0000   1.0000   1.0000
     1.0000   1.0000   1.0000   1.0000   1.0000   1.0000   0.0000   0.0000
     0.0000   0.0000

          k = 0.4243 0.1414-0.1414 (  6018 PWs)   bands (ev):

   -14.0995 -14.0876 -14.0293 -13.9542 -13.9234 -13.8686 -13.8116 -13.7748
   -13.7153 -13.7014  -1.3438   2.2523   5.4586   5.9898   8.8991   9.4124
     9.4148  10.1262

     occupation numbers 
     1.0000   1.0000   1.0000   1.0000   1.0000   1.0000   1.0000   1.0000
     1.0000   1.0000   1.0000   1.0000   1.0000   1.0000   0.0000   0.0000
     0.0000   0.0000

          k = 0.4714 0.1886-0.1886 (  6018 PWs)   bands (ev):

   -14.1057 -14.0911 -14.0161 -13.9446 -13.9233 -13.8667 -13.8224 -13.7896
   -13.7101 -13.6945  -1.0305   1.7174   5.1776   5.9798   8.8374   9.4126
     9.4149  10.5776

     occupation numbers 
     1.0000   1.0000   1.0000   1.0000   1.0000   1.0000   1.0000   1.0000
     1.0000   1.0000   1.0000   1.0000   1.0000   1.0000   0.0000   0.0000
     0.0000   0.0000

          k =-0.1886-0.4714 0.4714 (  6019 PWs)   bands (ev):

   -14.1092 -14.0937 -14.0061 -13.9364 -13.9293 -13.8581 -13.8322 -13.8013
   -13.7064 -13.6908  -0.8091   1.3843   4.9798   6.0423   8.8038   9.4126
     9.4149  10.8167

     occupation numbers 
     1.0000   1.0000   1.0000   1.0000   1.0000   1.0000   1.0000   1.0000
     1.0000   1.0000   1.0000   1.0000   1.0000   1.0000   0.0000   0.0000
     0.0000   0.0000

          k =-0.1414-0.4243 0.4243 (  6039 PWs)   bands (ev):

   -14.1095 -14.0951 -14.0013 -13.9398 -13.9310 -13.8439 -13.8395 -13.8082
   -13.7042 -13.6909  -0.8201   1.4009   4.8791   6.1732   8.8114   9.4126
     9.4150  10.9410

     occupation numbers 
     1.0000   1.0000   1.0000   1.0000   1.0000   1.0000   1.0000   1.0000
     1.0000   1.0000   1.0000   1.0000   1.0000   1.0000   0.0000   0.0000
     0.0000   0.0000

          k =-0.0943-0.3771 0.3771 (  6020 PWs)   bands (ev):

   -14.1065 -14.0951 -14.0031 -13.9521 -13.9306 -13.8420 -13.8256 -13.8106
   -13.7038 -13.6949  -1.0536   1.7526   4.8906   6.3635   8.8500   9.4127
     9.4151  11.0569

     occupation numbers 
     1.0000   1.0000   1.0000   1.0000   1.0000   1.0000   1.0000   1.0000
     1.0000   1.0000   1.0000   1.0000   1.0000   1.0000   0.0000   0.0000
     0.0000   0.0000

          k =-0.0471-0.3300 0.3300 (  6035 PWs)   bands (ev):

   -14.1004 -14.0936 -14.0116 -13.9629 -13.9365 -13.8382 -13.8098 -13.8051
   -13.7053 -13.7027  -1.3676   2.2774   5.0355   6.5968   8.8863   9.4127
     9.4152  11.1202

     occupation numbers 
     1.0000   1.0000   1.0000   1.0000   1.0000   1.0000   1.0000   1.0000
     1.0000   1.0000   1.0000   1.0000   1.0000   1.0000   0.0000   0.0000
     0.0000   0.0000

          k = 0.0000-0.2828 0.2828 (  6041 PWs)   bands (ev):

   -14.0920 -14.0902 -14.0244 -13.9712 -13.9473 -13.8291 -13.8055 -13.7860
   -13.7133 -13.7088  -1.6710   2.8477   5.3438   6.8439   8.8439   9.4127
     9.4152  10.7677

     occupation numbers 
     1.0000   1.0000   1.0000   1.0000   1.0000   1.0000   1.0000   1.0000
     1.0000   1.0000   1.0000   1.0000   1.0000   1.0000   0.0000   0.0000
     0.0000   0.0000

          k = 0.3771 0.0000 0.0000 (  6022 PWs)   bands (ev):

   -14.0823 -14.0823 -14.0559 -13.9659 -13.9249 -13.8711 -13.7978 -13.7410
   -13.7236 -13.7236  -1.7387   3.1218   6.0062   6.0062   8.5211   9.4084
     9.4139   9.5088

     occupation numbers 
     1.0000   1.0000   1.0000   1.0000   1.0000   1.0000   1.0000   1.0000
     1.0000   1.0000   1.0000   1.0000   1.0000   1.0000   0.0000   0.0000
     0.0000   0.0000

          k = 0.4243 0.0471-0.0471 (  6038 PWs)   bands (ev):

   -14.0894 -14.0865 -14.0464 -13.9553 -13.9107 -13.8863 -13.8083 -13.7526
   -13.7174 -13.7136  -1.4987   2.6306   5.7385   5.8460   8.5663   9.4031
     9.4138   9.4535

     occupation numbers 
     1.0000   1.0000   1.0000   1.0000   1.0000   1.0000   1.0000   1.0000
     1.0000   1.0000   1.0000   1.0000   1.0000   1.0000   0.0000   0.0000
     0.0000   0.0000

          k = 0.4714 0.0943-0.0943 (  6027 PWs)   bands (ev):

   -14.0987 -14.0905 -14.0310 -13.9442 -13.9021 -13.8946 -13.8200 -13.7699
   -13.7115 -13.7023  -1.2025   2.1016   5.3723   5.7541   8.7215   9.4114
     9.4143   9.6365

     occupation numbers 
     1.0000   1.0000   1.0000   1.0000   1.0000   1.0000   1.0000   1.0000
     1.0000   1.0000   1.0000   1.0000   1.0000   1.0000   0.0000   0.0000
     0.0000   0.0000

          k = 0.5185 0.1414-0.1414 (  6019 PWs)   bands (ev):

   -14.1070 -14.0938 -14.0144 -13.9332 -13.9041 -13.8915 -13.8320 -13.7878
   -13.7066 -13.6928  -0.8802   1.6040   5.0152   5.7360   8.7608   9.4123
     9.4147  10.2063

     occupation numbers 
     1.0000   1.0000   1.0000   1.0000   1.0000   1.0000   1.0000   1.0000
     1.0000   1.0000   1.0000   1.0000   1.0000   1.0000   0.0000   0.0000
     0.0000   0.0000

          k =-0.1414-0.5185 0.5185 (  6019 PWs)   bands (ev):

   -14.1129 -14.0962 -14.0007 -13.9233 -13.9062 -13.8877 -13.8435 -13.8025
   -13.7030 -13.6864  -0.6093   1.2348   4.7348   5.7924   8.7762   9.4125
     9.4148  10.9343

     occupation numbers 
     1.0000   1.0000   1.0000   1.0000   1.0000   1.0000   1.0000   1.0000
     1.0000   1.0000   1.0000   1.0000   1.0000   1.0000   0.0000   0.0000
     0.0000   0.0000

          k =-0.0943-0.4714 0.4714 (  6005 PWs)   bands (ev):

   -14.1154 -14.0977 -13.9931 -13.9163 -13.9161 -13.8757 -13.8524 -13.8108
   -13.7010 -13.6839  -0.5474   1.1575   4.5677   5.9199   8.8237   9.4126
     9.4149  11.4656

     occupation numbers 
     1.0000   1.0000   1.0000   1.0000   1.0000   1.0000   1.0000   1.0000
     1.0000   1.0000   1.0000   1.0000   1.0000   1.0000   0.0000   0.0000
     0.0000   0.0000

          k =-0.0471-0.4243 0.4243 (  6006 PWs)   bands (ev):

   -14.1140 -14.0978 -13.9923 -13.9334 -13.9158 -13.8550 -13.8548 -13.8133
   -13.7006 -13.6860  -0.7479   1.4170   4.5421   6.1096   8.8990   9.4126
     9.4150  11.6498

     occupation numbers 
     1.0000   1.0000   1.0000   1.0000   1.0000   1.0000   1.0000   1.0000
     1.0000   1.0000   1.0000   1.0000   1.0000   1.0000   0.0000   0.0000
     0.0000   0.0000

          k =-0.0000-0.3771 0.3771 (  6013 PWs)   bands (ev):

   -14.1088 -14.0965 -13.9985 -13.9507 -13.9236 -13.8493 -13.8302 -13.8122
   -13.7021 -13.6924  -1.0580   1.8372   4.6886   6.3451   8.9559   9.4127
     9.4153  11.5816

     occupation numbers 
     1.0000   1.0000   1.0000   1.0000   1.0000   1.0000   1.0000   1.0000
     1.0000   1.0000   1.0000   1.0000   1.0000   1.0000   0.0000   0.0000
     0.0000   0.0000

          k = 0.4714 0.0000 0.0000 (  6046 PWs)   bands (ev):

   -14.0901 -14.0901 -14.0434 -13.9443 -13.9059 -13.8930 -13.8187 -13.7549
   -13.7122 -13.7122  -1.2767   2.2457   5.6729   5.6729   8.3420   9.2098
     9.4132   9.4157

     occupation numbers 
     1.0000   1.0000   1.0000   1.0000   1.0000   1.0000   1.0000   1.0000
     1.0000   1.0000   1.0000   1.0000   1.0000   1.0000   0.0000   0.0000
     0.0000   0.0000

          k = 0.5185 0.0471-0.0471 (  6030 PWs)   bands (ev):

   -14.0961 -14.0934 -14.0311 -13.9325 -13.9206 -13.8789 -13.8305 -13.7685
   -13.7073 -13.7045  -0.9937   1.7977   5.4357   5.5670   8.4327   9.1299
     9.4130   9.4153

     occupation numbers 
     1.0000   1.0000   1.0000   1.0000   1.0000   1.0000   1.0000   1.0000
     1.0000   1.0000   1.0000   1.0000   1.0000   1.0000   0.0000   0.0000
     0.0000   0.0000

          k = 0.5657 0.0943-0.0943 (  6021 PWs)   bands (ev):

   -14.1045 -14.0962 -14.0134 -13.9286 -13.9206 -13.8705 -13.8431 -13.7873
   -13.7033 -13.6948  -0.6699   1.3506   5.0805   5.5351   8.5795   9.4036
     9.4138   9.4429

     occupation numbers 
     1.0000   1.0000   1.0000   1.0000   1.0000   1.0000   1.0000   1.0000
     1.0000   1.0000   1.0000   1.0000   1.0000   1.0000   0.0000   0.0000
     0.0000   0.0000

          k =-0.0943-0.5657 0.5657 (  6013 PWs)   bands (ev):

   -14.1120 -14.0981 -13.9970 -13.9265 -13.9093 -13.8714 -13.8557 -13.8044
   -13.7004 -13.6867  -0.3633   0.9781   4.7389   5.5789   8.6350   9.4123
     9.4146  10.1316

     occupation numbers 
     1.0000   1.0000   1.0000   1.0000   1.0000   1.0000   1.0000   1.0000
     1.0000   1.0000   1.0000   1.0000   1.0000   1.0000   0.0000   0.0000
     0.0000   0.0000

          k =-0.0471-0.5185 0.5185 (  6002 PWs)   bands (ev):

   -14.1167 -14.0992 -13.9884 -13.9108 -13.9014 -13.8855 -13.8653 -13.8132
   -13.6990 -13.6819  -0.2460   0.8499   4.4993   5.6959   8.7054   9.4125
     9.4147  11.0100

     occupation numbers 
     1.0000   1.0000   1.0000   1.0000   1.0000   1.0000   1.0000   1.0000
     1.0000   1.0000   1.0000   1.0000   1.0000   1.0000   0.0000   0.0000
     0.0000   0.0000

          k =-0.0000-0.4714 0.4714 (  5979 PWs)   bands (ev):

   -14.1175 -14.0991 -13.9876 -13.9092 -13.9038 -13.8845 -13.8649 -13.8147
   -13.6990 -13.6815  -0.4385   1.0694   4.4192   5.8779   8.8085   9.4125
     9.4148  11.8777

     occupation numbers 
     1.0000   1.0000   1.0000   1.0000   1.0000   1.0000   1.0000   1.0000
     1.0000   1.0000   1.0000   1.0000   1.0000   1.0000   0.0000   0.0000
     0.0000   0.0000

          k = 0.5657 0.0000 0.0000 (  6026 PWs)   bands (ev):

   -14.0960 -14.0960 -14.0249 -13.9401 -13.9201 -13.8606 -13.8425 -13.7750
   -13.7036 -13.7036  -0.7227   1.4114   5.4449   5.4449   8.2835   8.8452
     9.4127   9.4149

     occupation numbers 
     1.0000   1.0000   1.0000   1.0000   1.0000   1.0000   1.0000   1.0000
     1.0000   1.0000   1.0000   1.0000   1.0000   1.0000   0.0000   0.0000
     0.0000   0.0000

          k = 0.6128 0.0471-0.0471 (  6013 PWs)   bands (ev):

   -14.1006 -14.0980 -14.0102 -13.9535 -13.9074 -13.8552 -13.8474 -13.7905
   -13.7007 -13.6981  -0.4021   1.0062   5.2511   5.3961   8.4113   8.8229
     9.4127   9.4149

     occupation numbers 
     1.0000   1.0000   1.0000   1.0000   1.0000   1.0000   1.0000   1.0000
     1.0000   1.0000   1.0000   1.0000   1.0000   1.0000   0.0000   0.0000
     0.0000   0.0000

          k =-0.0471-0.6128 0.6128 (  6022 PWs)   bands (ev):

   -14.1076 -14.0992 -13.9927 -13.9568 -13.8952 -13.8683 -13.8434 -13.8084
   -13.6988 -13.6907  -0.0716   0.6412   4.9329   5.4237   8.5121   9.2890
     9.4132   9.4160

     occupation numbers 
     1.0000   1.0000   1.0000   1.0000   1.0000   1.0000   1.0000   1.0000
     1.0000   1.0000   1.0000   1.0000   1.0000   1.0000   0.0000   0.0000
     0.0000   0.0000

          k = 0.0000-0.5657 0.5657 (  5994 PWs)   bands (ev):

   -14.1137 -14.0997 -13.9863 -13.9401 -13.8896 -13.8753 -13.8587 -13.8148
   -13.6982 -13.6845   0.0238   0.5548   4.6453   5.5259   8.5887   9.4123
     9.4146  10.0900

     occupation numbers 
     1.0000   1.0000   1.0000   1.0000   1.0000   1.0000   1.0000   1.0000
     1.0000   1.0000   1.0000   1.0000   1.0000   1.0000   0.0000   0.0000
     0.0000   0.0000

          k = 0.6600 0.0000 0.0000 (  6010 PWs)   bands (ev):

   -14.0991 -14.0991 -14.0009 -13.9723 -13.8943 -13.8680 -13.8292 -13.8002
   -13.6989 -13.6989  -0.0838   0.6310   5.3293   5.3293   8.3510   8.5430
     9.4127   9.4148

     occupation numbers 
     1.0000   1.0000   1.0000   1.0000   1.0000   1.0000   1.0000   1.0000
     1.0000   1.0000   1.0000   1.0000   1.0000   1.0000   0.0000   0.0000
     0.0000   0.0000

          k = 0.0000-0.6600 0.6600 (  6010 PWs)   bands (ev):

   -14.1021 -14.0996 -13.9870 -13.9807 -13.8822 -13.8804 -13.8204 -13.8144
   -13.6983 -13.6958   0.2399   0.2970   5.1891   5.3386   8.4503   8.6670
     9.4127   9.4148

     occupation numbers 
     1.0000   1.0000   1.0000   1.0000   1.0000   1.0000   1.0000   1.0000
     1.0000   1.0000   1.0000   1.0000   1.0000   1.0000   0.0000   0.0000
     0.0000   0.0000

          k = 0.1886 0.0943-0.0000 (  6028 PWs)   bands (ev):

   -14.0727 -14.0678 -14.0552 -13.9935 -13.9798 -13.8045 -13.7765 -13.7515
   -13.7443 -13.7284  -2.3147   4.6663   6.6919   7.1278   8.6717   9.4116
     9.4148   9.4873

     occupation numbers 
     1.0000   1.0000   1.0000   1.0000   1.0000   1.0000   1.0000   1.0000
     1.0000   1.0000   1.0000   1.0000   1.0000   1.0000   0.0000   0.0000
     0.0000   0.0000

          k = 0.2357 0.1414-0.0471 (  6031 PWs)   bands (ev):

   -14.0799 -14.0746 -14.0486 -13.9847 -13.9678 -13.8163 -13.7861 -13.7591
   -13.7342 -13.7208  -2.1226   3.9541   6.3013   6.9693   8.7204   9.4124
     9.4150   9.7264

     occupation numbers 
     1.0000   1.0000   1.0000   1.0000   1.0000   1.0000   1.0000   1.0000
     1.0000   1.0000   1.0000   1.0000   1.0000   1.0000   0.0000   0.0000
     0.0000   0.0000

          k = 0.2828 0.1886-0.0943 (  6017 PWs)   bands (ev):

   -14.0866 -14.0811 -14.0399 -13.9756 -13.9573 -13.8252 -13.7950 -13.7701
   -13.7247 -13.7143  -1.8647   3.1974   6.0112   6.7626   8.6228   9.4125
     9.4149  10.0887

     occupation numbers 
     1.0000   1.0000   1.0000   1.0000   1.0000   1.0000   1.0000   1.0000
     1.0000   1.0000   1.0000   1.0000   1.0000   1.0000   0.0000   0.0000
     0.0000   0.0000

          k = 0.3300 0.2357-0.1414 (  6033 PWs)   bands (ev):

   -14.0922 -14.0859 -14.0309 -13.9672 -13.9502 -13.8300 -13.8026 -13.7820
   -13.7175 -13.7090  -1.5595   2.4813   5.8080   6.5698   8.5005   9.4126
     9.4149  10.3695

     occupation numbers 
     1.0000   1.0000   1.0000   1.0000   1.0000   1.0000   1.0000   1.0000
     1.0000   1.0000   1.0000   1.0000   1.0000   1.0000   0.0000   0.0000
     0.0000   0.0000

          k = 0.3771 0.2828-0.1886 (  6027 PWs)   bands (ev):

   -14.0962 -14.0888 -14.0234 -13.9599 -13.9473 -13.8300 -13.8097 -13.7922
   -13.7129 -13.7051  -1.2499   1.8834   5.6799   6.4256   8.4041   9.4126
     9.4149  10.5050

     occupation numbers 
     1.0000   1.0000   1.0000   1.0000   1.0000   1.0000   1.0000   1.0000
     1.0000   1.0000   1.0000   1.0000   1.0000   1.0000   0.0000   0.0000
     0.0000   0.0000

          k =-0.2828-0.3771 0.4714 (  6033 PWs)   bands (ev):

   -14.0983 -14.0902 -14.0191 -13.9540 -13.9484 -13.8259 -13.8170 -13.7979
   -13.7107 -13.7030  -1.0300   1.5158   5.6183   6.3490   8.3524   9.4126
     9.4149  10.5481

     occupation numbers 
     1.0000   1.0000   1.0000   1.0000   1.0000   1.0000   1.0000   1.0000
     1.0000   1.0000   1.0000   1.0000   1.0000   1.0000   0.0000   0.0000
     0.0000   0.0000

          k = 0.2828 0.0943 0.0000 (  6023 PWs)   bands (ev):

   -14.0793 -14.0761 -14.0535 -13.9819 -13.9556 -13.8346 -13.7840 -13.7509
   -13.7329 -13.7227  -2.0543   3.8373   6.2155   6.5824   9.1296   9.2810
     9.4138   9.4184

     occupation numbers 
     1.0000   1.0000   1.0000   1.0000   1.0000   1.0000   1.0000   1.0000
     1.0000   1.0000   1.0000   1.0000   1.0000   1.0000   0.0000   0.0000
     0.0000   0.0000

          k = 0.3300 0.1414-0.0471 (  6017 PWs)   bands (ev):

   -14.0873 -14.0824 -14.0432 -13.9724 -13.9437 -13.8462 -13.7940 -13.7620
   -13.7237 -13.7143  -1.8169   3.2041   5.8405   6.4199   9.1450   9.4111
     9.4149   9.5582

     occupation numbers 
     1.0000   1.0000   1.0000   1.0000   1.0000   1.0000   1.0000   1.0000
     1.0000   1.0000   1.0000   1.0000   1.0000   1.0000   0.0000   0.0000
     0.0000   0.0000

          k = 0.3771 0.1886-0.0943 (  6029 PWs)   bands (ev):

   -14.0954 -14.0871 -14.0309 -13.9628 -13.9351 -13.8534 -13.8041 -13.7760
   -13.7163 -13.7059  -1.5239   2.5498   5.5449   6.2510   9.0391   9.4125
     9.4152  10.0075

     occupation numbers 
     1.0000   1.0000   1.0000   1.0000   1.0000   1.0000   1.0000   1.0000
     1.0000   1.0000   1.0000   1.0000   1.0000   1.0000   0.0000   0.0000
     0.0000   0.0000

          k = 0.4243 0.2357-0.1414 (  6021 PWs)   bands (ev):

   -14.1018 -14.0906 -14.0190 -13.9538 -13.9316 -13.8546 -13.8141 -13.7897
   -13.7111 -13.6990  -1.2066   1.9545   5.3230   6.1336   8.9373   9.4126
     9.4151  10.3540

     occupation numbers 
     1.0000   1.0000   1.0000   1.0000   1.0000   1.0000   1.0000   1.0000
     1.0000   1.0000   1.0000   1.0000   1.0000   1.0000   0.0000   0.0000
     0.0000   0.0000

          k =-0.2357-0.4243 0.5185 (  6017 PWs)   bands (ev):

   -14.1057 -14.0929 -14.0098 -13.9460 -13.9334 -13.8497 -13.8239 -13.8002
   -13.7076 -13.6947  -0.9389   1.5206   5.1713   6.0928   8.8719   9.4127
     9.4151  10.5022

     occupation numbers 
     1.0000   1.0000   1.0000   1.0000   1.0000   1.0000   1.0000   1.0000
     1.0000   1.0000   1.0000   1.0000   1.0000   1.0000   0.0000   0.0000
     0.0000   0.0000

          k =-0.1886-0.3771 0.4714 (  6021 PWs)   bands (ev):

   -14.1067 -14.0941 -14.0057 -13.9439 -13.9357 -13.8424 -13.8297 -13.8058
   -13.7058 -13.6939  -0.8562   1.3973   5.0929   6.1341   8.8523   9.4127
     9.4151  10.5581

     occupation numbers 
     1.0000   1.0000   1.0000   1.0000   1.0000   1.0000   1.0000   1.0000
     1.0000   1.0000   1.0000   1.0000   1.0000   1.0000   0.0000   0.0000
     0.0000   0.0000

          k =-0.1414-0.3300 0.4243 (  6023 PWs)   bands (ev):

   -14.1046 -14.0941 -14.0076 -13.9515 -13.9340 -13.8432 -13.8206 -13.8065
   -13.7057 -13.6965  -1.0223   1.6504   5.0970   6.2512   8.8770   9.4127
     9.4152  10.5792

     occupation numbers 
     1.0000   1.0000   1.0000   1.0000   1.0000   1.0000   1.0000   1.0000
     1.0000   1.0000   1.0000   1.0000   1.0000   1.0000   0.0000   0.0000
     0.0000   0.0000

          k =-0.0943-0.2828 0.3771 (  6019 PWs)   bands (ev):

   -14.0997 -14.0927 -14.0154 -13.9604 -13.9363 -13.8433 -13.8088 -13.7993
   -13.7077 -13.7022  -1.3204   2.1533   5.1979   6.4295   8.9336   9.4128
     9.4154  10.5075

     occupation numbers 
     1.0000   1.0000   1.0000   1.0000   1.0000   1.0000   1.0000   1.0000
     1.0000   1.0000   1.0000   1.0000   1.0000   1.0000   0.0000   0.0000
     0.0000   0.0000

          k =-0.0471-0.2357 0.3300 (  6029 PWs)   bands (ev):

   -14.0924 -14.0896 -14.0269 -13.9690 -13.9439 -13.8381 -13.8020 -13.7835
   -13.7139 -13.7086  -1.6340   2.7655   5.4164   6.6437   8.9885   9.4127
     9.4155  10.2334

     occupation numbers 
     1.0000   1.0000   1.0000   1.0000   1.0000   1.0000   1.0000   1.0000
     1.0000   1.0000   1.0000   1.0000   1.0000   1.0000   0.0000   0.0000
     0.0000   0.0000

          k = 0.0000-0.1886 0.2828 (  6019 PWs)   bands (ev):

   -14.0856 -14.0830 -14.0390 -13.9772 -13.9552 -13.8285 -13.7945 -13.7683
   -13.7245 -13.7143  -1.9091   3.3910   5.7791   6.8488   8.9538   9.4126
     9.4154   9.8866

     occupation numbers 
     1.0000   1.0000   1.0000   1.0000   1.0000   1.0000   1.0000   1.0000
     1.0000   1.0000   1.0000   1.0000   1.0000   1.0000   0.0000   0.0000
     0.0000   0.0000

          k = 0.3771 0.0943 0.0000 (  6034 PWs)   bands (ev):

   -14.0862 -14.0850 -14.0475 -13.9651 -13.9271 -13.8674 -13.7992 -13.7534
   -13.7205 -13.7164  -1.6939   3.0001   5.8062   6.0901   8.8391   9.4092
     9.4140   9.5377

     occupation numbers 
     1.0000   1.0000   1.0000   1.0000   1.0000   1.0000   1.0000   1.0000
     1.0000   1.0000   1.0000   1.0000   1.0000   1.0000   0.0000   0.0000
     0.0000   0.0000

          k = 0.4243 0.1414-0.0471 (  6043 PWs)   bands (ev):

   -14.0951 -14.0898 -14.0337 -13.9547 -13.9160 -13.8783 -13.8102 -13.7687
   -13.7131 -13.7064  -1.4163   2.4484   5.4572   5.9398   9.0148   9.4114
     9.4144   9.6828

     occupation numbers 
     1.0000   1.0000   1.0000   1.0000   1.0000   1.0000   1.0000   1.0000
     1.0000   1.0000   1.0000   1.0000   1.0000   1.0000   0.0000   0.0000
     0.0000   0.0000

          k = 0.4714 0.1886-0.0943 (  6036 PWs)   bands (ev):

   -14.1036 -14.0933 -14.0181 -13.9443 -13.9105 -13.8825 -13.8217 -13.7856
   -13.7079 -13.6968  -1.0995   1.9047   5.1436   5.8339   9.0416   9.4124
     9.4149  10.1777

     occupation numbers 
     1.0000   1.0000   1.0000   1.0000   1.0000   1.0000   1.0000   1.0000
     1.0000   1.0000   1.0000   1.0000   1.0000   1.0000   0.0000   0.0000
     0.0000   0.0000

          k =-0.1886-0.4714 0.5657 (  6024 PWs)   bands (ev):

   -14.1099 -14.0959 -14.0043 -13.9347 -13.9119 -13.8790 -13.8332 -13.8003
   -13.7040 -13.6898  -0.7984   1.4536   4.8934   5.8088   9.0273   9.4126
     9.4150  10.7076

     occupation numbers 
     1.0000   1.0000   1.0000   1.0000   1.0000   1.0000   1.0000   1.0000
     1.0000   1.0000   1.0000   1.0000   1.0000   1.0000   0.0000   0.0000
     0.0000   0.0000

          k =-0.1414-0.4243 0.5185 (  6025 PWs)   bands (ev):

   -14.1129 -14.0975 -13.9956 -13.9288 -13.9173 -13.8699 -13.8426 -13.8095
   -13.7017 -13.6867  -0.6396   1.2373   4.7312   5.8679   9.0428   9.4127
     9.4152  10.9178

     occupation numbers 
     1.0000   1.0000   1.0000   1.0000   1.0000   1.0000   1.0000   1.0000
     1.0000   1.0000   1.0000   1.0000   1.0000   1.0000   0.0000   0.0000
     0.0000   0.0000

          k =-0.0943-0.3771 0.4714 (  6010 PWs)   bands (ev):

   -14.1123 -14.0980 -13.9939 -13.9361 -13.9186 -13.8606 -13.8421 -13.8128
   -13.7009 -13.6877  -0.7461   1.3815   4.6778   6.0032   9.0930   9.4128
     9.4154  10.9515

     occupation numbers 
     1.0000   1.0000   1.0000   1.0000   1.0000   1.0000   1.0000   1.0000
     1.0000   1.0000   1.0000   1.0000   1.0000   1.0000   0.0000   0.0000
     0.0000   0.0000

          k =-0.0471-0.3300 0.4243 (  6018 PWs)   bands (ev):

   -14.1081 -14.0971 -13.9995 -13.9494 -13.9218 -13.8567 -13.8252 -13.8116
   -13.7018 -13.6930  -1.0283   1.7845   4.7564   6.1993   9.1537   9.4130
     9.4159  10.8936

     occupation numbers 
     1.0000   1.0000   1.0000   1.0000   1.0000   1.0000   1.0000   1.0000
     1.0000   1.0000   1.0000   1.0000   1.0000   1.0000   0.0000   0.0000
     0.0000   0.0000

          k = 0.0000-0.2828 0.3771 (  6030 PWs)   bands (ev):

   -14.1008 -14.0946 -14.0118 -13.9606 -13.9311 -13.8492 -13.8086 -13.8027
   -13.7045 -13.7021  -1.3463   2.2790   4.9950   6.4290   9.1597   9.4129
     9.4160  10.5806

     occupation numbers 
     1.0000   1.0000   1.0000   1.0000   1.0000   1.0000   1.0000   1.0000
     1.0000   1.0000   1.0000   1.0000   1.0000   1.0000   0.0000   0.0000
     0.0000   0.0000

          k = 0.4714 0.0943-0.0000 (  6027 PWs)   bands (ev):

   -14.0931 -14.0929 -14.0356 -13.9442 -13.9014 -13.8964 -13.8194 -13.7643
   -13.7092 -13.7082  -1.2381   2.1760   5.4937   5.6936   8.6481   9.3531
     9.4135   9.4199

     occupation numbers 
     1.0000   1.0000   1.0000   1.0000   1.0000   1.0000   1.0000   1.0000
     1.0000   1.0000   1.0000   1.0000   1.0000   1.0000   0.0000   0.0000
     0.0000   0.0000

          k = 0.5185 0.1414-0.0471 (  6020 PWs)   bands (ev):

   -14.1019 -14.0962 -14.0188 -13.9328 -13.9111 -13.8863 -13.8316 -13.7823
   -13.7042 -13.6982  -0.9276   1.7010   5.1723   5.5788   8.8528   9.4108
     9.4142   9.5579

     occupation numbers 
     1.0000   1.0000   1.0000   1.0000   1.0000   1.0000   1.0000   1.0000
     1.0000   1.0000   1.0000   1.0000   1.0000   1.0000   0.0000   0.0000
     0.0000   0.0000

          k =-0.1414-0.5185 0.6128 (  6025 PWs)   bands (ev):

   -14.1098 -14.0985 -14.0015 -13.9218 -13.9134 -13.8826 -13.8441 -13.8003
   -13.7007 -13.6893  -0.6060   1.2690   4.8464   5.5536   8.9166   9.4124
     9.4147  10.1821

     occupation numbers 
     1.0000   1.0000   1.0000   1.0000   1.0000   1.0000   1.0000   1.0000
     1.0000   1.0000   1.0000   1.0000   1.0000   1.0000   0.0000   0.0000
     0.0000   0.0000

          k =-0.0943-0.4714 0.5657 (  6010 PWs)   bands (ev):

   -14.1151 -14.1000 -13.9894 -13.9136 -13.9051 -13.8884 -13.8554 -13.8125
   -13.6986 -13.6837  -0.3831   0.9989   4.5971   5.6160   8.9663   9.4126
     9.4149  10.9857

     occupation numbers 
     1.0000   1.0000   1.0000   1.0000   1.0000   1.0000   1.0000   1.0000
     1.0000   1.0000   1.0000   1.0000   1.0000   1.0000   0.0000   0.0000
     0.0000   0.0000

          k =-0.0471-0.4243 0.5185 (  6002 PWs)   bands (ev):

   -14.1167 -14.1004 -13.9856 -13.9149 -13.9014 -13.8860 -13.8602 -13.8166
   -13.6980 -13.6823  -0.4379   1.0659   4.4752   5.7562   9.0488   9.4127
     9.4151  11.5595

     occupation numbers 
     1.0000   1.0000   1.0000   1.0000   1.0000   1.0000   1.0000   1.0000
     1.0000   1.0000   1.0000   1.0000   1.0000   1.0000   0.0000   0.0000
     0.0000   0.0000

          k =-0.0000-0.3771 0.4714 (  6007 PWs)   bands (ev):

   -14.1143 -14.0995 -13.9891 -13.9324 -13.9091 -13.8699 -13.8485 -13.8155
   -13.6989 -13.6855  -0.7100   1.3930   4.5182   5.9592   9.1405   9.4129
     9.4156  11.4757

     occupation numbers 
     1.0000   1.0000   1.0000   1.0000   1.0000   1.0000   1.0000   1.0000
     1.0000   1.0000   1.0000   1.0000   1.0000   1.0000   0.0000   0.0000
     0.0000   0.0000

          k = 0.5657 0.0943 0.0000 (  6025 PWs)   bands (ev):

   -14.0988 -14.0986 -14.0176 -13.9348 -13.9203 -13.8651 -13.8429 -13.7827
   -13.7008 -13.7008  -0.6932   1.3804   5.2919   5.4102   8.5722   9.0488
     9.4129   9.4151

     occupation numbers 
     1.0000   1.0000   1.0000   1.0000   1.0000   1.0000   1.0000   1.0000
     1.0000   1.0000   1.0000   1.0000   1.0000   1.0000   0.0000   0.0000
     0.0000   0.0000

          k =-0.0943-0.5657 0.6600 (  6010 PWs)   bands (ev):

   -14.1063 -14.1005 -13.9989 -13.9420 -13.9081 -13.8574 -13.8559 -13.8019
   -13.6981 -13.6923  -0.3614   0.9768   4.9968   5.3572   8.7646   9.3637
     9.4136   9.4192

     occupation numbers 
     1.0000   1.0000   1.0000   1.0000   1.0000   1.0000   1.0000   1.0000
     1.0000   1.0000   1.0000   1.0000   1.0000   1.0000   0.0000   0.0000
     0.0000   0.0000

          k =-0.0471-0.5185 0.6128 (  6007 PWs)   bands (ev):

   -14.1131 -14.1015 -13.9845 -13.9365 -13.8974 -13.8685 -13.8614 -13.8163
   -13.6966 -13.6852  -0.0901   0.6830   4.6882   5.4146   8.8361   9.4124
     9.4147  10.1183

     occupation numbers 
     1.0000   1.0000   1.0000   1.0000   1.0000   1.0000   1.0000   1.0000
     1.0000   1.0000   1.0000   1.0000   1.0000   1.0000   0.0000   0.0000
     0.0000   0.0000

          k = 0.0000-0.4714 0.5657 (  6001 PWs)   bands (ev):

   -14.1169 -14.1015 -13.9818 -13.9147 -13.8973 -13.8805 -13.8715 -13.8190
   -13.6966 -13.6815  -0.1478   0.7536   4.4917   5.5523   8.9329   9.4126
     9.4149  11.0221

     occupation numbers 
     1.0000   1.0000   1.0000   1.0000   1.0000   1.0000   1.0000   1.0000
     1.0000   1.0000   1.0000   1.0000   1.0000   1.0000   0.0000   0.0000
     0.0000   0.0000

          k =-0.0471-0.6128 0.7071 (  6012 PWs)   bands (ev):

   -14.1018 -14.1017 -13.9942 -13.9662 -13.8946 -13.8684 -13.8347 -13.8067
   -13.6964 -13.6964  -0.0677   0.6277   5.2086   5.2477   8.6176   8.7823
     9.4128   9.4149

     occupation numbers 
     1.0000   1.0000   1.0000   1.0000   1.0000   1.0000   1.0000   1.0000
     1.0000   1.0000   1.0000   1.0000   1.0000   1.0000   0.0000   0.0000
     0.0000   0.0000

          k = 0.0000-0.5657 0.6600 (  6003 PWs)   bands (ev):

   -14.1079 -14.1021 -13.9807 -13.9640 -13.8844 -13.8796 -13.8360 -13.8201
   -13.6959 -13.6902   0.1938   0.3684   4.9375   5.2828   8.7400   9.2884
     9.4133   9.4160

     occupation numbers 
     1.0000   1.0000   1.0000   1.0000   1.0000   1.0000   1.0000   1.0000
     1.0000   1.0000   1.0000   1.0000   1.0000   1.0000   0.0000   0.0000
     0.0000   0.0000

          k = 0.3771 0.1886-0.0000 (  6031 PWs)   bands (ev):

   -14.0921 -14.0915 -14.0303 -13.9635 -13.9312 -13.8583 -13.8033 -13.7760
   -13.7123 -13.7087  -1.5614   2.6880   5.3974   6.2796   9.4049   9.4127
     9.4813   9.6016

     occupation numbers 
     1.0000   1.0000   1.0000   1.0000   1.0000   1.0000   1.0000   1.0000
     1.0000   1.0000   1.0000   1.0000   1.0000   1.0000   0.0000   0.0000
     0.0000   0.0000

          k = 0.4243 0.2357-0.0471 (  6028 PWs)   bands (ev):

   -14.1010 -14.0950 -14.0154 -13.9540 -13.9216 -13.8663 -13.8135 -13.7925
   -13.7055 -13.7005  -1.2563   2.1437   5.0831   6.0910   9.4000   9.4132
     9.4507  10.0785

     occupation numbers 
     1.0000   1.0000   1.0000   1.0000   1.0000   1.0000   1.0000   1.0000
     1.0000   1.0000   1.0000   1.0000   1.0000   1.0000   0.0000   0.0000
     0.0000   0.0000

          k =-0.2357-0.4243 0.6128 (  6029 PWs)   bands (ev):

   -14.1077 -14.0973 -14.0024 -13.9442 -13.9174 -13.8683 -13.8258 -13.8056
   -13.7024 -13.6926  -0.9404   1.6449   4.8897   5.9303   9.3672   9.4132
     9.4243  10.4143

     occupation numbers 
     1.0000   1.0000   1.0000   1.0000   1.0000   1.0000   1.0000   1.0000
     1.0000   1.0000   1.0000   1.0000   1.0000   1.0000   0.0000   0.0000
     0.0000   0.0000

          k =-0.1886-0.3771 0.5657 (  6014 PWs)   bands (ev):

   -14.1113 -14.0984 -13.9950 -13.9360 -13.9183 -13.8655 -13.8373 -13.8117
   -13.7010 -13.6885  -0.7080   1.3139   4.7991   5.8405   9.3377   9.4131
     9.4202  10.4928

     occupation numbers 
     1.0000   1.0000   1.0000   1.0000   1.0000   1.0000   1.0000   1.0000
     1.0000   1.0000   1.0000   1.0000   1.0000   1.0000   0.0000   0.0000
     0.0000   0.0000

          k = 0.4714 0.1886-0.0000 (  6022 PWs)   bands (ev):

   -14.0999 -14.0977 -14.0178 -13.9443 -13.9040 -13.8898 -13.8215 -13.7855
   -13.7023 -13.7017  -1.1247   1.9836   5.1240   5.7623   9.3901   9.4117
     9.4217   9.6942

     occupation numbers 
     1.0000   1.0000   1.0000   1.0000   1.0000   1.0000   1.0000   1.0000
     1.0000   1.0000   1.0000   1.0000   1.0000   1.0000   0.0000   0.0000
     0.0000   0.0000

          k =-0.1886-0.4714 0.6600 (  6032 PWs)   bands (ev):

   -14.1077 -14.1007 -14.0005 -13.9336 -13.8994 -13.8929 -13.8341 -13.8031
   -13.6988 -13.6922  -0.8024   1.5250   4.8618   5.5995   9.4102   9.4135
     9.5291  10.1763

     occupation numbers 
     1.0000   1.0000   1.0000   1.0000   1.0000   1.0000   1.0000   1.0000
     1.0000   1.0000   1.0000   1.0000   1.0000   1.0000   0.0000   0.0000
     0.0000   0.0000

          k =-0.1414-0.4243 0.6128 (  6016 PWs)   bands (ev):

   -14.1132 -14.1022 -13.9870 -13.9243 -13.9003 -13.8899 -13.8469 -13.8156
   -13.6967 -13.6859  -0.5193   1.1601   4.6782   5.5220   9.4103   9.4137
     9.5492  10.7057

     occupation numbers 
     1.0000   1.0000   1.0000   1.0000   1.0000   1.0000   1.0000   1.0000
     1.0000   1.0000   1.0000   1.0000   1.0000   1.0000   0.0000   0.0000
     0.0000   0.0000

          k =-0.0943-0.3771 0.5657 (  6017 PWs)   bands (ev):

   -14.1152 -14.1027 -13.9819 -13.9218 -13.8998 -13.8874 -13.8531 -13.8202
   -13.6960 -13.6838  -0.4368   1.0603   4.5863   5.5510   9.4108   9.4138
     9.5971  10.8030

     occupation numbers 
     1.0000   1.0000   1.0000   1.0000   1.0000   1.0000   1.0000   1.0000
     1.0000   1.0000   1.0000   1.0000   1.0000   1.0000   0.0000   0.0000
     0.0000   0.0000

          k =-0.0471-0.3300 0.5185 (  6014 PWs)   bands (ev):

   -14.1132 -14.1020 -13.9864 -13.9306 -13.9022 -13.8831 -13.8443 -13.8175
   -13.6968 -13.6863  -0.6322   1.3013   4.6079   5.6769   9.4111   9.4138
     9.6607  10.7261

     occupation numbers 
     1.0000   1.0000   1.0000   1.0000   1.0000   1.0000   1.0000   1.0000
     1.0000   1.0000   1.0000   1.0000   1.0000   1.0000   0.0000   0.0000
     0.0000   0.0000

          k = 0.0000-0.2828 0.4714 (  6034 PWs)   bands (ev):

   -14.1079 -14.0998 -13.9988 -13.9433 -13.9094 -13.8769 -13.8269 -13.8086
   -13.6992 -13.6928  -0.9444   1.7082   4.7676   5.8730   9.4110   9.4138
     9.6782  10.3827

     occupation numbers 
     1.0000   1.0000   1.0000   1.0000   1.0000   1.0000   1.0000   1.0000
     1.0000   1.0000   1.0000   1.0000   1.0000   1.0000   0.0000   0.0000
     0.0000   0.0000

          k =-0.1414-0.5185 0.7071 (  6016 PWs)   bands (ev):

   -14.1052 -14.1031 -14.0003 -13.9213 -13.9212 -13.8756 -13.8444 -13.8010
   -13.6959 -13.6941  -0.6083   1.2881   4.9750   5.3570   9.2951   9.4111
     9.4156   9.5854

     occupation numbers 
     1.0000   1.0000   1.0000   1.0000   1.0000   1.0000   1.0000   1.0000
     1.0000   1.0000   1.0000   1.0000   1.0000   1.0000   0.0000   0.0000
     0.0000   0.0000

          k =-0.0943-0.4714 0.6600 (  6017 PWs)   bands (ev):

   -14.1117 -14.1052 -13.9817 -13.9250 -13.9098 -13.8710 -13.8579 -13.8189
   -13.6934 -13.6870  -0.2901   0.9182   4.7562   5.2516   9.4078   9.4134
     9.4657  10.1853

     occupation numbers 
     1.0000   1.0000   1.0000   1.0000   1.0000   1.0000   1.0000   1.0000
     1.0000   1.0000   1.0000   1.0000   1.0000   1.0000   0.0000   0.0000
     0.0000   0.0000

          k =-0.0471-0.4243 0.6128 (  6008 PWs)   bands (ev):

   -14.1158 -14.1055 -13.9725 -13.9172 -13.9023 -13.8782 -13.8672 -13.8270
   -13.6928 -13.6826  -0.1351   0.7522   4.5714   5.2970   9.4105   9.4137
     9.5411  11.0088

     occupation numbers 
     1.0000   1.0000   1.0000   1.0000   1.0000   1.0000   1.0000   1.0000
     1.0000   1.0000   1.0000   1.0000   1.0000   1.0000   0.0000   0.0000
     0.0000   0.0000

          k = 0.0000-0.3771 0.5657 (  6012 PWs)   bands (ev):

   -14.1163 -14.1045 -13.9755 -13.9133 -13.8999 -13.8879 -13.8631 -13.8247
   -13.6938 -13.6825  -0.3192   0.9553   4.5064   5.4504   9.4113   9.4139
     9.6365  11.3024

     occupation numbers 
     1.0000   1.0000   1.0000   1.0000   1.0000   1.0000   1.0000   1.0000
     1.0000   1.0000   1.0000   1.0000   1.0000   1.0000   0.0000   0.0000
     0.0000   0.0000

          k =-0.0471-0.5185 0.7071 (  6019 PWs)   bands (ev):

   -14.1076 -14.1067 -13.9777 -13.9510 -13.8958 -13.8697 -13.8478 -13.8224
   -13.6915 -13.6907  -0.0239   0.6137   4.9606   5.0873   9.3009   9.3949
     9.4157   9.4289

     occupation numbers 
     1.0000   1.0000   1.0000   1.0000   1.0000   1.0000   1.0000   1.0000
     1.0000   1.0000   1.0000   1.0000   1.0000   1.0000   0.0000   0.0000
     0.0000   0.0000

          k = 0.0000-0.4714 0.6600 (  6010 PWs)   bands (ev):

   -14.1129 -14.1069 -13.9666 -13.9432 -13.8886 -13.8796 -13.8540 -13.8325
   -13.6912 -13.6853   0.1491   0.4483   4.7353   5.1176   9.4030   9.4131
     9.4407  10.1586

     occupation numbers 
     1.0000   1.0000   1.0000   1.0000   1.0000   1.0000   1.0000   1.0000
     1.0000   1.0000   1.0000   1.0000   1.0000   1.0000   0.0000   0.0000
     0.0000   0.0000

          k =-0.1414-0.4243 0.7071 (  6022 PWs)   bands (ev):

   -14.1120 -14.1055 -13.9819 -13.9217 -13.9061 -13.8850 -13.8496 -13.8198
   -13.6931 -13.6871  -0.4783   1.1409   4.6814   5.3639   9.4119   9.4141
    10.1160  10.2643

     occupation numbers 
     1.0000   1.0000   1.0000   1.0000   1.0000   1.0000   1.0000   1.0000
     1.0000   1.0000   1.0000   1.0000   1.0000   1.0000   0.0000   0.0000
     0.0000   0.0000

          k =-0.0943-0.3771 0.6600 (  6015 PWs)   bands (ev):

   -14.1151 -14.1074 -13.9691 -13.9148 -13.9070 -13.8802 -13.8631 -13.8302
   -13.6910 -13.6835  -0.2071   0.8374   4.6008   5.2196   9.4125  10.1561
    10.7419  11.4812

     occupation numbers 
     1.0000   1.0000   1.0000   1.0000   1.0000   1.0000   1.0000   1.0000
     1.0000   1.0000   1.0000   1.0000   1.0000   1.0000   0.0000   0.0000
     0.0000   0.0000

          k =-0.0471-0.4243 0.7071 (  5999 PWs)   bands (ev):

   -14.1127 -14.1103 -13.9602 -13.9345 -13.8980 -13.8736 -13.8603 -13.8378
   -13.6879 -13.6856   0.0358   0.5805   4.7499   4.9795   9.4120   9.4142
    10.2276  10.2354

     occupation numbers 
     1.0000   1.0000   1.0000   1.0000   1.0000   1.0000   1.0000   1.0000
     1.0000   1.0000   1.0000   1.0000   1.0000   1.0000   0.0000   0.0000
     0.0000   0.0000

          k =-0.0000-0.3771 0.6600 (  6020 PWs)   bands (ev):

   -14.1148 -14.1103 -13.9552 -13.9293 -13.8958 -13.8790 -13.8637 -13.8415
   -13.6879 -13.6835   0.0967   0.5235   4.6654   4.9910   9.4120   9.4142
    10.2963  10.9611

     occupation numbers 
     1.0000   1.0000   1.0000   1.0000   1.0000   1.0000   1.0000   1.0000
     1.0000   1.0000   1.0000   1.0000   1.0000   1.0000   0.0000   0.0000
     0.0000   0.0000

     the Fermi energy is     7.5340 ev

!    total energy              =    -256.22171032 Ry
     Harris-Foulkes estimate   =    -256.22171001 Ry
     estimated scf accuracy    <       0.00000090 Ry

     The total energy is the sum of the following terms:

     one-electron contribution =    -136.18402275 Ry
     hartree contribution      =      79.21765299 Ry
     xc contribution           =     -31.47399885 Ry
     ewald contribution        =    -167.78134157 Ry
     smearing contrib. (-TS)   =      -0.00000015 Ry

     convergence has been achieved in   4 iterations

     Writing output data file Sn.save
 
     init_run     :      4.19s CPU      8.54s WALL (       1 calls)
     electrons    :     90.05s CPU    181.28s WALL (       1 calls)

     Called by init_run:
     wfcinit      :      3.87s CPU      8.00s WALL (       1 calls)
     potinit      :      0.12s CPU      0.13s WALL (       1 calls)

     Called by electrons:
     c_bands      :     79.95s CPU    162.36s WALL (       5 calls)
     sum_band     :      9.58s CPU     17.81s WALL (       5 calls)
     v_of_rho     :      0.15s CPU      0.20s WALL (       5 calls)
     v_h          :      0.06s CPU      0.06s WALL (       5 calls)
     v_xc         :      0.09s CPU      0.14s WALL (       5 calls)
     mix_rho      :      0.01s CPU      0.04s WALL (       5 calls)

     Called by c_bands:
     init_us_2    :      0.16s CPU      0.20s WALL (    1320 calls)
     cegterg      :     78.59s CPU    159.92s WALL (     600 calls)

     Called by sum_band:

     Called by *egterg:
     h_psi        :     69.90s CPU    142.04s WALL (    3314 calls)
     g_psi        :      0.07s CPU      0.08s WALL (    2594 calls)
     cdiaghg      :      4.62s CPU      9.81s WALL (    3074 calls)
     cegterg:over :      3.76s CPU      7.89s WALL (    2594 calls)
     cegterg:upda :      0.30s CPU      0.50s WALL (    2594 calls)
     cegterg:last :      0.15s CPU      0.21s WALL (     840 calls)

     Called by h_psi:
     h_psi:vloc   :     67.02s CPU    136.40s WALL (    3314 calls)
     h_psi:vnl    :      2.83s CPU      5.58s WALL (    3314 calls)
     add_vuspsi   :      0.22s CPU      0.28s WALL (    3314 calls)

     General routines
     calbec       :      2.59s CPU      5.28s WALL (    3314 calls)
     fft          :      0.16s CPU      0.29s WALL (      56 calls)
     fftw         :     74.86s CPU    151.83s WALL (   90702 calls)
     davcio       :      0.01s CPU      0.11s WALL (     120 calls)
 
     Parallel routines
     fft_scatter  :     65.37s CPU    137.93s WALL (   90758 calls)
 
     PWSCF        :  1m36.66s CPU     3m14.42s WALL

 
   This run was terminated on:  12:22:27   2Mar2020            

=------------------------------------------------------------------------------=
   JOB DONE.
=------------------------------------------------------------------------------=
