
     Program PWSCF v.5.4.0 starts on 16Mar2020 at 22:54:39 

     This program is part of the open-source Quantum ESPRESSO suite
     for quantum simulation of materials; please cite
         "P. Giannozzi et al., J. Phys.:Condens. Matter 21 395502 (2009);
          URL http://www.quantum-espresso.org", 
     in publications or presentations arising from this work. More details at
     http://www.quantum-espresso.org/quote

     Parallel version (MPI & OpenMP), running on      16 processor cores
     Number of MPI processes:                16
     Threads/MPI process:                     1
     R & G space division:  proc/nbgrp/npool/nimage =      16
     Waiting for input...
     Reading input from standard input
Warning: card &IONS ignored
Warning: card / ignored
Warning: card &CELL ignored
Warning: card / ignored

     Current dimensions of program PWSCF are:
     Max number of different atomic species (ntypx) = 10
     Max number of k-points (npk) =  40000
     Max angular momentum in pseudopotentials (lmaxx) =  3
               file Sn.pbe-dn-rrkjus_psl.1.0.0.UPF: wavefunction(s)  5S 4D renormalized
     Message from routine setup:
     At least one non s.o. pseudo

     Subspace diagonalization in iterative solution of the eigenvalue problem:
     a serial algorithm will be used

 
     Parallelization info
     --------------------
     sticks:   dense  smooth     PW     G-vecs:    dense   smooth      PW
     Min         102     102     29                 2742     2742     427
     Max         103     103     30                 2746     2746     430
     Sum        1639    1639    475                43895    43895    6855
 

     Title: 
     Sn                                                                         


     bravais-lattice index     =            0
     lattice parameter (alat)  =       8.9127  a.u.
     unit-cell volume          =     500.6268 (a.u.)^3
     number of atoms/cell      =            2
     number of atomic types    =            1
     number of electrons       =        28.00
     number of Kohn-Sham states=           36
     kinetic-energy cutoff     =      75.0000  Ry
     charge density cutoff     =     300.0000  Ry
     convergence threshold     =      1.0E-06
     mixing beta               =       0.7000
     number of iterations used =            8  plain     mixing
     Exchange-correlation      = PBE ( 1  4  3  4 0 0)
     Non magnetic calculation with spin-orbit


     celldm(1)=   8.912709  celldm(2)=   0.000000  celldm(3)=   0.000000
     celldm(4)=   0.000000  celldm(5)=   0.000000  celldm(6)=   0.000000

     crystal axes: (cart. coord. in units of alat)
               a(1) = (   0.000000   0.707107   0.707107 )  
               a(2) = (   0.707107   0.000000   0.707107 )  
               a(3) = (   0.707107   0.707107   0.000000 )  

     reciprocal axes: (cart. coord. in units 2 pi/alat)
               b(1) = ( -0.707107  0.707107  0.707107 )  
               b(2) = (  0.707107 -0.707107  0.707107 )  
               b(3) = (  0.707107  0.707107 -0.707107 )  


     PseudoPot. # 1 for Sn read from file:
     ../PseudopotentialDatabase/Sn.pbe-dn-rrkjus_psl.1.0.0.UPF
     MD5 check sum: 72e22d5a9e1ec4fde6a02e1f963898e9
     Pseudo is Ultrasoft + core correction, Zval = 14.0
     Generated using "atomic" code by A. Dal Corso  v.6.3
     Using radial grid of 1243 points,  6 beta functions with: 
                l(1) =   0
                l(2) =   0
                l(3) =   1
                l(4) =   1
                l(5) =   2
                l(6) =   2
     Q(r) pseudized with 0 coefficients 


     atomic species   valence    mass     pseudopotential
        Sn            14.00   118.71000     Sn( 1.00)

     24 Sym. Ops. (no inversion) found
          (note: 24 additional sym.ops. were found but ignored
           their fractional translations are incommensurate with FFT grid)

                                    s                        frac. trans.

      isym =  1     identity                                     

 cryst.   s( 1) = (     1          0          0      )
                  (     0          1          0      )
                  (     0          0          1      )

 cart.    s( 1) = (  1.0000000  0.0000000  0.0000000 )
                  (  0.0000000  1.0000000  0.0000000 )
                  (  0.0000000  0.0000000  1.0000000 )


      isym =  2     180 deg rotation - cart. axis [0,0,1]        

 cryst.   s( 2) = (     0          1         -1      )
                  (     1          0         -1      )
                  (     0          0         -1      )

 cart.    s( 2) = ( -1.0000000  0.0000000  0.0000000 )
                  (  0.0000000 -1.0000000  0.0000000 )
                  (  0.0000000  0.0000000  1.0000000 )


      isym =  3     180 deg rotation - cart. axis [0,1,0]        

 cryst.   s( 3) = (     0         -1          1      )
                  (     0         -1          0      )
                  (     1         -1          0      )

 cart.    s( 3) = ( -1.0000000  0.0000000  0.0000000 )
                  (  0.0000000  1.0000000  0.0000000 )
                  (  0.0000000  0.0000000 -1.0000000 )


      isym =  4     180 deg rotation - cart. axis [1,0,0]        

 cryst.   s( 4) = (    -1          0          0      )
                  (    -1          0          1      )
                  (    -1          1          0      )

 cart.    s( 4) = (  1.0000000  0.0000000  0.0000000 )
                  (  0.0000000 -1.0000000  0.0000000 )
                  (  0.0000000  0.0000000 -1.0000000 )


      isym =  5     120 deg rotation - cart. axis [-1,-1,-1]     

 cryst.   s( 5) = (     0          0          1      )
                  (     1          0          0      )
                  (     0          1          0      )

 cart.    s( 5) = (  0.0000000  1.0000000  0.0000000 )
                  (  0.0000000  0.0000000  1.0000000 )
                  (  1.0000000  0.0000000  0.0000000 )


      isym =  6     120 deg rotation - cart. axis [-1,1,1]       

 cryst.   s( 6) = (     1         -1          0      )
                  (     0         -1          1      )
                  (     0         -1          0      )

 cart.    s( 6) = (  0.0000000 -1.0000000  0.0000000 )
                  (  0.0000000  0.0000000  1.0000000 )
                  ( -1.0000000  0.0000000  0.0000000 )


      isym =  7     120 deg rotation - cart. axis [1,1,-1]       

 cryst.   s( 7) = (    -1          1          0      )
                  (    -1          0          0      )
                  (    -1          0          1      )

 cart.    s( 7) = (  0.0000000  1.0000000  0.0000000 )
                  (  0.0000000  0.0000000 -1.0000000 )
                  ( -1.0000000  0.0000000  0.0000000 )


      isym =  8     120 deg rotation - cart. axis [1,-1,1]       

 cryst.   s( 8) = (     0          0         -1      )
                  (     0          1         -1      )
                  (     1          0         -1      )

 cart.    s( 8) = (  0.0000000 -1.0000000  0.0000000 )
                  (  0.0000000  0.0000000 -1.0000000 )
                  (  1.0000000  0.0000000  0.0000000 )


      isym =  9     120 deg rotation - cart. axis [1,1,1]        

 cryst.   s( 9) = (     0          1          0      )
                  (     0          0          1      )
                  (     1          0          0      )

 cart.    s( 9) = (  0.0000000  0.0000000  1.0000000 )
                  (  1.0000000  0.0000000  0.0000000 )
                  (  0.0000000  1.0000000  0.0000000 )


      isym = 10     120 deg rotation - cart. axis [-1,1,-1]      

 cryst.   s(10) = (    -1          0          1      )
                  (    -1          1          0      )
                  (    -1          0          0      )

 cart.    s(10) = (  0.0000000  0.0000000  1.0000000 )
                  ( -1.0000000  0.0000000  0.0000000 )
                  (  0.0000000 -1.0000000  0.0000000 )


      isym = 11     120 deg rotation - cart. axis [1,-1,-1]      

 cryst.   s(11) = (     1          0         -1      )
                  (     0          0         -1      )
                  (     0          1         -1      )

 cart.    s(11) = (  0.0000000  0.0000000 -1.0000000 )
                  ( -1.0000000  0.0000000  0.0000000 )
                  (  0.0000000  1.0000000  0.0000000 )


      isym = 12     120 deg rotation - cart. axis [-1,-1,1]      

 cryst.   s(12) = (     0         -1          0      )
                  (     1         -1          0      )
                  (     0         -1          1      )

 cart.    s(12) = (  0.0000000  0.0000000 -1.0000000 )
                  (  1.0000000  0.0000000  0.0000000 )
                  (  0.0000000 -1.0000000  0.0000000 )


      isym = 13     inv. 180 deg rotation - cart. axis [1,1,0]   

 cryst.   s(13) = (     1          0         -1      )
                  (     0          1         -1      )
                  (     0          0         -1      )

 cart.    s(13) = (  0.0000000 -1.0000000  0.0000000 )
                  ( -1.0000000  0.0000000  0.0000000 )
                  (  0.0000000  0.0000000  1.0000000 )


      isym = 14     inv. 180 deg rotation - cart. axis [1,-1,0]  

 cryst.   s(14) = (     0          1          0      )
                  (     1          0          0      )
                  (     0          0          1      )

 cart.    s(14) = (  0.0000000  1.0000000  0.0000000 )
                  (  1.0000000  0.0000000  0.0000000 )
                  (  0.0000000  0.0000000  1.0000000 )


      isym = 15     inv.  90 deg rotation - cart. axis [0,0,-1]  

 cryst.   s(15) = (     0         -1          0      )
                  (     0         -1          1      )
                  (     1         -1          0      )

 cart.    s(15) = (  0.0000000 -1.0000000  0.0000000 )
                  (  1.0000000  0.0000000  0.0000000 )
                  (  0.0000000  0.0000000 -1.0000000 )


      isym = 16     inv.  90 deg rotation - cart. axis [0,0,1]   

 cryst.   s(16) = (    -1          0          1      )
                  (    -1          0          0      )
                  (    -1          1          0      )

 cart.    s(16) = (  0.0000000  1.0000000  0.0000000 )
                  ( -1.0000000  0.0000000  0.0000000 )
                  (  0.0000000  0.0000000 -1.0000000 )


      isym = 17     inv. 180 deg rotation - cart. axis [1,0,1]   

 cryst.   s(17) = (     1         -1          0      )
                  (     0         -1          0      )
                  (     0         -1          1      )

 cart.    s(17) = (  0.0000000  0.0000000 -1.0000000 )
                  (  0.0000000  1.0000000  0.0000000 )
                  ( -1.0000000  0.0000000  0.0000000 )


      isym = 18     inv. 180 deg rotation - cart. axis [-1,0,1]  

 cryst.   s(18) = (     0          0          1      )
                  (     0          1          0      )
                  (     1          0          0      )

 cart.    s(18) = (  0.0000000  0.0000000  1.0000000 )
                  (  0.0000000  1.0000000  0.0000000 )
                  (  1.0000000  0.0000000  0.0000000 )


      isym = 19     inv.  90 deg rotation - cart. axis [0,1,0]   

 cryst.   s(19) = (     0          0         -1      )
                  (     1          0         -1      )
                  (     0          1         -1      )

 cart.    s(19) = (  0.0000000  0.0000000 -1.0000000 )
                  (  0.0000000 -1.0000000  0.0000000 )
                  (  1.0000000  0.0000000  0.0000000 )


      isym = 20     inv.  90 deg rotation - cart. axis [0,-1,0]  

 cryst.   s(20) = (    -1          1          0      )
                  (    -1          0          1      )
                  (    -1          0          0      )

 cart.    s(20) = (  0.0000000  0.0000000  1.0000000 )
                  (  0.0000000 -1.0000000  0.0000000 )
                  ( -1.0000000  0.0000000  0.0000000 )


      isym = 21     inv. 180 deg rotation - cart. axis [0,1,1]   

 cryst.   s(21) = (    -1          0          0      )
                  (    -1          1          0      )
                  (    -1          0          1      )

 cart.    s(21) = (  1.0000000  0.0000000  0.0000000 )
                  (  0.0000000  0.0000000 -1.0000000 )
                  (  0.0000000 -1.0000000  0.0000000 )


      isym = 22     inv. 180 deg rotation - cart. axis [0,1,-1]  

 cryst.   s(22) = (     1          0          0      )
                  (     0          0          1      )
                  (     0          1          0      )

 cart.    s(22) = (  1.0000000  0.0000000  0.0000000 )
                  (  0.0000000  0.0000000  1.0000000 )
                  (  0.0000000  1.0000000  0.0000000 )


      isym = 23     inv.  90 deg rotation - cart. axis [-1,0,0]  

 cryst.   s(23) = (     0          1         -1      )
                  (     0          0         -1      )
                  (     1          0         -1      )

 cart.    s(23) = ( -1.0000000  0.0000000  0.0000000 )
                  (  0.0000000  0.0000000 -1.0000000 )
                  (  0.0000000  1.0000000  0.0000000 )


      isym = 24     inv.  90 deg rotation - cart. axis [1,0,0]   

 cryst.   s(24) = (     0         -1          1      )
                  (     1         -1          0      )
                  (     0         -1          0      )

 cart.    s(24) = ( -1.0000000  0.0000000  0.0000000 )
                  (  0.0000000  0.0000000  1.0000000 )
                  (  0.0000000 -1.0000000  0.0000000 )


   Cartesian axes

     site n.     atom                  positions (alat units)
         1           Sn  tau(   1) = (   0.0000000   0.0000000   0.0000000  )
         2           Sn  tau(   2) = (   0.3535534   0.3535534   0.3535534  )

   Crystallographic axes

     site n.     atom                  positions (cryst. coord.)
         1           Sn  tau(   1) = (  0.0000000  0.0000000  0.0000000  )
         2           Sn  tau(   2) = (  0.2500000  0.2500000  0.2500000  )

     number of k points=   145  gaussian smearing, width (Ry)=  0.0001
                       cart. coord. in units 2pi/alat
        k(    1) = (   0.0000000   0.0000000   0.0000000), wk =   0.0002441
        k(    2) = (   0.0441942   0.0441942  -0.0441942), wk =   0.0019531
        k(    3) = (   0.0883883   0.0883883  -0.0883883), wk =   0.0019531
        k(    4) = (   0.1325825   0.1325825  -0.1325825), wk =   0.0019531
        k(    5) = (   0.1767767   0.1767767  -0.1767767), wk =   0.0019531
        k(    6) = (   0.2209709   0.2209709  -0.2209709), wk =   0.0019531
        k(    7) = (   0.2651650   0.2651650  -0.2651650), wk =   0.0019531
        k(    8) = (   0.3093592   0.3093592  -0.3093592), wk =   0.0019531
        k(    9) = (  -0.3535534  -0.3535534   0.3535534), wk =   0.0009766
        k(   10) = (   0.0883883   0.0000000   0.0000000), wk =   0.0014648
        k(   11) = (   0.1325825   0.0441942  -0.0441942), wk =   0.0058594
        k(   12) = (   0.1767767   0.0883883  -0.0883883), wk =   0.0058594
        k(   13) = (   0.2209709   0.1325825  -0.1325825), wk =   0.0058594
        k(   14) = (   0.2651650   0.1767767  -0.1767767), wk =   0.0058594
        k(   15) = (   0.3093592   0.2209709  -0.2209709), wk =   0.0058594
        k(   16) = (   0.3535534   0.2651650  -0.2651650), wk =   0.0058594
        k(   17) = (  -0.3093592  -0.3977476   0.3977476), wk =   0.0058594
        k(   18) = (  -0.2651650  -0.3535534   0.3535534), wk =   0.0058594
        k(   19) = (  -0.2209709  -0.3093592   0.3093592), wk =   0.0058594
        k(   20) = (  -0.1767767  -0.2651650   0.2651650), wk =   0.0058594
        k(   21) = (  -0.1325825  -0.2209709   0.2209709), wk =   0.0058594
        k(   22) = (  -0.0883883  -0.1767767   0.1767767), wk =   0.0058594
        k(   23) = (  -0.0441942  -0.1325825   0.1325825), wk =   0.0058594
        k(   24) = (   0.0000000  -0.0883883   0.0883883), wk =   0.0029297
        k(   25) = (   0.1767767   0.0000000   0.0000000), wk =   0.0014648
        k(   26) = (   0.2209709   0.0441942  -0.0441942), wk =   0.0058594
        k(   27) = (   0.2651650   0.0883883  -0.0883883), wk =   0.0058594
        k(   28) = (   0.3093592   0.1325825  -0.1325825), wk =   0.0058594
        k(   29) = (   0.3535534   0.1767767  -0.1767767), wk =   0.0058594
        k(   30) = (   0.3977476   0.2209709  -0.2209709), wk =   0.0058594
        k(   31) = (  -0.2651650  -0.4419417   0.4419417), wk =   0.0058594
        k(   32) = (  -0.2209709  -0.3977476   0.3977476), wk =   0.0058594
        k(   33) = (  -0.1767767  -0.3535534   0.3535534), wk =   0.0058594
        k(   34) = (  -0.1325825  -0.3093592   0.3093592), wk =   0.0058594
        k(   35) = (  -0.0883883  -0.2651650   0.2651650), wk =   0.0058594
        k(   36) = (  -0.0441942  -0.2209709   0.2209709), wk =   0.0058594
        k(   37) = (   0.0000000  -0.1767767   0.1767767), wk =   0.0029297
        k(   38) = (   0.2651650   0.0000000   0.0000000), wk =   0.0014648
        k(   39) = (   0.3093592   0.0441942  -0.0441942), wk =   0.0058594
        k(   40) = (   0.3535534   0.0883883  -0.0883883), wk =   0.0058594
        k(   41) = (   0.3977476   0.1325825  -0.1325825), wk =   0.0058594
        k(   42) = (   0.4419417   0.1767767  -0.1767767), wk =   0.0058594
        k(   43) = (  -0.2209709  -0.4861359   0.4861359), wk =   0.0058594
        k(   44) = (  -0.1767767  -0.4419417   0.4419417), wk =   0.0058594
        k(   45) = (  -0.1325825  -0.3977476   0.3977476), wk =   0.0058594
        k(   46) = (  -0.0883883  -0.3535534   0.3535534), wk =   0.0058594
        k(   47) = (  -0.0441942  -0.3093592   0.3093592), wk =   0.0058594
        k(   48) = (   0.0000000  -0.2651650   0.2651650), wk =   0.0029297
        k(   49) = (   0.3535534   0.0000000   0.0000000), wk =   0.0014648
        k(   50) = (   0.3977476   0.0441942  -0.0441942), wk =   0.0058594
        k(   51) = (   0.4419417   0.0883883  -0.0883883), wk =   0.0058594
        k(   52) = (   0.4861359   0.1325825  -0.1325825), wk =   0.0058594
        k(   53) = (  -0.1767767  -0.5303301   0.5303301), wk =   0.0058594
        k(   54) = (  -0.1325825  -0.4861359   0.4861359), wk =   0.0058594
        k(   55) = (  -0.0883883  -0.4419417   0.4419417), wk =   0.0058594
        k(   56) = (  -0.0441942  -0.3977476   0.3977476), wk =   0.0058594
        k(   57) = (   0.0000000  -0.3535534   0.3535534), wk =   0.0029297
        k(   58) = (   0.4419417   0.0000000   0.0000000), wk =   0.0014648
        k(   59) = (   0.4861359   0.0441942  -0.0441942), wk =   0.0058594
        k(   60) = (   0.5303301   0.0883883  -0.0883883), wk =   0.0058594
        k(   61) = (  -0.1325825  -0.5745243   0.5745243), wk =   0.0058594
        k(   62) = (  -0.0883883  -0.5303301   0.5303301), wk =   0.0058594
        k(   63) = (  -0.0441942  -0.4861359   0.4861359), wk =   0.0058594
        k(   64) = (   0.0000000  -0.4419417   0.4419417), wk =   0.0029297
        k(   65) = (   0.5303301   0.0000000   0.0000000), wk =   0.0014648
        k(   66) = (   0.5745243   0.0441942  -0.0441942), wk =   0.0058594
        k(   67) = (  -0.0883883  -0.6187184   0.6187184), wk =   0.0058594
        k(   68) = (  -0.0441942  -0.5745243   0.5745243), wk =   0.0058594
        k(   69) = (   0.0000000  -0.5303301   0.5303301), wk =   0.0029297
        k(   70) = (   0.6187184   0.0000000   0.0000000), wk =   0.0014648
        k(   71) = (  -0.0441942  -0.6629126   0.6629126), wk =   0.0058594
        k(   72) = (   0.0000000  -0.6187184   0.6187184), wk =   0.0029297
        k(   73) = (  -0.7071068   0.0000000   0.0000000), wk =   0.0007324
        k(   74) = (   0.1767767   0.0883883   0.0000000), wk =   0.0058594
        k(   75) = (   0.2209709   0.1325825  -0.0441942), wk =   0.0117188
        k(   76) = (   0.2651650   0.1767767  -0.0883883), wk =   0.0117188
        k(   77) = (   0.3093592   0.2209709  -0.1325825), wk =   0.0117188
        k(   78) = (   0.3535534   0.2651650  -0.1767767), wk =   0.0117188
        k(   79) = (  -0.3093592  -0.3977476   0.4861359), wk =   0.0117188
        k(   80) = (  -0.2651650  -0.3535534   0.4419417), wk =   0.0058594
        k(   81) = (   0.2651650   0.0883883   0.0000000), wk =   0.0058594
        k(   82) = (   0.3093592   0.1325825  -0.0441942), wk =   0.0117188
        k(   83) = (   0.3535534   0.1767767  -0.0883883), wk =   0.0117188
        k(   84) = (   0.3977476   0.2209709  -0.1325825), wk =   0.0117188
        k(   85) = (  -0.2651650  -0.4419417   0.5303301), wk =   0.0117188
        k(   86) = (  -0.2209709  -0.3977476   0.4861359), wk =   0.0117188
        k(   87) = (  -0.1767767  -0.3535534   0.4419417), wk =   0.0117188
        k(   88) = (  -0.1325825  -0.3093592   0.3977476), wk =   0.0117188
        k(   89) = (  -0.0883883  -0.2651650   0.3535534), wk =   0.0117188
        k(   90) = (  -0.0441942  -0.2209709   0.3093592), wk =   0.0117188
        k(   91) = (   0.0000000  -0.1767767   0.2651650), wk =   0.0058594
        k(   92) = (   0.3535534   0.0883883   0.0000000), wk =   0.0058594
        k(   93) = (   0.3977476   0.1325825  -0.0441942), wk =   0.0117188
        k(   94) = (   0.4419417   0.1767767  -0.0883883), wk =   0.0117188
        k(   95) = (  -0.2209709  -0.4861359   0.5745243), wk =   0.0117188
        k(   96) = (  -0.1767767  -0.4419417   0.5303301), wk =   0.0117188
        k(   97) = (  -0.1325825  -0.3977476   0.4861359), wk =   0.0117188
        k(   98) = (  -0.0883883  -0.3535534   0.4419417), wk =   0.0117188
        k(   99) = (  -0.0441942  -0.3093592   0.3977476), wk =   0.0117188
        k(  100) = (   0.0000000  -0.2651650   0.3535534), wk =   0.0058594
        k(  101) = (   0.4419417   0.0883883   0.0000000), wk =   0.0058594
        k(  102) = (   0.4861359   0.1325825  -0.0441942), wk =   0.0117188
        k(  103) = (  -0.1767767  -0.5303301   0.6187184), wk =   0.0117188
        k(  104) = (  -0.1325825  -0.4861359   0.5745243), wk =   0.0117188
        k(  105) = (  -0.0883883  -0.4419417   0.5303301), wk =   0.0117188
        k(  106) = (  -0.0441942  -0.3977476   0.4861359), wk =   0.0117188
        k(  107) = (   0.0000000  -0.3535534   0.4419417), wk =   0.0058594
        k(  108) = (   0.5303301   0.0883883   0.0000000), wk =   0.0058594
        k(  109) = (  -0.1325825  -0.5745243   0.6629126), wk =   0.0117188
        k(  110) = (  -0.0883883  -0.5303301   0.6187184), wk =   0.0117188
        k(  111) = (  -0.0441942  -0.4861359   0.5745243), wk =   0.0117188
        k(  112) = (   0.0000000  -0.4419417   0.5303301), wk =   0.0058594
        k(  113) = (  -0.0883883  -0.6187184   0.7071068), wk =   0.0058594
        k(  114) = (  -0.0441942  -0.5745243   0.6629126), wk =   0.0117188
        k(  115) = (  -0.0000000  -0.5303301   0.6187184), wk =   0.0058594
        k(  116) = (  -0.7071068   0.0883883   0.0000000), wk =   0.0029297
        k(  117) = (   0.3535534   0.1767767   0.0000000), wk =   0.0058594
        k(  118) = (   0.3977476   0.2209709  -0.0441942), wk =   0.0117188
        k(  119) = (  -0.2651650  -0.4419417   0.6187184), wk =   0.0117188
        k(  120) = (  -0.2209709  -0.3977476   0.5745243), wk =   0.0117188
        k(  121) = (  -0.1767767  -0.3535534   0.5303301), wk =   0.0058594
        k(  122) = (   0.4419417   0.1767767   0.0000000), wk =   0.0058594
        k(  123) = (  -0.2209709  -0.4861359   0.6629126), wk =   0.0117188
        k(  124) = (  -0.1767767  -0.4419417   0.6187184), wk =   0.0117188
        k(  125) = (  -0.1325825  -0.3977476   0.5745243), wk =   0.0117188
        k(  126) = (  -0.0883883  -0.3535534   0.5303301), wk =   0.0117188
        k(  127) = (  -0.0441942  -0.3093592   0.4861359), wk =   0.0117188
        k(  128) = (   0.0000000  -0.2651650   0.4419417), wk =   0.0058594
        k(  129) = (  -0.1767767  -0.5303301   0.7071068), wk =   0.0058594
        k(  130) = (  -0.1325825  -0.4861359   0.6629126), wk =   0.0117188
        k(  131) = (  -0.0883883  -0.4419417   0.6187184), wk =   0.0117188
        k(  132) = (  -0.0441942  -0.3977476   0.5745243), wk =   0.0117188
        k(  133) = (   0.0000000  -0.3535534   0.5303301), wk =   0.0058594
        k(  134) = (  -0.0883883  -0.5303301   0.7071068), wk =   0.0058594
        k(  135) = (  -0.0441942  -0.4861359   0.6629126), wk =   0.0117188
        k(  136) = (   0.0000000  -0.4419417   0.6187184), wk =   0.0058594
        k(  137) = (  -0.7071068   0.1767767   0.0000000), wk =   0.0029297
        k(  138) = (  -0.1767767  -0.4419417   0.7071068), wk =   0.0058594
        k(  139) = (  -0.1325825  -0.3977476   0.6629126), wk =   0.0117188
        k(  140) = (  -0.0883883  -0.3535534   0.6187184), wk =   0.0058594
        k(  141) = (  -0.0883883  -0.4419417   0.7071068), wk =   0.0058594
        k(  142) = (  -0.0441942  -0.3977476   0.6629126), wk =   0.0117188
        k(  143) = (  -0.0000000  -0.3535534   0.6187184), wk =   0.0058594
        k(  144) = (  -0.7071068   0.2651650   0.0000000), wk =   0.0029297
        k(  145) = (  -0.7071068   0.3535534   0.0000000), wk =   0.0014648

                       cryst. coord.
        k(    1) = (   0.0000000   0.0000000   0.0000000), wk =   0.0002441
        k(    2) = (   0.0000000   0.0000000   0.0625000), wk =   0.0019531
        k(    3) = (   0.0000000   0.0000000   0.1250000), wk =   0.0019531
        k(    4) = (   0.0000000   0.0000000   0.1875000), wk =   0.0019531
        k(    5) = (   0.0000000   0.0000000   0.2500000), wk =   0.0019531
        k(    6) = (   0.0000000   0.0000000   0.3125000), wk =   0.0019531
        k(    7) = (   0.0000000   0.0000000   0.3750000), wk =   0.0019531
        k(    8) = (   0.0000000   0.0000000   0.4375000), wk =   0.0019531
        k(    9) = (   0.0000000   0.0000000  -0.5000000), wk =   0.0009766
        k(   10) = (   0.0000000   0.0625000   0.0625000), wk =   0.0014648
        k(   11) = (   0.0000000   0.0625000   0.1250000), wk =   0.0058594
        k(   12) = (   0.0000000   0.0625000   0.1875000), wk =   0.0058594
        k(   13) = (   0.0000000   0.0625000   0.2500000), wk =   0.0058594
        k(   14) = (   0.0000000   0.0625000   0.3125000), wk =   0.0058594
        k(   15) = (   0.0000000   0.0625000   0.3750000), wk =   0.0058594
        k(   16) = (   0.0000000   0.0625000   0.4375000), wk =   0.0058594
        k(   17) = (   0.0000000   0.0625000  -0.5000000), wk =   0.0058594
        k(   18) = (   0.0000000   0.0625000  -0.4375000), wk =   0.0058594
        k(   19) = (   0.0000000   0.0625000  -0.3750000), wk =   0.0058594
        k(   20) = (   0.0000000   0.0625000  -0.3125000), wk =   0.0058594
        k(   21) = (   0.0000000   0.0625000  -0.2500000), wk =   0.0058594
        k(   22) = (   0.0000000   0.0625000  -0.1875000), wk =   0.0058594
        k(   23) = (   0.0000000   0.0625000  -0.1250000), wk =   0.0058594
        k(   24) = (   0.0000000   0.0625000  -0.0625000), wk =   0.0029297
        k(   25) = (   0.0000000   0.1250000   0.1250000), wk =   0.0014648
        k(   26) = (   0.0000000   0.1250000   0.1875000), wk =   0.0058594
        k(   27) = (   0.0000000   0.1250000   0.2500000), wk =   0.0058594
        k(   28) = (   0.0000000   0.1250000   0.3125000), wk =   0.0058594
        k(   29) = (   0.0000000   0.1250000   0.3750000), wk =   0.0058594
        k(   30) = (   0.0000000   0.1250000   0.4375000), wk =   0.0058594
        k(   31) = (   0.0000000   0.1250000  -0.5000000), wk =   0.0058594
        k(   32) = (   0.0000000   0.1250000  -0.4375000), wk =   0.0058594
        k(   33) = (   0.0000000   0.1250000  -0.3750000), wk =   0.0058594
        k(   34) = (   0.0000000   0.1250000  -0.3125000), wk =   0.0058594
        k(   35) = (   0.0000000   0.1250000  -0.2500000), wk =   0.0058594
        k(   36) = (   0.0000000   0.1250000  -0.1875000), wk =   0.0058594
        k(   37) = (   0.0000000   0.1250000  -0.1250000), wk =   0.0029297
        k(   38) = (   0.0000000   0.1875000   0.1875000), wk =   0.0014648
        k(   39) = (   0.0000000   0.1875000   0.2500000), wk =   0.0058594
        k(   40) = (   0.0000000   0.1875000   0.3125000), wk =   0.0058594
        k(   41) = (   0.0000000   0.1875000   0.3750000), wk =   0.0058594
        k(   42) = (   0.0000000   0.1875000   0.4375000), wk =   0.0058594
        k(   43) = (   0.0000000   0.1875000  -0.5000000), wk =   0.0058594
        k(   44) = (   0.0000000   0.1875000  -0.4375000), wk =   0.0058594
        k(   45) = (   0.0000000   0.1875000  -0.3750000), wk =   0.0058594
        k(   46) = (   0.0000000   0.1875000  -0.3125000), wk =   0.0058594
        k(   47) = (   0.0000000   0.1875000  -0.2500000), wk =   0.0058594
        k(   48) = (   0.0000000   0.1875000  -0.1875000), wk =   0.0029297
        k(   49) = (   0.0000000   0.2500000   0.2500000), wk =   0.0014648
        k(   50) = (   0.0000000   0.2500000   0.3125000), wk =   0.0058594
        k(   51) = (   0.0000000   0.2500000   0.3750000), wk =   0.0058594
        k(   52) = (   0.0000000   0.2500000   0.4375000), wk =   0.0058594
        k(   53) = (   0.0000000   0.2500000  -0.5000000), wk =   0.0058594
        k(   54) = (   0.0000000   0.2500000  -0.4375000), wk =   0.0058594
        k(   55) = (   0.0000000   0.2500000  -0.3750000), wk =   0.0058594
        k(   56) = (   0.0000000   0.2500000  -0.3125000), wk =   0.0058594
        k(   57) = (   0.0000000   0.2500000  -0.2500000), wk =   0.0029297
        k(   58) = (   0.0000000   0.3125000   0.3125000), wk =   0.0014648
        k(   59) = (   0.0000000   0.3125000   0.3750000), wk =   0.0058594
        k(   60) = (   0.0000000   0.3125000   0.4375000), wk =   0.0058594
        k(   61) = (   0.0000000   0.3125000  -0.5000000), wk =   0.0058594
        k(   62) = (   0.0000000   0.3125000  -0.4375000), wk =   0.0058594
        k(   63) = (   0.0000000   0.3125000  -0.3750000), wk =   0.0058594
        k(   64) = (   0.0000000   0.3125000  -0.3125000), wk =   0.0029297
        k(   65) = (   0.0000000   0.3750000   0.3750000), wk =   0.0014648
        k(   66) = (   0.0000000   0.3750000   0.4375000), wk =   0.0058594
        k(   67) = (   0.0000000   0.3750000  -0.5000000), wk =   0.0058594
        k(   68) = (   0.0000000   0.3750000  -0.4375000), wk =   0.0058594
        k(   69) = (   0.0000000   0.3750000  -0.3750000), wk =   0.0029297
        k(   70) = (   0.0000000   0.4375000   0.4375000), wk =   0.0014648
        k(   71) = (   0.0000000   0.4375000  -0.5000000), wk =   0.0058594
        k(   72) = (   0.0000000   0.4375000  -0.4375000), wk =   0.0029297
        k(   73) = (   0.0000000  -0.5000000  -0.5000000), wk =   0.0007324
        k(   74) = (   0.0625000   0.1250000   0.1875000), wk =   0.0058594
        k(   75) = (   0.0625000   0.1250000   0.2500000), wk =   0.0117188
        k(   76) = (   0.0625000   0.1250000   0.3125000), wk =   0.0117188
        k(   77) = (   0.0625000   0.1250000   0.3750000), wk =   0.0117188
        k(   78) = (   0.0625000   0.1250000   0.4375000), wk =   0.0117188
        k(   79) = (   0.0625000   0.1250000  -0.5000000), wk =   0.0117188
        k(   80) = (   0.0625000   0.1250000  -0.4375000), wk =   0.0058594
        k(   81) = (   0.0625000   0.1875000   0.2500000), wk =   0.0058594
        k(   82) = (   0.0625000   0.1875000   0.3125000), wk =   0.0117188
        k(   83) = (   0.0625000   0.1875000   0.3750000), wk =   0.0117188
        k(   84) = (   0.0625000   0.1875000   0.4375000), wk =   0.0117188
        k(   85) = (   0.0625000   0.1875000  -0.5000000), wk =   0.0117188
        k(   86) = (   0.0625000   0.1875000  -0.4375000), wk =   0.0117188
        k(   87) = (   0.0625000   0.1875000  -0.3750000), wk =   0.0117188
        k(   88) = (   0.0625000   0.1875000  -0.3125000), wk =   0.0117188
        k(   89) = (   0.0625000   0.1875000  -0.2500000), wk =   0.0117188
        k(   90) = (   0.0625000   0.1875000  -0.1875000), wk =   0.0117188
        k(   91) = (   0.0625000   0.1875000  -0.1250000), wk =   0.0058594
        k(   92) = (   0.0625000   0.2500000   0.3125000), wk =   0.0058594
        k(   93) = (   0.0625000   0.2500000   0.3750000), wk =   0.0117188
        k(   94) = (   0.0625000   0.2500000   0.4375000), wk =   0.0117188
        k(   95) = (   0.0625000   0.2500000  -0.5000000), wk =   0.0117188
        k(   96) = (   0.0625000   0.2500000  -0.4375000), wk =   0.0117188
        k(   97) = (   0.0625000   0.2500000  -0.3750000), wk =   0.0117188
        k(   98) = (   0.0625000   0.2500000  -0.3125000), wk =   0.0117188
        k(   99) = (   0.0625000   0.2500000  -0.2500000), wk =   0.0117188
        k(  100) = (   0.0625000   0.2500000  -0.1875000), wk =   0.0058594
        k(  101) = (   0.0625000   0.3125000   0.3750000), wk =   0.0058594
        k(  102) = (   0.0625000   0.3125000   0.4375000), wk =   0.0117188
        k(  103) = (   0.0625000   0.3125000  -0.5000000), wk =   0.0117188
        k(  104) = (   0.0625000   0.3125000  -0.4375000), wk =   0.0117188
        k(  105) = (   0.0625000   0.3125000  -0.3750000), wk =   0.0117188
        k(  106) = (   0.0625000   0.3125000  -0.3125000), wk =   0.0117188
        k(  107) = (   0.0625000   0.3125000  -0.2500000), wk =   0.0058594
        k(  108) = (   0.0625000   0.3750000   0.4375000), wk =   0.0058594
        k(  109) = (   0.0625000   0.3750000  -0.5000000), wk =   0.0117188
        k(  110) = (   0.0625000   0.3750000  -0.4375000), wk =   0.0117188
        k(  111) = (   0.0625000   0.3750000  -0.3750000), wk =   0.0117188
        k(  112) = (   0.0625000   0.3750000  -0.3125000), wk =   0.0058594
        k(  113) = (   0.0625000   0.4375000  -0.5000000), wk =   0.0058594
        k(  114) = (   0.0625000   0.4375000  -0.4375000), wk =   0.0117188
        k(  115) = (   0.0625000   0.4375000  -0.3750000), wk =   0.0058594
        k(  116) = (   0.0625000  -0.5000000  -0.4375000), wk =   0.0029297
        k(  117) = (   0.1250000   0.2500000   0.3750000), wk =   0.0058594
        k(  118) = (   0.1250000   0.2500000   0.4375000), wk =   0.0117188
        k(  119) = (   0.1250000   0.2500000  -0.5000000), wk =   0.0117188
        k(  120) = (   0.1250000   0.2500000  -0.4375000), wk =   0.0117188
        k(  121) = (   0.1250000   0.2500000  -0.3750000), wk =   0.0058594
        k(  122) = (   0.1250000   0.3125000   0.4375000), wk =   0.0058594
        k(  123) = (   0.1250000   0.3125000  -0.5000000), wk =   0.0117188
        k(  124) = (   0.1250000   0.3125000  -0.4375000), wk =   0.0117188
        k(  125) = (   0.1250000   0.3125000  -0.3750000), wk =   0.0117188
        k(  126) = (   0.1250000   0.3125000  -0.3125000), wk =   0.0117188
        k(  127) = (   0.1250000   0.3125000  -0.2500000), wk =   0.0117188
        k(  128) = (   0.1250000   0.3125000  -0.1875000), wk =   0.0058594
        k(  129) = (   0.1250000   0.3750000  -0.5000000), wk =   0.0058594
        k(  130) = (   0.1250000   0.3750000  -0.4375000), wk =   0.0117188
        k(  131) = (   0.1250000   0.3750000  -0.3750000), wk =   0.0117188
        k(  132) = (   0.1250000   0.3750000  -0.3125000), wk =   0.0117188
        k(  133) = (   0.1250000   0.3750000  -0.2500000), wk =   0.0058594
        k(  134) = (   0.1250000   0.4375000  -0.4375000), wk =   0.0058594
        k(  135) = (   0.1250000   0.4375000  -0.3750000), wk =   0.0117188
        k(  136) = (   0.1250000   0.4375000  -0.3125000), wk =   0.0058594
        k(  137) = (   0.1250000  -0.5000000  -0.3750000), wk =   0.0029297
        k(  138) = (   0.1875000   0.3750000  -0.4375000), wk =   0.0058594
        k(  139) = (   0.1875000   0.3750000  -0.3750000), wk =   0.0117188
        k(  140) = (   0.1875000   0.3750000  -0.3125000), wk =   0.0058594
        k(  141) = (   0.1875000   0.4375000  -0.3750000), wk =   0.0058594
        k(  142) = (   0.1875000   0.4375000  -0.3125000), wk =   0.0117188
        k(  143) = (   0.1875000   0.4375000  -0.2500000), wk =   0.0058594
        k(  144) = (   0.1875000  -0.5000000  -0.3125000), wk =   0.0029297
        k(  145) = (   0.2500000  -0.5000000  -0.2500000), wk =   0.0014648

     Dense  grid:    43895 G-vectors     FFT dimensions: (  50,  50,  50)

     Largest allocated arrays     est. size (Mb)     dimensions
        Kohn-Sham Wavefunctions         0.38 Mb     (     700,   36)
        NL pseudopotentials             0.19 Mb     (     350,   36)
        Each V/rho on FFT grid          0.15 Mb     (   10000)
        Each G-vector array             0.02 Mb     (    2746)
        G-vector shells                 0.00 Mb     (     371)
     Largest temporary arrays     est. size (Mb)     dimensions
        Auxiliary wavefunctions         1.54 Mb     (     700,  144)
        Each subspace H/S matrix        0.32 Mb     (     144,  144)
        Each <psi_i|beta_j> matrix      0.04 Mb     (      36,   2,   36)
        Arrays for rho mixing           1.22 Mb     (   10000,    8)

     Check: negative/imaginary core charge=   -0.000001    0.000000

     Initial potential from superposition of free atoms

     starting charge   27.99723, renormalised to   28.00000
     Starting wfc are   36 randomized atomic wfcs

     total cpu time spent up to now is       15.6 secs

     Self-consistent Calculation

     iteration #  1     ecut=    75.00 Ry     beta=0.70
     Davidson diagonalization with overlap
     ethr =  1.00E-02,  avg # of iterations =  3.4

     Threshold (ethr) on eigenvalues was too large:
     Diagonalizing with lowered threshold

     Davidson diagonalization with overlap
     ethr =  6.60E-05,  avg # of iterations =  3.3

     total cpu time spent up to now is       98.7 secs

     total energy              =    -326.06214733 Ry
     Harris-Foulkes estimate   =    -326.06522877 Ry
     estimated scf accuracy    <       0.02222260 Ry

     iteration #  2     ecut=    75.00 Ry     beta=0.70
     Davidson diagonalization with overlap
     ethr =  7.94E-05,  avg # of iterations =  1.0

     total cpu time spent up to now is      130.7 secs

     total energy              =    -326.06283274 Ry
     Harris-Foulkes estimate   =    -326.06288310 Ry
     estimated scf accuracy    <       0.00146876 Ry

     iteration #  3     ecut=    75.00 Ry     beta=0.70
     Davidson diagonalization with overlap
     ethr =  5.25E-06,  avg # of iterations =  2.6

     total cpu time spent up to now is      176.2 secs

     total energy              =    -326.06302210 Ry
     Harris-Foulkes estimate   =    -326.06304096 Ry
     estimated scf accuracy    <       0.00004970 Ry

     iteration #  4     ecut=    75.00 Ry     beta=0.70
     Davidson diagonalization with overlap
     ethr =  1.77E-07,  avg # of iterations =  2.0

     total cpu time spent up to now is      219.6 secs

     total energy              =    -326.06303570 Ry
     Harris-Foulkes estimate   =    -326.06303403 Ry
     estimated scf accuracy    <       0.00000301 Ry

     iteration #  5     ecut=    75.00 Ry     beta=0.70
     Davidson diagonalization with overlap
     ethr =  1.07E-08,  avg # of iterations =  2.0

     total cpu time spent up to now is      255.3 secs

     End of self-consistent calculation

          k = 0.0000 0.0000 0.0000 (  5577 PWs)   bands (ev):

   -14.6445 -14.6445 -14.6445 -14.6445 -14.6445 -14.6445 -14.5966 -14.5966
   -14.5966 -14.5966 -14.3474 -14.3474 -14.3474 -14.3474 -14.3473 -14.3473
   -14.3473 -14.3473 -14.3473 -14.3473  -3.1841  -3.1841   5.7039   5.7039
     6.9850   6.9850   6.9850   6.9850   6.9850   6.9850   9.0499   9.0499
     9.0499   9.0499   9.0499   9.0499

     occupation numbers 
     1.0000   1.0000   1.0000   1.0000   1.0000   1.0000   1.0000   1.0000
     1.0000   1.0000   1.0000   1.0000   1.0000   1.0000   1.0000   1.0000
     1.0000   1.0000   1.0000   1.0000   1.0000   1.0000   1.0000   1.0000
     0.0000   0.0000   0.0000   0.0000   0.0000   0.0000   0.0000   0.0000
     0.0000   0.0000   0.0000   0.0000

          k = 0.0442 0.0442-0.0442 (  5552 PWs)   bands (ev):

   -14.6471 -14.6471 -14.6471 -14.6471 -14.6436 -14.6436 -14.5930 -14.5930
   -14.5930 -14.5930 -14.3581 -14.3581 -14.3581 -14.3581 -14.3482 -14.3482
   -14.3372 -14.3372 -14.3372 -14.3372  -3.1493  -3.1493   5.3093   5.3093
     6.9126   6.9126   6.9126   6.9126   7.1669   7.1669   9.1447   9.1447
     9.1447   9.1447   9.1790   9.1790

     occupation numbers 
     1.0000   1.0000   1.0000   1.0000   1.0000   1.0000   1.0000   1.0000
     1.0000   1.0000   1.0000   1.0000   1.0000   1.0000   1.0000   1.0000
     1.0000   1.0000   1.0000   1.0000   1.0000   1.0000   1.0000   1.0000
     0.0241   0.0241   0.0241   0.0241   0.0000   0.0000   0.0000   0.0000
     0.0000   0.0000   0.0000   0.0000

          k = 0.0884 0.0884-0.0884 (  5510 PWs)   bands (ev):

   -14.6529 -14.6529 -14.6529 -14.6529 -14.6412 -14.6412 -14.5847 -14.5847
   -14.5847 -14.5847 -14.3687 -14.3687 -14.3687 -14.3687 -14.3511 -14.3511
   -14.3281 -14.3281 -14.3281 -14.3281  -3.0459  -3.0459   4.5488   4.5488
     6.7352   6.7352   6.7352   6.7352   7.2967   7.2967   9.3788   9.3788
     9.3788   9.3788   9.6111   9.6111

     occupation numbers 
     1.0000   1.0000   1.0000   1.0000   1.0000   1.0000   1.0000   1.0000
     1.0000   1.0000   1.0000   1.0000   1.0000   1.0000   1.0000   1.0000
     1.0000   1.0000   1.0000   1.0000   1.0000   1.0000   1.0000   1.0000
     1.0000   1.0000   1.0000   1.0000   0.0000   0.0000   0.0000   0.0000
     0.0000   0.0000   0.0000   0.0000

          k = 0.1326 0.1326-0.1326 (  5498 PWs)   bands (ev):

   -14.6593 -14.6593 -14.6593 -14.6593 -14.6377 -14.6377 -14.5747 -14.5747
   -14.5747 -14.5747 -14.3786 -14.3786 -14.3786 -14.3786 -14.3553 -14.3553
   -14.3204 -14.3204 -14.3204 -14.3204  -2.8766  -2.8766   3.7194   3.7194
     6.5205   6.5205   6.5205   6.5205   7.2335   7.2335   9.6542   9.6542
     9.6542   9.6542  10.2911  10.2911

     occupation numbers 
     1.0000   1.0000   1.0000   1.0000   1.0000   1.0000   1.0000   1.0000
     1.0000   1.0000   1.0000   1.0000   1.0000   1.0000   1.0000   1.0000
     1.0000   1.0000   1.0000   1.0000   1.0000   1.0000   1.0000   1.0000
     1.0000   1.0000   1.0000   1.0000   0.0000   0.0000   0.0000   0.0000
     0.0000   0.0000   0.0000   0.0000

          k = 0.1768 0.1768-0.1768 (  5492 PWs)   bands (ev):

   -14.6647 -14.6647 -14.6647 -14.6647 -14.6334 -14.6334 -14.5653 -14.5653
   -14.5653 -14.5653 -14.3871 -14.3871 -14.3871 -14.3871 -14.3604 -14.3604
   -14.3142 -14.3142 -14.3142 -14.3142  -2.6479  -2.6479   2.9080   2.9080
     6.3138   6.3138   6.3138   6.3138   7.0938   7.0938   9.8849   9.8849
     9.8849   9.8849  11.0998  11.0998

     occupation numbers 
     1.0000   1.0000   1.0000   1.0000   1.0000   1.0000   1.0000   1.0000
     1.0000   1.0000   1.0000   1.0000   1.0000   1.0000   1.0000   1.0000
     1.0000   1.0000   1.0000   1.0000   1.0000   1.0000   1.0000   1.0000
     1.0000   1.0000   1.0000   1.0000   0.0000   0.0000   0.0000   0.0000
     0.0000   0.0000   0.0000   0.0000

          k = 0.2210 0.2210-0.2210 (  5489 PWs)   bands (ev):

   -14.6689 -14.6689 -14.6689 -14.6689 -14.6289 -14.6289 -14.5576 -14.5576
   -14.5576 -14.5576 -14.3936 -14.3936 -14.3936 -14.3936 -14.3657 -14.3657
   -14.3097 -14.3097 -14.3097 -14.3097  -2.3730  -2.3730   2.1600   2.1600
     6.1390   6.1390   6.1390   6.1390   6.9521   6.9521  10.0248  10.0248
    10.0248  10.0248  11.9642  11.9642

     occupation numbers 
     1.0000   1.0000   1.0000   1.0000   1.0000   1.0000   1.0000   1.0000
     1.0000   1.0000   1.0000   1.0000   1.0000   1.0000   1.0000   1.0000
     1.0000   1.0000   1.0000   1.0000   1.0000   1.0000   1.0000   1.0000
     1.0000   1.0000   1.0000   1.0000   0.0000   0.0000   0.0000   0.0000
     0.0000   0.0000   0.0000   0.0000

          k = 0.2652 0.2652-0.2652 (  5492 PWs)   bands (ev):

   -14.6716 -14.6716 -14.6716 -14.6716 -14.6251 -14.6251 -14.5522 -14.5522
   -14.5522 -14.5522 -14.3980 -14.3980 -14.3980 -14.3980 -14.3702 -14.3702
   -14.3066 -14.3066 -14.3066 -14.3066  -2.0796  -2.0796   1.5201   1.5201
     6.0083   6.0083   6.0083   6.0083   6.8395   6.8395  10.0820  10.0820
    10.0820  10.0820  12.6259  12.6259

     occupation numbers 
     1.0000   1.0000   1.0000   1.0000   1.0000   1.0000   1.0000   1.0000
     1.0000   1.0000   1.0000   1.0000   1.0000   1.0000   1.0000   1.0000
     1.0000   1.0000   1.0000   1.0000   1.0000   1.0000   1.0000   1.0000
     1.0000   1.0000   1.0000   1.0000   1.0000   1.0000   0.0000   0.0000
     0.0000   0.0000   0.0000   0.0000

          k = 0.3094 0.3094-0.3094 (  5492 PWs)   bands (ev):

   -14.6732 -14.6732 -14.6732 -14.6732 -14.6224 -14.6224 -14.5492 -14.5492
   -14.5492 -14.5492 -14.4003 -14.4003 -14.4003 -14.4003 -14.3733 -14.3733
   -14.3049 -14.3049 -14.3049 -14.3049  -1.8282  -1.8282   1.0576   1.0576
     5.9279   5.9279   5.9279   5.9279   6.7686   6.7686  10.0946  10.0946
    10.0946  10.0946  12.6502  12.6502

     occupation numbers 
     1.0000   1.0000   1.0000   1.0000   1.0000   1.0000   1.0000   1.0000
     1.0000   1.0000   1.0000   1.0000   1.0000   1.0000   1.0000   1.0000
     1.0000   1.0000   1.0000   1.0000   1.0000   1.0000   1.0000   1.0000
     1.0000   1.0000   1.0000   1.0000   1.0000   1.0000   0.0000   0.0000
     0.0000   0.0000   0.0000   0.0000

          k =-0.3536-0.3536 0.3536 (  5480 PWs)   bands (ev):

   -14.6736 -14.6736 -14.6736 -14.6736 -14.6214 -14.6214 -14.5482 -14.5482
   -14.5482 -14.5482 -14.4011 -14.4011 -14.4011 -14.4011 -14.3744 -14.3744
   -14.3043 -14.3043 -14.3043 -14.3043  -1.7219  -1.7219   0.8804   0.8804
     5.9008   5.9008   5.9008   5.9008   6.7446   6.7446  10.0949  10.0949
    10.0949  10.0949  12.6250  12.6250

     occupation numbers 
     1.0000   1.0000   1.0000   1.0000   1.0000   1.0000   1.0000   1.0000
     1.0000   1.0000   1.0000   1.0000   1.0000   1.0000   1.0000   1.0000
     1.0000   1.0000   1.0000   1.0000   1.0000   1.0000   1.0000   1.0000
     1.0000   1.0000   1.0000   1.0000   1.0000   1.0000   0.0000   0.0000
     0.0000   0.0000   0.0000   0.0000

          k = 0.0884 0.0000 0.0000 (  5533 PWs)   bands (ev):

   -14.6467 -14.6467 -14.6463 -14.6463 -14.6463 -14.6463 -14.5941 -14.5941
   -14.5895 -14.5895 -14.3672 -14.3672 -14.3497 -14.3497 -14.3447 -14.3447
   -14.3447 -14.3447 -14.3331 -14.3331  -3.1377  -3.1377   5.2293   5.2293
     6.7799   6.7799   6.7799   6.7799   7.4404   7.4404   8.9050   8.9050
     9.3145   9.3145   9.3145   9.3145

     occupation numbers 
     1.0000   1.0000   1.0000   1.0000   1.0000   1.0000   1.0000   1.0000
     1.0000   1.0000   1.0000   1.0000   1.0000   1.0000   1.0000   1.0000
     1.0000   1.0000   1.0000   1.0000   1.0000   1.0000   1.0000   1.0000
     1.0000   1.0000   1.0000   1.0000   0.0000   0.0000   0.0000   0.0000
     0.0000   0.0000   0.0000   0.0000

          k = 0.1326 0.0442-0.0442 (  5513 PWs)   bands (ev):

   -14.6528 -14.6528 -14.6501 -14.6501 -14.6441 -14.6441 -14.5888 -14.5888
   -14.5808 -14.5808 -14.3786 -14.3786 -14.3586 -14.3586 -14.3450 -14.3450
   -14.3362 -14.3362 -14.3261 -14.3261  -3.0569  -3.0569   4.6655   4.6655
     6.5721   6.5721   6.6033   6.6033   7.6931   7.6931   8.9038   8.9038
     9.5974   9.5974   9.6710   9.6710

     occupation numbers 
     1.0000   1.0000   1.0000   1.0000   1.0000   1.0000   1.0000   1.0000
     1.0000   1.0000   1.0000   1.0000   1.0000   1.0000   1.0000   1.0000
     1.0000   1.0000   1.0000   1.0000   1.0000   1.0000   1.0000   1.0000
     1.0000   1.0000   1.0000   1.0000   0.0000   0.0000   0.0000   0.0000
     0.0000   0.0000   0.0000   0.0000

          k = 0.1768 0.0884-0.0884 (  5496 PWs)   bands (ev):

   -14.6600 -14.6600 -14.6559 -14.6559 -14.6401 -14.6401 -14.5802 -14.5802
   -14.5704 -14.5704 -14.3893 -14.3893 -14.3688 -14.3688 -14.3490 -14.3490
   -14.3274 -14.3274 -14.3183 -14.3183  -2.9092  -2.9092   3.9120   3.9120
     6.3498   6.3498   6.3860   6.3860   7.7115   7.7115   9.1307   9.1307
     9.9031   9.9031  10.2225  10.2225

     occupation numbers 
     1.0000   1.0000   1.0000   1.0000   1.0000   1.0000   1.0000   1.0000
     1.0000   1.0000   1.0000   1.0000   1.0000   1.0000   1.0000   1.0000
     1.0000   1.0000   1.0000   1.0000   1.0000   1.0000   1.0000   1.0000
     1.0000   1.0000   1.0000   1.0000   0.0000   0.0000   0.0000   0.0000
     0.0000   0.0000   0.0000   0.0000

          k = 0.2210 0.1326-0.1326 (  5489 PWs)   bands (ev):

   -14.6666 -14.6666 -14.6616 -14.6616 -14.6347 -14.6347 -14.5709 -14.5709
   -14.5602 -14.5602 -14.3983 -14.3983 -14.3782 -14.3782 -14.3551 -14.3551
   -14.3199 -14.3199 -14.3114 -14.3114  -2.6993  -2.6993   3.1240   3.1240
     6.1455   6.1455   6.1495   6.1495   7.5967   7.5967   9.4432   9.4432
    10.1508  10.1508  10.8671  10.8671

     occupation numbers 
     1.0000   1.0000   1.0000   1.0000   1.0000   1.0000   1.0000   1.0000
     1.0000   1.0000   1.0000   1.0000   1.0000   1.0000   1.0000   1.0000
     1.0000   1.0000   1.0000   1.0000   1.0000   1.0000   1.0000   1.0000
     1.0000   1.0000   1.0000   1.0000   0.0000   0.0000   0.0000   0.0000
     0.0000   0.0000   0.0000   0.0000

          k = 0.2652 0.1768-0.1768 (  5491 PWs)   bands (ev):

   -14.6719 -14.6719 -14.6664 -14.6664 -14.6288 -14.6288 -14.5623 -14.5623
   -14.5521 -14.5521 -14.4047 -14.4047 -14.3864 -14.3864 -14.3622 -14.3622
   -14.3139 -14.3139 -14.3059 -14.3059  -2.4376  -2.4376   2.3704   2.3704
     5.9202   5.9202   5.9903   5.9903   7.4515   7.4515   9.7039   9.7039
    10.2892  10.2892  11.5457  11.5457

     occupation numbers 
     1.0000   1.0000   1.0000   1.0000   1.0000   1.0000   1.0000   1.0000
     1.0000   1.0000   1.0000   1.0000   1.0000   1.0000   1.0000   1.0000
     1.0000   1.0000   1.0000   1.0000   1.0000   1.0000   1.0000   1.0000
     1.0000   1.0000   1.0000   1.0000   0.0000   0.0000   0.0000   0.0000
     0.0000   0.0000   0.0000   0.0000

          k = 0.3094 0.2210-0.2210 (  5493 PWs)   bands (ev):

   -14.6755 -14.6755 -14.6701 -14.6701 -14.6231 -14.6231 -14.5552 -14.5552
   -14.5468 -14.5468 -14.4079 -14.4079 -14.3932 -14.3932 -14.3693 -14.3693
   -14.3092 -14.3092 -14.3021 -14.3021  -2.1456  -2.1456   1.7001   1.7001
     5.7319   5.7319   5.8820   5.8820   7.3220   7.3220   9.8633   9.8633
    10.3212  10.3212  12.2142  12.2143

     occupation numbers 
     1.0000   1.0000   1.0000   1.0000   1.0000   1.0000   1.0000   1.0000
     1.0000   1.0000   1.0000   1.0000   1.0000   1.0000   1.0000   1.0000
     1.0000   1.0000   1.0000   1.0000   1.0000   1.0000   1.0000   1.0000
     1.0000   1.0000   1.0000   1.0000   0.0000   0.0000   0.0000   0.0000
     0.0000   0.0000   0.0000   0.0000

          k = 0.3536 0.2652-0.2652 (  5497 PWs)   bands (ev):

   -14.6776 -14.6776 -14.6727 -14.6727 -14.6186 -14.6186 -14.5498 -14.5498
   -14.5448 -14.5448 -14.4077 -14.4077 -14.3987 -14.3987 -14.3753 -14.3753
   -14.3058 -14.3058 -14.3000 -14.3000  -1.8699  -1.8699   1.1741   1.1741
     5.5914   5.5914   5.8289   5.8289   7.2277   7.2277   9.9504   9.9504
    10.2880  10.2881  12.6458  12.6458

     occupation numbers 
     1.0000   1.0000   1.0000   1.0000   1.0000   1.0000   1.0000   1.0000
     1.0000   1.0000   1.0000   1.0000   1.0000   1.0000   1.0000   1.0000
     1.0000   1.0000   1.0000   1.0000   1.0000   1.0000   1.0000   1.0000
     1.0000   1.0000   1.0000   1.0000   0.0000   0.0000   0.0000   0.0000
     0.0000   0.0000   0.0000   0.0000

          k =-0.3094-0.3977 0.3977 (  5502 PWs)   bands (ev):

   -14.6781 -14.6781 -14.6743 -14.6743 -14.6161 -14.6161 -14.5461 -14.5461
   -14.5454 -14.5454 -14.4051 -14.4051 -14.4028 -14.4028 -14.3791 -14.3791
   -14.3035 -14.3035 -14.2997 -14.2997  -1.7021  -1.7021   0.8913   0.8913
     5.5047   5.5047   5.8326   5.8326   7.1768   7.1768  10.0113  10.0113
    10.2304  10.2304  12.7391  12.7391

     occupation numbers 
     1.0000   1.0000   1.0000   1.0000   1.0000   1.0000   1.0000   1.0000
     1.0000   1.0000   1.0000   1.0000   1.0000   1.0000   1.0000   1.0000
     1.0000   1.0000   1.0000   1.0000   1.0000   1.0000   1.0000   1.0000
     1.0000   1.0000   1.0000   1.0000   0.0000   0.0000   0.0000   0.0000
     0.0000   0.0000   0.0000   0.0000

          k =-0.2652-0.3536 0.3536 (  5502 PWs)   bands (ev):

   -14.6773 -14.6773 -14.6750 -14.6750 -14.6162 -14.6162 -14.5480 -14.5480
   -14.5443 -14.5443 -14.4055 -14.4055 -14.4011 -14.4011 -14.3795 -14.3795
   -14.3024 -14.3024 -14.3010 -14.3010  -1.7391  -1.7391   0.9516   0.9516
     5.4754   5.4754   5.8920   5.8920   7.1725   7.1725  10.0710  10.0710
    10.1681  10.1681  12.7519  12.7520

     occupation numbers 
     1.0000   1.0000   1.0000   1.0000   1.0000   1.0000   1.0000   1.0000
     1.0000   1.0000   1.0000   1.0000   1.0000   1.0000   1.0000   1.0000
     1.0000   1.0000   1.0000   1.0000   1.0000   1.0000   1.0000   1.0000
     1.0000   1.0000   1.0000   1.0000   0.0000   0.0000   0.0000   0.0000
     0.0000   0.0000   0.0000   0.0000

          k =-0.2210-0.3094 0.3094 (  5489 PWs)   bands (ev):

   -14.6750 -14.6750 -14.6745 -14.6745 -14.6188 -14.6188 -14.5522 -14.5522
   -14.5450 -14.5450 -14.4061 -14.4061 -14.3971 -14.3971 -14.3760 -14.3760
   -14.3040 -14.3040 -14.3026 -14.3026  -1.9559  -1.9559   1.3293   1.3293
     5.5059   5.5059   6.0041   6.0041   7.2142   7.2142  10.0973  10.0973
    10.1266  10.1266  12.6388  12.6388

     occupation numbers 
     1.0000   1.0000   1.0000   1.0000   1.0000   1.0000   1.0000   1.0000
     1.0000   1.0000   1.0000   1.0000   1.0000   1.0000   1.0000   1.0000
     1.0000   1.0000   1.0000   1.0000   1.0000   1.0000   1.0000   1.0000
     1.0000   1.0000   1.0000   1.0000   0.0000   0.0000   0.0000   0.0000
     0.0000   0.0000   0.0000   0.0000

          k =-0.1768-0.2652 0.2652 (  5479 PWs)   bands (ev):

   -14.6728 -14.6728 -14.6715 -14.6715 -14.6235 -14.6235 -14.5578 -14.5578
   -14.5487 -14.5487 -14.4039 -14.4039 -14.3927 -14.3927 -14.3693 -14.3693
   -14.3086 -14.3086 -14.3043 -14.3043  -2.2448  -2.2448   1.9121   1.9121
     5.5976   5.5976   6.1630   6.1630   7.2974   7.2974   9.9937   9.9937
    10.1440  10.1440  12.0683  12.0683

     occupation numbers 
     1.0000   1.0000   1.0000   1.0000   1.0000   1.0000   1.0000   1.0000
     1.0000   1.0000   1.0000   1.0000   1.0000   1.0000   1.0000   1.0000
     1.0000   1.0000   1.0000   1.0000   1.0000   1.0000   1.0000   1.0000
     1.0000   1.0000   1.0000   1.0000   0.0000   0.0000   0.0000   0.0000
     0.0000   0.0000   0.0000   0.0000

          k =-0.1326-0.2210 0.2210 (  5477 PWs)   bands (ev):

   -14.6695 -14.6695 -14.6665 -14.6665 -14.6293 -14.6293 -14.5650 -14.5650
   -14.5556 -14.5556 -14.3986 -14.3986 -14.3872 -14.3872 -14.3613 -14.3613
   -14.3147 -14.3147 -14.3077 -14.3077  -2.5302  -2.5302   2.6148   2.6148
     5.7510   5.7510   6.3589   6.3589   7.4100   7.4100   9.8260   9.8260
    10.0558  10.0558  11.3387  11.3387

     occupation numbers 
     1.0000   1.0000   1.0000   1.0000   1.0000   1.0000   1.0000   1.0000
     1.0000   1.0000   1.0000   1.0000   1.0000   1.0000   1.0000   1.0000
     1.0000   1.0000   1.0000   1.0000   1.0000   1.0000   1.0000   1.0000
     1.0000   1.0000   1.0000   1.0000   0.0000   0.0000   0.0000   0.0000
     0.0000   0.0000   0.0000   0.0000

          k =-0.0884-0.1768 0.1768 (  5491 PWs)   bands (ev):

   -14.6647 -14.6647 -14.6605 -14.6605 -14.6352 -14.6352 -14.5734 -14.5734
   -14.5650 -14.5650 -14.3906 -14.3906 -14.3800 -14.3800 -14.3533 -14.3533
   -14.3225 -14.3225 -14.3127 -14.3127  -2.7761  -2.7761   3.3824   3.3824
     5.9657   5.9657   6.5743   6.5743   7.5230   7.5230   9.5901   9.5901
     9.7998   9.7998  10.6844  10.6844

     occupation numbers 
     1.0000   1.0000   1.0000   1.0000   1.0000   1.0000   1.0000   1.0000
     1.0000   1.0000   1.0000   1.0000   1.0000   1.0000   1.0000   1.0000
     1.0000   1.0000   1.0000   1.0000   1.0000   1.0000   1.0000   1.0000
     1.0000   1.0000   1.0000   1.0000   0.0000   0.0000   0.0000   0.0000
     0.0000   0.0000   0.0000   0.0000

          k =-0.0442-0.1326 0.1326 (  5505 PWs)   bands (ev):

   -14.6586 -14.6586 -14.6538 -14.6538 -14.6403 -14.6403 -14.5823 -14.5823
   -14.5757 -14.5757 -14.3805 -14.3805 -14.3715 -14.3715 -14.3463 -14.3463
   -14.3315 -14.3315 -14.3195 -14.3195  -2.9659  -2.9659   4.1614   4.1614
     6.2412   6.2412   6.7765   6.7765   7.5667   7.5667   9.3361   9.3361
     9.4433   9.4433  10.1132  10.1132

     occupation numbers 
     1.0000   1.0000   1.0000   1.0000   1.0000   1.0000   1.0000   1.0000
     1.0000   1.0000   1.0000   1.0000   1.0000   1.0000   1.0000   1.0000
     1.0000   1.0000   1.0000   1.0000   1.0000   1.0000   1.0000   1.0000
     1.0000   1.0000   1.0000   1.0000   0.0000   0.0000   0.0000   0.0000
     0.0000   0.0000   0.0000   0.0000

          k = 0.0000-0.0884 0.0884 (  5511 PWs)   bands (ev):

   -14.6521 -14.6521 -14.6482 -14.6482 -14.6435 -14.6435 -14.5899 -14.5899
   -14.5859 -14.5859 -14.3694 -14.3694 -14.3625 -14.3625 -14.3422 -14.3422
   -14.3403 -14.3403 -14.3278 -14.3278  -3.0916  -3.0916   4.8641   4.8641
     6.5761   6.5761   6.9099   6.9099   7.4271   7.4271   9.1572   9.1572
     9.1959   9.1959   9.5912   9.5912

     occupation numbers 
     1.0000   1.0000   1.0000   1.0000   1.0000   1.0000   1.0000   1.0000
     1.0000   1.0000   1.0000   1.0000   1.0000   1.0000   1.0000   1.0000
     1.0000   1.0000   1.0000   1.0000   1.0000   1.0000   1.0000   1.0000
     1.0000   1.0000   0.8011   0.8011   0.0000   0.0000   0.0000   0.0000
     0.0000   0.0000   0.0000   0.0000

          k = 0.1768 0.0000 0.0000 (  5501 PWs)   bands (ev):

   -14.6514 -14.6514 -14.6514 -14.6514 -14.6499 -14.6499 -14.5868 -14.5868
   -14.5719 -14.5719 -14.3918 -14.3918 -14.3567 -14.3567 -14.3377 -14.3377
   -14.3377 -14.3377 -14.3251 -14.3251  -2.9988  -2.9988   4.4159   4.4159
     6.3497   6.3497   6.3497   6.3497   8.1613   8.1613   8.5844   8.5844
     9.9213   9.9213   9.9213   9.9213

     occupation numbers 
     1.0000   1.0000   1.0000   1.0000   1.0000   1.0000   1.0000   1.0000
     1.0000   1.0000   1.0000   1.0000   1.0000   1.0000   1.0000   1.0000
     1.0000   1.0000   1.0000   1.0000   1.0000   1.0000   1.0000   1.0000
     1.0000   1.0000   1.0000   1.0000   0.0000   0.0000   0.0000   0.0000
     0.0000   0.0000   0.0000   0.0000

          k = 0.2210 0.0442-0.0442 (  5495 PWs)   bands (ev):

   -14.6591 -14.6591 -14.6558 -14.6558 -14.6456 -14.6456 -14.5801 -14.5801
   -14.5607 -14.5607 -14.4047 -14.4047 -14.3644 -14.3644 -14.3383 -14.3383
   -14.3307 -14.3307 -14.3194 -14.3194  -2.8729  -2.8729   3.8729   3.8729
     6.1065   6.1065   6.1225   6.1225   8.3441   8.3441   8.5793   8.5793
    10.2677  10.2677  10.3495  10.3495

     occupation numbers 
     1.0000   1.0000   1.0000   1.0000   1.0000   1.0000   1.0000   1.0000
     1.0000   1.0000   1.0000   1.0000   1.0000   1.0000   1.0000   1.0000
     1.0000   1.0000   1.0000   1.0000   1.0000   1.0000   1.0000   1.0000
     1.0000   1.0000   1.0000   1.0000   0.0000   0.0000   0.0000   0.0000
     0.0000   0.0000   0.0000   0.0000

          k = 0.2652 0.0884-0.0884 (  5487 PWs)   bands (ev):

   -14.6674 -14.6674 -14.6611 -14.6611 -14.6385 -14.6385 -14.5713 -14.5713
   -14.5497 -14.5497 -14.4157 -14.4157 -14.3741 -14.3741 -14.3452 -14.3452
   -14.3227 -14.3227 -14.3110 -14.3110  -2.6829  -2.6829   3.1970   3.1970
     5.8262   5.8262   5.9232   5.9232   8.2706   8.2706   8.8730   8.8730
    10.5569  10.5569  10.7842  10.7842

     occupation numbers 
     1.0000   1.0000   1.0000   1.0000   1.0000   1.0000   1.0000   1.0000
     1.0000   1.0000   1.0000   1.0000   1.0000   1.0000   1.0000   1.0000
     1.0000   1.0000   1.0000   1.0000   1.0000   1.0000   1.0000   1.0000
     1.0000   1.0000   1.0000   1.0000   0.0000   0.0000   0.0000   0.0000
     0.0000   0.0000   0.0000   0.0000

          k = 0.3094 0.1326-0.1326 (  5489 PWs)   bands (ev):

   -14.6748 -14.6748 -14.6661 -14.6661 -14.6299 -14.6299 -14.5622 -14.5622
   -14.5406 -14.5406 -14.4237 -14.4237 -14.3837 -14.3837 -14.3549 -14.3549
   -14.3156 -14.3156 -14.3031 -14.3031  -2.4368  -2.4368   2.4953   2.4953
     5.5430   5.5430   5.7698   5.7698   8.1291   8.1291   9.2569   9.2569
    10.7260  10.7260  11.1063  11.1063

     occupation numbers 
     1.0000   1.0000   1.0000   1.0000   1.0000   1.0000   1.0000   1.0000
     1.0000   1.0000   1.0000   1.0000   1.0000   1.0000   1.0000   1.0000
     1.0000   1.0000   1.0000   1.0000   1.0000   1.0000   1.0000   1.0000
     1.0000   1.0000   1.0000   1.0000   0.0000   0.0000   0.0000   0.0000
     0.0000   0.0000   0.0000   0.0000

          k = 0.3536 0.1768-0.1768 (  5494 PWs)   bands (ev):

   -14.6806 -14.6806 -14.6704 -14.6704 -14.6207 -14.6207 -14.5537 -14.5537
   -14.5349 -14.5349 -14.4275 -14.4275 -14.3926 -14.3926 -14.3655 -14.3655
   -14.3096 -14.3096 -14.2969 -14.2969  -2.1507  -2.1507   1.8344   1.8344
     5.2919   5.2919   5.6716   5.6716   7.9861   7.9861   9.5822   9.5822
    10.7632  10.7632  11.4653  11.4653

     occupation numbers 
     1.0000   1.0000   1.0000   1.0000   1.0000   1.0000   1.0000   1.0000
     1.0000   1.0000   1.0000   1.0000   1.0000   1.0000   1.0000   1.0000
     1.0000   1.0000   1.0000   1.0000   1.0000   1.0000   1.0000   1.0000
     1.0000   1.0000   1.0000   1.0000   0.0000   0.0000   0.0000   0.0000
     0.0000   0.0000   0.0000   0.0000

          k = 0.3977 0.2210-0.2210 (  5497 PWs)   bands (ev):

   -14.6846 -14.6846 -14.6737 -14.6737 -14.6124 -14.6124 -14.5462 -14.5462
   -14.5334 -14.5334 -14.4265 -14.4265 -14.4008 -14.4008 -14.3758 -14.3758
   -14.3049 -14.3049 -14.2926 -14.2926  -1.8605  -1.8605   1.2763   1.2763
     5.0907   5.0907   5.6330   5.6330   7.8700   7.8700   9.7818   9.7818
    10.7078  10.7079  11.9833  11.9833

     occupation numbers 
     1.0000   1.0000   1.0000   1.0000   1.0000   1.0000   1.0000   1.0000
     1.0000   1.0000   1.0000   1.0000   1.0000   1.0000   1.0000   1.0000
     1.0000   1.0000   1.0000   1.0000   1.0000   1.0000   1.0000   1.0000
     1.0000   1.0000   1.0000   1.0000   0.0000   0.0000   0.0000   0.0000
     0.0000   0.0000   0.0000   0.0000

          k =-0.2652-0.4419 0.4419 (  5498 PWs)   bands (ev):

   -14.6866 -14.6866 -14.6762 -14.6762 -14.6062 -14.6062 -14.5401 -14.5401
   -14.5358 -14.5358 -14.4209 -14.4209 -14.4079 -14.4079 -14.3842 -14.3842
   -14.3013 -14.3013 -14.2906 -14.2906  -1.6421  -1.6421   0.9111   0.9111
     4.9487   4.9487   5.6551   5.6551   7.7933   7.7933   9.9012   9.9013
    10.6084  10.6084  12.5518  12.5518

     occupation numbers 
     1.0000   1.0000   1.0000   1.0000   1.0000   1.0000   1.0000   1.0000
     1.0000   1.0000   1.0000   1.0000   1.0000   1.0000   1.0000   1.0000
     1.0000   1.0000   1.0000   1.0000   1.0000   1.0000   1.0000   1.0000
     1.0000   1.0000   1.0000   1.0000   0.0000   0.0000   0.0000   0.0000
     0.0000   0.0000   0.0000   0.0000

          k =-0.2210-0.3977 0.3977 (  5507 PWs)   bands (ev):

   -14.6864 -14.6864 -14.6777 -14.6777 -14.6035 -14.6035 -14.5410 -14.5410
   -14.5359 -14.5359 -14.4134 -14.4134 -14.4117 -14.4117 -14.3897 -14.3897
   -14.2991 -14.2991 -14.2912 -14.2912  -1.6068  -1.6068   0.8558   0.8558
     4.8717   4.8717   5.7360   5.7360   7.7608   7.7608  10.0007  10.0007
    10.4930  10.4930  12.8581  12.8581

     occupation numbers 
     1.0000   1.0000   1.0000   1.0000   1.0000   1.0000   1.0000   1.0000
     1.0000   1.0000   1.0000   1.0000   1.0000   1.0000   1.0000   1.0000
     1.0000   1.0000   1.0000   1.0000   1.0000   1.0000   1.0000   1.0000
     1.0000   1.0000   1.0000   1.0000   0.0000   0.0000   0.0000   0.0000
     0.0000   0.0000   0.0000   0.0000

          k =-0.1768-0.3536 0.3536 (  5489 PWs)   bands (ev):

   -14.6842 -14.6842 -14.6780 -14.6780 -14.6051 -14.6051 -14.5474 -14.5474
   -14.5345 -14.5345 -14.4164 -14.4164 -14.4015 -14.4015 -14.3907 -14.3907
   -14.2983 -14.2983 -14.2943 -14.2943  -1.7788  -1.7788   1.1352   1.1352
     4.8653   4.8653   5.8712   5.8712   7.7715   7.7715  10.1021  10.1021
    10.3644  10.3644  12.6029  12.6029

     occupation numbers 
     1.0000   1.0000   1.0000   1.0000   1.0000   1.0000   1.0000   1.0000
     1.0000   1.0000   1.0000   1.0000   1.0000   1.0000   1.0000   1.0000
     1.0000   1.0000   1.0000   1.0000   1.0000   1.0000   1.0000   1.0000
     1.0000   1.0000   1.0000   1.0000   0.0000   0.0000   0.0000   0.0000
     0.0000   0.0000   0.0000   0.0000

          k =-0.1326-0.3094 0.3094 (  5480 PWs)   bands (ev):

   -14.6799 -14.6799 -14.6771 -14.6771 -14.6106 -14.6106 -14.5542 -14.5542
   -14.5368 -14.5368 -14.4158 -14.4158 -14.3960 -14.3960 -14.3824 -14.3824
   -14.2999 -14.2999 -14.2990 -14.2990  -2.0569  -2.0569   1.6420   1.6420
     4.9359   4.9359   6.0526   6.0526   7.8182   7.8182  10.1825  10.1825
    10.2044  10.2044  11.9502  11.9502

     occupation numbers 
     1.0000   1.0000   1.0000   1.0000   1.0000   1.0000   1.0000   1.0000
     1.0000   1.0000   1.0000   1.0000   1.0000   1.0000   1.0000   1.0000
     1.0000   1.0000   1.0000   1.0000   1.0000   1.0000   1.0000   1.0000
     1.0000   1.0000   1.0000   1.0000   0.0000   0.0000   0.0000   0.0000
     0.0000   0.0000   0.0000   0.0000

          k =-0.0884-0.2652 0.2652 (  5475 PWs)   bands (ev):

   -14.6746 -14.6746 -14.6739 -14.6739 -14.6188 -14.6188 -14.5613 -14.5613
   -14.5433 -14.5433 -14.4111 -14.4111 -14.3922 -14.3922 -14.3693 -14.3693
   -14.3078 -14.3078 -14.3015 -14.3015  -2.3493  -2.3493   2.2700   2.2700
     5.0929   5.0929   6.2663   6.2663   7.8821   7.8821   9.9897   9.9897
    10.1497  10.1497  11.3407  11.3407

     occupation numbers 
     1.0000   1.0000   1.0000   1.0000   1.0000   1.0000   1.0000   1.0000
     1.0000   1.0000   1.0000   1.0000   1.0000   1.0000   1.0000   1.0000
     1.0000   1.0000   1.0000   1.0000   1.0000   1.0000   1.0000   1.0000
     1.0000   1.0000   1.0000   1.0000   0.0000   0.0000   0.0000   0.0000
     0.0000   0.0000   0.0000   0.0000

          k =-0.0442-0.2210 0.2210 (  5491 PWs)   bands (ev):

   -14.6704 -14.6704 -14.6666 -14.6666 -14.6277 -14.6277 -14.5687 -14.5687
   -14.5530 -14.5530 -14.4029 -14.4029 -14.3867 -14.3867 -14.3567 -14.3567
   -14.3175 -14.3175 -14.3059 -14.3059  -2.6103  -2.6103   2.9459   2.9459
     5.3511   5.3511   6.4886   6.4886   7.9190   7.9190   9.7269   9.7269
     9.8899   9.8899  10.9576  10.9576

     occupation numbers 
     1.0000   1.0000   1.0000   1.0000   1.0000   1.0000   1.0000   1.0000
     1.0000   1.0000   1.0000   1.0000   1.0000   1.0000   1.0000   1.0000
     1.0000   1.0000   1.0000   1.0000   1.0000   1.0000   1.0000   1.0000
     1.0000   1.0000   1.0000   1.0000   0.0000   0.0000   0.0000   0.0000
     0.0000   0.0000   0.0000   0.0000

          k = 0.0000-0.1768 0.1768 (  5493 PWs)   bands (ev):

   -14.6649 -14.6649 -14.6591 -14.6591 -14.6356 -14.6356 -14.5761 -14.5761
   -14.5644 -14.5644 -14.3923 -14.3923 -14.3794 -14.3794 -14.3468 -14.3468
   -14.3277 -14.3277 -14.3119 -14.3119  -2.8191  -2.8191   3.6015   3.6015
     5.7315   5.7315   6.6786   6.6786   7.8381   7.8381   9.4769   9.4769
     9.5751   9.5751  10.6168  10.6168

     occupation numbers 
     1.0000   1.0000   1.0000   1.0000   1.0000   1.0000   1.0000   1.0000
     1.0000   1.0000   1.0000   1.0000   1.0000   1.0000   1.0000   1.0000
     1.0000   1.0000   1.0000   1.0000   1.0000   1.0000   1.0000   1.0000
     1.0000   1.0000   1.0000   1.0000   0.0000   0.0000   0.0000   0.0000
     0.0000   0.0000   0.0000   0.0000

          k = 0.2652 0.0000 0.0000 (  5509 PWs)   bands (ev):

   -14.6587 -14.6587 -14.6587 -14.6587 -14.6500 -14.6500 -14.5751 -14.5751
   -14.5484 -14.5484 -14.4203 -14.4203 -14.3679 -14.3679 -14.3276 -14.3276
   -14.3276 -14.3276 -14.3236 -14.3236  -2.7686  -2.7686   3.5608   3.5608
     5.8910   5.8910   5.8910   5.8910   8.2429   8.2429   8.7240   8.7240
    10.6688  10.6688  10.6688  10.6688

     occupation numbers 
     1.0000   1.0000   1.0000   1.0000   1.0000   1.0000   1.0000   1.0000
     1.0000   1.0000   1.0000   1.0000   1.0000   1.0000   1.0000   1.0000
     1.0000   1.0000   1.0000   1.0000   1.0000   1.0000   1.0000   1.0000
     1.0000   1.0000   1.0000   1.0000   0.0000   0.0000   0.0000   0.0000
     0.0000   0.0000   0.0000   0.0000

          k = 0.3094 0.0442-0.0442 (  5493 PWs)   bands (ev):

   -14.6661 -14.6661 -14.6632 -14.6632 -14.6440 -14.6440 -14.5670 -14.5670
   -14.5358 -14.5358 -14.4342 -14.4342 -14.3762 -14.3762 -14.3341 -14.3341
   -14.3210 -14.3210 -14.3144 -14.3144  -2.5989  -2.5989   3.0560   3.0560
     5.6316   5.6316   5.6880   5.6880   8.2280   8.2280   8.8260   8.8260
    10.9970  10.9970  11.0254  11.0255

     occupation numbers 
     1.0000   1.0000   1.0000   1.0000   1.0000   1.0000   1.0000   1.0000
     1.0000   1.0000   1.0000   1.0000   1.0000   1.0000   1.0000   1.0000
     1.0000   1.0000   1.0000   1.0000   1.0000   1.0000   1.0000   1.0000
     1.0000   1.0000   1.0000   1.0000   0.0000   0.0000   0.0000   0.0000
     0.0000   0.0000   0.0000   0.0000

          k = 0.3536 0.0884-0.0884 (  5499 PWs)   bands (ev):

   -14.6751 -14.6751 -14.6679 -14.6679 -14.6336 -14.6336 -14.5576 -14.5576
   -14.5249 -14.5249 -14.4450 -14.4450 -14.3861 -14.3861 -14.3460 -14.3460
   -14.3140 -14.3140 -14.3037 -14.3037  -2.3698  -2.3698   2.4643   2.4643
     5.3119   5.3119   5.5321   5.5321   8.3218   8.3218   8.9712   8.9712
    11.0668  11.0669  11.2609  11.2609

     occupation numbers 
     1.0000   1.0000   1.0000   1.0000   1.0000   1.0000   1.0000   1.0000
     1.0000   1.0000   1.0000   1.0000   1.0000   1.0000   1.0000   1.0000
     1.0000   1.0000   1.0000   1.0000   1.0000   1.0000   1.0000   1.0000
     1.0000   1.0000   1.0000   1.0000   0.0000   0.0000   0.0000   0.0000
     0.0000   0.0000   0.0000   0.0000

          k = 0.3977 0.1326-0.1326 (  5487 PWs)   bands (ev):

   -14.6831 -14.6831 -14.6722 -14.6722 -14.6214 -14.6214 -14.5481 -14.5481
   -14.5176 -14.5176 -14.4513 -14.4513 -14.3962 -14.3962 -14.3596 -14.3596
   -14.3077 -14.3077 -14.2945 -14.2945  -2.0935  -2.0935   1.8625   1.8625
     4.9934   4.9934   5.4335   5.4335   8.2919   8.2919   9.3545   9.3545
    11.0731  11.0731  11.3391  11.3391

     occupation numbers 
     1.0000   1.0000   1.0000   1.0000   1.0000   1.0000   1.0000   1.0000
     1.0000   1.0000   1.0000   1.0000   1.0000   1.0000   1.0000   1.0000
     1.0000   1.0000   1.0000   1.0000   1.0000   1.0000   1.0000   1.0000
     1.0000   1.0000   1.0000   1.0000   0.0000   0.0000   0.0000   0.0000
     0.0000   0.0000   0.0000   0.0000

          k = 0.4419 0.1768-0.1768 (  5492 PWs)   bands (ev):

   -14.6894 -14.6894 -14.6758 -14.6758 -14.6092 -14.6092 -14.5391 -14.5391
   -14.5154 -14.5154 -14.4519 -14.4519 -14.4061 -14.4061 -14.3734 -14.3734
   -14.3024 -14.3024 -14.2875 -14.2875  -1.7967  -1.7967   1.3144   1.3144
     4.7195   4.7195   5.3970   5.3970   8.2146   8.2146   9.7718   9.7718
    11.2508  11.2509  11.2896  11.2896

     occupation numbers 
     1.0000   1.0000   1.0000   1.0000   1.0000   1.0000   1.0000   1.0000
     1.0000   1.0000   1.0000   1.0000   1.0000   1.0000   1.0000   1.0000
     1.0000   1.0000   1.0000   1.0000   1.0000   1.0000   1.0000   1.0000
     1.0000   1.0000   1.0000   1.0000   0.0000   0.0000   0.0000   0.0000
     0.0000   0.0000   0.0000   0.0000

          k =-0.2210-0.4861 0.4861 (  5487 PWs)   bands (ev):

   -14.6934 -14.6934 -14.6786 -14.6786 -14.5989 -14.5989 -14.5311 -14.5311
   -14.5185 -14.5185 -14.4464 -14.4464 -14.4154 -14.4154 -14.3853 -14.3853
   -14.2983 -14.2983 -14.2830 -14.2830  -1.5398  -1.5398   0.9018   0.9018
     4.5111   4.5111   5.4241   5.4241   8.1563   8.1563  10.0296  10.0296
    11.1677  11.1677  11.7303  11.7303

     occupation numbers 
     1.0000   1.0000   1.0000   1.0000   1.0000   1.0000   1.0000   1.0000
     1.0000   1.0000   1.0000   1.0000   1.0000   1.0000   1.0000   1.0000
     1.0000   1.0000   1.0000   1.0000   1.0000   1.0000   1.0000   1.0000
     1.0000   1.0000   1.0000   1.0000   0.0000   0.0000   0.0000   0.0000
     0.0000   0.0000   0.0000   0.0000

          k =-0.1768-0.4419 0.4419 (  5478 PWs)   bands (ev):

   -14.6949 -14.6949 -14.6805 -14.6805 -14.5923 -14.5923 -14.5260 -14.5260
   -14.5248 -14.5248 -14.4358 -14.4358 -14.4233 -14.4233 -14.3938 -14.3938
   -14.2955 -14.2955 -14.2817 -14.2817  -1.4346  -1.4346   0.7471   0.7471
     4.3797   4.3797   5.5128   5.5128   8.1345   8.1345  10.1642  10.1642
    11.0109  11.0109  12.3670  12.3670

     occupation numbers 
     1.0000   1.0000   1.0000   1.0000   1.0000   1.0000   1.0000   1.0000
     1.0000   1.0000   1.0000   1.0000   1.0000   1.0000   1.0000   1.0000
     1.0000   1.0000   1.0000   1.0000   1.0000   1.0000   1.0000   1.0000
     1.0000   1.0000   1.0000   1.0000   0.0000   0.0000   0.0000   0.0000
     0.0000   0.0000   0.0000   0.0000

          k =-0.1326-0.3977 0.3977 (  5487 PWs)   bands (ev):

   -14.6936 -14.6936 -14.6813 -14.6813 -14.5908 -14.5908 -14.5362 -14.5362
   -14.5217 -14.5217 -14.4282 -14.4282 -14.4211 -14.4211 -14.3983 -14.3983
   -14.2942 -14.2942 -14.2836 -14.2836  -1.5541  -1.5541   0.9244   0.9244
     4.3349   4.3349   5.6582   5.6582   8.1485   8.1485  10.2730  10.2730
    10.8275  10.8275  12.4758  12.4758

     occupation numbers 
     1.0000   1.0000   1.0000   1.0000   1.0000   1.0000   1.0000   1.0000
     1.0000   1.0000   1.0000   1.0000   1.0000   1.0000   1.0000   1.0000
     1.0000   1.0000   1.0000   1.0000   1.0000   1.0000   1.0000   1.0000
     1.0000   1.0000   1.0000   1.0000   0.0000   0.0000   0.0000   0.0000
     0.0000   0.0000   0.0000   0.0000

          k =-0.0884-0.3536 0.3536 (  5484 PWs)   bands (ev):

   -14.6896 -14.6896 -14.6809 -14.6809 -14.5952 -14.5952 -14.5466 -14.5466
   -14.5234 -14.5234 -14.4284 -14.4284 -14.4038 -14.4038 -14.3992 -14.3992
   -14.2945 -14.2945 -14.2887 -14.2887  -1.8160  -1.8160   1.3434   1.3434
     4.3893   4.3893   5.8510   5.8510   8.1845   8.1845  10.3824  10.3824
    10.6022  10.6022  11.8065  11.8065

     occupation numbers 
     1.0000   1.0000   1.0000   1.0000   1.0000   1.0000   1.0000   1.0000
     1.0000   1.0000   1.0000   1.0000   1.0000   1.0000   1.0000   1.0000
     1.0000   1.0000   1.0000   1.0000   1.0000   1.0000   1.0000   1.0000
     1.0000   1.0000   1.0000   1.0000   0.0000   0.0000   0.0000   0.0000
     0.0000   0.0000   0.0000   0.0000

          k =-0.0442-0.3094 0.3094 (  5477 PWs)   bands (ev):

   -14.6832 -14.6832 -14.6789 -14.6789 -14.6046 -14.6046 -14.5553 -14.5553
   -14.5301 -14.5301 -14.4235 -14.4235 -14.3971 -14.3971 -14.3858 -14.3858
   -14.2969 -14.2969 -14.2966 -14.2966  -2.1119  -2.1119   1.8756   1.8756
     4.5613   4.5613   6.0748   6.0748   8.2093   8.2093  10.3194  10.3194
    10.4136  10.4136  11.1931  11.1931

     occupation numbers 
     1.0000   1.0000   1.0000   1.0000   1.0000   1.0000   1.0000   1.0000
     1.0000   1.0000   1.0000   1.0000   1.0000   1.0000   1.0000   1.0000
     1.0000   1.0000   1.0000   1.0000   1.0000   1.0000   1.0000   1.0000
     1.0000   1.0000   1.0000   1.0000   0.0000   0.0000   0.0000   0.0000
     0.0000   0.0000   0.0000   0.0000

          k = 0.0000-0.2652 0.2652 (  5496 PWs)   bands (ev):

   -14.6754 -14.6754 -14.6751 -14.6751 -14.6165 -14.6165 -14.5625 -14.5625
   -14.5407 -14.5407 -14.4144 -14.4144 -14.3928 -14.3928 -14.3692 -14.3692
   -14.3072 -14.3072 -14.3004 -14.3004  -2.3850  -2.3850   2.4311   2.4311
     4.8757   4.8757   6.3023   6.3023   8.1524   8.1524  10.0022  10.0023
    10.1571  10.1571  11.0032  11.0032

     occupation numbers 
     1.0000   1.0000   1.0000   1.0000   1.0000   1.0000   1.0000   1.0000
     1.0000   1.0000   1.0000   1.0000   1.0000   1.0000   1.0000   1.0000
     1.0000   1.0000   1.0000   1.0000   1.0000   1.0000   1.0000   1.0000
     1.0000   1.0000   1.0000   1.0000   0.0000   0.0000   0.0000   0.0000
     0.0000   0.0000   0.0000   0.0000

          k = 0.3536 0.0000 0.0000 (  5457 PWs)   bands (ev):

   -14.6668 -14.6668 -14.6668 -14.6668 -14.6452 -14.6452 -14.5593 -14.5593
   -14.5212 -14.5212 -14.4513 -14.4513 -14.3831 -14.3831 -14.3285 -14.3285
   -14.3161 -14.3161 -14.3161 -14.3161  -2.4490  -2.4490   2.7118   2.7118
     5.4785   5.4785   5.4785   5.4785   7.9576   7.9576   8.8919   8.8919
    11.4753  11.4753  11.4753  11.4753

     occupation numbers 
     1.0000   1.0000   1.0000   1.0000   1.0000   1.0000   1.0000   1.0000
     1.0000   1.0000   1.0000   1.0000   1.0000   1.0000   1.0000   1.0000
     1.0000   1.0000   1.0000   1.0000   1.0000   1.0000   1.0000   1.0000
     1.0000   1.0000   1.0000   1.0000   0.0000   0.0000   0.0000   0.0000
     0.0000   0.0000   0.0000   0.0000

          k = 0.3977 0.0442-0.0442 (  5485 PWs)   bands (ev):

   -14.6736 -14.6736 -14.6710 -14.6710 -14.6372 -14.6372 -14.5498 -14.5498
   -14.5079 -14.5079 -14.4655 -14.4655 -14.3926 -14.3926 -14.3387 -14.3387
   -14.3100 -14.3100 -14.3063 -14.3063  -2.2376  -2.2376   2.2454   2.2454
     5.2277   5.2277   5.3151   5.3151   7.9816   7.9816   8.8574   8.8574
    11.6150  11.6150  11.8169  11.8169

     occupation numbers 
     1.0000   1.0000   1.0000   1.0000   1.0000   1.0000   1.0000   1.0000
     1.0000   1.0000   1.0000   1.0000   1.0000   1.0000   1.0000   1.0000
     1.0000   1.0000   1.0000   1.0000   1.0000   1.0000   1.0000   1.0000
     1.0000   1.0000   1.0000   1.0000   0.0000   0.0000   0.0000   0.0000
     0.0000   0.0000   0.0000   0.0000

          k = 0.4419 0.0884-0.0884 (  5496 PWs)   bands (ev):

   -14.6824 -14.6824 -14.6749 -14.6749 -14.6239 -14.6239 -14.5397 -14.5397
   -14.4980 -14.4980 -14.4754 -14.4754 -14.4031 -14.4031 -14.3539 -14.3539
   -14.3042 -14.3042 -14.2955 -14.2955  -1.9737  -1.9737   1.7325   1.7325
     4.8906   4.8906   5.2091   5.2091   8.1277   8.1277   8.9913   8.9913
    11.4846  11.4846  11.9810  11.9810

     occupation numbers 
     1.0000   1.0000   1.0000   1.0000   1.0000   1.0000   1.0000   1.0000
     1.0000   1.0000   1.0000   1.0000   1.0000   1.0000   1.0000   1.0000
     1.0000   1.0000   1.0000   1.0000   1.0000   1.0000   1.0000   1.0000
     1.0000   1.0000   1.0000   1.0000   0.0000   0.0000   0.0000   0.0000
     0.0000   0.0000   0.0000   0.0000

          k = 0.4861 0.1326-0.1326 (  5499 PWs)   bands (ev):

   -14.6905 -14.6905 -14.6784 -14.6784 -14.6088 -14.6088 -14.5296 -14.5296
   -14.4944 -14.4944 -14.4781 -14.4781 -14.4141 -14.4141 -14.3704 -14.3704
   -14.2991 -14.2991 -14.2861 -14.2861  -1.6767  -1.6767   1.2321   1.2321
     4.5521   4.5521   5.1664   5.1664   8.1703   8.1703   9.4514   9.4514
    11.3588  11.3588  11.9715  11.9715

     occupation numbers 
     1.0000   1.0000   1.0000   1.0000   1.0000   1.0000   1.0000   1.0000
     1.0000   1.0000   1.0000   1.0000   1.0000   1.0000   1.0000   1.0000
     1.0000   1.0000   1.0000   1.0000   1.0000   1.0000   1.0000   1.0000
     1.0000   1.0000   1.0000   1.0000   0.0000   0.0000   0.0000   0.0000
     0.0000   0.0000   0.0000   0.0000

          k =-0.1768-0.5303 0.5303 (  5486 PWs)   bands (ev):

   -14.6966 -14.6966 -14.6811 -14.6811 -14.5950 -14.5950 -14.5201 -14.5201
   -14.4968 -14.4968 -14.4741 -14.4741 -14.4248 -14.4248 -14.3852 -14.3852
   -14.2951 -14.2951 -14.2792 -14.2792  -1.3927  -1.3927   0.8123   0.8123
     4.2693   4.2693   5.1889   5.1889   8.1666   8.1666  10.0716  10.0716
    11.3414  11.3414  11.8471  11.8471

     occupation numbers 
     1.0000   1.0000   1.0000   1.0000   1.0000   1.0000   1.0000   1.0000
     1.0000   1.0000   1.0000   1.0000   1.0000   1.0000   1.0000   1.0000
     1.0000   1.0000   1.0000   1.0000   1.0000   1.0000   1.0000   1.0000
     1.0000   1.0000   1.0000   1.0000   0.0000   0.0000   0.0000   0.0000
[...]

   -14.6973 -14.6973 -14.6868 -14.6868 -14.5827 -14.5827 -14.5205 -14.5205
   -14.4920 -14.4920 -14.4757 -14.4757 -14.4275 -14.4275 -14.3981 -14.3981
   -14.2888 -14.2888 -14.2785 -14.2785  -1.3175  -1.3175   0.7486   0.7486
     4.1558   4.1558   5.0135   5.0135   8.8239   8.8239   9.9097   9.9097
    10.8411  10.8411  12.3819  12.3819

     occupation numbers 
     1.0000   1.0000   1.0000   1.0000   1.0000   1.0000   1.0000   1.0000
     1.0000   1.0000   1.0000   1.0000   1.0000   1.0000   1.0000   1.0000
     1.0000   1.0000   1.0000   1.0000   1.0000   1.0000   1.0000   1.0000
     1.0000   1.0000   1.0000   1.0000   0.0000   0.0000   0.0000   0.0000
     0.0000   0.0000   0.0000   0.0000

          k =-0.1326-0.3977 0.5745 (  5486 PWs)   bands (ev):

   -14.7005 -14.7005 -14.6878 -14.6878 -14.5746 -14.5746 -14.5143 -14.5143
   -14.4938 -14.4938 -14.4714 -14.4714 -14.4370 -14.4370 -14.4056 -14.4056
   -14.2874 -14.2874 -14.2749 -14.2749  -1.1358  -1.1358   0.5149   0.5149
     4.0350   4.0350   4.9963   4.9963   8.8435   8.8435  10.0849  10.0849
    11.3626  11.3626  12.0480  12.0480

     occupation numbers 
     1.0000   1.0000   1.0000   1.0000   1.0000   1.0000   1.0000   1.0000
     1.0000   1.0000   1.0000   1.0000   1.0000   1.0000   1.0000   1.0000
     1.0000   1.0000   1.0000   1.0000   1.0000   1.0000   1.0000   1.0000
     1.0000   1.0000   1.0000   1.0000   0.0000   0.0000   0.0000   0.0000
     0.0000   0.0000   0.0000   0.0000

          k =-0.0884-0.3536 0.5303 (  5490 PWs)   bands (ev):

   -14.7004 -14.7004 -14.6878 -14.6878 -14.5740 -14.5740 -14.5173 -14.5173
   -14.4952 -14.4952 -14.4673 -14.4673 -14.4364 -14.4364 -14.4067 -14.4067
   -14.2873 -14.2873 -14.2752 -14.2752  -1.1904  -1.1904   0.5842   0.5842
     4.0019   4.0019   5.0654   5.0654   8.8889   8.8889  10.0765  10.0765
    11.4264  11.4264  12.0092  12.0092

     occupation numbers 
     1.0000   1.0000   1.0000   1.0000   1.0000   1.0000   1.0000   1.0000
     1.0000   1.0000   1.0000   1.0000   1.0000   1.0000   1.0000   1.0000
     1.0000   1.0000   1.0000   1.0000   1.0000   1.0000   1.0000   1.0000
     1.0000   1.0000   1.0000   1.0000   0.0000   0.0000   0.0000   0.0000
     0.0000   0.0000   0.0000   0.0000

          k =-0.0442-0.3094 0.4861 (  5490 PWs)   bands (ev):

   -14.6970 -14.6970 -14.6868 -14.6868 -14.5809 -14.5809 -14.5278 -14.5278
   -14.4976 -14.4976 -14.4649 -14.4649 -14.4232 -14.4232 -14.4023 -14.4023
   -14.2885 -14.2885 -14.2793 -14.2793  -1.4342  -1.4342   0.9036   0.9036
     4.0732   4.0732   5.2079   5.2079   8.9408   8.9408   9.9609   9.9609
    10.8482  10.8482  12.2358  12.2358

     occupation numbers 
     1.0000   1.0000   1.0000   1.0000   1.0000   1.0000   1.0000   1.0000
     1.0000   1.0000   1.0000   1.0000   1.0000   1.0000   1.0000   1.0000
     1.0000   1.0000   1.0000   1.0000   1.0000   1.0000   1.0000   1.0000
     1.0000   1.0000   1.0000   1.0000   0.0000   0.0000   0.0000   0.0000
     0.0000   0.0000   0.0000   0.0000

          k = 0.0000-0.2652 0.4419 (  5490 PWs)   bands (ev):

   -14.6909 -14.6909 -14.6845 -14.6845 -14.5937 -14.5937 -14.5386 -14.5386
   -14.5051 -14.5051 -14.4588 -14.4588 -14.4084 -14.4084 -14.3916 -14.3916
   -14.2912 -14.2912 -14.2868 -14.2868  -1.7323  -1.7323   1.3229   1.3229
     4.2681   4.2681   5.3984   5.3984   8.9405   8.9405   9.6065   9.6065
    10.6717  10.6717  12.0095  12.0095

     occupation numbers 
     1.0000   1.0000   1.0000   1.0000   1.0000   1.0000   1.0000   1.0000
     1.0000   1.0000   1.0000   1.0000   1.0000   1.0000   1.0000   1.0000
     1.0000   1.0000   1.0000   1.0000   1.0000   1.0000   1.0000   1.0000
     1.0000   1.0000   1.0000   1.0000   0.0000   0.0000   0.0000   0.0000
     0.0000   0.0000   0.0000   0.0000

          k =-0.1768-0.5303 0.7071 (  5518 PWs)   bands (ev):

   -14.6892 -14.6892 -14.6874 -14.6874 -14.5974 -14.5974 -14.5190 -14.5190
   -14.4998 -14.4998 -14.4739 -14.4739 -14.4248 -14.4248 -14.3812 -14.3812
   -14.2884 -14.2884 -14.2872 -14.2872  -1.4408  -1.4408   0.9413   0.9413
     4.4386   4.4386   4.8693   4.8693   8.5851   8.5851   8.9406   8.9406
    11.3599  11.3599  12.9706  12.9706

     occupation numbers 
     1.0000   1.0000   1.0000   1.0000   1.0000   1.0000   1.0000   1.0000
     1.0000   1.0000   1.0000   1.0000   1.0000   1.0000   1.0000   1.0000
     1.0000   1.0000   1.0000   1.0000   1.0000   1.0000   1.0000   1.0000
     1.0000   1.0000   1.0000   1.0000   0.0000   0.0000   0.0000   0.0000
     0.0000   0.0000   0.0000   0.0000

          k =-0.1326-0.4861 0.6629 (  5487 PWs)   bands (ev):

   -14.6959 -14.6959 -14.6897 -14.6897 -14.5800 -14.5800 -14.5088 -14.5088
   -14.5046 -14.5046 -14.4677 -14.4677 -14.4371 -14.4371 -14.3984 -14.3984
   -14.2855 -14.2855 -14.2793 -14.2793  -1.1369  -1.1369   0.5572   0.5572
     4.2089   4.2089   4.7477   4.7477   8.7512   8.7512   9.4154   9.4154
    11.1851  11.1851  12.9237  12.9237

     occupation numbers 
     1.0000   1.0000   1.0000   1.0000   1.0000   1.0000   1.0000   1.0000
     1.0000   1.0000   1.0000   1.0000   1.0000   1.0000   1.0000   1.0000
     1.0000   1.0000   1.0000   1.0000   1.0000   1.0000   1.0000   1.0000
     1.0000   1.0000   1.0000   1.0000   0.0000   0.0000   0.0000   0.0000
     0.0000   0.0000   0.0000   0.0000

          k =-0.0884-0.4419 0.6187 (  5488 PWs)   bands (ev):

   -14.7010 -14.7010 -14.6907 -14.6907 -14.5674 -14.5674 -14.5043 -14.5043
   -14.4969 -14.4969 -14.4698 -14.4698 -14.4483 -14.4483 -14.4103 -14.4103
   -14.2841 -14.2841 -14.2739 -14.2739  -0.8989  -0.8989   0.2816   0.2816
     4.0109   4.0109   4.7382   4.7382   8.8064   8.8064  10.1424  10.1424
    11.0817  11.0817  12.3442  12.3442

     occupation numbers 
     1.0000   1.0000   1.0000   1.0000   1.0000   1.0000   1.0000   1.0000
     1.0000   1.0000   1.0000   1.0000   1.0000   1.0000   1.0000   1.0000
     1.0000   1.0000   1.0000   1.0000   1.0000   1.0000   1.0000   1.0000
     1.0000   1.0000   1.0000   1.0000   0.0000   0.0000   0.0000   0.0000
     0.0000   0.0000   0.0000   0.0000

          k =-0.0442-0.3977 0.5745 (  5496 PWs)   bands (ev):

   -14.7029 -14.7029 -14.6907 -14.6907 -14.5642 -14.5642 -14.5009 -14.5009
   -14.4884 -14.4884 -14.4778 -14.4778 -14.4527 -14.4527 -14.4132 -14.4132
   -14.2840 -14.2840 -14.2721 -14.2721  -0.9010  -0.9010   0.2865   0.2865
     3.8982   3.8982   4.8272   4.8272   8.8835   8.8835  10.6108  10.6108
    11.2979  11.2979  11.6151  11.6151

     occupation numbers 
     1.0000   1.0000   1.0000   1.0000   1.0000   1.0000   1.0000   1.0000
     1.0000   1.0000   1.0000   1.0000   1.0000   1.0000   1.0000   1.0000
     1.0000   1.0000   1.0000   1.0000   1.0000   1.0000   1.0000   1.0000
     1.0000   1.0000   1.0000   1.0000   0.0000   0.0000   0.0000   0.0000
     0.0000   0.0000   0.0000   0.0000

          k = 0.0000-0.3536 0.5303 (  5504 PWs)   bands (ev):

   -14.7014 -14.7014 -14.6895 -14.6895 -14.5693 -14.5693 -14.5130 -14.5130
   -14.4855 -14.4855 -14.4773 -14.4773 -14.4421 -14.4421 -14.4098 -14.4098
   -14.2853 -14.2853 -14.2740 -14.2740  -1.1365  -1.1365   0.5556   0.5556
     3.9106   3.9106   4.9928   4.9928   8.9618   8.9618  10.4689  10.4689
    10.9209  10.9209  12.1003  12.1003

     occupation numbers 
     1.0000   1.0000   1.0000   1.0000   1.0000   1.0000   1.0000   1.0000
     1.0000   1.0000   1.0000   1.0000   1.0000   1.0000   1.0000   1.0000
     1.0000   1.0000   1.0000   1.0000   1.0000   1.0000   1.0000   1.0000
     1.0000   1.0000   1.0000   1.0000   0.0000   0.0000   0.0000   0.0000
     0.0000   0.0000   0.0000   0.0000

          k =-0.0884-0.5303 0.7071 (  5493 PWs)   bands (ev):

   -14.6926 -14.6926 -14.6914 -14.6914 -14.5782 -14.5782 -14.5285 -14.5285
   -14.4960 -14.4960 -14.4477 -14.4477 -14.4472 -14.4472 -14.3994 -14.3994
   -14.2833 -14.2833 -14.2822 -14.2822  -0.9143  -0.9143   0.2898   0.2898
     4.3651   4.3651   4.5792   4.5792   8.5535   8.5535   8.7617   8.7617
    12.0335  12.0335  13.2593  13.2593

     occupation numbers 
     1.0000   1.0000   1.0000   1.0000   1.0000   1.0000   1.0000   1.0000
     1.0000   1.0000   1.0000   1.0000   1.0000   1.0000   1.0000   1.0000
     1.0000   1.0000   1.0000   1.0000   1.0000   1.0000   1.0000   1.0000
     1.0000   1.0000   1.0000   1.0000   0.0000   0.0000   0.0000   0.0000
     0.0000   0.0000   0.0000   0.0000

          k =-0.0442-0.4861 0.6629 (  5491 PWs)   bands (ev):

   -14.6983 -14.6983 -14.6925 -14.6925 -14.5614 -14.5614 -14.5293 -14.5293
   -14.4855 -14.4855 -14.4603 -14.4603 -14.4453 -14.4453 -14.4154 -14.4154
   -14.2819 -14.2819 -14.2762 -14.2762  -0.6306  -0.6306  -0.0104  -0.0104
     4.1550   4.1550   4.5378   4.5378   8.6987   8.6987   9.3630   9.3630
    11.8509  11.8509  12.5612  12.5612

     occupation numbers 
     1.0000   1.0000   1.0000   1.0000   1.0000   1.0000   1.0000   1.0000
     1.0000   1.0000   1.0000   1.0000   1.0000   1.0000   1.0000   1.0000
     1.0000   1.0000   1.0000   1.0000   1.0000   1.0000   1.0000   1.0000
     1.0000   1.0000   1.0000   1.0000   0.0000   0.0000   0.0000   0.0000
     0.0000   0.0000   0.0000   0.0000

          k = 0.0000-0.4419 0.6187 (  5504 PWs)   bands (ev):

   -14.7022 -14.7022 -14.6922 -14.6922 -14.5585 -14.5585 -14.5132 -14.5132
   -14.4845 -14.4845 -14.4645 -14.4645 -14.4587 -14.4587 -14.4178 -14.4178
   -14.2823 -14.2823 -14.2724 -14.2724  -0.6328  -0.6328   0.0011   0.0011
     3.9621   3.9621   4.6425   4.6425   8.7861   8.7861  10.1809  10.1809
    11.6924  11.6924  11.7037  11.7037

     occupation numbers 
     1.0000   1.0000   1.0000   1.0000   1.0000   1.0000   1.0000   1.0000
     1.0000   1.0000   1.0000   1.0000   1.0000   1.0000   1.0000   1.0000
     1.0000   1.0000   1.0000   1.0000   1.0000   1.0000   1.0000   1.0000
     1.0000   1.0000   1.0000   1.0000   0.0000   0.0000   0.0000   0.0000
     0.0000   0.0000   0.0000   0.0000

          k =-0.7071 0.1768 0.0000 (  5494 PWs)   bands (ev):

   -14.6934 -14.6934 -14.6934 -14.6934 -14.5550 -14.5550 -14.5550 -14.5550
   -14.4718 -14.4718 -14.4718 -14.4718 -14.4219 -14.4219 -14.4219 -14.4219
   -14.2809 -14.2809 -14.2809 -14.2809  -0.3333  -0.3333  -0.3332  -0.3332
     4.4108   4.4108   4.4108   4.4108   8.6167   8.6167   8.6167   8.6167
    12.7557  12.7557  12.7557  12.7557

     occupation numbers 
     1.0000   1.0000   1.0000   1.0000   1.0000   1.0000   1.0000   1.0000
     1.0000   1.0000   1.0000   1.0000   1.0000   1.0000   1.0000   1.0000
     1.0000   1.0000   1.0000   1.0000   1.0000   1.0000   1.0000   1.0000
     1.0000   1.0000   1.0000   1.0000   0.0000   0.0000   0.0000   0.0000
     0.0000   0.0000   0.0000   0.0000

          k =-0.1768-0.4419 0.7071 (  5488 PWs)   bands (ev):

   -14.6960 -14.6960 -14.6898 -14.6898 -14.5794 -14.5794 -14.5193 -14.5193
   -14.4862 -14.4862 -14.4821 -14.4821 -14.4287 -14.4287 -14.4009 -14.4009
   -14.2854 -14.2854 -14.2799 -14.2799  -1.3071  -1.3071   0.7685   0.7685
     4.1299   4.1299   4.9055   4.9055   9.3398   9.3398   9.4700   9.4700
    10.6253  10.6253  12.7000  12.7000

     occupation numbers 
     1.0000   1.0000   1.0000   1.0000   1.0000   1.0000   1.0000   1.0000
     1.0000   1.0000   1.0000   1.0000   1.0000   1.0000   1.0000   1.0000
     1.0000   1.0000   1.0000   1.0000   1.0000   1.0000   1.0000   1.0000
     1.0000   1.0000   1.0000   1.0000   0.0000   0.0000   0.0000   0.0000
     0.0000   0.0000   0.0000   0.0000

          k =-0.1326-0.3977 0.6629 (  5496 PWs)   bands (ev):

   -14.7003 -14.7003 -14.6919 -14.6919 -14.5657 -14.5657 -14.5088 -14.5088
   -14.4912 -14.4912 -14.4758 -14.4758 -14.4429 -14.4429 -14.4124 -14.4124
   -14.2830 -14.2830 -14.2748 -14.2748  -1.0235  -1.0235   0.4295   0.4295
     4.0026   4.0026   4.7501   4.7501   9.3651   9.3651   9.9630   9.9630
    10.7367  10.7367  12.2303  12.2303

     occupation numbers 
     1.0000   1.0000   1.0000   1.0000   1.0000   1.0000   1.0000   1.0000
     1.0000   1.0000   1.0000   1.0000   1.0000   1.0000   1.0000   1.0000
     1.0000   1.0000   1.0000   1.0000   1.0000   1.0000   1.0000   1.0000
     1.0000   1.0000   1.0000   1.0000   0.0000   0.0000   0.0000   0.0000
     0.0000   0.0000   0.0000   0.0000

          k =-0.0884-0.3536 0.6187 (  5492 PWs)   bands (ev):

   -14.7020 -14.7020 -14.6925 -14.6925 -14.5604 -14.5604 -14.5048 -14.5048
   -14.4891 -14.4891 -14.4766 -14.4766 -14.4495 -14.4495 -14.4166 -14.4166
   -14.2823 -14.2823 -14.2729 -14.2729  -0.8856  -0.8856   0.2719   0.2719
     3.9622   3.9622   4.6932   4.6932   9.3648   9.3648  10.0871  10.0871
    11.2595  11.2595  11.5502  11.5502

     occupation numbers 
     1.0000   1.0000   1.0000   1.0000   1.0000   1.0000   1.0000   1.0000
     1.0000   1.0000   1.0000   1.0000   1.0000   1.0000   1.0000   1.0000
     1.0000   1.0000   1.0000   1.0000   1.0000   1.0000   1.0000   1.0000
     1.0000   1.0000   1.0000   1.0000   0.0000   0.0000   0.0000   0.0000
     0.0000   0.0000   0.0000   0.0000

          k =-0.0884-0.4419 0.7071 (  5488 PWs)   bands (ev):

   -14.6983 -14.6983 -14.6946 -14.6946 -14.5609 -14.5609 -14.5132 -14.5132
   -14.4974 -14.4974 -14.4584 -14.4584 -14.4511 -14.4511 -14.4160 -14.4160
   -14.2801 -14.2801 -14.2765 -14.2765  -0.8309  -0.8309   0.2195   0.2195
     4.1202   4.1202   4.5117   4.5117   9.4114   9.4114   9.4544   9.4544
    11.0057  11.0057  12.3987  12.3987

     occupation numbers 
     1.0000   1.0000   1.0000   1.0000   1.0000   1.0000   1.0000   1.0000
     1.0000   1.0000   1.0000   1.0000   1.0000   1.0000   1.0000   1.0000
     1.0000   1.0000   1.0000   1.0000   1.0000   1.0000   1.0000   1.0000
     1.0000   1.0000   1.0000   1.0000   0.0000   0.0000   0.0000   0.0000
     0.0000   0.0000   0.0000   0.0000

          k =-0.0442-0.3977 0.6629 (  5487 PWs)   bands (ev):

   -14.7011 -14.7011 -14.6959 -14.6959 -14.5484 -14.5484 -14.5148 -14.5148
   -14.4883 -14.4883 -14.4642 -14.4642 -14.4549 -14.4549 -14.4264 -14.4264
   -14.2787 -14.2787 -14.2735 -14.2735  -0.6110  -0.6110  -0.0098  -0.0098
     4.0386   4.0386   4.4314   4.4314   9.4916   9.4916  10.1628  10.1628
    10.9252  10.9252  11.5410  11.5410

     occupation numbers 
     1.0000   1.0000   1.0000   1.0000   1.0000   1.0000   1.0000   1.0000
     1.0000   1.0000   1.0000   1.0000   1.0000   1.0000   1.0000   1.0000
     1.0000   1.0000   1.0000   1.0000   1.0000   1.0000   1.0000   1.0000
     1.0000   1.0000   1.0000   1.0000   0.0000   0.0000   0.0000   0.0000
     0.0000   0.0000   0.0000   0.0000

          k =-0.0000-0.3536 0.6187 (  5497 PWs)   bands (ev):

   -14.7019 -14.7019 -14.6949 -14.6949 -14.5522 -14.5522 -14.5046 -14.5046
   -14.4947 -14.4947 -14.4636 -14.4636 -14.4590 -14.4590 -14.4230 -14.4230
   -14.2797 -14.2797 -14.2728 -14.2728  -0.7329  -0.7329   0.1202   0.1202
     3.9733   3.9733   4.5354   4.5354   9.5425   9.5425  10.3440  10.3440
    10.8144  10.8144  11.4452  11.4452

     occupation numbers 
     1.0000   1.0000   1.0000   1.0000   1.0000   1.0000   1.0000   1.0000
     1.0000   1.0000   1.0000   1.0000   1.0000   1.0000   1.0000   1.0000
     1.0000   1.0000   1.0000   1.0000   1.0000   1.0000   1.0000   1.0000
     1.0000   1.0000   1.0000   1.0000   0.0000   0.0000   0.0000   0.0000
     0.0000   0.0000   0.0000   0.0000

          k =-0.7071 0.2652 0.0000 (  5490 PWs)   bands (ev):

   -14.6978 -14.6978 -14.6978 -14.6978 -14.5385 -14.5385 -14.5385 -14.5385
   -14.4744 -14.4744 -14.4743 -14.4743 -14.4358 -14.4358 -14.4357 -14.4357
   -14.2767 -14.2767 -14.2767 -14.2767  -0.3174  -0.3174  -0.3174  -0.3174
     4.2468   4.2468   4.2468   4.2468   9.4224   9.4224   9.4224   9.4224
    11.6748  11.6748  11.6748  11.6748

     occupation numbers 
     1.0000   1.0000   1.0000   1.0000   1.0000   1.0000   1.0000   1.0000
     1.0000   1.0000   1.0000   1.0000   1.0000   1.0000   1.0000   1.0000
     1.0000   1.0000   1.0000   1.0000   1.0000   1.0000   1.0000   1.0000
     1.0000   1.0000   1.0000   1.0000   0.0000   0.0000   0.0000   0.0000
     0.0000   0.0000   0.0000   0.0000

          k =-0.7071 0.3536 0.0000 (  5520 PWs)   bands (ev):

   -14.6995 -14.6995 -14.6995 -14.6995 -14.5302 -14.5302 -14.5302 -14.5302
   -14.4767 -14.4767 -14.4766 -14.4766 -14.4418 -14.4418 -14.4418 -14.4418
   -14.2750 -14.2750 -14.2750 -14.2750  -0.3107  -0.3107  -0.3107  -0.3107
     4.1845   4.1845   4.1845   4.1845  10.0883  10.0883  10.0883  10.0883
    10.9122  10.9122  10.9122  10.9122

     occupation numbers 
     1.0000   1.0000   1.0000   1.0000   1.0000   1.0000   1.0000   1.0000
     1.0000   1.0000   1.0000   1.0000   1.0000   1.0000   1.0000   1.0000
     1.0000   1.0000   1.0000   1.0000   1.0000   1.0000   1.0000   1.0000
     1.0000   1.0000   1.0000   1.0000   0.0000   0.0000   0.0000   0.0000
     0.0000   0.0000   0.0000   0.0000

     the Fermi energy is     6.9107 ev

!    total energy              =    -326.06303628 Ry
     Harris-Foulkes estimate   =    -326.06303615 Ry
     estimated scf accuracy    <       0.00000011 Ry

     The total energy is the sum of the following terms:

     one-electron contribution =    -157.90737589 Ry
     hartree contribution      =      95.60014165 Ry
     xc contribution           =     -96.22600656 Ry
     ewald contribution        =    -167.52979533 Ry
     smearing contrib. (-TS)   =      -0.00000015 Ry

     convergence has been achieved in   5 iterations

     Writing output data file Sn.save
 
     init_run     :     11.28s CPU     14.13s WALL (       1 calls)
     electrons    :    222.48s CPU    239.76s WALL (       1 calls)

     Called by init_run:
     wfcinit      :     10.98s CPU     12.20s WALL (       1 calls)
     potinit      :      0.03s CPU      0.08s WALL (       1 calls)

     Called by electrons:
     c_bands      :    188.25s CPU    203.08s WALL (       6 calls)
     sum_band     :     34.05s CPU     36.41s WALL (       6 calls)
     v_of_rho     :      0.07s CPU      0.10s WALL (       6 calls)
     v_h          :      0.00s CPU      0.01s WALL (       6 calls)
     v_xc         :      0.07s CPU      0.08s WALL (       6 calls)
     newd         :      0.08s CPU      0.15s WALL (       6 calls)
     mix_rho      :      0.02s CPU      0.04s WALL (       6 calls)

     Called by c_bands:
     init_us_2    :      0.32s CPU      0.39s WALL (    1885 calls)
     cegterg      :    185.08s CPU    199.61s WALL (     870 calls)

     Called by sum_band:
     sum_band:bec :      0.12s CPU      0.13s WALL (     870 calls)
     addusdens    :      0.11s CPU      0.14s WALL (       6 calls)

     Called by *egterg:
     h_psi        :    161.90s CPU    173.99s WALL (    3103 calls)
     s_psi        :      2.20s CPU      2.23s WALL (    3103 calls)
     g_psi        :      0.45s CPU      0.46s WALL (    2088 calls)
     cdiaghg      :     11.54s CPU     12.03s WALL (    2813 calls)
     cegterg:over :      7.67s CPU      7.71s WALL (    2088 calls)
     cegterg:upda :      3.72s CPU      3.74s WALL (    2088 calls)
     cegterg:last :      2.08s CPU      2.08s WALL (     870 calls)

     Called by h_psi:
     h_psi:vloc   :    155.36s CPU    167.22s WALL (    3103 calls)
     h_psi:vnl    :      6.12s CPU      6.32s WALL (    3103 calls)
     add_vuspsi   :      2.31s CPU      2.33s WALL (    3103 calls)

     General routines
     calbec       :      5.03s CPU      5.24s WALL (    3973 calls)
     fft          :      0.11s CPU      0.69s WALL (     116 calls)
     fftw         :    176.22s CPU    189.58s WALL (  393508 calls)
     davcio       :      0.03s CPU      0.83s WALL (     145 calls)
 
     Parallel routines
     fft_scatter  :    113.94s CPU    122.75s WALL (  393624 calls)
 
     PWSCF        :  3m54.54s CPU     4m16.65s WALL

 
   This run was terminated on:  22:58:56  16Mar2020            

=------------------------------------------------------------------------------=
   JOB DONE.
=------------------------------------------------------------------------------=
