
     Program PWSCF v.5.4.0 starts on 21Feb2020 at  0:53:24 

     This program is part of the open-source Quantum ESPRESSO suite
     for quantum simulation of materials; please cite
         "P. Giannozzi et al., J. Phys.:Condens. Matter 21 395502 (2009);
          URL http://www.quantum-espresso.org", 
     in publications or presentations arising from this work. More details at
     http://www.quantum-espresso.org/quote

     Parallel version (MPI & OpenMP), running on      16 processor cores
     Number of MPI processes:                16
     Threads/MPI process:                     1
     R & G space division:  proc/nbgrp/npool/nimage =      16
     Waiting for input...
     Reading input from standard input
Warning: card &IONS ignored
Warning: card / ignored
Warning: card &CELL ignored
Warning: card / ignored

     Current dimensions of program PWSCF are:
     Max number of different atomic species (ntypx) = 10
     Max number of k-points (npk) =  40000
     Max angular momentum in pseudopotentials (lmaxx) =  3

     Subspace diagonalization in iterative solution of the eigenvalue problem:
     a serial algorithm will be used

 
     Parallelization info
     --------------------
     sticks:   dense  smooth     PW     G-vecs:    dense   smooth      PW
     Min          80      80     23                 1931     1931     312
     Max          81      81     24                 1936     1936     316
     Sum        1285    1285    379                30923    30923    5029
 

     Title: 
     Sn                                                                         


     bravais-lattice index     =            0
     lattice parameter (alat)  =       8.8993  a.u.
     unit-cell volume          =     498.3785 (a.u.)^3
     number of atoms/cell      =            2
     number of atomic types    =            1
     number of electrons       =        28.00
     number of Kohn-Sham states=           18
     kinetic-energy cutoff     =      60.0000  Ry
     charge density cutoff     =     240.0000  Ry
     convergence threshold     =      1.0E-06
     mixing beta               =       0.7000
     number of iterations used =            8  plain     mixing
     Exchange-correlation      = PBE ( 1  4  3  4 0 0)

     celldm(1)=   8.899346  celldm(2)=   0.000000  celldm(3)=   0.000000
     celldm(4)=   0.000000  celldm(5)=   0.000000  celldm(6)=   0.000000

     crystal axes: (cart. coord. in units of alat)
               a(1) = (   0.000000   0.707107   0.707107 )  
               a(2) = (   0.707107   0.000000   0.707107 )  
               a(3) = (   0.707107   0.707107   0.000000 )  

     reciprocal axes: (cart. coord. in units 2 pi/alat)
               b(1) = ( -0.707107  0.707107  0.707107 )  
               b(2) = (  0.707107 -0.707107  0.707107 )  
               b(3) = (  0.707107  0.707107 -0.707107 )  


     PseudoPot. # 1 for Sn read from file:
     ../PseudopotentialDatabase/Sn_ONCV_PBE-1.1.upf
     MD5 check sum: 7fc728ef37b8342e916bba54f6049344
     Pseudo is Norm-conserving, Zval = 14.0
     Generated using ONCVPSP code by D. R. Hamann
     Using radial grid of  602 points,  6 beta functions with: 
                l(1) =   0
                l(2) =   0
                l(3) =   1
                l(4) =   1
                l(5) =   2
                l(6) =   2

     atomic species   valence    mass     pseudopotential
        Sn            14.00   118.71000     Sn( 1.00)

     24 Sym. Ops. (no inversion) found
          (note: 24 additional sym.ops. were found but ignored
           their fractional translations are incommensurate with FFT grid)

                                    s                        frac. trans.

      isym =  1     identity                                     

 cryst.   s( 1) = (     1          0          0      )
                  (     0          1          0      )
                  (     0          0          1      )

 cart.    s( 1) = (  1.0000000  0.0000000  0.0000000 )
                  (  0.0000000  1.0000000  0.0000000 )
                  (  0.0000000  0.0000000  1.0000000 )


      isym =  2     180 deg rotation - cart. axis [0,0,1]        

 cryst.   s( 2) = (     0          1         -1      )
                  (     1          0         -1      )
                  (     0          0         -1      )

 cart.    s( 2) = ( -1.0000000  0.0000000  0.0000000 )
                  (  0.0000000 -1.0000000  0.0000000 )
                  (  0.0000000  0.0000000  1.0000000 )


      isym =  3     180 deg rotation - cart. axis [0,1,0]        

 cryst.   s( 3) = (     0         -1          1      )
                  (     0         -1          0      )
                  (     1         -1          0      )

 cart.    s( 3) = ( -1.0000000  0.0000000  0.0000000 )
                  (  0.0000000  1.0000000  0.0000000 )
                  (  0.0000000  0.0000000 -1.0000000 )


      isym =  4     180 deg rotation - cart. axis [1,0,0]        

 cryst.   s( 4) = (    -1          0          0      )
                  (    -1          0          1      )
                  (    -1          1          0      )

 cart.    s( 4) = (  1.0000000  0.0000000  0.0000000 )
                  (  0.0000000 -1.0000000  0.0000000 )
                  (  0.0000000  0.0000000 -1.0000000 )


      isym =  5     120 deg rotation - cart. axis [-1,-1,-1]     

 cryst.   s( 5) = (     0          0          1      )
                  (     1          0          0      )
                  (     0          1          0      )

 cart.    s( 5) = (  0.0000000  1.0000000  0.0000000 )
                  (  0.0000000  0.0000000  1.0000000 )
                  (  1.0000000  0.0000000  0.0000000 )


      isym =  6     120 deg rotation - cart. axis [-1,1,1]       

 cryst.   s( 6) = (     1         -1          0      )
                  (     0         -1          1      )
                  (     0         -1          0      )

 cart.    s( 6) = (  0.0000000 -1.0000000  0.0000000 )
                  (  0.0000000  0.0000000  1.0000000 )
                  ( -1.0000000  0.0000000  0.0000000 )


      isym =  7     120 deg rotation - cart. axis [1,1,-1]       

 cryst.   s( 7) = (    -1          1          0      )
                  (    -1          0          0      )
                  (    -1          0          1      )

 cart.    s( 7) = (  0.0000000  1.0000000  0.0000000 )
                  (  0.0000000  0.0000000 -1.0000000 )
                  ( -1.0000000  0.0000000  0.0000000 )


      isym =  8     120 deg rotation - cart. axis [1,-1,1]       

 cryst.   s( 8) = (     0          0         -1      )
                  (     0          1         -1      )
                  (     1          0         -1      )

 cart.    s( 8) = (  0.0000000 -1.0000000  0.0000000 )
                  (  0.0000000  0.0000000 -1.0000000 )
                  (  1.0000000  0.0000000  0.0000000 )


      isym =  9     120 deg rotation - cart. axis [1,1,1]        

 cryst.   s( 9) = (     0          1          0      )
                  (     0          0          1      )
                  (     1          0          0      )

 cart.    s( 9) = (  0.0000000  0.0000000  1.0000000 )
                  (  1.0000000  0.0000000  0.0000000 )
                  (  0.0000000  1.0000000  0.0000000 )


      isym = 10     120 deg rotation - cart. axis [-1,1,-1]      

 cryst.   s(10) = (    -1          0          1      )
                  (    -1          1          0      )
                  (    -1          0          0      )

 cart.    s(10) = (  0.0000000  0.0000000  1.0000000 )
                  ( -1.0000000  0.0000000  0.0000000 )
                  (  0.0000000 -1.0000000  0.0000000 )


      isym = 11     120 deg rotation - cart. axis [1,-1,-1]      

 cryst.   s(11) = (     1          0         -1      )
                  (     0          0         -1      )
                  (     0          1         -1      )

 cart.    s(11) = (  0.0000000  0.0000000 -1.0000000 )
                  ( -1.0000000  0.0000000  0.0000000 )
                  (  0.0000000  1.0000000  0.0000000 )


      isym = 12     120 deg rotation - cart. axis [-1,-1,1]      

 cryst.   s(12) = (     0         -1          0      )
                  (     1         -1          0      )
                  (     0         -1          1      )

 cart.    s(12) = (  0.0000000  0.0000000 -1.0000000 )
                  (  1.0000000  0.0000000  0.0000000 )
                  (  0.0000000 -1.0000000  0.0000000 )


      isym = 13     inv. 180 deg rotation - cart. axis [1,1,0]   

 cryst.   s(13) = (     1          0         -1      )
                  (     0          1         -1      )
                  (     0          0         -1      )

 cart.    s(13) = (  0.0000000 -1.0000000  0.0000000 )
                  ( -1.0000000  0.0000000  0.0000000 )
                  (  0.0000000  0.0000000  1.0000000 )


      isym = 14     inv. 180 deg rotation - cart. axis [1,-1,0]  

 cryst.   s(14) = (     0          1          0      )
                  (     1          0          0      )
                  (     0          0          1      )

 cart.    s(14) = (  0.0000000  1.0000000  0.0000000 )
                  (  1.0000000  0.0000000  0.0000000 )
                  (  0.0000000  0.0000000  1.0000000 )


      isym = 15     inv.  90 deg rotation - cart. axis [0,0,-1]  

 cryst.   s(15) = (     0         -1          0      )
                  (     0         -1          1      )
                  (     1         -1          0      )

 cart.    s(15) = (  0.0000000 -1.0000000  0.0000000 )
                  (  1.0000000  0.0000000  0.0000000 )
                  (  0.0000000  0.0000000 -1.0000000 )


      isym = 16     inv.  90 deg rotation - cart. axis [0,0,1]   

 cryst.   s(16) = (    -1          0          1      )
                  (    -1          0          0      )
                  (    -1          1          0      )

 cart.    s(16) = (  0.0000000  1.0000000  0.0000000 )
                  ( -1.0000000  0.0000000  0.0000000 )
                  (  0.0000000  0.0000000 -1.0000000 )


      isym = 17     inv. 180 deg rotation - cart. axis [1,0,1]   

 cryst.   s(17) = (     1         -1          0      )
                  (     0         -1          0      )
                  (     0         -1          1      )

 cart.    s(17) = (  0.0000000  0.0000000 -1.0000000 )
                  (  0.0000000  1.0000000  0.0000000 )
                  ( -1.0000000  0.0000000  0.0000000 )


      isym = 18     inv. 180 deg rotation - cart. axis [-1,0,1]  

 cryst.   s(18) = (     0          0          1      )
                  (     0          1          0      )
                  (     1          0          0      )

 cart.    s(18) = (  0.0000000  0.0000000  1.0000000 )
                  (  0.0000000  1.0000000  0.0000000 )
                  (  1.0000000  0.0000000  0.0000000 )


      isym = 19     inv.  90 deg rotation - cart. axis [0,1,0]   

 cryst.   s(19) = (     0          0         -1      )
                  (     1          0         -1      )
                  (     0          1         -1      )

 cart.    s(19) = (  0.0000000  0.0000000 -1.0000000 )
                  (  0.0000000 -1.0000000  0.0000000 )
                  (  1.0000000  0.0000000  0.0000000 )


      isym = 20     inv.  90 deg rotation - cart. axis [0,-1,0]  

 cryst.   s(20) = (    -1          1          0      )
                  (    -1          0          1      )
                  (    -1          0          0      )

 cart.    s(20) = (  0.0000000  0.0000000  1.0000000 )
                  (  0.0000000 -1.0000000  0.0000000 )
                  ( -1.0000000  0.0000000  0.0000000 )


      isym = 21     inv. 180 deg rotation - cart. axis [0,1,1]   

 cryst.   s(21) = (    -1          0          0      )
                  (    -1          1          0      )
                  (    -1          0          1      )

 cart.    s(21) = (  1.0000000  0.0000000  0.0000000 )
                  (  0.0000000  0.0000000 -1.0000000 )
                  (  0.0000000 -1.0000000  0.0000000 )


      isym = 22     inv. 180 deg rotation - cart. axis [0,1,-1]  

 cryst.   s(22) = (     1          0          0      )
                  (     0          0          1      )
                  (     0          1          0      )

 cart.    s(22) = (  1.0000000  0.0000000  0.0000000 )
                  (  0.0000000  0.0000000  1.0000000 )
                  (  0.0000000  1.0000000  0.0000000 )


      isym = 23     inv.  90 deg rotation - cart. axis [-1,0,0]  

 cryst.   s(23) = (     0          1         -1      )
                  (     0          0         -1      )
                  (     1          0         -1      )

 cart.    s(23) = ( -1.0000000  0.0000000  0.0000000 )
                  (  0.0000000  0.0000000 -1.0000000 )
                  (  0.0000000  1.0000000  0.0000000 )


      isym = 24     inv.  90 deg rotation - cart. axis [1,0,0]   

 cryst.   s(24) = (     0         -1          1      )
                  (     1         -1          0      )
                  (     0         -1          0      )

 cart.    s(24) = ( -1.0000000  0.0000000  0.0000000 )
                  (  0.0000000  0.0000000  1.0000000 )
                  (  0.0000000 -1.0000000  0.0000000 )


   Cartesian axes

     site n.     atom                  positions (alat units)
         1           Sn  tau(   1) = (   0.0000000   0.0000000   0.0000000  )
         2           Sn  tau(   2) = (   0.3535534   0.3535534   0.3535534  )

   Crystallographic axes

     site n.     atom                  positions (cryst. coord.)
         1           Sn  tau(   1) = (  0.0000000  0.0000000  0.0000000  )
         2           Sn  tau(   2) = (  0.2500000  0.2500000  0.2500000  )

     number of k points=   120  gaussian smearing, width (Ry)=  0.0100
                       cart. coord. in units 2pi/alat
        k(    1) = (   0.0000000   0.0000000   0.0000000), wk =   0.0005926
        k(    2) = (   0.0471405   0.0471405  -0.0471405), wk =   0.0047407
        k(    3) = (   0.0942809   0.0942809  -0.0942809), wk =   0.0047407
        k(    4) = (   0.1414214   0.1414214  -0.1414214), wk =   0.0047407
        k(    5) = (   0.1885618   0.1885618  -0.1885618), wk =   0.0047407
        k(    6) = (   0.2357023   0.2357023  -0.2357023), wk =   0.0047407
        k(    7) = (   0.2828427   0.2828427  -0.2828427), wk =   0.0047407
        k(    8) = (   0.3299832   0.3299832  -0.3299832), wk =   0.0047407
        k(    9) = (   0.0942809   0.0000000   0.0000000), wk =   0.0035556
        k(   10) = (   0.1414214   0.0471405  -0.0471405), wk =   0.0142222
        k(   11) = (   0.1885618   0.0942809  -0.0942809), wk =   0.0142222
        k(   12) = (   0.2357023   0.1414214  -0.1414214), wk =   0.0142222
        k(   13) = (   0.2828427   0.1885618  -0.1885618), wk =   0.0142222
        k(   14) = (   0.3299832   0.2357023  -0.2357023), wk =   0.0142222
        k(   15) = (   0.3771236   0.2828427  -0.2828427), wk =   0.0142222
        k(   16) = (  -0.2828427  -0.3771236   0.3771236), wk =   0.0142222
        k(   17) = (  -0.2357023  -0.3299832   0.3299832), wk =   0.0142222
        k(   18) = (  -0.1885618  -0.2828427   0.2828427), wk =   0.0142222
        k(   19) = (  -0.1414214  -0.2357023   0.2357023), wk =   0.0142222
        k(   20) = (  -0.0942809  -0.1885618   0.1885618), wk =   0.0142222
        k(   21) = (  -0.0471405  -0.1414214   0.1414214), wk =   0.0142222
        k(   22) = (   0.0000000  -0.0942809   0.0942809), wk =   0.0071111
        k(   23) = (   0.1885618   0.0000000   0.0000000), wk =   0.0035556
        k(   24) = (   0.2357023   0.0471405  -0.0471405), wk =   0.0142222
        k(   25) = (   0.2828427   0.0942809  -0.0942809), wk =   0.0142222
        k(   26) = (   0.3299832   0.1414214  -0.1414214), wk =   0.0142222
        k(   27) = (   0.3771236   0.1885618  -0.1885618), wk =   0.0142222
        k(   28) = (   0.4242641   0.2357023  -0.2357023), wk =   0.0142222
        k(   29) = (  -0.2357023  -0.4242641   0.4242641), wk =   0.0142222
        k(   30) = (  -0.1885618  -0.3771236   0.3771236), wk =   0.0142222
        k(   31) = (  -0.1414214  -0.3299832   0.3299832), wk =   0.0142222
        k(   32) = (  -0.0942809  -0.2828427   0.2828427), wk =   0.0142222
        k(   33) = (  -0.0471405  -0.2357023   0.2357023), wk =   0.0142222
        k(   34) = (   0.0000000  -0.1885618   0.1885618), wk =   0.0071111
        k(   35) = (   0.2828427   0.0000000   0.0000000), wk =   0.0035556
        k(   36) = (   0.3299832   0.0471405  -0.0471405), wk =   0.0142222
        k(   37) = (   0.3771236   0.0942809  -0.0942809), wk =   0.0142222
        k(   38) = (   0.4242641   0.1414214  -0.1414214), wk =   0.0142222
        k(   39) = (   0.4714045   0.1885618  -0.1885618), wk =   0.0142222
        k(   40) = (  -0.1885618  -0.4714045   0.4714045), wk =   0.0142222
        k(   41) = (  -0.1414214  -0.4242641   0.4242641), wk =   0.0142222
        k(   42) = (  -0.0942809  -0.3771236   0.3771236), wk =   0.0142222
        k(   43) = (  -0.0471405  -0.3299832   0.3299832), wk =   0.0142222
        k(   44) = (   0.0000000  -0.2828427   0.2828427), wk =   0.0071111
        k(   45) = (   0.3771236   0.0000000   0.0000000), wk =   0.0035556
        k(   46) = (   0.4242641   0.0471405  -0.0471405), wk =   0.0142222
        k(   47) = (   0.4714045   0.0942809  -0.0942809), wk =   0.0142222
        k(   48) = (   0.5185450   0.1414214  -0.1414214), wk =   0.0142222
        k(   49) = (  -0.1414214  -0.5185450   0.5185450), wk =   0.0142222
        k(   50) = (  -0.0942809  -0.4714045   0.4714045), wk =   0.0142222
        k(   51) = (  -0.0471405  -0.4242641   0.4242641), wk =   0.0142222
        k(   52) = (  -0.0000000  -0.3771236   0.3771236), wk =   0.0071111
        k(   53) = (   0.4714045   0.0000000   0.0000000), wk =   0.0035556
        k(   54) = (   0.5185450   0.0471405  -0.0471405), wk =   0.0142222
        k(   55) = (   0.5656854   0.0942809  -0.0942809), wk =   0.0142222
        k(   56) = (  -0.0942809  -0.5656854   0.5656854), wk =   0.0142222
        k(   57) = (  -0.0471405  -0.5185450   0.5185450), wk =   0.0142222
        k(   58) = (  -0.0000000  -0.4714045   0.4714045), wk =   0.0071111
        k(   59) = (   0.5656854   0.0000000   0.0000000), wk =   0.0035556
        k(   60) = (   0.6128259   0.0471405  -0.0471405), wk =   0.0142222
        k(   61) = (  -0.0471405  -0.6128259   0.6128259), wk =   0.0142222
        k(   62) = (   0.0000000  -0.5656854   0.5656854), wk =   0.0071111
        k(   63) = (   0.6599663   0.0000000   0.0000000), wk =   0.0035556
        k(   64) = (   0.0000000  -0.6599663   0.6599663), wk =   0.0071111
        k(   65) = (   0.1885618   0.0942809  -0.0000000), wk =   0.0142222
        k(   66) = (   0.2357023   0.1414214  -0.0471405), wk =   0.0284444
        k(   67) = (   0.2828427   0.1885618  -0.0942809), wk =   0.0284444
        k(   68) = (   0.3299832   0.2357023  -0.1414214), wk =   0.0284444
        k(   69) = (   0.3771236   0.2828427  -0.1885618), wk =   0.0284444
        k(   70) = (  -0.2828427  -0.3771236   0.4714045), wk =   0.0284444
        k(   71) = (   0.2828427   0.0942809   0.0000000), wk =   0.0142222
        k(   72) = (   0.3299832   0.1414214  -0.0471405), wk =   0.0284444
        k(   73) = (   0.3771236   0.1885618  -0.0942809), wk =   0.0284444
        k(   74) = (   0.4242641   0.2357023  -0.1414214), wk =   0.0284444
        k(   75) = (  -0.2357023  -0.4242641   0.5185450), wk =   0.0284444
        k(   76) = (  -0.1885618  -0.3771236   0.4714045), wk =   0.0284444
        k(   77) = (  -0.1414214  -0.3299832   0.4242641), wk =   0.0284444
        k(   78) = (  -0.0942809  -0.2828427   0.3771236), wk =   0.0284444
        k(   79) = (  -0.0471405  -0.2357023   0.3299832), wk =   0.0284444
        k(   80) = (   0.0000000  -0.1885618   0.2828427), wk =   0.0142222
        k(   81) = (   0.3771236   0.0942809   0.0000000), wk =   0.0142222
        k(   82) = (   0.4242641   0.1414214  -0.0471405), wk =   0.0284444
        k(   83) = (   0.4714045   0.1885618  -0.0942809), wk =   0.0284444
        k(   84) = (  -0.1885618  -0.4714045   0.5656854), wk =   0.0284444
        k(   85) = (  -0.1414214  -0.4242641   0.5185450), wk =   0.0284444
        k(   86) = (  -0.0942809  -0.3771236   0.4714045), wk =   0.0284444
        k(   87) = (  -0.0471405  -0.3299832   0.4242641), wk =   0.0284444
        k(   88) = (   0.0000000  -0.2828427   0.3771236), wk =   0.0142222
        k(   89) = (   0.4714045   0.0942809  -0.0000000), wk =   0.0142222
        k(   90) = (   0.5185450   0.1414214  -0.0471405), wk =   0.0284444
        k(   91) = (  -0.1414214  -0.5185450   0.6128259), wk =   0.0284444
        k(   92) = (  -0.0942809  -0.4714045   0.5656854), wk =   0.0284444
        k(   93) = (  -0.0471405  -0.4242641   0.5185450), wk =   0.0284444
        k(   94) = (  -0.0000000  -0.3771236   0.4714045), wk =   0.0142222
        k(   95) = (   0.5656854   0.0942809   0.0000000), wk =   0.0142222
        k(   96) = (  -0.0942809  -0.5656854   0.6599663), wk =   0.0284444
        k(   97) = (  -0.0471405  -0.5185450   0.6128259), wk =   0.0284444
        k(   98) = (   0.0000000  -0.4714045   0.5656854), wk =   0.0142222
        k(   99) = (  -0.0471405  -0.6128259   0.7071068), wk =   0.0142222
        k(  100) = (   0.0000000  -0.5656854   0.6599663), wk =   0.0142222
        k(  101) = (   0.3771236   0.1885618  -0.0000000), wk =   0.0142222
        k(  102) = (   0.4242641   0.2357023  -0.0471405), wk =   0.0284444
        k(  103) = (  -0.2357023  -0.4242641   0.6128259), wk =   0.0284444
        k(  104) = (  -0.1885618  -0.3771236   0.5656854), wk =   0.0284444
        k(  105) = (   0.4714045   0.1885618  -0.0000000), wk =   0.0142222
        k(  106) = (  -0.1885618  -0.4714045   0.6599663), wk =   0.0284444
        k(  107) = (  -0.1414214  -0.4242641   0.6128259), wk =   0.0284444
        k(  108) = (  -0.0942809  -0.3771236   0.5656854), wk =   0.0284444
        k(  109) = (  -0.0471405  -0.3299832   0.5185450), wk =   0.0284444
        k(  110) = (   0.0000000  -0.2828427   0.4714045), wk =   0.0142222
        k(  111) = (  -0.1414214  -0.5185450   0.7071068), wk =   0.0142222
        k(  112) = (  -0.0942809  -0.4714045   0.6599663), wk =   0.0284444
        k(  113) = (  -0.0471405  -0.4242641   0.6128259), wk =   0.0284444
        k(  114) = (   0.0000000  -0.3771236   0.5656854), wk =   0.0142222
        k(  115) = (  -0.0471405  -0.5185450   0.7071068), wk =   0.0142222
        k(  116) = (   0.0000000  -0.4714045   0.6599663), wk =   0.0142222
        k(  117) = (  -0.1414214  -0.4242641   0.7071068), wk =   0.0142222
        k(  118) = (  -0.0942809  -0.3771236   0.6599663), wk =   0.0284444
        k(  119) = (  -0.0471405  -0.4242641   0.7071068), wk =   0.0142222
        k(  120) = (  -0.0000000  -0.3771236   0.6599663), wk =   0.0142222

                       cryst. coord.
        k(    1) = (   0.0000000   0.0000000   0.0000000), wk =   0.0005926
        k(    2) = (   0.0000000   0.0000000   0.0666667), wk =   0.0047407
        k(    3) = (   0.0000000   0.0000000   0.1333333), wk =   0.0047407
        k(    4) = (   0.0000000   0.0000000   0.2000000), wk =   0.0047407
        k(    5) = (   0.0000000   0.0000000   0.2666667), wk =   0.0047407
        k(    6) = (   0.0000000   0.0000000   0.3333333), wk =   0.0047407
        k(    7) = (   0.0000000   0.0000000   0.4000000), wk =   0.0047407
        k(    8) = (   0.0000000   0.0000000   0.4666667), wk =   0.0047407
        k(    9) = (   0.0000000   0.0666667   0.0666667), wk =   0.0035556
        k(   10) = (   0.0000000   0.0666667   0.1333333), wk =   0.0142222
        k(   11) = (   0.0000000   0.0666667   0.2000000), wk =   0.0142222
        k(   12) = (   0.0000000   0.0666667   0.2666667), wk =   0.0142222
        k(   13) = (   0.0000000   0.0666667   0.3333333), wk =   0.0142222
        k(   14) = (   0.0000000   0.0666667   0.4000000), wk =   0.0142222
        k(   15) = (   0.0000000   0.0666667   0.4666667), wk =   0.0142222
        k(   16) = (   0.0000000   0.0666667  -0.4666667), wk =   0.0142222
        k(   17) = (   0.0000000   0.0666667  -0.4000000), wk =   0.0142222
        k(   18) = (   0.0000000   0.0666667  -0.3333333), wk =   0.0142222
        k(   19) = (   0.0000000   0.0666667  -0.2666667), wk =   0.0142222
        k(   20) = (   0.0000000   0.0666667  -0.2000000), wk =   0.0142222
        k(   21) = (   0.0000000   0.0666667  -0.1333333), wk =   0.0142222
        k(   22) = (   0.0000000   0.0666667  -0.0666667), wk =   0.0071111
        k(   23) = (   0.0000000   0.1333333   0.1333333), wk =   0.0035556
        k(   24) = (   0.0000000   0.1333333   0.2000000), wk =   0.0142222
        k(   25) = (   0.0000000   0.1333333   0.2666667), wk =   0.0142222
        k(   26) = (   0.0000000   0.1333333   0.3333333), wk =   0.0142222
        k(   27) = (   0.0000000   0.1333333   0.4000000), wk =   0.0142222
        k(   28) = (   0.0000000   0.1333333   0.4666667), wk =   0.0142222
        k(   29) = (   0.0000000   0.1333333  -0.4666667), wk =   0.0142222
        k(   30) = (   0.0000000   0.1333333  -0.4000000), wk =   0.0142222
        k(   31) = (   0.0000000   0.1333333  -0.3333333), wk =   0.0142222
        k(   32) = (   0.0000000   0.1333333  -0.2666667), wk =   0.0142222
        k(   33) = (   0.0000000   0.1333333  -0.2000000), wk =   0.0142222
        k(   34) = (   0.0000000   0.1333333  -0.1333333), wk =   0.0071111
        k(   35) = (   0.0000000   0.2000000   0.2000000), wk =   0.0035556
        k(   36) = (   0.0000000   0.2000000   0.2666667), wk =   0.0142222
        k(   37) = (   0.0000000   0.2000000   0.3333333), wk =   0.0142222
        k(   38) = (   0.0000000   0.2000000   0.4000000), wk =   0.0142222
        k(   39) = (   0.0000000   0.2000000   0.4666667), wk =   0.0142222
        k(   40) = (   0.0000000   0.2000000  -0.4666667), wk =   0.0142222
        k(   41) = (   0.0000000   0.2000000  -0.4000000), wk =   0.0142222
        k(   42) = (   0.0000000   0.2000000  -0.3333333), wk =   0.0142222
        k(   43) = (   0.0000000   0.2000000  -0.2666667), wk =   0.0142222
        k(   44) = (   0.0000000   0.2000000  -0.2000000), wk =   0.0071111
        k(   45) = (   0.0000000   0.2666667   0.2666667), wk =   0.0035556
        k(   46) = (   0.0000000   0.2666667   0.3333333), wk =   0.0142222
        k(   47) = (   0.0000000   0.2666667   0.4000000), wk =   0.0142222
        k(   48) = (   0.0000000   0.2666667   0.4666667), wk =   0.0142222
        k(   49) = (   0.0000000   0.2666667  -0.4666667), wk =   0.0142222
        k(   50) = (   0.0000000   0.2666667  -0.4000000), wk =   0.0142222
        k(   51) = (   0.0000000   0.2666667  -0.3333333), wk =   0.0142222
        k(   52) = (   0.0000000   0.2666667  -0.2666667), wk =   0.0071111
        k(   53) = (   0.0000000   0.3333333   0.3333333), wk =   0.0035556
        k(   54) = (   0.0000000   0.3333333   0.4000000), wk =   0.0142222
        k(   55) = (   0.0000000   0.3333333   0.4666667), wk =   0.0142222
        k(   56) = (   0.0000000   0.3333333  -0.4666667), wk =   0.0142222
        k(   57) = (   0.0000000   0.3333333  -0.4000000), wk =   0.0142222
        k(   58) = (   0.0000000   0.3333333  -0.3333333), wk =   0.0071111
        k(   59) = (   0.0000000   0.4000000   0.4000000), wk =   0.0035556
        k(   60) = (   0.0000000   0.4000000   0.4666667), wk =   0.0142222
        k(   61) = (   0.0000000   0.4000000  -0.4666667), wk =   0.0142222
        k(   62) = (   0.0000000   0.4000000  -0.4000000), wk =   0.0071111
        k(   63) = (   0.0000000   0.4666667   0.4666667), wk =   0.0035556
        k(   64) = (   0.0000000   0.4666667  -0.4666667), wk =   0.0071111
        k(   65) = (   0.0666667   0.1333333   0.2000000), wk =   0.0142222
        k(   66) = (   0.0666667   0.1333333   0.2666667), wk =   0.0284444
        k(   67) = (   0.0666667   0.1333333   0.3333333), wk =   0.0284444
        k(   68) = (   0.0666667   0.1333333   0.4000000), wk =   0.0284444
        k(   69) = (   0.0666667   0.1333333   0.4666667), wk =   0.0284444
        k(   70) = (   0.0666667   0.1333333  -0.4666667), wk =   0.0284444
        k(   71) = (   0.0666667   0.2000000   0.2666667), wk =   0.0142222
        k(   72) = (   0.0666667   0.2000000   0.3333333), wk =   0.0284444
        k(   73) = (   0.0666667   0.2000000   0.4000000), wk =   0.0284444
        k(   74) = (   0.0666667   0.2000000   0.4666667), wk =   0.0284444
        k(   75) = (   0.0666667   0.2000000  -0.4666667), wk =   0.0284444
        k(   76) = (   0.0666667   0.2000000  -0.4000000), wk =   0.0284444
        k(   77) = (   0.0666667   0.2000000  -0.3333333), wk =   0.0284444
        k(   78) = (   0.0666667   0.2000000  -0.2666667), wk =   0.0284444
        k(   79) = (   0.0666667   0.2000000  -0.2000000), wk =   0.0284444
        k(   80) = (   0.0666667   0.2000000  -0.1333333), wk =   0.0142222
        k(   81) = (   0.0666667   0.2666667   0.3333333), wk =   0.0142222
        k(   82) = (   0.0666667   0.2666667   0.4000000), wk =   0.0284444
        k(   83) = (   0.0666667   0.2666667   0.4666667), wk =   0.0284444
        k(   84) = (   0.0666667   0.2666667  -0.4666667), wk =   0.0284444
        k(   85) = (   0.0666667   0.2666667  -0.4000000), wk =   0.0284444
        k(   86) = (   0.0666667   0.2666667  -0.3333333), wk =   0.0284444
        k(   87) = (   0.0666667   0.2666667  -0.2666667), wk =   0.0284444
        k(   88) = (   0.0666667   0.2666667  -0.2000000), wk =   0.0142222
        k(   89) = (   0.0666667   0.3333333   0.4000000), wk =   0.0142222
        k(   90) = (   0.0666667   0.3333333   0.4666667), wk =   0.0284444
        k(   91) = (   0.0666667   0.3333333  -0.4666667), wk =   0.0284444
        k(   92) = (   0.0666667   0.3333333  -0.4000000), wk =   0.0284444
        k(   93) = (   0.0666667   0.3333333  -0.3333333), wk =   0.0284444
        k(   94) = (   0.0666667   0.3333333  -0.2666667), wk =   0.0142222
        k(   95) = (   0.0666667   0.4000000   0.4666667), wk =   0.0142222
        k(   96) = (   0.0666667   0.4000000  -0.4666667), wk =   0.0284444
        k(   97) = (   0.0666667   0.4000000  -0.4000000), wk =   0.0284444
        k(   98) = (   0.0666667   0.4000000  -0.3333333), wk =   0.0142222
        k(   99) = (   0.0666667   0.4666667  -0.4666667), wk =   0.0142222
        k(  100) = (   0.0666667   0.4666667  -0.4000000), wk =   0.0142222
        k(  101) = (   0.1333333   0.2666667   0.4000000), wk =   0.0142222
        k(  102) = (   0.1333333   0.2666667   0.4666667), wk =   0.0284444
        k(  103) = (   0.1333333   0.2666667  -0.4666667), wk =   0.0284444
        k(  104) = (   0.1333333   0.2666667  -0.4000000), wk =   0.0284444
        k(  105) = (   0.1333333   0.3333333   0.4666667), wk =   0.0142222
        k(  106) = (   0.1333333   0.3333333  -0.4666667), wk =   0.0284444
        k(  107) = (   0.1333333   0.3333333  -0.4000000), wk =   0.0284444
        k(  108) = (   0.1333333   0.3333333  -0.3333333), wk =   0.0284444
        k(  109) = (   0.1333333   0.3333333  -0.2666667), wk =   0.0284444
        k(  110) = (   0.1333333   0.3333333  -0.2000000), wk =   0.0142222
        k(  111) = (   0.1333333   0.4000000  -0.4666667), wk =   0.0142222
        k(  112) = (   0.1333333   0.4000000  -0.4000000), wk =   0.0284444
        k(  113) = (   0.1333333   0.4000000  -0.3333333), wk =   0.0284444
        k(  114) = (   0.1333333   0.4000000  -0.2666667), wk =   0.0142222
        k(  115) = (   0.1333333   0.4666667  -0.4000000), wk =   0.0142222
        k(  116) = (   0.1333333   0.4666667  -0.3333333), wk =   0.0142222
        k(  117) = (   0.2000000   0.4000000  -0.4000000), wk =   0.0142222
        k(  118) = (   0.2000000   0.4000000  -0.3333333), wk =   0.0284444
        k(  119) = (   0.2000000   0.4666667  -0.3333333), wk =   0.0142222
        k(  120) = (   0.2000000   0.4666667  -0.2666667), wk =   0.0142222

     Dense  grid:    30923 G-vectors     FFT dimensions: (  45,  45,  45)

     Largest allocated arrays     est. size (Mb)     dimensions
        Kohn-Sham Wavefunctions         0.07 Mb     (     256,   18)
        NL pseudopotentials             0.14 Mb     (     256,   36)
        Each V/rho on FFT grid          0.09 Mb     (    6075)
        Each G-vector array             0.01 Mb     (    1932)
        G-vector shells                 0.00 Mb     (     295)
     Largest temporary arrays     est. size (Mb)     dimensions
        Auxiliary wavefunctions         0.28 Mb     (     256,   72)
        Each subspace H/S matrix        0.08 Mb     (      72,   72)
        Each <psi_i|beta_j> matrix      0.01 Mb     (      36,   18)
        Arrays for rho mixing           0.74 Mb     (    6075,    8)

     Initial potential from superposition of free atoms

     starting charge   27.82674, renormalised to   28.00000
     Starting wfc are random

     total cpu time spent up to now is        2.1 secs

     Self-consistent Calculation

     iteration #  1     ecut=    60.00 Ry     beta=0.70
     Davidson diagonalization with overlap
     ethr =  1.00E-02,  avg # of iterations =  7.0

     Threshold (ethr) on eigenvalues was too large:
     Diagonalizing with lowered threshold

     Davidson diagonalization with overlap
     ethr =  1.06E-04,  avg # of iterations =  1.9

     total cpu time spent up to now is       24.5 secs

     total energy              =    -241.29500319 Ry
     Harris-Foulkes estimate   =    -241.30574990 Ry
     estimated scf accuracy    <       0.02974862 Ry

     iteration #  2     ecut=    60.00 Ry     beta=0.70
     Davidson diagonalization with overlap
     ethr =  1.06E-04,  avg # of iterations =  2.0

     total cpu time spent up to now is       31.2 secs

     total energy              =    -241.29891908 Ry
     Harris-Foulkes estimate   =    -241.29894208 Ry
     estimated scf accuracy    <       0.00160030 Ry

     iteration #  3     ecut=    60.00 Ry     beta=0.70
     Davidson diagonalization with overlap
     ethr =  5.72E-06,  avg # of iterations =  2.7

     total cpu time spent up to now is       37.5 secs

     total energy              =    -241.29905853 Ry
     Harris-Foulkes estimate   =    -241.29903182 Ry
     estimated scf accuracy    <       0.00008895 Ry

     iteration #  4     ecut=    60.00 Ry     beta=0.70
     Davidson diagonalization with overlap
     ethr =  3.18E-07,  avg # of iterations =  1.9

     total cpu time spent up to now is       43.7 secs

     total energy              =    -241.29906314 Ry
     Harris-Foulkes estimate   =    -241.29906318 Ry
     estimated scf accuracy    <       0.00000128 Ry

     iteration #  5     ecut=    60.00 Ry     beta=0.70
     Davidson diagonalization with overlap
     ethr =  4.57E-09,  avg # of iterations =  2.2

     total cpu time spent up to now is       50.0 secs

     End of self-consistent calculation

          k = 0.0000 0.0000 0.0000 (  3839 PWs)   bands (ev):

   -13.2671 -13.2671 -13.2671 -13.2131 -13.2131 -12.9662 -12.9662 -12.9662
   -12.9618 -12.9618  -1.7710   7.1721   8.4241   8.4241   8.4241  10.4988
    10.4988  10.4988

     occupation numbers 
     1.0000   1.0000   1.0000   1.0000   1.0000   1.0000   1.0000   1.0000
     1.0000   1.0000   1.0000   1.0000   0.1972   0.1972   0.1972   0.0000
     0.0000   0.0000

          k = 0.0471 0.0471-0.0471 (  3861 PWs)   bands (ev):

   -13.2699 -13.2699 -13.2662 -13.2093 -13.2093 -12.9754 -12.9754 -12.9673
   -12.9533 -12.9533  -1.7313   6.7228   8.3422   8.3422   8.6304  10.6063
    10.6063  10.6467

     occupation numbers 
     1.0000   1.0000   1.0000   1.0000   1.0000   1.0000   1.0000   1.0000
     1.0000   1.0000   1.0000   1.0000   0.4999   0.4999   0.0014   0.0000
     0.0000   0.0000

          k = 0.0943 0.0943-0.0943 (  3882 PWs)   bands (ev):

   -13.2761 -13.2761 -13.2634 -13.2002 -13.2002 -12.9863 -12.9863 -12.9706
   -12.9441 -12.9441  -1.6132   5.8885   8.1461   8.1461   8.7503  10.8654
    10.8654  11.1419

     occupation numbers 
     1.0000   1.0000   1.0000   1.0000   1.0000   1.0000   1.0000   1.0000
     1.0000   1.0000   1.0000   1.0000   0.9792   0.9792   0.0000   0.0000
     0.0000   0.0000

          k = 0.1414 0.1414-0.1414 (  3897 PWs)   bands (ev):

   -13.2828 -13.2828 -13.2594 -13.1896 -13.1896 -12.9964 -12.9964 -12.9754
   -12.9365 -12.9365  -1.4206   4.9967   7.9158   7.9158   8.6616  11.1569
    11.1569  11.9017

     occupation numbers 
     1.0000   1.0000   1.0000   1.0000   1.0000   1.0000   1.0000   1.0000
     1.0000   1.0000   1.0000   1.0000   1.0000   1.0000   0.0004   0.0000
     0.0000   0.0000

          k = 0.1886 0.1886-0.1886 (  3897 PWs)   bands (ev):

   -13.2884 -13.2884 -13.2546 -13.1798 -13.1798 -13.0047 -13.0047 -12.9811
   -12.9306 -12.9306  -1.1624   4.1384   7.7013   7.7013   8.5067  11.3822
    11.3822  12.7893

     occupation numbers 
     1.0000   1.0000   1.0000   1.0000   1.0000   1.0000   1.0000   1.0000
     1.0000   1.0000   1.0000   1.0000   1.0000   1.0000   0.0437   0.0000
     0.0000   0.0000

          k = 0.2357 0.2357-0.2357 (  3897 PWs)   bands (ev):

   -13.2925 -13.2925 -13.2499 -13.1721 -13.1721 -13.0107 -13.0107 -12.9867
   -12.9265 -12.9265  -0.8577   3.3659   7.5277   7.5277   8.3618  11.5007
    11.5007  13.7098

     occupation numbers 
     1.0000   1.0000   1.0000   1.0000   1.0000   1.0000   1.0000   1.0000
     1.0000   1.0000   1.0000   1.0000   1.0000   1.0000   0.4191   0.0000
     0.0000   0.0000

          k = 0.2828 0.2828-0.2828 (  3882 PWs)   bands (ev):

   -13.2950 -13.2950 -13.2461 -13.1672 -13.1672 -13.0143 -13.0143 -12.9911
   -12.9240 -12.9240  -0.5502   2.7393   7.4072   7.4072   8.2565  11.5381
    11.5381  14.1210

     occupation numbers 
     1.0000   1.0000   1.0000   1.0000   1.0000   1.0000   1.0000   1.0000
     1.0000   1.0000   1.0000   1.0000   1.0000   1.0000   0.8133   0.0000
     0.0000   0.0000

          k = 0.3300 0.3300-0.3300 (  3879 PWs)   bands (ev):

   -13.2962 -13.2962 -13.2440 -13.1648 -13.1648 -13.0159 -13.0159 -12.9936
   -12.9228 -12.9228  -0.3337   2.3613   7.3458   7.3458   8.2020  11.5421
    11.5421  14.0824

     occupation numbers 
     1.0000   1.0000   1.0000   1.0000   1.0000   1.0000   1.0000   1.0000
     1.0000   1.0000   1.0000   1.0000   1.0000   1.0000   0.9275   0.0000
     0.0000   0.0000

          k = 0.0943 0.0000 0.0000 (  3863 PWs)   bands (ev):

   -13.2692 -13.2692 -13.2691 -13.2103 -13.2055 -12.9857 -12.9645 -12.9633
   -12.9633 -12.9487  -1.7179   6.6368   8.1938   8.1938   8.9374  10.3343
    10.7973  10.7973

     occupation numbers 
     1.0000   1.0000   1.0000   1.0000   1.0000   1.0000   1.0000   1.0000
     1.0000   1.0000   1.0000   1.0000   0.9386   0.9386   0.0000   0.0000
     0.0000   0.0000

          k = 0.1414 0.0471-0.0471 (  3879 PWs)   bands (ev):

   -13.2759 -13.2733 -13.2664 -13.2045 -13.1962 -12.9979 -12.9751 -12.9635
   -12.9532 -12.9417  -1.6257   6.0191   7.9665   7.9973   9.2005  10.3381
    11.1094  11.1977

     occupation numbers 
     1.0000   1.0000   1.0000   1.0000   1.0000   1.0000   1.0000   1.0000
     1.0000   1.0000   1.0000   1.0000   1.0000   0.9998   0.0000   0.0000
     0.0000   0.0000

          k = 0.1886 0.0943-0.0943 (  3887 PWs)   bands (ev):

   -13.2837 -13.2795 -13.2617 -13.1951 -13.1849 -13.0091 -12.9858 -12.9680
   -12.9441 -12.9339  -1.4574   5.2058   7.7307   7.7563   9.1952  10.5992
    11.4336  11.8034

     occupation numbers 
     1.0000   1.0000   1.0000   1.0000   1.0000   1.0000   1.0000   1.0000
     1.0000   1.0000   1.0000   1.0000   1.0000   1.0000   0.0000   0.0000
     0.0000   0.0000

          k = 0.2357 0.1414-0.1414 (  3911 PWs)   bands (ev):

   -13.2906 -13.2855 -13.2555 -13.1852 -13.1743 -13.0181 -12.9954 -12.9750
   -12.9366 -12.9271  -1.2197   4.3679   7.4972   7.5260   9.0593  10.9359
    11.6754  12.4870

     occupation numbers 
     1.0000   1.0000   1.0000   1.0000   1.0000   1.0000   1.0000   1.0000
     1.0000   1.0000   1.0000   1.0000   1.0000   1.0000   0.0000   0.0000
     0.0000   0.0000

          k = 0.2828 0.1886-0.1886 (  3891 PWs)   bands (ev):

   -13.2960 -13.2904 -13.2489 -13.1763 -13.1662 -13.0237 -13.0037 -12.9830
   -12.9306 -12.9219  -0.9272   3.5822   7.2627   7.3724   8.9045  11.1927
    11.7855  13.1930

     occupation numbers 
     1.0000   1.0000   1.0000   1.0000   1.0000   1.0000   1.0000   1.0000
     1.0000   1.0000   1.0000   1.0000   1.0000   1.0000   0.0000   0.0000
     0.0000   0.0000

          k = 0.3300 0.2357-0.2357 (  3896 PWs)   bands (ev):

   -13.2995 -13.2940 -13.2429 -13.1692 -13.1617 -13.0253 -13.0105 -12.9907
   -12.9261 -12.9186  -0.6128   2.9097   7.0750   7.2793   8.7763  11.3354
    11.7855  13.8534

     occupation numbers 
     1.0000   1.0000   1.0000   1.0000   1.0000   1.0000   1.0000   1.0000
     1.0000   1.0000   1.0000   1.0000   1.0000   1.0000   0.0000   0.0000
     0.0000   0.0000

          k = 0.3771 0.2828-0.2828 (  3897 PWs)   bands (ev):

   -13.3012 -13.2964 -13.2387 -13.1640 -13.1607 -13.0232 -13.0160 -12.9969
   -12.9229 -12.9173  -0.3507   2.4391   6.9451   7.2505   8.6926  11.4150
    11.7307  14.1650

     occupation numbers 
     1.0000   1.0000   1.0000   1.0000   1.0000   1.0000   1.0000   1.0000
     1.0000   1.0000   1.0000   1.0000   1.0000   1.0000   0.0001   0.0000
     0.0000   0.0000

          k =-0.2828-0.3771 0.3771 (  3891 PWs)   bands (ev):

   -13.3011 -13.2976 -13.2373 -13.1626 -13.1609 -13.0200 -13.0187 -12.9999
   -12.9209 -12.9179  -0.2685   2.3044   6.8790   7.2865   8.6605  11.4813
    11.6614  14.2173

     occupation numbers 
     1.0000   1.0000   1.0000   1.0000   1.0000   1.0000   1.0000   1.0000
     1.0000   1.0000   1.0000   1.0000   1.0000   1.0000   0.0005   0.0000
     0.0000   0.0000

          k =-0.2357-0.3300 0.3300 (  3894 PWs)   bands (ev):

   -13.2994 -13.2977 -13.2389 -13.1665 -13.1603 -13.0220 -13.0140 -12.9981
   -12.9204 -12.9202  -0.4257   2.5669   6.8805   7.3845   8.6817  11.5493
    11.5879  14.1849

     occupation numbers 
     1.0000   1.0000   1.0000   1.0000   1.0000   1.0000   1.0000   1.0000
     1.0000   1.0000   1.0000   1.0000   1.0000   1.0000   0.0002   0.0000
     0.0000   0.0000

          k =-0.1886-0.2828 0.2828 (  3903 PWs)   bands (ev):

   -13.2962 -13.2960 -13.2433 -13.1721 -13.1630 -13.0213 -13.0100 -12.9913
   -12.9248 -12.9211  -0.7174   3.1182   6.9520   7.5390   8.7530  11.4912
    11.5953  13.7583

     occupation numbers 
     1.0000   1.0000   1.0000   1.0000   1.0000   1.0000   1.0000   1.0000
     1.0000   1.0000   1.0000   1.0000   1.0000   1.0000   0.0000   0.0000
     0.0000   0.0000

          k =-0.1414-0.2357 0.2357 (  3899 PWs)   bands (ev):

   -13.2932 -13.2910 -13.2494 -13.1794 -13.1695 -13.0170 -13.0052 -12.9821
   -12.9309 -12.9238  -1.0300   3.8352   7.0951   7.7396   8.8637  11.3333
    11.5493  12.9941

     occupation numbers 
     1.0000   1.0000   1.0000   1.0000   1.0000   1.0000   1.0000   1.0000
     1.0000   1.0000   1.0000   1.0000   1.0000   1.0000   0.0000   0.0000
     0.0000   0.0000

          k =-0.0943-0.1886 0.1886 (  3892 PWs)   bands (ev):

   -13.2883 -13.2847 -13.2560 -13.1881 -13.1791 -13.0093 -12.9984 -12.9728
   -12.9389 -12.9284  -1.3065   4.6418   7.3106   7.9680   8.9859  11.0950
    11.3182  12.2880

     occupation numbers 
     1.0000   1.0000   1.0000   1.0000   1.0000   1.0000   1.0000   1.0000
     1.0000   1.0000   1.0000   1.0000   1.0000   0.9999   0.0000   0.0000
     0.0000   0.0000

          k =-0.0471-0.1414 0.1414 (  3882 PWs)   bands (ev):

   -13.2820 -13.2775 -13.2619 -13.1976 -13.1906 -12.9991 -12.9899 -12.9646
   -12.9483 -12.9350  -1.5220   5.4740   7.5999   8.1888   9.0474  10.8218
    10.9400  11.6788

     occupation numbers 
     1.0000   1.0000   1.0000   1.0000   1.0000   1.0000   1.0000   1.0000
     1.0000   1.0000   1.0000   1.0000   1.0000   0.9446   0.0000   0.0000
     0.0000   0.0000

          k = 0.0000-0.0943 0.0943 (  3879 PWs)   bands (ev):

   -13.2751 -13.2714 -13.2657 -13.2058 -13.2016 -12.9875 -12.9806 -12.9604
   -12.9568 -12.9434  -1.6653   6.2343   7.9649   8.3385   8.9130  10.6213
    10.6623  11.1097

     occupation numbers 
     1.0000   1.0000   1.0000   1.0000   1.0000   1.0000   1.0000   1.0000
     1.0000   1.0000   1.0000   1.0000   1.0000   0.5153   0.0000   0.0000
     0.0000   0.0000

          k = 0.1886 0.0000 0.0000 (  3887 PWs)   bands (ev):

   -13.2750 -13.2750 -13.2716 -13.2020 -13.1865 -13.0127 -12.9724 -12.9554
   -12.9554 -12.9409  -1.5592   5.7523   7.7252   7.7252   9.7093   9.9822
    11.4679  11.4679

     occupation numbers 
     1.0000   1.0000   1.0000   1.0000   1.0000   1.0000   1.0000   1.0000
     1.0000   1.0000   1.0000   1.0000   1.0000   1.0000   0.0000   0.0000
     0.0000   0.0000

          k = 0.2357 0.0471-0.0471 (  3899 PWs)   bands (ev):

   -13.2829 -13.2798 -13.2670 -13.1945 -13.1744 -13.0266 -12.9811 -12.9560
   -12.9476 -12.9353  -1.4156   5.1681   7.4594   7.4849   9.8531  10.0192
    11.8411  11.9251

     occupation numbers 
     1.0000   1.0000   1.0000   1.0000   1.0000   1.0000   1.0000   1.0000
     1.0000   1.0000   1.0000   1.0000   1.0000   1.0000   0.0000   0.0000
     0.0000   0.0000

          k = 0.2828 0.0943-0.0943 (  3914 PWs)   bands (ev):

   -13.2918 -13.2854 -13.2587 -13.1849 -13.1626 -13.0381 -12.9915 -12.9642
   -12.9392 -12.9264  -1.1999   4.4486   7.1508   7.2819   9.7535  10.3608
    12.1326  12.3274

     occupation numbers 
     1.0000   1.0000   1.0000   1.0000   1.0000   1.0000   1.0000   1.0000
     1.0000   1.0000   1.0000   1.0000   1.0000   1.0000   0.0000   0.0000
     0.0000   0.0000

          k = 0.3300 0.1414-0.1414 (  3901 PWs)   bands (ev):

   -13.2997 -13.2906 -13.2487 -13.1751 -13.1535 -13.0457 -13.0018 -12.9753
   -12.9319 -12.9183  -0.9230   3.7131   6.8467   7.1352   9.6020  10.7784
    12.2744  12.6053

     occupation numbers 
     1.0000   1.0000   1.0000   1.0000   1.0000   1.0000   1.0000   1.0000
     1.0000   1.0000   1.0000   1.0000   1.0000   1.0000   0.0000   0.0000
     0.0000   0.0000

          k = 0.3771 0.1886-0.1886 (  3903 PWs)   bands (ev):

   -13.3057 -13.2948 -13.2385 -13.1662 -13.1487 -13.0479 -13.0113 -12.9873
   -12.9259 -12.9121  -0.6094   3.0396   6.5864   7.0540   9.4582  11.1036
    12.2719  13.0015

     occupation numbers 
     1.0000   1.0000   1.0000   1.0000   1.0000   1.0000   1.0000   1.0000
     1.0000   1.0000   1.0000   1.0000   1.0000   1.0000   0.0000   0.0000
     0.0000   0.0000

          k = 0.4243 0.2357-0.2357 (  3915 PWs)   bands (ev):

   -13.3094 -13.2980 -13.2299 -13.1585 -13.1489 -13.0445 -13.0200 -12.9982
   -12.9211 -12.9084  -0.3156   2.5123   6.3884   7.0422   9.3506  11.2857
    12.1833  13.6001

     occupation numbers 
     1.0000   1.0000   1.0000   1.0000   1.0000   1.0000   1.0000   1.0000
     1.0000   1.0000   1.0000   1.0000   1.0000   1.0000   0.0000   0.0000
     0.0000   0.0000

          k =-0.2357-0.4243 0.4243 (  3907 PWs)   bands (ev):

   -13.3107 -13.3002 -13.2246 -13.1532 -13.1526 -13.0359 -13.0274 -13.0064
   -12.9178 -12.9075  -0.1580   2.2607   6.2625   7.0994   9.2911  11.4016
    12.0605  14.1785

     occupation numbers 
     1.0000   1.0000   1.0000   1.0000   1.0000   1.0000   1.0000   1.0000
     1.0000   1.0000   1.0000   1.0000   1.0000   1.0000   0.0000   0.0000
     0.0000   0.0000

          k =-0.1886-0.3771 0.3771 (  3913 PWs)   bands (ev):

   -13.3094 -13.3011 -13.2240 -13.1599 -13.1495 -13.0325 -13.0236 -13.0111
   -12.9159 -12.9095  -0.2447   2.3972   6.2159   7.2218   9.2815  11.5115
    11.9234  14.2395

     occupation numbers 
     1.0000   1.0000   1.0000   1.0000   1.0000   1.0000   1.0000   1.0000
     1.0000   1.0000   1.0000   1.0000   1.0000   1.0000   0.0000   0.0000
     0.0000   0.0000

          k =-0.1414-0.3300 0.3300 (  3904 PWs)   bands (ev):

   -13.3057 -13.3005 -13.2284 -13.1675 -13.1504 -13.0338 -13.0134 -13.0077
   -12.9158 -12.9146  -0.5111   2.8533   6.2563   7.4013   9.3163  11.6178
    11.7605  13.6233

     occupation numbers 
     1.0000   1.0000   1.0000   1.0000   1.0000   1.0000   1.0000   1.0000
     1.0000   1.0000   1.0000   1.0000   1.0000   1.0000   0.0000   0.0000
     0.0000   0.0000

          k =-0.0943-0.2828 0.2828 (  3893 PWs)   bands (ev):

   -13.2997 -13.2983 -13.2367 -13.1751 -13.1561 -13.0304 -13.0108 -12.9924
   -12.9225 -12.9176  -0.8267   3.4844   6.3950   7.6236   9.3776  11.5428
    11.6454  12.9219

     occupation numbers 
     1.0000   1.0000   1.0000   1.0000   1.0000   1.0000   1.0000   1.0000
     1.0000   1.0000   1.0000   1.0000   1.0000   1.0000   0.0000   0.0000
     0.0000   0.0000

          k =-0.0471-0.2357 0.2357 (  3898 PWs)   bands (ev):

   -13.2942 -13.2921 -13.2467 -13.1830 -13.1660 -13.0226 -13.0058 -12.9775
   -12.9328 -12.9215  -1.1185   4.1880   6.6498   7.8631   9.4199  11.2643
    11.4292  12.4822

     occupation numbers 
     1.0000   1.0000   1.0000   1.0000   1.0000   1.0000   1.0000   1.0000
     1.0000   1.0000   1.0000   1.0000   1.0000   1.0000   0.0000   0.0000
     0.0000   0.0000

          k = 0.0000-0.1886 0.1886 (  3897 PWs)   bands (ev):

   -13.2885 -13.2838 -13.2559 -13.1909 -13.1783 -13.0117 -12.9985 -12.9656
   -12.9440 -12.9273  -1.3549   4.8801   7.0473   8.0748   9.3415  10.9860
    11.0886  12.1758

     occupation numbers 
     1.0000   1.0000   1.0000   1.0000   1.0000   1.0000   1.0000   1.0000
     1.0000   1.0000   1.0000   1.0000   1.0000   0.9973   0.0000   0.0000
     0.0000   0.0000

          k = 0.2828 0.0000 0.0000 (  3903 PWs)   bands (ev):

   -13.2831 -13.2831 -13.2704 -13.1885 -13.1608 -13.0439 -12.9853 -12.9441
   -12.9441 -12.9404  -1.2964   4.8339   7.2397   7.2397   9.6220  10.2541
    12.2831  12.2831

     occupation numbers 
     1.0000   1.0000   1.0000   1.0000   1.0000   1.0000   1.0000   1.0000
     1.0000   1.0000   1.0000   1.0000   1.0000   1.0000   0.0000   0.0000
     0.0000   0.0000

          k = 0.3300 0.0471-0.0471 (  3918 PWs)   bands (ev):

   -13.2908 -13.2879 -13.2636 -13.1795 -13.1472 -13.0589 -12.9945 -12.9523
   -12.9371 -12.9301  -1.1033   4.2970   6.9594   7.0319   9.6220  10.3281
    12.5782  12.6596

     occupation numbers 
     1.0000   1.0000   1.0000   1.0000   1.0000   1.0000   1.0000   1.0000
     1.0000   1.0000   1.0000   1.0000   1.0000   1.0000   0.0000   0.0000
     0.0000   0.0000

          k = 0.3771 0.0943-0.0943 (  3918 PWs)   bands (ev):

   -13.3003 -13.2928 -13.2515 -13.1692 -13.1360 -13.0699 -13.0053 -12.9662
   -12.9298 -12.9187  -0.8443   3.6766   6.6092   6.8816   9.7354  10.4952
    12.5654  12.8792

     occupation numbers 
     1.0000   1.0000   1.0000   1.0000   1.0000   1.0000   1.0000   1.0000
     1.0000   1.0000   1.0000   1.0000   1.0000   1.0000   0.0000   0.0000
     0.0000   0.0000

          k = 0.4243 0.1414-0.1414 (  3917 PWs)   bands (ev):

   -13.3087 -13.2971 -13.2376 -13.1590 -13.1294 -13.0752 -13.0164 -12.9818
   -12.9233 -12.9091  -0.5374   3.0588   6.2686   6.7992   9.7134  10.9413
    12.5454  12.9159

     occupation numbers 
     1.0000   1.0000   1.0000   1.0000   1.0000   1.0000   1.0000   1.0000
     1.0000   1.0000   1.0000   1.0000   1.0000   1.0000   0.0000   0.0000
     0.0000   0.0000

          k = 0.4714 0.1886-0.1886 (  3916 PWs)   bands (ev):

   -13.3150 -13.3006 -13.2244 -13.1495 -13.1292 -13.0734 -13.0272 -12.9966
   -12.9181 -12.9022  -0.2243   2.5241   5.9879   6.7892   9.6517  11.3934
    12.7681  12.8232

     occupation numbers 
     1.0000   1.0000   1.0000   1.0000   1.0000   1.0000   1.0000   1.0000
     1.0000   1.0000   1.0000   1.0000   1.0000   1.0000   0.0000   0.0000
     0.0000   0.0000

          k =-0.1886-0.4714 0.4714 (  3920 PWs)   bands (ev):

   -13.3185 -13.3031 -13.2145 -13.1413 -13.1350 -13.0648 -13.0371 -13.0081
   -12.9142 -12.8986  -0.0031   2.1911   5.7901   6.8515   9.6181  11.6323
    12.6656  13.3552

     occupation numbers 
     1.0000   1.0000   1.0000   1.0000   1.0000   1.0000   1.0000   1.0000
     1.0000   1.0000   1.0000   1.0000   1.0000   1.0000   0.0000   0.0000
     0.0000   0.0000

          k =-0.1414-0.4243 0.4243 (  3911 PWs)   bands (ev):

   -13.3188 -13.3044 -13.2100 -13.1452 -13.1361 -13.0507 -13.0445 -13.0149
   -12.9119 -12.8988  -0.0140   2.2077   5.6895   6.9822   9.6258  11.7565
    12.4729  13.9441

     occupation numbers 
     1.0000   1.0000   1.0000   1.0000   1.0000   1.0000   1.0000   1.0000
     1.0000   1.0000   1.0000   1.0000   1.0000   1.0000   0.0000   0.0000
     0.0000   0.0000

          k =-0.0943-0.3771 0.3771 (  3911 PWs)   bands (ev):

   -13.3159 -13.3043 -13.2121 -13.1572 -13.1358 -13.0472 -13.0328 -13.0168
   -12.9114 -12.9028  -0.2474   2.5592   5.7010   7.1723   9.6647  11.8722
    12.2376  13.4853

     occupation numbers 
     1.0000   1.0000   1.0000   1.0000   1.0000   1.0000   1.0000   1.0000
     1.0000   1.0000   1.0000   1.0000   1.0000   1.0000   0.0000   0.0000
     0.0000   0.0000

          k =-0.0471-0.3300 0.3300 (  3909 PWs)   bands (ev):

   -13.3099 -13.3026 -13.2208 -13.1678 -13.1418 -13.0436 -13.0176 -13.0105
   -12.9127 -12.9106  -0.5612   3.0840   5.8460   7.4053   9.7013  11.9367
    11.9594  12.7478

     occupation numbers 
     1.0000   1.0000   1.0000   1.0000   1.0000   1.0000   1.0000   1.0000
     1.0000   1.0000   1.0000   1.0000   1.0000   1.0000   0.0000   0.0000
     0.0000   0.0000

          k = 0.0000-0.2828 0.2828 (  3911 PWs)   bands (ev):

   -13.3014 -13.2992 -13.2337 -13.1762 -13.1527 -13.0347 -13.0123 -12.9924
   -12.9213 -12.9161  -0.8645   3.6543   6.1542   7.6522   9.6588  11.5842
    11.7461  12.4617

     occupation numbers 
     1.0000   1.0000   1.0000   1.0000   1.0000   1.0000   1.0000   1.0000
     1.0000   1.0000   1.0000   1.0000   1.0000   1.0000   0.0000   0.0000
     0.0000   0.0000

          k = 0.3771 0.0000 0.0000 (  3920 PWs)   bands (ev):

   -13.2918 -13.2918 -13.2637 -13.1706 -13.1312 -13.0778 -13.0025 -12.9474
   -12.9317 -12.9317  -0.9321   3.9281   6.8156   6.8156   9.3359  10.3182
    13.1557  13.1557

     occupation numbers 
     1.0000   1.0000   1.0000   1.0000   1.0000   1.0000   1.0000   1.0000
     1.0000   1.0000   1.0000   1.0000   1.0000   1.0000   0.0000   0.0000
     0.0000   0.0000

          k = 0.4243 0.0471-0.0471 (  3920 PWs)   bands (ev):

   -13.2988 -13.2961 -13.2542 -13.1601 -13.1170 -13.0930 -13.0131 -12.9592
   -12.9254 -12.9215  -0.6922   3.4368   6.5483   6.6555   9.3809  10.2577
    13.2470  13.5075

     occupation numbers 
     1.0000   1.0000   1.0000   1.0000   1.0000   1.0000   1.0000   1.0000
     1.0000   1.0000   1.0000   1.0000   1.0000   1.0000   0.0000   0.0000
     0.0000   0.0000

          k = 0.4714 0.0943-0.0943 (  3922 PWs)   bands (ev):

   -13.3080 -13.3000 -13.2389 -13.1490 -13.1085 -13.1013 -13.0248 -12.9766
   -12.9195 -12.9101  -0.3961   2.9078   6.1824   6.5637   9.5359  10.4498
    13.0800  13.6388

     occupation numbers 
     1.0000   1.0000   1.0000   1.0000   1.0000   1.0000   1.0000   1.0000
     1.0000   1.0000   1.0000   1.0000   1.0000   1.0000   0.0000   0.0000
     0.0000   0.0000

          k = 0.5185 0.1414-0.1414 (  3918 PWs)   bands (ev):

   -13.3163 -13.3033 -13.2223 -13.1380 -13.1107 -13.0980 -13.0368 -12.9945
   -12.9146 -12.9006  -0.0739   2.4102   5.8256   6.5456   9.5753  11.0214
    12.9369  13.5779

     occupation numbers 
     1.0000   1.0000   1.0000   1.0000   1.0000   1.0000   1.0000   1.0000
     1.0000   1.0000   1.0000   1.0000   1.0000   1.0000   0.0000   0.0000
     0.0000   0.0000

          k =-0.1414-0.5185 0.5185 (  3925 PWs)   bands (ev):

   -13.3222 -13.3057 -13.2086 -13.1282 -13.1126 -13.0945 -13.0484 -13.0091
   -12.9110 -12.8942   0.1968   2.0412   5.5453   6.6019   9.5907  11.7509
    12.9122  13.4017

     occupation numbers 
     1.0000   1.0000   1.0000   1.0000   1.0000   1.0000   1.0000   1.0000
     1.0000   1.0000   1.0000   1.0000   1.0000   1.0000   0.0000   0.0000
     0.0000   0.0000

          k =-0.0943-0.4714 0.4714 (  3923 PWs)   bands (ev):

   -13.3247 -13.3070 -13.2011 -13.1221 -13.1213 -13.0829 -13.0574 -13.0172
   -12.9088 -12.8918   0.2586   1.9639   5.3784   6.7293   9.6384  12.2826
    13.1514  13.2098

     occupation numbers 
     1.0000   1.0000   1.0000   1.0000   1.0000   1.0000   1.0000   1.0000
     1.0000   1.0000   1.0000   1.0000   1.0000   1.0000   0.0000   0.0000
     0.0000   0.0000

          k =-0.0471-0.4243 0.4243 (  3922 PWs)   bands (ev):

   -13.3234 -13.3070 -13.2007 -13.1390 -13.1209 -13.0621 -13.0601 -13.0195
   -12.9083 -12.8938   0.0582   2.2234   5.3529   6.9188   9.7139  12.4665
    12.8209  13.3115

     occupation numbers 
     1.0000   1.0000   1.0000   1.0000   1.0000   1.0000   1.0000   1.0000
     1.0000   1.0000   1.0000   1.0000   1.0000   1.0000   0.0000   0.0000
     0.0000   0.0000

          k =-0.0000-0.3771 0.3771 (  3905 PWs)   bands (ev):

   -13.3182 -13.3056 -13.2074 -13.1558 -13.1288 -13.0545 -13.0378 -13.0180
   -12.9096 -12.9003  -0.2518   2.6436   5.4994   7.1539   9.7710  12.3990
    12.5844  12.5949

     occupation numbers 
     1.0000   1.0000   1.0000   1.0000   1.0000   1.0000   1.0000   1.0000
     1.0000   1.0000   1.0000   1.0000   1.0000   1.0000   0.0000   0.0000
     0.0000   0.0000

          k = 0.4714 0.0000 0.0000 (  3944 PWs)   bands (ev):

   -13.2997 -13.2997 -13.2510 -13.1491 -13.1127 -13.0994 -13.0235 -12.9613
   -12.9203 -12.9203  -0.4703   3.0518   6.4826   6.4826   9.1565  10.0261
    14.0411  14.0412

     occupation numbers 
     1.0000   1.0000   1.0000   1.0000   1.0000   1.0000   1.0000   1.0000
     1.0000   1.0000   1.0000   1.0000   1.0000   1.0000   0.0000   0.0000
     0.0000   0.0000

          k = 0.5185 0.0471-0.0471 (  3926 PWs)   bands (ev):

   -13.3056 -13.3030 -13.2387 -13.1373 -13.1274 -13.0853 -13.0353 -12.9750
   -12.9154 -12.9124  -0.1873   2.6038   6.2457   6.3768   9.2470   9.9456
    14.0551  14.3444

     occupation numbers 
     1.0000   1.0000   1.0000   1.0000   1.0000   1.0000   1.0000   1.0000
     1.0000   1.0000   1.0000   1.0000   1.0000   1.0000   0.0000   0.0000
     0.0000   0.0000

          k = 0.5657 0.0943-0.0943 (  3931 PWs)   bands (ev):

   -13.3139 -13.3057 -13.2210 -13.1355 -13.1254 -13.0769 -13.0479 -12.9939
   -12.9113 -12.9027   0.1363   2.1567   5.8908   6.3448   9.3938  10.2477
    13.8578  14.3714

     occupation numbers 
     1.0000   1.0000   1.0000   1.0000   1.0000   1.0000   1.0000   1.0000
     1.0000   1.0000   1.0000   1.0000   1.0000   1.0000   0.0000   0.0000
     0.0000   0.0000

          k =-0.0943-0.5657 0.5657 (  3916 PWs)   bands (ev):

   -13.3213 -13.3076 -13.2045 -13.1336 -13.1142 -13.0779 -13.0605 -13.0109
   -12.9084 -12.8946   0.4429   1.7842   5.5495   6.3886   9.4494  10.9465
    13.6715  14.1933

     occupation numbers 
     1.0000   1.0000   1.0000   1.0000   1.0000   1.0000   1.0000   1.0000
     1.0000   1.0000   1.0000   1.0000   1.0000   1.0000   0.0000   0.0000
     0.0000   0.0000

          k =-0.0471-0.5185 0.5185 (  3913 PWs)   bands (ev):

   -13.3260 -13.3086 -13.1960 -13.1181 -13.1063 -13.0919 -13.0702 -13.0196
   -12.9069 -12.8897   0.5600   1.6561   5.3101   6.5054   9.5199  11.8263
    13.5004  13.8672

     occupation numbers 
     1.0000   1.0000   1.0000   1.0000   1.0000   1.0000   1.0000   1.0000
     1.0000   1.0000   1.0000   1.0000   1.0000   1.0000   0.0000   0.0000
     0.0000   0.0000

          k =-0.0000-0.4714 0.4714 (  3893 PWs)   bands (ev):

   -13.3269 -13.3085 -13.1954 -13.1153 -13.1088 -13.0919 -13.0699 -13.0210
   -12.9068 -12.8894   0.3675   1.8757   5.2301   6.6873   9.6232  12.6960
    13.2046  13.3979

     occupation numbers 
     1.0000   1.0000   1.0000   1.0000   1.0000   1.0000   1.0000   1.0000
     1.0000   1.0000   1.0000   1.0000   1.0000   1.0000   0.0000   0.0000
     0.0000   0.0000

          k = 0.5657 0.0000 0.0000 (  3940 PWs)   bands (ev):

   -13.3056 -13.3056 -13.2323 -13.1470 -13.1249 -13.0671 -13.0472 -12.9814
   -12.9117 -12.9117   0.0836   2.2174   6.2547   6.2547   9.0978   9.6600
    14.8815  14.8815

     occupation numbers 
     1.0000   1.0000   1.0000   1.0000   1.0000   1.0000   1.0000   1.0000
     1.0000   1.0000   1.0000   1.0000   1.0000   1.0000   0.0000   0.0000
     0.0000   0.0000

          k = 0.6128 0.0471-0.0471 (  3915 PWs)   bands (ev):

   -13.3101 -13.3075 -13.2175 -13.1605 -13.1122 -13.0600 -13.0539 -12.9970
   -12.9087 -12.9061   0.4041   1.8122   6.0612   6.2060   9.2256   9.6376
    14.8731  15.0838

     occupation numbers 
     1.0000   1.0000   1.0000   1.0000   1.0000   1.0000   1.0000   1.0000
     1.0000   1.0000   1.0000   1.0000   1.0000   1.0000   0.0000   0.0000
     0.0000   0.0000

          k =-0.0471-0.6128 0.6128 (  3929 PWs)   bands (ev):

   -13.3170 -13.3088 -13.2000 -13.1639 -13.1000 -13.0731 -13.0499 -13.0149
   -12.9068 -12.8986   0.7345   1.4473   5.7434   6.2336   9.3265  10.1055
    14.6209  14.9325

     occupation numbers 
     1.0000   1.0000   1.0000   1.0000   1.0000   1.0000   1.0000   1.0000
     1.0000   1.0000   1.0000   1.0000   1.0000   1.0000   0.0000   0.0000
     0.0000   0.0000

          k = 0.0000-0.5657 0.5657 (  3905 PWs)   bands (ev):

   -13.3231 -13.3092 -13.1936 -13.1474 -13.0944 -13.0802 -13.0652 -13.0212
   -12.9062 -12.8924   0.8298   1.3609   5.4560   6.3356   9.4031  10.9047
    14.2097  14.5013

     occupation numbers 
     1.0000   1.0000   1.0000   1.0000   1.0000   1.0000   1.0000   1.0000
     1.0000   1.0000   1.0000   1.0000   1.0000   1.0000   0.0000   0.0000
     0.0000   0.0000

          k = 0.6600 0.0000 0.0000 (  3920 PWs)   bands (ev):

   -13.3087 -13.3087 -13.2081 -13.1793 -13.0990 -13.0728 -13.0357 -13.0066
   -12.9070 -12.9070   0.7224   1.4371   6.1392   6.1392   9.1652   9.3573
    15.5036  15.5036

     occupation numbers 
     1.0000   1.0000   1.0000   1.0000   1.0000   1.0000   1.0000   1.0000
     1.0000   1.0000   1.0000   1.0000   1.0000   1.0000   0.0000   0.0000
     0.0000   0.0000

          k = 0.0000-0.6600 0.6600 (  3933 PWs)   bands (ev):

   -13.3117 -13.3091 -13.1941 -13.1879 -13.0869 -13.0853 -13.0268 -13.0208
   -12.9064 -12.9038   1.0460   1.1031   5.9992   6.1486   9.2646   9.4813
    15.3272  15.4377

     occupation numbers 
     1.0000   1.0000   1.0000   1.0000   1.0000   1.0000   1.0000   1.0000
     1.0000   1.0000   1.0000   1.0000   1.0000   1.0000   0.0000   0.0000
     0.0000   0.0000

          k = 0.1886 0.0943-0.0000 (  3887 PWs)   bands (ev):

   -13.2817 -13.2774 -13.2643 -13.1984 -13.1854 -13.0109 -12.9821 -12.9584
   -12.9523 -12.9352  -1.5080   5.4737   7.5009   7.9360   9.4840  10.3009
    11.3385  11.7303

     occupation numbers 
     1.0000   1.0000   1.0000   1.0000   1.0000   1.0000   1.0000   1.0000
     1.0000   1.0000   1.0000   1.0000   1.0000   1.0000   0.0000   0.0000
     0.0000   0.0000

          k = 0.2357 0.1414-0.0471 (  3902 PWs)   bands (ev):

   -13.2888 -13.2842 -13.2577 -13.1897 -13.1735 -13.0225 -12.9917 -12.9661
   -12.9421 -12.9279  -1.3159   4.7611   7.1108   7.7776   9.5337  10.5409
    11.6560  12.1999

     occupation numbers 
     1.0000   1.0000   1.0000   1.0000   1.0000   1.0000   1.0000   1.0000
     1.0000   1.0000   1.0000   1.0000   1.0000   1.0000   0.0000   0.0000
     0.0000   0.0000

          k = 0.2828 0.1886-0.0943 (  3906 PWs)   bands (ev):

   -13.2957 -13.2905 -13.2490 -13.1805 -13.1629 -13.0313 -13.0003 -12.9773
   -12.9326 -12.9215  -1.0581   4.0043   6.8210   7.5712   9.4361  10.9037
    11.9115  12.5952

     occupation numbers 
     1.0000   1.0000   1.0000   1.0000   1.0000   1.0000   1.0000   1.0000
     1.0000   1.0000   1.0000   1.0000   1.0000   1.0000   0.0000   0.0000
     0.0000   0.0000

          k = 0.3300 0.2357-0.1414 (  3896 PWs)   bands (ev):

   -13.3014 -13.2952 -13.2400 -13.1721 -13.1556 -13.0360 -13.0078 -12.9895
   -12.9253 -12.9165  -0.7531   3.2883   6.6179   7.3785   9.3138  11.1847
    11.9888  13.1106

     occupation numbers 
     1.0000   1.0000   1.0000   1.0000   1.0000   1.0000   1.0000   1.0000
     1.0000   1.0000   1.0000   1.0000   1.0000   1.0000   0.0000   0.0000
     0.0000   0.0000

          k = 0.3771 0.2828-0.1886 (  3904 PWs)   bands (ev):

   -13.3055 -13.2982 -13.2325 -13.1648 -13.1526 -13.0358 -13.0146 -13.0000
   -12.9207 -12.9128  -0.4436   2.6906   6.4898   7.2344   9.2172  11.3201
    11.9771  13.7465

     occupation numbers 
     1.0000   1.0000   1.0000   1.0000   1.0000   1.0000   1.0000   1.0000
     1.0000   1.0000   1.0000   1.0000   1.0000   1.0000   0.0000   0.0000
     0.0000   0.0000

          k =-0.2828-0.3771 0.4714 (  3908 PWs)   bands (ev):

   -13.3077 -13.2996 -13.2282 -13.1590 -13.1535 -13.0315 -13.0220 -13.0057
   -12.9185 -12.9108  -0.2239   2.3231   6.4282   7.1579   9.1655  11.3631
    11.9560  14.2360

     occupation numbers 
     1.0000   1.0000   1.0000   1.0000   1.0000   1.0000   1.0000   1.0000
     1.0000   1.0000   1.0000   1.0000   1.0000   1.0000   0.0000   0.0000
     0.0000   0.0000

          k = 0.2828 0.0943 0.0000 (  3909 PWs)   bands (ev):

   -13.2884 -13.2857 -13.2622 -13.1867 -13.1615 -13.0411 -12.9890 -12.9581
   -12.9409 -12.9298  -1.2477   4.6440   7.0249   7.3913   9.9448  10.0985
    12.1880  12.2704

     occupation numbers 
     1.0000   1.0000   1.0000   1.0000   1.0000   1.0000   1.0000   1.0000
     1.0000   1.0000   1.0000   1.0000   1.0000   1.0000   0.0000   0.0000
     0.0000   0.0000

          k = 0.3300 0.1414-0.0471 (  3914 PWs)   bands (ev):

   -13.2964 -13.2918 -13.2519 -13.1773 -13.1496 -13.0527 -12.9989 -12.9691
   -12.9317 -12.9216  -1.0104   4.0107   6.6503   7.2289   9.9600  10.3703
    12.3566  12.5202

     occupation numbers 
     1.0000   1.0000   1.0000   1.0000   1.0000   1.0000   1.0000   1.0000
     1.0000   1.0000   1.0000   1.0000   1.0000   1.0000   0.0000   0.0000
     0.0000   0.0000

          k = 0.3771 0.1886-0.0943 (  3902 PWs)   bands (ev):

   -13.3046 -13.2965 -13.2395 -13.1677 -13.1409 -13.0598 -13.0090 -12.9832
   -12.9242 -12.9134  -0.7175   3.3564   6.3549   7.0602   9.8536  10.8223
    12.3737  12.7449

     occupation numbers 
     1.0000   1.0000   1.0000   1.0000   1.0000   1.0000   1.0000   1.0000
     1.0000   1.0000   1.0000   1.0000   1.0000   1.0000   0.0000   0.0000
     0.0000   0.0000

          k = 0.4243 0.2357-0.1414 (  3911 PWs)   bands (ev):

   -13.3111 -13.3000 -13.2276 -13.1587 -13.1373 -13.0610 -13.0189 -12.9969
   -12.9189 -12.9067  -0.4003   2.7612   6.1332   6.9428   9.7516  11.1692
    12.4745  12.9832

     occupation numbers 
     1.0000   1.0000   1.0000   1.0000   1.0000   1.0000   1.0000   1.0000
     1.0000   1.0000   1.0000   1.0000   1.0000   1.0000   0.0000   0.0000
     0.0000   0.0000

          k =-0.2357-0.4243 0.5185 (  3919 PWs)   bands (ev):

   -13.3150 -13.3023 -13.2185 -13.1510 -13.1388 -13.0561 -13.0288 -13.0073
   -12.9154 -12.9025  -0.1328   2.3275   5.9815   6.9021   9.6860  11.3173
    12.5025  13.5163

     occupation numbers 
     1.0000   1.0000   1.0000   1.0000   1.0000   1.0000   1.0000   1.0000
     1.0000   1.0000   1.0000   1.0000   1.0000   1.0000   0.0000   0.0000
     0.0000   0.0000

          k =-0.1886-0.3771 0.4714 (  3919 PWs)   bands (ev):

   -13.3160 -13.3035 -13.2145 -13.1491 -13.1409 -13.0488 -13.0348 -13.0128
   -12.9136 -12.9017  -0.0502   2.2043   5.9032   6.9433   9.6665  11.3731
    12.4466  14.0407

     occupation numbers 
     1.0000   1.0000   1.0000   1.0000   1.0000   1.0000   1.0000   1.0000
     1.0000   1.0000   1.0000   1.0000   1.0000   1.0000   0.0000   0.0000
     0.0000   0.0000

          k =-0.1414-0.3300 0.4243 (  3916 PWs)   bands (ev):

   -13.3140 -13.3034 -13.2165 -13.1565 -13.1393 -13.0492 -13.0260 -13.0136
   -12.9134 -12.9043  -0.2162   2.4572   5.9073   7.0602   9.6913  11.3942
    12.3585  13.6662

     occupation numbers 
     1.0000   1.0000   1.0000   1.0000   1.0000   1.0000   1.0000   1.0000
     1.0000   1.0000   1.0000   1.0000   1.0000   1.0000   0.0000   0.0000
     0.0000   0.0000

          k =-0.0943-0.2828 0.3771 (  3909 PWs)   bands (ev):

   -13.3091 -13.3019 -13.2244 -13.1653 -13.1418 -13.0492 -13.0138 -13.0069
   -12.9153 -12.9100  -0.5140   2.9600   6.0082   7.2384   9.7482  11.3224
    12.2639  13.0137

     occupation numbers 
     1.0000   1.0000   1.0000   1.0000   1.0000   1.0000   1.0000   1.0000
     1.0000   1.0000   1.0000   1.0000   1.0000   1.0000   0.0000   0.0000
     0.0000   0.0000

          k =-0.0471-0.2357 0.3300 (  3905 PWs)   bands (ev):

   -13.3017 -13.2987 -13.2359 -13.1739 -13.1495 -13.0442 -13.0075 -12.9905
   -12.9218 -12.9160  -0.8275   3.5721   6.2267   7.4524   9.8034  11.0481
    12.2057  12.5150

     occupation numbers 
     1.0000   1.0000   1.0000   1.0000   1.0000   1.0000   1.0000   1.0000
     1.0000   1.0000   1.0000   1.0000   1.0000   1.0000   0.0000   0.0000
     0.0000   0.0000

          k = 0.0000-0.1886 0.2828 (  3908 PWs)   bands (ev):

   -13.2946 -13.2925 -13.2480 -13.1821 -13.1608 -13.0347 -13.0001 -12.9752
   -12.9325 -12.9215  -1.1025   4.1977   6.5891   7.6572   9.7684  10.7009
    11.9537  12.3580

     occupation numbers 
     1.0000   1.0000   1.0000   1.0000   1.0000   1.0000   1.0000   1.0000
     1.0000   1.0000   1.0000   1.0000   1.0000   1.0000   0.0000   0.0000
     0.0000   0.0000

          k = 0.3771 0.0943 0.0000 (  3915 PWs)   bands (ev):

   -13.2955 -13.2946 -13.2557 -13.1699 -13.1333 -13.0740 -13.0040 -12.9603
   -12.9285 -12.9240  -0.8874   3.8064   6.6160   6.8995   9.6538  10.3479
    12.6731  13.0965

     occupation numbers 
     1.0000   1.0000   1.0000   1.0000   1.0000   1.0000   1.0000   1.0000
     1.0000   1.0000   1.0000   1.0000   1.0000   1.0000   0.0000   0.0000
     0.0000   0.0000

          k = 0.4243 0.1414-0.0471 (  3915 PWs)   bands (ev):

   -13.3044 -13.2992 -13.2419 -13.1595 -13.1222 -13.0849 -13.0150 -12.9756
   -12.9211 -12.9141  -0.6099   3.2547   6.2673   6.7493   9.8295  10.4960
    12.5462  13.3909

     occupation numbers 
     1.0000   1.0000   1.0000   1.0000   1.0000   1.0000   1.0000   1.0000
     1.0000   1.0000   1.0000   1.0000   1.0000   1.0000   0.0000   0.0000
     0.0000   0.0000

          k = 0.4714 0.1886-0.0943 (  3915 PWs)   bands (ev):

   -13.3129 -13.3027 -13.2263 -13.1492 -13.1166 -13.0892 -13.0265 -12.9925
   -12.9158 -12.9045  -0.2931   2.7110   5.9539   6.6435   9.8564  10.9927
    12.4365  13.4645

     occupation numbers 
     1.0000   1.0000   1.0000   1.0000   1.0000   1.0000   1.0000   1.0000
     1.0000   1.0000   1.0000   1.0000   1.0000   1.0000   0.0000   0.0000
     0.0000   0.0000

          k =-0.1886-0.4714 0.5657 (  3914 PWs)   bands (ev):

   -13.3192 -13.3053 -13.2125 -13.1397 -13.1179 -13.0858 -13.0381 -13.0070
   -12.9119 -12.8976   0.0077   2.2600   5.7039   6.6183   9.8421  11.5234
    12.5424  13.4039

     occupation numbers 
     1.0000   1.0000   1.0000   1.0000   1.0000   1.0000   1.0000   1.0000
     1.0000   1.0000   1.0000   1.0000   1.0000   1.0000   0.0000   0.0000
     0.0000   0.0000

          k =-0.1414-0.4243 0.5185 (  3916 PWs)   bands (ev):

   -13.3222 -13.3068 -13.2039 -13.1340 -13.1229 -13.0769 -13.0477 -13.0161
   -12.9095 -12.8945   0.1664   2.0439   5.5417   6.6773   9.8577  11.7334
    12.9634  13.3770

     occupation numbers 
     1.0000   1.0000   1.0000   1.0000   1.0000   1.0000   1.0000   1.0000
     1.0000   1.0000   1.0000   1.0000   1.0000   1.0000   0.0000   0.0000
     0.0000   0.0000

          k =-0.0943-0.3771 0.4714 (  3907 PWs)   bands (ev):

   -13.3217 -13.3072 -13.2024 -13.1415 -13.1239 -13.0672 -13.0477 -13.0192
   -12.9086 -12.8955   0.0600   2.1881   5.4884   6.8125   9.9083  11.7669
    12.8696  13.5523

     occupation numbers 
     1.0000   1.0000   1.0000   1.0000   1.0000   1.0000   1.0000   1.0000
     1.0000   1.0000   1.0000   1.0000   1.0000   1.0000   0.0000   0.0000
     0.0000   0.0000

          k =-0.0471-0.3300 0.4243 (  3913 PWs)   bands (ev):

   -13.3175 -13.3062 -13.2084 -13.1544 -13.1272 -13.0627 -13.0314 -13.0179
   -12.9094 -12.9009  -0.2221   2.5909   5.5670   7.0084   9.9695  11.7087
    12.5003  13.1616

     occupation numbers 
     1.0000   1.0000   1.0000   1.0000   1.0000   1.0000   1.0000   1.0000
     1.0000   1.0000   1.0000   1.0000   1.0000   1.0000   0.0000   0.0000
     0.0000   0.0000

          k = 0.0000-0.2828 0.3771 (  3912 PWs)   bands (ev):

   -13.3103 -13.3036 -13.2208 -13.1655 -13.1366 -13.0552 -13.0138 -13.0100
   -12.9119 -12.9100  -0.5399   3.0854   5.8055   7.2379   9.9758  11.3955
    12.3326  12.7230

     occupation numbers 
     1.0000   1.0000   1.0000   1.0000   1.0000   1.0000   1.0000   1.0000
     1.0000   1.0000   1.0000   1.0000   1.0000   1.0000   0.0000   0.0000
     0.0000   0.0000

          k = 0.4714 0.0943-0.0000 (  3928 PWs)   bands (ev):

   -13.3025 -13.3025 -13.2434 -13.1490 -13.1081 -13.1028 -13.0242 -12.9710
   -12.9173 -12.9161  -0.4317   2.9822   6.3037   6.5033   9.4626  10.1741
    13.2871  14.0077

     occupation numbers 
     1.0000   1.0000   1.0000   1.0000   1.0000   1.0000   1.0000   1.0000
     1.0000   1.0000   1.0000   1.0000   1.0000   1.0000   0.0000   0.0000
     0.0000   0.0000

          k = 0.5185 0.1414-0.0471 (  3935 PWs)   bands (ev):

   -13.3112 -13.3056 -13.2267 -13.1376 -13.1180 -13.0926 -13.0364 -12.9890
   -12.9122 -12.9061  -0.1213   2.5071   5.9826   6.3886   9.6673  10.3703
    13.1154  14.2333

     occupation numbers 
     1.0000   1.0000   1.0000   1.0000   1.0000   1.0000   1.0000   1.0000
     1.0000   1.0000   1.0000   1.0000   1.0000   1.0000   0.0000   0.0000
     0.0000   0.0000

          k =-0.1414-0.5185 0.6128 (  3922 PWs)   bands (ev):

   -13.3192 -13.3080 -13.2093 -13.1268 -13.1203 -13.0889 -13.0489 -13.0070
   -12.9087 -12.8972   0.2001   2.0752   5.6569   6.3634   9.7313  10.9972
    12.9417  14.1551

     occupation numbers 
     1.0000   1.0000   1.0000   1.0000   1.0000   1.0000   1.0000   1.0000
     1.0000   1.0000   1.0000   1.0000   1.0000   1.0000   0.0000   0.0000
     0.0000   0.0000

          k =-0.0943-0.4714 0.5657 (  3911 PWs)   bands (ev):

   -13.3244 -13.3094 -13.1971 -13.1190 -13.1117 -13.0947 -13.0603 -13.0190
   -12.9065 -12.8915   0.4229   1.8052   5.4078   6.4257   9.7811  11.8022
    12.8404  13.8405

     occupation numbers 
     1.0000   1.0000   1.0000   1.0000   1.0000   1.0000   1.0000   1.0000
     1.0000   1.0000   1.0000   1.0000   1.0000   1.0000   0.0000   0.0000
     0.0000   0.0000

          k =-0.0471-0.4243 0.5185 (  3911 PWs)   bands (ev):

   -13.3261 -13.3097 -13.1935 -13.1205 -13.1069 -13.0931 -13.0653 -13.0229
   -12.9057 -12.8901   0.3682   1.8722   5.2860   6.5658   9.8639  12.3765
    13.0356  13.2716

     occupation numbers 
     1.0000   1.0000   1.0000   1.0000   1.0000   1.0000   1.0000   1.0000
     1.0000   1.0000   1.0000   1.0000   1.0000   1.0000   0.0000   0.0000
     0.0000   0.0000

          k =-0.0000-0.3771 0.4714 (  3918 PWs)   bands (ev):

   -13.3237 -13.3087 -13.1974 -13.1379 -13.1144 -13.0764 -13.0545 -13.0217
   -12.9066 -12.8934   0.0961   2.1992   5.3290   6.7686   9.9562  12.2918
    12.6329  13.4356

     occupation numbers 
     1.0000   1.0000   1.0000   1.0000   1.0000   1.0000   1.0000   1.0000
     1.0000   1.0000   1.0000   1.0000   1.0000   1.0000   0.0000   0.0000
     0.0000   0.0000

          k = 0.5657 0.0943 0.0000 (  3939 PWs)   bands (ev):

   -13.3083 -13.3081 -13.2252 -13.1417 -13.1251 -13.0716 -13.0477 -12.9892
   -12.9088 -12.9087   0.1131   2.1864   6.1020   6.2201   9.3865   9.8641
    14.0674  14.8335

     occupation numbers 
     1.0000   1.0000   1.0000   1.0000   1.0000   1.0000   1.0000   1.0000
     1.0000   1.0000   1.0000   1.0000   1.0000   1.0000   0.0000   0.0000
     0.0000   0.0000

          k =-0.0943-0.5657 0.6600 (  3924 PWs)   bands (ev):

   -13.3157 -13.3100 -13.2064 -13.1490 -13.1130 -13.0638 -13.0607 -13.0085
   -12.9061 -12.9002   0.4448   1.7828   5.8072   6.1672   9.5791  10.1837
    13.8785  14.8381

     occupation numbers 
     1.0000   1.0000   1.0000   1.0000   1.0000   1.0000   1.0000   1.0000
     1.0000   1.0000   1.0000   1.0000   1.0000   1.0000   0.0000   0.0000
     0.0000   0.0000

          k =-0.0471-0.5185 0.6128 (  3911 PWs)   bands (ev):

   -13.3225 -13.3110 -13.1919 -13.1437 -13.1023 -13.0734 -13.0678 -13.0227
   -12.9046 -12.8931   0.7159   1.4891   5.4989   6.2245   9.6507  10.9330
    13.6787  14.3210

     occupation numbers 
     1.0000   1.0000   1.0000   1.0000   1.0000   1.0000   1.0000   1.0000
     1.0000   1.0000   1.0000   1.0000   1.0000   1.0000   0.0000   0.0000
     0.0000   0.0000

          k = 0.0000-0.4714 0.5657 (  3910 PWs)   bands (ev):

   -13.3263 -13.3109 -13.1893 -13.1220 -13.1024 -13.0867 -13.0765 -13.0253
   -12.9044 -12.8894   0.6582   1.5598   5.3025   6.3621   9.7476  11.8384
    13.4487  13.5423

     occupation numbers 
     1.0000   1.0000   1.0000   1.0000   1.0000   1.0000   1.0000   1.0000
     1.0000   1.0000   1.0000   1.0000   1.0000   1.0000   0.0000   0.0000
     0.0000   0.0000

          k =-0.0471-0.6128 0.7071 (  3913 PWs)   bands (ev):

   -13.3113 -13.3112 -13.2015 -13.1733 -13.0994 -13.0731 -13.0412 -13.0132
   -12.9044 -12.9044   0.7385   1.4338   6.0187   6.0577   9.4319   9.5968
    14.8410  15.2527

     occupation numbers 
     1.0000   1.0000   1.0000   1.0000   1.0000   1.0000   1.0000   1.0000
     1.0000   1.0000   1.0000   1.0000   1.0000   1.0000   0.0000   0.0000
     0.0000   0.0000

          k = 0.0000-0.5657 0.6600 (  3928 PWs)   bands (ev):

   -13.3173 -13.3116 -13.1879 -13.1712 -13.0892 -13.0844 -13.0425 -13.0266
   -12.9039 -12.8982   0.9999   1.1745   5.7479   6.0928   9.5544  10.1048
    14.5701  14.6711

     occupation numbers 
     1.0000   1.0000   1.0000   1.0000   1.0000   1.0000   1.0000   1.0000
     1.0000   1.0000   1.0000   1.0000   1.0000   1.0000   0.0000   0.0000
     0.0000   0.0000

          k = 0.3771 0.1886-0.0000 (  3903 PWs)   bands (ev):

   -13.3016 -13.3006 -13.2389 -13.1683 -13.1371 -13.0648 -13.0082 -12.9831
   -12.9203 -12.9162  -0.7549   3.4944   6.2076   7.0888  10.2869  10.4151
    12.2410  12.9367

     occupation numbers 
     1.0000   1.0000   1.0000   1.0000   1.0000   1.0000   1.0000   1.0000
     1.0000   1.0000   1.0000   1.0000   1.0000   1.0000   0.0000   0.0000
     0.0000   0.0000

          k = 0.4243 0.2357-0.0471 (  3911 PWs)   bands (ev):

   -13.3104 -13.3043 -13.2240 -13.1588 -13.1274 -13.0728 -13.0184 -12.9997
   -12.9132 -12.9083  -0.4499   2.9501   5.8935   6.9004  10.2514  10.8930
    12.1842  13.2594

     occupation numbers 
     1.0000   1.0000   1.0000   1.0000   1.0000   1.0000   1.0000   1.0000
     1.0000   1.0000   1.0000   1.0000   1.0000   1.0000   0.0000   0.0000
     0.0000   0.0000

          k =-0.2357-0.4243 0.6128 (  3912 PWs)   bands (ev):

   -13.3171 -13.3065 -13.2110 -13.1491 -13.1230 -13.0748 -13.0308 -13.0126
   -12.9102 -12.9005  -0.1342   2.4514   5.7002   6.7398  10.1918  11.2291
    12.4435  13.4187

     occupation numbers 
     1.0000   1.0000   1.0000   1.0000   1.0000   1.0000   1.0000   1.0000
     1.0000   1.0000   1.0000   1.0000   1.0000   1.0000   0.0000   0.0000
     0.0000   0.0000

          k =-0.1886-0.3771 0.5657 (  3915 PWs)   bands (ev):

   -13.3206 -13.3077 -13.2034 -13.1411 -13.1239 -13.0722 -13.0425 -13.0184
   -12.9088 -12.8963   0.0980   2.1205   5.6096   6.6500  10.1581  11.3079
    12.9227  13.5207

     occupation numbers 
     1.0000   1.0000   1.0000   1.0000   1.0000   1.0000   1.0000   1.0000
     1.0000   1.0000   1.0000   1.0000   1.0000   1.0000   0.0000   0.0000
     0.0000   0.0000

          k = 0.4714 0.1886-0.0000 (  3924 PWs)   bands (ev):

   -13.3093 -13.3069 -13.2260 -13.1491 -13.1101 -13.0965 -13.0263 -12.9924
   -12.9100 -12.9097  -0.3184   2.7898   5.9344   6.5720  10.2124  10.5075
    12.3692  13.9053

     occupation numbers 
     1.0000   1.0000   1.0000   1.0000   1.0000   1.0000   1.0000   1.0000
     1.0000   1.0000   1.0000   1.0000   1.0000   1.0000   0.0000   0.0000
     0.0000   0.0000

          k =-0.1886-0.4714 0.6600 (  3920 PWs)   bands (ev):

   -13.3170 -13.3100 -13.2086 -13.1385 -13.1058 -13.0993 -13.0390 -13.0099
   -12.9066 -12.9000   0.0038   2.3311   5.6723   6.4093  10.3406  10.9911
    12.2238  14.0934

     occupation numbers 
     1.0000   1.0000   1.0000   1.0000   1.0000   1.0000   1.0000   1.0000
     1.0000   1.0000   1.0000   1.0000   1.0000   1.0000   0.0000   0.0000
     0.0000   0.0000

          k =-0.1414-0.4243 0.6128 (  3918 PWs)   bands (ev):

   -13.3225 -13.3115 -13.1951 -13.1294 -13.1066 -13.0964 -13.0520 -13.0222
   -12.9045 -12.8937   0.2867   1.9663   5.4889   6.3319  10.3608  11.5212
    12.3643  13.8353

     occupation numbers 
     1.0000   1.0000   1.0000   1.0000   1.0000   1.0000   1.0000   1.0000
     1.0000   1.0000   1.0000   1.0000   1.0000   1.0000   0.0000   0.0000
     0.0000   0.0000

          k =-0.0943-0.3771 0.5657 (  3920 PWs)   bands (ev):

   -13.3245 -13.3120 -13.1900 -13.1271 -13.1055 -13.0944 -13.0583 -13.0266
   -12.9038 -12.8917   0.3692   1.8665   5.3970   6.3608  10.4092  11.6182
    13.0197  13.1872

     occupation numbers 
     1.0000   1.0000   1.0000   1.0000   1.0000   1.0000   1.0000   1.0000
     1.0000   1.0000   1.0000   1.0000   1.0000   1.0000   0.0000   0.0000
     0.0000   0.0000

          k =-0.0471-0.3300 0.5185 (  3910 PWs)   bands (ev):

   -13.3226 -13.3112 -13.1947 -13.1358 -13.1078 -13.0899 -13.0497 -13.0240
   -12.9045 -12.8942   0.1739   2.1075   5.4186   6.4867  10.4734  11.5413
    12.4046  13.7335

     occupation numbers 
     1.0000   1.0000   1.0000   1.0000   1.0000   1.0000   1.0000   1.0000
     1.0000   1.0000   1.0000   1.0000   1.0000   1.0000   0.0000   0.0000
     0.0000   0.0000

          k = 0.0000-0.2828 0.4714 (  3913 PWs)   bands (ev):

   -13.3173 -13.3090 -13.2073 -13.1483 -13.1151 -13.0834 -13.0321 -13.0155
   -12.9069 -12.9008  -0.1382   2.5145   5.5782   6.6825  10.4908  11.1973
    12.0943  13.7285

     occupation numbers 
     1.0000   1.0000   1.0000   1.0000   1.0000   1.0000   1.0000   1.0000
     1.0000   1.0000   1.0000   1.0000   1.0000   1.0000   0.0000   0.0000
     0.0000   0.0000

          k =-0.1414-0.5185 0.7071 (  3933 PWs)   bands (ev):

   -13.3147 -13.3125 -13.2081 -13.1282 -13.1261 -13.0819 -13.0493 -13.0077
   -12.9037 -12.9021   0.1980   2.0941   5.7854   6.1670  10.1111  10.3981
    12.9298  14.6224

     occupation numbers 
     1.0000   1.0000   1.0000   1.0000   1.0000   1.0000   1.0000   1.0000
     1.0000   1.0000   1.0000   1.0000   1.0000   1.0000   0.0000   0.0000
     0.0000   0.0000

          k =-0.0943-0.4714 0.6600 (  3920 PWs)   bands (ev):

   -13.3210 -13.3145 -13.1894 -13.1320 -13.1148 -13.0772 -13.0629 -13.0255
   -12.9012 -12.8948   0.5160   1.7242   5.5668   6.0617  10.2745  11.0002
    12.7416  14.1907

     occupation numbers 
     1.0000   1.0000   1.0000   1.0000   1.0000   1.0000   1.0000   1.0000
     1.0000   1.0000   1.0000   1.0000   1.0000   1.0000   0.0000   0.0000
     0.0000   0.0000

          k =-0.0471-0.4243 0.6128 (  3920 PWs)   bands (ev):

   -13.3251 -13.3148 -13.1802 -13.1243 -13.1076 -13.0842 -13.0724 -13.0333
   -12.9006 -12.8905   0.6709   1.5583   5.3821   6.1070  10.3530  11.8252
    12.6380  13.3280

     occupation numbers 
     1.0000   1.0000   1.0000   1.0000   1.0000   1.0000   1.0000   1.0000
     1.0000   1.0000   1.0000   1.0000   1.0000   1.0000   0.0000   0.0000
     0.0000   0.0000

          k = 0.0000-0.3771 0.5657 (  3922 PWs)   bands (ev):

   -13.3257 -13.3138 -13.1834 -13.1187 -13.1070 -13.0936 -13.0684 -13.0309
   -12.9016 -12.8903   0.4869   1.7614   5.3172   6.2604  10.4492  12.1187
    12.5206  13.1116

     occupation numbers 
     1.0000   1.0000   1.0000   1.0000   1.0000   1.0000   1.0000   1.0000
     1.0000   1.0000   1.0000   1.0000   1.0000   1.0000   0.0000   0.0000
     0.0000   0.0000

          k =-0.0471-0.5185 0.7071 (  3925 PWs)   bands (ev):

   -13.3170 -13.3161 -13.1852 -13.1582 -13.1007 -13.0746 -13.0542 -13.0289
   -12.8994 -12.8986   0.7822   1.4198   5.7710   5.8976  10.1173  10.2248
    13.6867  14.4290

     occupation numbers 
     1.0000   1.0000   1.0000   1.0000   1.0000   1.0000   1.0000   1.0000
     1.0000   1.0000   1.0000   1.0000   1.0000   1.0000   0.0000   0.0000
     0.0000   0.0000

          k = 0.0000-0.4714 0.6600 (  3920 PWs)   bands (ev):

   -13.3223 -13.3163 -13.1740 -13.1506 -13.0936 -13.0846 -13.0604 -13.0388
   -12.8991 -12.8932   0.9551   1.2544   5.5459   5.9278  10.2447  10.9734
    13.4873  13.4996

     occupation numbers 
     1.0000   1.0000   1.0000   1.0000   1.0000   1.0000   1.0000   1.0000
     1.0000   1.0000   1.0000   1.0000   1.0000   1.0000   0.0000   0.0000
     0.0000   0.0000

          k =-0.1414-0.4243 0.7071 (  3899 PWs)   bands (ev):

   -13.3214 -13.3148 -13.1899 -13.1268 -13.1131 -13.0909 -13.0547 -13.0264
   -12.9009 -12.8950   0.3278   1.9470   5.4921   6.1740  10.9308  11.0789
    12.0772  14.0186

     occupation numbers 
     1.0000   1.0000   1.0000   1.0000   1.0000   1.0000   1.0000   1.0000
     1.0000   1.0000   1.0000   1.0000   1.0000   1.0000   0.0000   0.0000
     0.0000   0.0000

          k =-0.0943-0.3771 0.6600 (  3919 PWs)   bands (ev):

   -13.3244 -13.3167 -13.1769 -13.1212 -13.1130 -13.0861 -13.0684 -13.0365
   -12.8988 -12.8913   0.5989   1.6435   5.4115   6.0298  10.9710  11.5573
    12.2973  13.1870

     occupation numbers 
     1.0000   1.0000   1.0000   1.0000   1.0000   1.0000   1.0000   1.0000
     1.0000   1.0000   1.0000   1.0000   1.0000   1.0000   0.0000   0.0000
     0.0000   0.0000

          k =-0.0471-0.4243 0.7071 (  3915 PWs)   bands (ev):

   -13.3221 -13.3196 -13.1678 -13.1417 -13.1031 -13.0787 -13.0665 -13.0441
   -12.8958 -12.8934   0.8418   1.3865   5.5605   5.7899  11.0423  11.0502
    12.5558  13.3179

     occupation numbers 
     1.0000   1.0000   1.0000   1.0000   1.0000   1.0000   1.0000   1.0000
     1.0000   1.0000   1.0000   1.0000   1.0000   1.0000   0.0000   0.0000
     0.0000   0.0000

          k =-0.0000-0.3771 0.6600 (  3913 PWs)   bands (ev):

   -13.3241 -13.3196 -13.1628 -13.1367 -13.1010 -13.0842 -13.0697 -13.0477
   -12.8957 -12.8913   0.9026   1.3295   5.4761   5.8013  11.1114  11.7777
    12.4364  12.5429

     occupation numbers 
     1.0000   1.0000   1.0000   1.0000   1.0000   1.0000   1.0000   1.0000
     1.0000   1.0000   1.0000   1.0000   1.0000   1.0000   0.0000   0.0000
     0.0000   0.0000

     the Fermi energy is     8.3422 ev

!    total energy              =    -241.29906347 Ry
     Harris-Foulkes estimate   =    -241.29906346 Ry
     estimated scf accuracy    <       0.00000005 Ry

     The total energy is the sum of the following terms:

     one-electron contribution =    -109.44943957 Ry
     hartree contribution      =      65.33986604 Ry
     xc contribution           =     -29.40804647 Ry
     ewald contribution        =    -167.78134162 Ry
     smearing contrib. (-TS)   =      -0.00010186 Ry

     convergence has been achieved in   5 iterations

     Writing output data file Sn.save
 
     init_run     :      1.89s CPU      2.04s WALL (       1 calls)
     electrons    :     46.86s CPU     47.94s WALL (       1 calls)

     Called by init_run:
     wfcinit      :      1.77s CPU      1.81s WALL (       1 calls)
     potinit      :      0.02s CPU      0.02s WALL (       1 calls)

     Called by electrons:
     c_bands      :     41.49s CPU     42.35s WALL (       6 calls)
     sum_band     :      5.31s CPU      5.48s WALL (       6 calls)
     v_of_rho     :      0.05s CPU      0.05s WALL (       6 calls)
     v_h          :      0.00s CPU      0.01s WALL (       6 calls)
     v_xc         :      0.04s CPU      0.04s WALL (       6 calls)
     mix_rho      :      0.00s CPU      0.01s WALL (       6 calls)

     Called by c_bands:
     init_us_2    :      0.19s CPU      0.20s WALL (    1560 calls)
     cegterg      :     40.43s CPU     41.20s WALL (     720 calls)

     Called by sum_band:

     Called by *egterg:
     h_psi        :     35.18s CPU     35.84s WALL (    2969 calls)
     g_psi        :      0.10s CPU      0.10s WALL (    2129 calls)
     cdiaghg      :      2.85s CPU      2.88s WALL (    2729 calls)
     cegterg:over :      1.74s CPU      1.78s WALL (    2129 calls)
     cegterg:upda :      0.47s CPU      0.47s WALL (    2129 calls)
     cegterg:last :      0.26s CPU      0.26s WALL (     872 calls)

     Called by h_psi:
     h_psi:vloc   :     33.07s CPU     33.68s WALL (    2969 calls)
     h_psi:vnl    :      2.06s CPU      2.11s WALL (    2969 calls)
     add_vuspsi   :      0.48s CPU      0.49s WALL (    2969 calls)

     General routines
     calbec       :      1.56s CPU      1.59s WALL (    2969 calls)
     fft          :      0.04s CPU      0.07s WALL (      67 calls)
     fftw         :     36.89s CPU     37.61s WALL (   96612 calls)
     davcio       :      0.01s CPU      0.10s WALL (     120 calls)
 
     Parallel routines
     fft_scatter  :     28.07s CPU     28.67s WALL (   96679 calls)
 
     PWSCF        :    49.01s CPU        50.42s WALL

 
   This run was terminated on:   0:54:14  21Feb2020            

=------------------------------------------------------------------------------=
   JOB DONE.
=------------------------------------------------------------------------------=
