
     Program PWSCF v.5.4.0 starts on 16Mar2020 at 22:54:38 

     This program is part of the open-source Quantum ESPRESSO suite
     for quantum simulation of materials; please cite
         "P. Giannozzi et al., J. Phys.:Condens. Matter 21 395502 (2009);
          URL http://www.quantum-espresso.org", 
     in publications or presentations arising from this work. More details at
     http://www.quantum-espresso.org/quote

     Parallel version (MPI & OpenMP), running on      16 processor cores
     Number of MPI processes:                16
     Threads/MPI process:                     1
     R & G space division:  proc/nbgrp/npool/nimage =      16
     Waiting for input...
     Reading input from standard input
Warning: card &IONS ignored
Warning: card / ignored
Warning: card &CELL ignored
Warning: card / ignored

     Current dimensions of program PWSCF are:
     Max number of different atomic species (ntypx) = 10
     Max number of k-points (npk) =  40000
     Max angular momentum in pseudopotentials (lmaxx) =  3
               file Sn.rel-pbesol-dn-kjpaw_psl.1.0.0.UPF: wavefunction(s)  5S 5P 5P 4D 4D renormalized

     Subspace diagonalization in iterative solution of the eigenvalue problem:
     a serial algorithm will be used

 
     Parallelization info
     --------------------
     sticks:   dense  smooth     PW     G-vecs:    dense   smooth      PW
     Min         117     117     33                 3318     3318     505
     Max         119     119     34                 3319     3319     507
     Sum        1879    1879    535                53089    53089    8099
 

     Title: 
     Sn                                                                         


     bravais-lattice index     =            0
     lattice parameter (alat)  =       8.9127  a.u.
     unit-cell volume          =     500.6268 (a.u.)^3
     number of atoms/cell      =            2
     number of atomic types    =            1
     number of electrons       =        28.00
     number of Kohn-Sham states=           36
     kinetic-energy cutoff     =      85.0000  Ry
     charge density cutoff     =     340.0000  Ry
     convergence threshold     =      1.0E-06
     mixing beta               =       0.7000
     number of iterations used =            8  plain     mixing
     Exchange-correlation      =  SLA  PW   PSX  PSC ( 1  4 10  8 0 0)
     Non magnetic calculation with spin-orbit


     celldm(1)=   8.912709  celldm(2)=   0.000000  celldm(3)=   0.000000
     celldm(4)=   0.000000  celldm(5)=   0.000000  celldm(6)=   0.000000

     crystal axes: (cart. coord. in units of alat)
               a(1) = (   0.000000   0.707107   0.707107 )  
               a(2) = (   0.707107   0.000000   0.707107 )  
               a(3) = (   0.707107   0.707107   0.000000 )  

     reciprocal axes: (cart. coord. in units 2 pi/alat)
               b(1) = ( -0.707107  0.707107  0.707107 )  
               b(2) = (  0.707107 -0.707107  0.707107 )  
               b(3) = (  0.707107  0.707107 -0.707107 )  


     PseudoPot. # 1 for Sn read from file:
     ../PseudopotentialDatabase/Sn.rel-pbesol-dn-kjpaw_psl.1.0.0.UPF
     MD5 check sum: e69eff64f15ae39ad43ef58bacbfdf88
     Pseudo is Projector augmented-wave + core cor, Zval = 14.0
     Generated using "atomic" code by A. Dal Corso  v.6.3
     Shape of augmentation charge: PSQ
     Using radial grid of 1243 points, 10 beta functions with: 
                l(1) =   0
                l(2) =   0
                l(3) =   1
                l(4) =   1
                l(5) =   1
                l(6) =   1
                l(7) =   2
                l(8) =   2
                l(9) =   2
               l(10) =   2
     Q(r) pseudized with 0 coefficients 


     atomic species   valence    mass     pseudopotential
        Sn            14.00   118.71000     Sn( 1.00)

     24 Sym. Ops. (no inversion) found
          (note: 24 additional sym.ops. were found but ignored
           their fractional translations are incommensurate with FFT grid)

                                    s                        frac. trans.

      isym =  1     identity                                     

 cryst.   s( 1) = (     1          0          0      )
                  (     0          1          0      )
                  (     0          0          1      )

 cart.    s( 1) = (  1.0000000  0.0000000  0.0000000 )
                  (  0.0000000  1.0000000  0.0000000 )
                  (  0.0000000  0.0000000  1.0000000 )


      isym =  2     180 deg rotation - cart. axis [0,0,1]        

 cryst.   s( 2) = (     0          1         -1      )
                  (     1          0         -1      )
                  (     0          0         -1      )

 cart.    s( 2) = ( -1.0000000  0.0000000  0.0000000 )
                  (  0.0000000 -1.0000000  0.0000000 )
                  (  0.0000000  0.0000000  1.0000000 )


      isym =  3     180 deg rotation - cart. axis [0,1,0]        

 cryst.   s( 3) = (     0         -1          1      )
                  (     0         -1          0      )
                  (     1         -1          0      )

 cart.    s( 3) = ( -1.0000000  0.0000000  0.0000000 )
                  (  0.0000000  1.0000000  0.0000000 )
                  (  0.0000000  0.0000000 -1.0000000 )


      isym =  4     180 deg rotation - cart. axis [1,0,0]        

 cryst.   s( 4) = (    -1          0          0      )
                  (    -1          0          1      )
                  (    -1          1          0      )

 cart.    s( 4) = (  1.0000000  0.0000000  0.0000000 )
                  (  0.0000000 -1.0000000  0.0000000 )
                  (  0.0000000  0.0000000 -1.0000000 )


      isym =  5     120 deg rotation - cart. axis [-1,-1,-1]     

 cryst.   s( 5) = (     0          0          1      )
                  (     1          0          0      )
                  (     0          1          0      )

 cart.    s( 5) = (  0.0000000  1.0000000  0.0000000 )
                  (  0.0000000  0.0000000  1.0000000 )
                  (  1.0000000  0.0000000  0.0000000 )


      isym =  6     120 deg rotation - cart. axis [-1,1,1]       

 cryst.   s( 6) = (     1         -1          0      )
                  (     0         -1          1      )
                  (     0         -1          0      )

 cart.    s( 6) = (  0.0000000 -1.0000000  0.0000000 )
                  (  0.0000000  0.0000000  1.0000000 )
                  ( -1.0000000  0.0000000  0.0000000 )


      isym =  7     120 deg rotation - cart. axis [1,1,-1]       

 cryst.   s( 7) = (    -1          1          0      )
                  (    -1          0          0      )
                  (    -1          0          1      )

 cart.    s( 7) = (  0.0000000  1.0000000  0.0000000 )
                  (  0.0000000  0.0000000 -1.0000000 )
                  ( -1.0000000  0.0000000  0.0000000 )


      isym =  8     120 deg rotation - cart. axis [1,-1,1]       

 cryst.   s( 8) = (     0          0         -1      )
                  (     0          1         -1      )
                  (     1          0         -1      )

 cart.    s( 8) = (  0.0000000 -1.0000000  0.0000000 )
                  (  0.0000000  0.0000000 -1.0000000 )
                  (  1.0000000  0.0000000  0.0000000 )


      isym =  9     120 deg rotation - cart. axis [1,1,1]        

 cryst.   s( 9) = (     0          1          0      )
                  (     0          0          1      )
                  (     1          0          0      )

 cart.    s( 9) = (  0.0000000  0.0000000  1.0000000 )
                  (  1.0000000  0.0000000  0.0000000 )
                  (  0.0000000  1.0000000  0.0000000 )


      isym = 10     120 deg rotation - cart. axis [-1,1,-1]      

 cryst.   s(10) = (    -1          0          1      )
                  (    -1          1          0      )
                  (    -1          0          0      )

 cart.    s(10) = (  0.0000000  0.0000000  1.0000000 )
                  ( -1.0000000  0.0000000  0.0000000 )
                  (  0.0000000 -1.0000000  0.0000000 )


      isym = 11     120 deg rotation - cart. axis [1,-1,-1]      

 cryst.   s(11) = (     1          0         -1      )
                  (     0          0         -1      )
                  (     0          1         -1      )

 cart.    s(11) = (  0.0000000  0.0000000 -1.0000000 )
                  ( -1.0000000  0.0000000  0.0000000 )
                  (  0.0000000  1.0000000  0.0000000 )


      isym = 12     120 deg rotation - cart. axis [-1,-1,1]      

 cryst.   s(12) = (     0         -1          0      )
                  (     1         -1          0      )
                  (     0         -1          1      )

 cart.    s(12) = (  0.0000000  0.0000000 -1.0000000 )
                  (  1.0000000  0.0000000  0.0000000 )
                  (  0.0000000 -1.0000000  0.0000000 )


      isym = 13     inv. 180 deg rotation - cart. axis [1,1,0]   

 cryst.   s(13) = (     1          0         -1      )
                  (     0          1         -1      )
                  (     0          0         -1      )

 cart.    s(13) = (  0.0000000 -1.0000000  0.0000000 )
                  ( -1.0000000  0.0000000  0.0000000 )
                  (  0.0000000  0.0000000  1.0000000 )


      isym = 14     inv. 180 deg rotation - cart. axis [1,-1,0]  

 cryst.   s(14) = (     0          1          0      )
                  (     1          0          0      )
                  (     0          0          1      )

 cart.    s(14) = (  0.0000000  1.0000000  0.0000000 )
                  (  1.0000000  0.0000000  0.0000000 )
                  (  0.0000000  0.0000000  1.0000000 )


      isym = 15     inv.  90 deg rotation - cart. axis [0,0,-1]  

 cryst.   s(15) = (     0         -1          0      )
                  (     0         -1          1      )
                  (     1         -1          0      )

 cart.    s(15) = (  0.0000000 -1.0000000  0.0000000 )
                  (  1.0000000  0.0000000  0.0000000 )
                  (  0.0000000  0.0000000 -1.0000000 )


      isym = 16     inv.  90 deg rotation - cart. axis [0,0,1]   

 cryst.   s(16) = (    -1          0          1      )
                  (    -1          0          0      )
                  (    -1          1          0      )

 cart.    s(16) = (  0.0000000  1.0000000  0.0000000 )
                  ( -1.0000000  0.0000000  0.0000000 )
                  (  0.0000000  0.0000000 -1.0000000 )


      isym = 17     inv. 180 deg rotation - cart. axis [1,0,1]   

 cryst.   s(17) = (     1         -1          0      )
                  (     0         -1          0      )
                  (     0         -1          1      )

 cart.    s(17) = (  0.0000000  0.0000000 -1.0000000 )
                  (  0.0000000  1.0000000  0.0000000 )
                  ( -1.0000000  0.0000000  0.0000000 )


      isym = 18     inv. 180 deg rotation - cart. axis [-1,0,1]  

 cryst.   s(18) = (     0          0          1      )
                  (     0          1          0      )
                  (     1          0          0      )

 cart.    s(18) = (  0.0000000  0.0000000  1.0000000 )
                  (  0.0000000  1.0000000  0.0000000 )
                  (  1.0000000  0.0000000  0.0000000 )


      isym = 19     inv.  90 deg rotation - cart. axis [0,1,0]   

 cryst.   s(19) = (     0          0         -1      )
                  (     1          0         -1      )
                  (     0          1         -1      )

 cart.    s(19) = (  0.0000000  0.0000000 -1.0000000 )
                  (  0.0000000 -1.0000000  0.0000000 )
                  (  1.0000000  0.0000000  0.0000000 )


      isym = 20     inv.  90 deg rotation - cart. axis [0,-1,0]  

 cryst.   s(20) = (    -1          1          0      )
                  (    -1          0          1      )
                  (    -1          0          0      )

 cart.    s(20) = (  0.0000000  0.0000000  1.0000000 )
                  (  0.0000000 -1.0000000  0.0000000 )
                  ( -1.0000000  0.0000000  0.0000000 )


      isym = 21     inv. 180 deg rotation - cart. axis [0,1,1]   

 cryst.   s(21) = (    -1          0          0      )
                  (    -1          1          0      )
                  (    -1          0          1      )

 cart.    s(21) = (  1.0000000  0.0000000  0.0000000 )
                  (  0.0000000  0.0000000 -1.0000000 )
                  (  0.0000000 -1.0000000  0.0000000 )


      isym = 22     inv. 180 deg rotation - cart. axis [0,1,-1]  

 cryst.   s(22) = (     1          0          0      )
                  (     0          0          1      )
                  (     0          1          0      )

 cart.    s(22) = (  1.0000000  0.0000000  0.0000000 )
                  (  0.0000000  0.0000000  1.0000000 )
                  (  0.0000000  1.0000000  0.0000000 )


      isym = 23     inv.  90 deg rotation - cart. axis [-1,0,0]  

 cryst.   s(23) = (     0          1         -1      )
                  (     0          0         -1      )
                  (     1          0         -1      )

 cart.    s(23) = ( -1.0000000  0.0000000  0.0000000 )
                  (  0.0000000  0.0000000 -1.0000000 )
                  (  0.0000000  1.0000000  0.0000000 )


      isym = 24     inv.  90 deg rotation - cart. axis [1,0,0]   

 cryst.   s(24) = (     0         -1          1      )
                  (     1         -1          0      )
                  (     0         -1          0      )

 cart.    s(24) = ( -1.0000000  0.0000000  0.0000000 )
                  (  0.0000000  0.0000000  1.0000000 )
                  (  0.0000000 -1.0000000  0.0000000 )


   Cartesian axes

     site n.     atom                  positions (alat units)
         1           Sn  tau(   1) = (   0.0000000   0.0000000   0.0000000  )
         2           Sn  tau(   2) = (   0.3535534   0.3535534   0.3535534  )

   Crystallographic axes

     site n.     atom                  positions (cryst. coord.)
         1           Sn  tau(   1) = (  0.0000000  0.0000000  0.0000000  )
         2           Sn  tau(   2) = (  0.2500000  0.2500000  0.2500000  )

     number of k points=   145  gaussian smearing, width (Ry)=  0.0001
                       cart. coord. in units 2pi/alat
        k(    1) = (   0.0000000   0.0000000   0.0000000), wk =   0.0002441
        k(    2) = (   0.0441942   0.0441942  -0.0441942), wk =   0.0019531
        k(    3) = (   0.0883883   0.0883883  -0.0883883), wk =   0.0019531
        k(    4) = (   0.1325825   0.1325825  -0.1325825), wk =   0.0019531
        k(    5) = (   0.1767767   0.1767767  -0.1767767), wk =   0.0019531
        k(    6) = (   0.2209709   0.2209709  -0.2209709), wk =   0.0019531
        k(    7) = (   0.2651650   0.2651650  -0.2651650), wk =   0.0019531
        k(    8) = (   0.3093592   0.3093592  -0.3093592), wk =   0.0019531
        k(    9) = (  -0.3535534  -0.3535534   0.3535534), wk =   0.0009766
        k(   10) = (   0.0883883   0.0000000   0.0000000), wk =   0.0014648
        k(   11) = (   0.1325825   0.0441942  -0.0441942), wk =   0.0058594
        k(   12) = (   0.1767767   0.0883883  -0.0883883), wk =   0.0058594
        k(   13) = (   0.2209709   0.1325825  -0.1325825), wk =   0.0058594
        k(   14) = (   0.2651650   0.1767767  -0.1767767), wk =   0.0058594
        k(   15) = (   0.3093592   0.2209709  -0.2209709), wk =   0.0058594
        k(   16) = (   0.3535534   0.2651650  -0.2651650), wk =   0.0058594
        k(   17) = (  -0.3093592  -0.3977476   0.3977476), wk =   0.0058594
        k(   18) = (  -0.2651650  -0.3535534   0.3535534), wk =   0.0058594
        k(   19) = (  -0.2209709  -0.3093592   0.3093592), wk =   0.0058594
        k(   20) = (  -0.1767767  -0.2651650   0.2651650), wk =   0.0058594
        k(   21) = (  -0.1325825  -0.2209709   0.2209709), wk =   0.0058594
        k(   22) = (  -0.0883883  -0.1767767   0.1767767), wk =   0.0058594
        k(   23) = (  -0.0441942  -0.1325825   0.1325825), wk =   0.0058594
        k(   24) = (   0.0000000  -0.0883883   0.0883883), wk =   0.0029297
        k(   25) = (   0.1767767   0.0000000   0.0000000), wk =   0.0014648
        k(   26) = (   0.2209709   0.0441942  -0.0441942), wk =   0.0058594
        k(   27) = (   0.2651650   0.0883883  -0.0883883), wk =   0.0058594
        k(   28) = (   0.3093592   0.1325825  -0.1325825), wk =   0.0058594
        k(   29) = (   0.3535534   0.1767767  -0.1767767), wk =   0.0058594
        k(   30) = (   0.3977476   0.2209709  -0.2209709), wk =   0.0058594
        k(   31) = (  -0.2651650  -0.4419417   0.4419417), wk =   0.0058594
        k(   32) = (  -0.2209709  -0.3977476   0.3977476), wk =   0.0058594
        k(   33) = (  -0.1767767  -0.3535534   0.3535534), wk =   0.0058594
        k(   34) = (  -0.1325825  -0.3093592   0.3093592), wk =   0.0058594
        k(   35) = (  -0.0883883  -0.2651650   0.2651650), wk =   0.0058594
        k(   36) = (  -0.0441942  -0.2209709   0.2209709), wk =   0.0058594
        k(   37) = (   0.0000000  -0.1767767   0.1767767), wk =   0.0029297
        k(   38) = (   0.2651650   0.0000000   0.0000000), wk =   0.0014648
        k(   39) = (   0.3093592   0.0441942  -0.0441942), wk =   0.0058594
        k(   40) = (   0.3535534   0.0883883  -0.0883883), wk =   0.0058594
        k(   41) = (   0.3977476   0.1325825  -0.1325825), wk =   0.0058594
        k(   42) = (   0.4419417   0.1767767  -0.1767767), wk =   0.0058594
        k(   43) = (  -0.2209709  -0.4861359   0.4861359), wk =   0.0058594
        k(   44) = (  -0.1767767  -0.4419417   0.4419417), wk =   0.0058594
        k(   45) = (  -0.1325825  -0.3977476   0.3977476), wk =   0.0058594
        k(   46) = (  -0.0883883  -0.3535534   0.3535534), wk =   0.0058594
        k(   47) = (  -0.0441942  -0.3093592   0.3093592), wk =   0.0058594
        k(   48) = (   0.0000000  -0.2651650   0.2651650), wk =   0.0029297
        k(   49) = (   0.3535534   0.0000000   0.0000000), wk =   0.0014648
        k(   50) = (   0.3977476   0.0441942  -0.0441942), wk =   0.0058594
        k(   51) = (   0.4419417   0.0883883  -0.0883883), wk =   0.0058594
        k(   52) = (   0.4861359   0.1325825  -0.1325825), wk =   0.0058594
        k(   53) = (  -0.1767767  -0.5303301   0.5303301), wk =   0.0058594
        k(   54) = (  -0.1325825  -0.4861359   0.4861359), wk =   0.0058594
        k(   55) = (  -0.0883883  -0.4419417   0.4419417), wk =   0.0058594
        k(   56) = (  -0.0441942  -0.3977476   0.3977476), wk =   0.0058594
        k(   57) = (   0.0000000  -0.3535534   0.3535534), wk =   0.0029297
        k(   58) = (   0.4419417   0.0000000   0.0000000), wk =   0.0014648
        k(   59) = (   0.4861359   0.0441942  -0.0441942), wk =   0.0058594
        k(   60) = (   0.5303301   0.0883883  -0.0883883), wk =   0.0058594
        k(   61) = (  -0.1325825  -0.5745243   0.5745243), wk =   0.0058594
        k(   62) = (  -0.0883883  -0.5303301   0.5303301), wk =   0.0058594
        k(   63) = (  -0.0441942  -0.4861359   0.4861359), wk =   0.0058594
        k(   64) = (   0.0000000  -0.4419417   0.4419417), wk =   0.0029297
        k(   65) = (   0.5303301   0.0000000   0.0000000), wk =   0.0014648
        k(   66) = (   0.5745243   0.0441942  -0.0441942), wk =   0.0058594
        k(   67) = (  -0.0883883  -0.6187184   0.6187184), wk =   0.0058594
        k(   68) = (  -0.0441942  -0.5745243   0.5745243), wk =   0.0058594
        k(   69) = (   0.0000000  -0.5303301   0.5303301), wk =   0.0029297
        k(   70) = (   0.6187184   0.0000000   0.0000000), wk =   0.0014648
        k(   71) = (  -0.0441942  -0.6629126   0.6629126), wk =   0.0058594
        k(   72) = (   0.0000000  -0.6187184   0.6187184), wk =   0.0029297
        k(   73) = (  -0.7071068   0.0000000   0.0000000), wk =   0.0007324
        k(   74) = (   0.1767767   0.0883883   0.0000000), wk =   0.0058594
        k(   75) = (   0.2209709   0.1325825  -0.0441942), wk =   0.0117188
        k(   76) = (   0.2651650   0.1767767  -0.0883883), wk =   0.0117188
        k(   77) = (   0.3093592   0.2209709  -0.1325825), wk =   0.0117188
        k(   78) = (   0.3535534   0.2651650  -0.1767767), wk =   0.0117188
        k(   79) = (  -0.3093592  -0.3977476   0.4861359), wk =   0.0117188
        k(   80) = (  -0.2651650  -0.3535534   0.4419417), wk =   0.0058594
        k(   81) = (   0.2651650   0.0883883   0.0000000), wk =   0.0058594
        k(   82) = (   0.3093592   0.1325825  -0.0441942), wk =   0.0117188
        k(   83) = (   0.3535534   0.1767767  -0.0883883), wk =   0.0117188
        k(   84) = (   0.3977476   0.2209709  -0.1325825), wk =   0.0117188
        k(   85) = (  -0.2651650  -0.4419417   0.5303301), wk =   0.0117188
        k(   86) = (  -0.2209709  -0.3977476   0.4861359), wk =   0.0117188
        k(   87) = (  -0.1767767  -0.3535534   0.4419417), wk =   0.0117188
        k(   88) = (  -0.1325825  -0.3093592   0.3977476), wk =   0.0117188
        k(   89) = (  -0.0883883  -0.2651650   0.3535534), wk =   0.0117188
        k(   90) = (  -0.0441942  -0.2209709   0.3093592), wk =   0.0117188
        k(   91) = (   0.0000000  -0.1767767   0.2651650), wk =   0.0058594
        k(   92) = (   0.3535534   0.0883883   0.0000000), wk =   0.0058594
        k(   93) = (   0.3977476   0.1325825  -0.0441942), wk =   0.0117188
        k(   94) = (   0.4419417   0.1767767  -0.0883883), wk =   0.0117188
        k(   95) = (  -0.2209709  -0.4861359   0.5745243), wk =   0.0117188
        k(   96) = (  -0.1767767  -0.4419417   0.5303301), wk =   0.0117188
        k(   97) = (  -0.1325825  -0.3977476   0.4861359), wk =   0.0117188
        k(   98) = (  -0.0883883  -0.3535534   0.4419417), wk =   0.0117188
        k(   99) = (  -0.0441942  -0.3093592   0.3977476), wk =   0.0117188
        k(  100) = (   0.0000000  -0.2651650   0.3535534), wk =   0.0058594
        k(  101) = (   0.4419417   0.0883883   0.0000000), wk =   0.0058594
        k(  102) = (   0.4861359   0.1325825  -0.0441942), wk =   0.0117188
        k(  103) = (  -0.1767767  -0.5303301   0.6187184), wk =   0.0117188
        k(  104) = (  -0.1325825  -0.4861359   0.5745243), wk =   0.0117188
        k(  105) = (  -0.0883883  -0.4419417   0.5303301), wk =   0.0117188
        k(  106) = (  -0.0441942  -0.3977476   0.4861359), wk =   0.0117188
        k(  107) = (   0.0000000  -0.3535534   0.4419417), wk =   0.0058594
        k(  108) = (   0.5303301   0.0883883   0.0000000), wk =   0.0058594
        k(  109) = (  -0.1325825  -0.5745243   0.6629126), wk =   0.0117188
        k(  110) = (  -0.0883883  -0.5303301   0.6187184), wk =   0.0117188
        k(  111) = (  -0.0441942  -0.4861359   0.5745243), wk =   0.0117188
        k(  112) = (   0.0000000  -0.4419417   0.5303301), wk =   0.0058594
        k(  113) = (  -0.0883883  -0.6187184   0.7071068), wk =   0.0058594
        k(  114) = (  -0.0441942  -0.5745243   0.6629126), wk =   0.0117188
        k(  115) = (  -0.0000000  -0.5303301   0.6187184), wk =   0.0058594
        k(  116) = (  -0.7071068   0.0883883   0.0000000), wk =   0.0029297
        k(  117) = (   0.3535534   0.1767767   0.0000000), wk =   0.0058594
        k(  118) = (   0.3977476   0.2209709  -0.0441942), wk =   0.0117188
        k(  119) = (  -0.2651650  -0.4419417   0.6187184), wk =   0.0117188
        k(  120) = (  -0.2209709  -0.3977476   0.5745243), wk =   0.0117188
        k(  121) = (  -0.1767767  -0.3535534   0.5303301), wk =   0.0058594
        k(  122) = (   0.4419417   0.1767767   0.0000000), wk =   0.0058594
        k(  123) = (  -0.2209709  -0.4861359   0.6629126), wk =   0.0117188
        k(  124) = (  -0.1767767  -0.4419417   0.6187184), wk =   0.0117188
        k(  125) = (  -0.1325825  -0.3977476   0.5745243), wk =   0.0117188
        k(  126) = (  -0.0883883  -0.3535534   0.5303301), wk =   0.0117188
        k(  127) = (  -0.0441942  -0.3093592   0.4861359), wk =   0.0117188
        k(  128) = (   0.0000000  -0.2651650   0.4419417), wk =   0.0058594
        k(  129) = (  -0.1767767  -0.5303301   0.7071068), wk =   0.0058594
        k(  130) = (  -0.1325825  -0.4861359   0.6629126), wk =   0.0117188
        k(  131) = (  -0.0883883  -0.4419417   0.6187184), wk =   0.0117188
        k(  132) = (  -0.0441942  -0.3977476   0.5745243), wk =   0.0117188
        k(  133) = (   0.0000000  -0.3535534   0.5303301), wk =   0.0058594
        k(  134) = (  -0.0883883  -0.5303301   0.7071068), wk =   0.0058594
        k(  135) = (  -0.0441942  -0.4861359   0.6629126), wk =   0.0117188
        k(  136) = (   0.0000000  -0.4419417   0.6187184), wk =   0.0058594
        k(  137) = (  -0.7071068   0.1767767   0.0000000), wk =   0.0029297
        k(  138) = (  -0.1767767  -0.4419417   0.7071068), wk =   0.0058594
        k(  139) = (  -0.1325825  -0.3977476   0.6629126), wk =   0.0117188
        k(  140) = (  -0.0883883  -0.3535534   0.6187184), wk =   0.0058594
        k(  141) = (  -0.0883883  -0.4419417   0.7071068), wk =   0.0058594
        k(  142) = (  -0.0441942  -0.3977476   0.6629126), wk =   0.0117188
        k(  143) = (  -0.0000000  -0.3535534   0.6187184), wk =   0.0058594
        k(  144) = (  -0.7071068   0.2651650   0.0000000), wk =   0.0029297
        k(  145) = (  -0.7071068   0.3535534   0.0000000), wk =   0.0014648

                       cryst. coord.
        k(    1) = (   0.0000000   0.0000000   0.0000000), wk =   0.0002441
        k(    2) = (   0.0000000   0.0000000   0.0625000), wk =   0.0019531
        k(    3) = (   0.0000000   0.0000000   0.1250000), wk =   0.0019531
        k(    4) = (   0.0000000   0.0000000   0.1875000), wk =   0.0019531
        k(    5) = (   0.0000000   0.0000000   0.2500000), wk =   0.0019531
        k(    6) = (   0.0000000   0.0000000   0.3125000), wk =   0.0019531
        k(    7) = (   0.0000000   0.0000000   0.3750000), wk =   0.0019531
        k(    8) = (   0.0000000   0.0000000   0.4375000), wk =   0.0019531
        k(    9) = (   0.0000000   0.0000000  -0.5000000), wk =   0.0009766
        k(   10) = (   0.0000000   0.0625000   0.0625000), wk =   0.0014648
        k(   11) = (   0.0000000   0.0625000   0.1250000), wk =   0.0058594
        k(   12) = (   0.0000000   0.0625000   0.1875000), wk =   0.0058594
        k(   13) = (   0.0000000   0.0625000   0.2500000), wk =   0.0058594
        k(   14) = (   0.0000000   0.0625000   0.3125000), wk =   0.0058594
        k(   15) = (   0.0000000   0.0625000   0.3750000), wk =   0.0058594
        k(   16) = (   0.0000000   0.0625000   0.4375000), wk =   0.0058594
        k(   17) = (   0.0000000   0.0625000  -0.5000000), wk =   0.0058594
        k(   18) = (   0.0000000   0.0625000  -0.4375000), wk =   0.0058594
        k(   19) = (   0.0000000   0.0625000  -0.3750000), wk =   0.0058594
        k(   20) = (   0.0000000   0.0625000  -0.3125000), wk =   0.0058594
        k(   21) = (   0.0000000   0.0625000  -0.2500000), wk =   0.0058594
        k(   22) = (   0.0000000   0.0625000  -0.1875000), wk =   0.0058594
        k(   23) = (   0.0000000   0.0625000  -0.1250000), wk =   0.0058594
        k(   24) = (   0.0000000   0.0625000  -0.0625000), wk =   0.0029297
        k(   25) = (   0.0000000   0.1250000   0.1250000), wk =   0.0014648
        k(   26) = (   0.0000000   0.1250000   0.1875000), wk =   0.0058594
        k(   27) = (   0.0000000   0.1250000   0.2500000), wk =   0.0058594
        k(   28) = (   0.0000000   0.1250000   0.3125000), wk =   0.0058594
        k(   29) = (   0.0000000   0.1250000   0.3750000), wk =   0.0058594
        k(   30) = (   0.0000000   0.1250000   0.4375000), wk =   0.0058594
        k(   31) = (   0.0000000   0.1250000  -0.5000000), wk =   0.0058594
        k(   32) = (   0.0000000   0.1250000  -0.4375000), wk =   0.0058594
        k(   33) = (   0.0000000   0.1250000  -0.3750000), wk =   0.0058594
        k(   34) = (   0.0000000   0.1250000  -0.3125000), wk =   0.0058594
        k(   35) = (   0.0000000   0.1250000  -0.2500000), wk =   0.0058594
        k(   36) = (   0.0000000   0.1250000  -0.1875000), wk =   0.0058594
        k(   37) = (   0.0000000   0.1250000  -0.1250000), wk =   0.0029297
        k(   38) = (   0.0000000   0.1875000   0.1875000), wk =   0.0014648
        k(   39) = (   0.0000000   0.1875000   0.2500000), wk =   0.0058594
        k(   40) = (   0.0000000   0.1875000   0.3125000), wk =   0.0058594
        k(   41) = (   0.0000000   0.1875000   0.3750000), wk =   0.0058594
        k(   42) = (   0.0000000   0.1875000   0.4375000), wk =   0.0058594
        k(   43) = (   0.0000000   0.1875000  -0.5000000), wk =   0.0058594
        k(   44) = (   0.0000000   0.1875000  -0.4375000), wk =   0.0058594
        k(   45) = (   0.0000000   0.1875000  -0.3750000), wk =   0.0058594
        k(   46) = (   0.0000000   0.1875000  -0.3125000), wk =   0.0058594
        k(   47) = (   0.0000000   0.1875000  -0.2500000), wk =   0.0058594
        k(   48) = (   0.0000000   0.1875000  -0.1875000), wk =   0.0029297
        k(   49) = (   0.0000000   0.2500000   0.2500000), wk =   0.0014648
        k(   50) = (   0.0000000   0.2500000   0.3125000), wk =   0.0058594
        k(   51) = (   0.0000000   0.2500000   0.3750000), wk =   0.0058594
        k(   52) = (   0.0000000   0.2500000   0.4375000), wk =   0.0058594
        k(   53) = (   0.0000000   0.2500000  -0.5000000), wk =   0.0058594
        k(   54) = (   0.0000000   0.2500000  -0.4375000), wk =   0.0058594
        k(   55) = (   0.0000000   0.2500000  -0.3750000), wk =   0.0058594
        k(   56) = (   0.0000000   0.2500000  -0.3125000), wk =   0.0058594
        k(   57) = (   0.0000000   0.2500000  -0.2500000), wk =   0.0029297
        k(   58) = (   0.0000000   0.3125000   0.3125000), wk =   0.0014648
        k(   59) = (   0.0000000   0.3125000   0.3750000), wk =   0.0058594
        k(   60) = (   0.0000000   0.3125000   0.4375000), wk =   0.0058594
        k(   61) = (   0.0000000   0.3125000  -0.5000000), wk =   0.0058594
        k(   62) = (   0.0000000   0.3125000  -0.4375000), wk =   0.0058594
        k(   63) = (   0.0000000   0.3125000  -0.3750000), wk =   0.0058594
        k(   64) = (   0.0000000   0.3125000  -0.3125000), wk =   0.0029297
        k(   65) = (   0.0000000   0.3750000   0.3750000), wk =   0.0014648
        k(   66) = (   0.0000000   0.3750000   0.4375000), wk =   0.0058594
        k(   67) = (   0.0000000   0.3750000  -0.5000000), wk =   0.0058594
        k(   68) = (   0.0000000   0.3750000  -0.4375000), wk =   0.0058594
        k(   69) = (   0.0000000   0.3750000  -0.3750000), wk =   0.0029297
        k(   70) = (   0.0000000   0.4375000   0.4375000), wk =   0.0014648
        k(   71) = (   0.0000000   0.4375000  -0.5000000), wk =   0.0058594
        k(   72) = (   0.0000000   0.4375000  -0.4375000), wk =   0.0029297
        k(   73) = (   0.0000000  -0.5000000  -0.5000000), wk =   0.0007324
        k(   74) = (   0.0625000   0.1250000   0.1875000), wk =   0.0058594
        k(   75) = (   0.0625000   0.1250000   0.2500000), wk =   0.0117188
        k(   76) = (   0.0625000   0.1250000   0.3125000), wk =   0.0117188
        k(   77) = (   0.0625000   0.1250000   0.3750000), wk =   0.0117188
        k(   78) = (   0.0625000   0.1250000   0.4375000), wk =   0.0117188
        k(   79) = (   0.0625000   0.1250000  -0.5000000), wk =   0.0117188
        k(   80) = (   0.0625000   0.1250000  -0.4375000), wk =   0.0058594
        k(   81) = (   0.0625000   0.1875000   0.2500000), wk =   0.0058594
        k(   82) = (   0.0625000   0.1875000   0.3125000), wk =   0.0117188
        k(   83) = (   0.0625000   0.1875000   0.3750000), wk =   0.0117188
        k(   84) = (   0.0625000   0.1875000   0.4375000), wk =   0.0117188
        k(   85) = (   0.0625000   0.1875000  -0.5000000), wk =   0.0117188
        k(   86) = (   0.0625000   0.1875000  -0.4375000), wk =   0.0117188
        k(   87) = (   0.0625000   0.1875000  -0.3750000), wk =   0.0117188
        k(   88) = (   0.0625000   0.1875000  -0.3125000), wk =   0.0117188
        k(   89) = (   0.0625000   0.1875000  -0.2500000), wk =   0.0117188
        k(   90) = (   0.0625000   0.1875000  -0.1875000), wk =   0.0117188
        k(   91) = (   0.0625000   0.1875000  -0.1250000), wk =   0.0058594
        k(   92) = (   0.0625000   0.2500000   0.3125000), wk =   0.0058594
        k(   93) = (   0.0625000   0.2500000   0.3750000), wk =   0.0117188
        k(   94) = (   0.0625000   0.2500000   0.4375000), wk =   0.0117188
        k(   95) = (   0.0625000   0.2500000  -0.5000000), wk =   0.0117188
        k(   96) = (   0.0625000   0.2500000  -0.4375000), wk =   0.0117188
        k(   97) = (   0.0625000   0.2500000  -0.3750000), wk =   0.0117188
        k(   98) = (   0.0625000   0.2500000  -0.3125000), wk =   0.0117188
        k(   99) = (   0.0625000   0.2500000  -0.2500000), wk =   0.0117188
        k(  100) = (   0.0625000   0.2500000  -0.1875000), wk =   0.0058594
        k(  101) = (   0.0625000   0.3125000   0.3750000), wk =   0.0058594
        k(  102) = (   0.0625000   0.3125000   0.4375000), wk =   0.0117188
        k(  103) = (   0.0625000   0.3125000  -0.5000000), wk =   0.0117188
        k(  104) = (   0.0625000   0.3125000  -0.4375000), wk =   0.0117188
        k(  105) = (   0.0625000   0.3125000  -0.3750000), wk =   0.0117188
        k(  106) = (   0.0625000   0.3125000  -0.3125000), wk =   0.0117188
        k(  107) = (   0.0625000   0.3125000  -0.2500000), wk =   0.0058594
        k(  108) = (   0.0625000   0.3750000   0.4375000), wk =   0.0058594
        k(  109) = (   0.0625000   0.3750000  -0.5000000), wk =   0.0117188
        k(  110) = (   0.0625000   0.3750000  -0.4375000), wk =   0.0117188
        k(  111) = (   0.0625000   0.3750000  -0.3750000), wk =   0.0117188
        k(  112) = (   0.0625000   0.3750000  -0.3125000), wk =   0.0058594
        k(  113) = (   0.0625000   0.4375000  -0.5000000), wk =   0.0058594
        k(  114) = (   0.0625000   0.4375000  -0.4375000), wk =   0.0117188
        k(  115) = (   0.0625000   0.4375000  -0.3750000), wk =   0.0058594
        k(  116) = (   0.0625000  -0.5000000  -0.4375000), wk =   0.0029297
        k(  117) = (   0.1250000   0.2500000   0.3750000), wk =   0.0058594
        k(  118) = (   0.1250000   0.2500000   0.4375000), wk =   0.0117188
        k(  119) = (   0.1250000   0.2500000  -0.5000000), wk =   0.0117188
        k(  120) = (   0.1250000   0.2500000  -0.4375000), wk =   0.0117188
        k(  121) = (   0.1250000   0.2500000  -0.3750000), wk =   0.0058594
        k(  122) = (   0.1250000   0.3125000   0.4375000), wk =   0.0058594
        k(  123) = (   0.1250000   0.3125000  -0.5000000), wk =   0.0117188
        k(  124) = (   0.1250000   0.3125000  -0.4375000), wk =   0.0117188
        k(  125) = (   0.1250000   0.3125000  -0.3750000), wk =   0.0117188
        k(  126) = (   0.1250000   0.3125000  -0.3125000), wk =   0.0117188
        k(  127) = (   0.1250000   0.3125000  -0.2500000), wk =   0.0117188
        k(  128) = (   0.1250000   0.3125000  -0.1875000), wk =   0.0058594
        k(  129) = (   0.1250000   0.3750000  -0.5000000), wk =   0.0058594
        k(  130) = (   0.1250000   0.3750000  -0.4375000), wk =   0.0117188
        k(  131) = (   0.1250000   0.3750000  -0.3750000), wk =   0.0117188
        k(  132) = (   0.1250000   0.3750000  -0.3125000), wk =   0.0117188
        k(  133) = (   0.1250000   0.3750000  -0.2500000), wk =   0.0058594
        k(  134) = (   0.1250000   0.4375000  -0.4375000), wk =   0.0058594
        k(  135) = (   0.1250000   0.4375000  -0.3750000), wk =   0.0117188
        k(  136) = (   0.1250000   0.4375000  -0.3125000), wk =   0.0058594
        k(  137) = (   0.1250000  -0.5000000  -0.3750000), wk =   0.0029297
        k(  138) = (   0.1875000   0.3750000  -0.4375000), wk =   0.0058594
        k(  139) = (   0.1875000   0.3750000  -0.3750000), wk =   0.0117188
        k(  140) = (   0.1875000   0.3750000  -0.3125000), wk =   0.0058594
        k(  141) = (   0.1875000   0.4375000  -0.3750000), wk =   0.0058594
        k(  142) = (   0.1875000   0.4375000  -0.3125000), wk =   0.0117188
        k(  143) = (   0.1875000   0.4375000  -0.2500000), wk =   0.0058594
        k(  144) = (   0.1875000  -0.5000000  -0.3125000), wk =   0.0029297
        k(  145) = (   0.2500000  -0.5000000  -0.2500000), wk =   0.0014648

     Dense  grid:    53089 G-vectors     FFT dimensions: (  54,  54,  54)

     Largest allocated arrays     est. size (Mb)     dimensions
        Kohn-Sham Wavefunctions         0.47 Mb     (     858,   36)
        NL pseudopotentials             0.45 Mb     (     429,   68)
        Each V/rho on FFT grid          0.18 Mb     (   11664)
        Each G-vector array             0.03 Mb     (    3319)
        G-vector shells                 0.00 Mb     (     445)
     Largest temporary arrays     est. size (Mb)     dimensions
        Auxiliary wavefunctions         1.89 Mb     (     858,  144)
        Each subspace H/S matrix        0.32 Mb     (     144,  144)
        Each <psi_i|beta_j> matrix      0.07 Mb     (      68,   2,   36)
        Arrays for rho mixing           1.42 Mb     (   11664,    8)

     Initial potential from superposition of free atoms

     starting charge   27.99801, renormalised to   28.00000
     Starting wfc are   36 randomized atomic wfcs
     Checking if some PAW data can be deallocated... 

     total cpu time spent up to now is       17.8 secs

     Self-consistent Calculation

     iteration #  1     ecut=    85.00 Ry     beta=0.70
     Davidson diagonalization with overlap
     ethr =  1.00E-02,  avg # of iterations =  3.5

     Threshold (ethr) on eigenvalues was too large:
     Diagonalizing with lowered threshold

     Davidson diagonalization with overlap
     ethr =  5.60E-05,  avg # of iterations =  3.5

     total cpu time spent up to now is      123.6 secs

     total energy              =    -874.81242826 Ry
     Harris-Foulkes estimate   =    -874.81689271 Ry
     estimated scf accuracy    <       0.01837741 Ry

     iteration #  2     ecut=    85.00 Ry     beta=0.70
     Davidson diagonalization with overlap
     ethr =  6.56E-05,  avg # of iterations =  2.0

     total cpu time spent up to now is      168.1 secs

     total energy              =    -874.81339732 Ry
     Harris-Foulkes estimate   =    -874.81375479 Ry
     estimated scf accuracy    <       0.00159252 Ry

     iteration #  3     ecut=    85.00 Ry     beta=0.70
     Davidson diagonalization with overlap
     ethr =  5.69E-06,  avg # of iterations =  2.2

     total cpu time spent up to now is      223.2 secs

     total energy              =    -874.81366888 Ry
     Harris-Foulkes estimate   =    -874.81375325 Ry
     estimated scf accuracy    <       0.00012494 Ry

     iteration #  4     ecut=    85.00 Ry     beta=0.70
     Davidson diagonalization with overlap
     ethr =  4.46E-07,  avg # of iterations =  2.0

     total cpu time spent up to now is      277.5 secs

     total energy              =    -874.81370934 Ry
     Harris-Foulkes estimate   =    -874.81371259 Ry
     estimated scf accuracy    <       0.00000886 Ry

     iteration #  5     ecut=    85.00 Ry     beta=0.70
     Davidson diagonalization with overlap
     ethr =  3.17E-08,  avg # of iterations =  2.0

     total cpu time spent up to now is      325.1 secs

     End of self-consistent calculation

          k = 0.0000 0.0000 0.0000 (  6615 PWs)   bands (ev):

   -15.2400 -15.2400 -15.2400 -15.2400 -15.1594 -15.1594 -15.1594 -15.1594
   -14.3103 -14.3103 -14.1407 -14.1407 -14.1407 -14.1407 -14.1028 -14.1028
   -14.1028 -14.1028 -13.9993 -13.9993  -3.3499  -3.3499   5.5148   5.5148
     6.3930   6.3930   7.0477   7.0478   7.0478   7.0478   8.5641   8.5641
     9.0384   9.0384   9.0384   9.0384

     occupation numbers 
     1.0000   1.0000   1.0000   1.0000   1.0000   1.0000   1.0000   1.0000
     1.0000   1.0000   1.0000   1.0000   1.0000   1.0000   1.0000   1.0000
     1.0000   1.0000   1.0000   1.0000   1.0000   1.0000   1.0000   1.0000
     1.0000   1.0000   0.0000   0.0000   0.0000   0.0000   0.0000   0.0000
     0.0000   0.0000   0.0000   0.0000

          k = 0.0442 0.0442-0.0442 (  6615 PWs)   bands (ev):

   -15.2405 -15.2403 -15.2392 -15.2392 -15.1601 -15.1601 -15.1590 -15.1587
   -14.3085 -14.3085 -14.1457 -14.1457 -14.1441 -14.1435 -14.0998 -14.0992
   -14.0985 -14.0985 -14.0002 -14.0002  -3.3151  -3.3151   5.1190   5.1190
     6.4359   6.4359   6.9725   6.9725   7.0965   7.0965   8.7213   8.7213
     9.1148   9.1148   9.1357   9.1357

     occupation numbers 
     1.0000   1.0000   1.0000   1.0000   1.0000   1.0000   1.0000   1.0000
     1.0000   1.0000   1.0000   1.0000   1.0000   1.0000   1.0000   1.0000
     1.0000   1.0000   1.0000   1.0000   1.0000   1.0000   1.0000   1.0000
     1.0000   1.0000   0.0000   0.0000   0.0000   0.0000   0.0000   0.0000
     0.0000   0.0000   0.0000   0.0000

          k = 0.0884 0.0884-0.0884 (  6630 PWs)   bands (ev):

   -15.2416 -15.2412 -15.2369 -15.2369 -15.1623 -15.1623 -15.1576 -15.1571
   -14.3034 -14.3034 -14.1567 -14.1567 -14.1513 -14.1504 -14.0923 -14.0915
   -14.0896 -14.0896 -14.0030 -14.0030  -3.2115  -3.2115   4.3656   4.3656
     6.3316   6.3316   6.7900   6.7900   7.1261   7.1261   9.0498   9.0498
     9.3734   9.3734   9.4541   9.4541

     occupation numbers 
     1.0000   1.0000   1.0000   1.0000   1.0000   1.0000   1.0000   1.0000
     1.0000   1.0000   1.0000   1.0000   1.0000   1.0000   1.0000   1.0000
     1.0000   1.0000   1.0000   1.0000   1.0000   1.0000   1.0000   1.0000
     1.0000   1.0000   0.5019   0.5006   0.0000   0.0000   0.0000   0.0000
     0.0000   0.0000   0.0000   0.0000

          k = 0.1326 0.1326-0.1326 (  6600 PWs)   bands (ev):

   -15.2432 -15.2427 -15.2333 -15.2333 -15.1659 -15.1659 -15.1556 -15.1550
   -14.2952 -14.2952 -14.1698 -14.1698 -14.1592 -14.1584 -14.0835 -14.0827
   -14.0797 -14.0797 -14.0074 -14.0074  -3.0421  -3.0421   3.5419   3.5419
     6.1369   6.1369   6.5711   6.5711   7.0362   7.0362   9.3353   9.3353
     9.6472   9.6472  10.1097  10.1097

     occupation numbers 
     1.0000   1.0000   1.0000   1.0000   1.0000   1.0000   1.0000   1.0000
     1.0000   1.0000   1.0000   1.0000   1.0000   1.0000   1.0000   1.0000
     1.0000   1.0000   1.0000   1.0000   1.0000   1.0000   1.0000   1.0000
     1.0000   1.0000   1.0000   1.0000   0.0000   0.0000   0.0000   0.0000
     0.0000   0.0000   0.0000   0.0000

          k = 0.1768 0.1768-0.1768 (  6609 PWs)   bands (ev):

   -15.2448 -15.2443 -15.2285 -15.2285 -15.1705 -15.1705 -15.1533 -15.1527
   -14.2849 -14.2849 -14.1833 -14.1833 -14.1667 -14.1659 -14.0750 -14.0743
   -14.0704 -14.0704 -14.0130 -14.0130  -2.8130  -2.8130   2.7336   2.7336
     5.9369   5.9369   6.3619   6.3619   6.8902   6.8902   9.5652   9.5652
     9.8675   9.8675  10.9089  10.9089

     occupation numbers 
     1.0000   1.0000   1.0000   1.0000   1.0000   1.0000   1.0000   1.0000
     1.0000   1.0000   1.0000   1.0000   1.0000   1.0000   1.0000   1.0000
     1.0000   1.0000   1.0000   1.0000   1.0000   1.0000   1.0000   1.0000
     1.0000   1.0000   1.0000   1.0000   0.0000   0.0000   0.0000   0.0000
     0.0000   0.0000   0.0000   0.0000

          k = 0.2210 0.2210-0.2210 (  6603 PWs)   bands (ev):

   -15.2463 -15.2458 -15.2228 -15.2228 -15.1760 -15.1760 -15.1511 -15.1505
   -14.2730 -14.2730 -14.1965 -14.1965 -14.1729 -14.1722 -14.0676 -14.0671
   -14.0619 -14.0619 -14.0195 -14.0195  -2.5375  -2.5375   1.9871   1.9871
     5.7650   5.7650   6.1858   6.1858   6.7465   6.7465   9.7126   9.7126
     9.9900   9.9900  11.7644  11.7644

     occupation numbers 
     1.0000   1.0000   1.0000   1.0000   1.0000   1.0000   1.0000   1.0000
     1.0000   1.0000   1.0000   1.0000   1.0000   1.0000   1.0000   1.0000
     1.0000   1.0000   1.0000   1.0000   1.0000   1.0000   1.0000   1.0000
     1.0000   1.0000   1.0000   1.0000   1.0000   1.0000   0.0000   0.0000
     0.0000   0.0000   0.0000   0.0000

          k = 0.2652 0.2652-0.2652 (  6604 PWs)   bands (ev):

   -15.2474 -15.2470 -15.2168 -15.2168 -15.1818 -15.1818 -15.1493 -15.1488
   -14.2606 -14.2606 -14.2093 -14.2093 -14.1775 -14.1770 -14.0620 -14.0616
   -14.0542 -14.0542 -14.0263 -14.0263  -2.2434  -2.2434   1.3474   1.3474
     5.6357   5.6357   6.0544   6.0544   6.6331   6.6331   9.7803   9.7803
    10.0299  10.0299  12.3868  12.3868

     occupation numbers 
     1.0000   1.0000   1.0000   1.0000   1.0000   1.0000   1.0000   1.0000
     1.0000   1.0000   1.0000   1.0000   1.0000   1.0000   1.0000   1.0000
     1.0000   1.0000   1.0000   1.0000   1.0000   1.0000   1.0000   1.0000
     1.0000   1.0000   1.0000   1.0000   1.0000   1.0000   0.0000   0.0000
     0.0000   0.0000   0.0000   0.0000

          k = 0.3094 0.3094-0.3094 (  6616 PWs)   bands (ev):

   -15.2481 -15.2479 -15.2114 -15.2114 -15.1871 -15.1871 -15.1480 -15.1478
   -14.2484 -14.2484 -14.2213 -14.2213 -14.1802 -14.1800 -14.0584 -14.0582
   -14.0473 -14.0473 -14.0332 -14.0332  -1.9909  -1.9909   0.8844   0.8844
     5.5560   5.5560   5.9738   5.9738   6.5619   6.5619   9.8006   9.8006
    10.0308  10.0308  12.3798  12.3798

     occupation numbers 
     1.0000   1.0000   1.0000   1.0000   1.0000   1.0000   1.0000   1.0000
     1.0000   1.0000   1.0000   1.0000   1.0000   1.0000   1.0000   1.0000
     1.0000   1.0000   1.0000   1.0000   1.0000   1.0000   1.0000   1.0000
     1.0000   1.0000   1.0000   1.0000   1.0000   1.0000   0.0000   0.0000
     0.0000   0.0000   0.0000   0.0000

          k =-0.3536-0.3536 0.3536 (  6586 PWs)   bands (ev):

   -15.2482 -15.2482 -15.2088 -15.2088 -15.1896 -15.1896 -15.1475 -15.1475
   -14.2400 -14.2400 -14.2296 -14.2296 -14.1811 -14.1811 -14.0571 -14.0571
   -14.0420 -14.0420 -14.0385 -14.0385  -1.8841  -1.8841   0.7069   0.7069
     5.5291   5.5291   5.9466   5.9466   6.5377   6.5377   9.8037   9.8037
    10.0272  10.0272  12.3510  12.3510

     occupation numbers 
     1.0000   1.0000   1.0000   1.0000   1.0000   1.0000   1.0000   1.0000
     1.0000   1.0000   1.0000   1.0000   1.0000   1.0000   1.0000   1.0000
     1.0000   1.0000   1.0000   1.0000   1.0000   1.0000   1.0000   1.0000
     1.0000   1.0000   1.0000   1.0000   1.0000   1.0000   0.0000   0.0000
     0.0000   0.0000   0.0000   0.0000

          k = 0.0884 0.0000 0.0000 (  6611 PWs)   bands (ev):

   -15.2401 -15.2401 -15.2394 -15.2394 -15.1600 -15.1600 -15.1590 -15.1590
   -14.3079 -14.3079 -14.1481 -14.1481 -14.1437 -14.1437 -14.0989 -14.0989
   -14.0971 -14.0971 -14.0005 -14.0005  -3.3035  -3.3035   5.0392   5.0392
     6.3696   6.3696   6.7900   6.7900   7.3535   7.3536   8.6332   8.6332
     9.1322   9.1322   9.2697   9.2697

     occupation numbers 
     1.0000   1.0000   1.0000   1.0000   1.0000   1.0000   1.0000   1.0000
     1.0000   1.0000   1.0000   1.0000   1.0000   1.0000   1.0000   1.0000
     1.0000   1.0000   1.0000   1.0000   1.0000   1.0000   1.0000   1.0000
     1.0000   1.0000   0.4983   0.4983   0.0000   0.0000   0.0000   0.0000
     0.0000   0.0000   0.0000   0.0000

          k = 0.1326 0.0442-0.0442 (  6618 PWs)   bands (ev):

   -15.2410 -15.2407 -15.2378 -15.2376 -15.1617 -15.1616 -15.1581 -15.1577
   -14.3039 -14.3039 -14.1570 -14.1570 -14.1488 -14.1484 -14.0937 -14.0934
   -14.0899 -14.0898 -14.0026 -14.0026  -3.2226  -3.2226   4.4809   4.4809
     6.2306   6.2307   6.5762   6.5762   7.5480   7.5481   8.6943   8.6944
     9.4170   9.4171   9.5684   9.5684

     occupation numbers 
     1.0000   1.0000   1.0000   1.0000   1.0000   1.0000   1.0000   1.0000
     1.0000   1.0000   1.0000   1.0000   1.0000   1.0000   1.0000   1.0000
     1.0000   1.0000   1.0000   1.0000   1.0000   1.0000   1.0000   1.0000
     1.0000   1.0000   1.0000   1.0000   0.0000   0.0000   0.0000   0.0000
     0.0000   0.0000   0.0000   0.0000

          k = 0.1768 0.0884-0.0884 (  6599 PWs)   bands (ev):

   -15.2425 -15.2420 -15.2345 -15.2344 -15.1648 -15.1648 -15.1562 -15.1557
   -14.2968 -14.2967 -14.1688 -14.1687 -14.1560 -14.1554 -14.0872 -14.0868
   -14.0799 -14.0797 -14.0063 -14.0062  -3.0747  -3.0747   3.7336   3.7336
     6.0251   6.0252   6.3545   6.3545   7.5361   7.5362   8.9382   8.9383
     9.7514   9.7514  10.0661  10.0662

     occupation numbers 
     1.0000   1.0000   1.0000   1.0000   1.0000   1.0000   1.0000   1.0000
     1.0000   1.0000   1.0000   1.0000   1.0000   1.0000   1.0000   1.0000
     1.0000   1.0000   1.0000   1.0000   1.0000   1.0000   1.0000   1.0000
     1.0000   1.0000   1.0000   1.0000   0.0000   0.0000   0.0000   0.0000
     0.0000   0.0000   0.0000   0.0000

          k = 0.2210 0.1326-0.1326 (  6609 PWs)   bands (ev):

   -15.2441 -15.2436 -15.2301 -15.2300 -15.1692 -15.1691 -15.1539 -15.1533
   -14.2872 -14.2871 -14.1814 -14.1813 -14.1633 -14.1627 -14.0806 -14.0803
   -14.0698 -14.0695 -14.0112 -14.0111  -2.8645  -2.8645   2.9494   2.9494
     5.8079   5.8080   6.1353   6.1353   7.4134   7.4135   9.2463   9.2463
    10.0060  10.0060  10.6871  10.6871

     occupation numbers 
     1.0000   1.0000   1.0000   1.0000   1.0000   1.0000   1.0000   1.0000
     1.0000   1.0000   1.0000   1.0000   1.0000   1.0000   1.0000   1.0000
     1.0000   1.0000   1.0000   1.0000   1.0000   1.0000   1.0000   1.0000
     1.0000   1.0000   1.0000   1.0000   0.0000   0.0000   0.0000   0.0000
     0.0000   0.0000   0.0000   0.0000

          k = 0.2652 0.1768-0.1768 (  6617 PWs)   bands (ev):

   -15.2457 -15.2452 -15.2248 -15.2246 -15.1745 -15.1743 -15.1516 -15.1510
   -14.2759 -14.2759 -14.1940 -14.1939 -14.1699 -14.1693 -14.0747 -14.0744
   -14.0605 -14.0603 -14.0168 -14.0167  -2.6023  -2.6023   2.1977   2.1977
     5.6114   5.6115   5.9492   5.9492   7.2660   7.2660   9.5007   9.5007
    10.1438  10.1439  11.3508  11.3508

     occupation numbers 
     1.0000   1.0000   1.0000   1.0000   1.0000   1.0000   1.0000   1.0000
     1.0000   1.0000   1.0000   1.0000   1.0000   1.0000   1.0000   1.0000
     1.0000   1.0000   1.0000   1.0000   1.0000   1.0000   1.0000   1.0000
     1.0000   1.0000   1.0000   1.0000   0.0000   0.0000   0.0000   0.0000
     0.0000   0.0000   0.0000   0.0000

          k = 0.3094 0.2210-0.2210 (  6611 PWs)   bands (ev):

   -15.2470 -15.2466 -15.2190 -15.2185 -15.1804 -15.1799 -15.1495 -15.1491
   -14.2639 -14.2638 -14.2060 -14.2059 -14.1751 -14.1747 -14.0700 -14.0697
   -14.0528 -14.0526 -14.0225 -14.0224  -2.3096  -2.3096   1.5279   1.5279
     5.4495   5.4495   5.8156   5.8157   7.1354   7.1355   9.6551   9.6551
    10.1731  10.1731  12.0054  12.0054

     occupation numbers 
     1.0000   1.0000   1.0000   1.0000   1.0000   1.0000   1.0000   1.0000
     1.0000   1.0000   1.0000   1.0000   1.0000   1.0000   1.0000   1.0000
     1.0000   1.0000   1.0000   1.0000   1.0000   1.0000   1.0000   1.0000
     1.0000   1.0000   1.0000   1.0000   0.0000   0.0000   0.0000   0.0000
     0.0000   0.0000   0.0000   0.0000

          k = 0.3536 0.2652-0.2652 (  6616 PWs)   bands (ev):

   -15.2478 -15.2476 -15.2134 -15.2126 -15.1863 -15.1853 -15.1480 -15.1478
   -14.2520 -14.2519 -14.2174 -14.2173 -14.1787 -14.1784 -14.0667 -14.0665
   -14.0469 -14.0468 -14.0275 -14.0274  -2.0330  -2.0330   1.0017   1.0017
     5.3298   5.3299   5.7427   5.7427   7.0404   7.0404   9.7366   9.7366
    10.1400  10.1400  12.4036  12.4037

     occupation numbers 
     1.0000   1.0000   1.0000   1.0000   1.0000   1.0000   1.0000   1.0000
     1.0000   1.0000   1.0000   1.0000   1.0000   1.0000   1.0000   1.0000
     1.0000   1.0000   1.0000   1.0000   1.0000   1.0000   1.0000   1.0000
     1.0000   1.0000   1.0000   1.0000   0.0000   0.0000   0.0000   0.0000
     0.0000   0.0000   0.0000   0.0000

          k =-0.3094-0.3977 0.3977 (  6610 PWs)   bands (ev):

   -15.2482 -15.2481 -15.2098 -15.2083 -15.1905 -15.1890 -15.1473 -15.1472
   -14.2423 -14.2422 -14.2268 -14.2266 -14.1803 -14.1802 -14.0651 -14.0650
   -14.0434 -14.0433 -14.0307 -14.0306  -1.8644  -1.8644   0.7184   0.7184
     5.2585   5.2585   5.7316   5.7317   6.9890   6.9890   9.7874   9.7874
    10.0899  10.0899  12.4790  12.4790

     occupation numbers 
     1.0000   1.0000   1.0000   1.0000   1.0000   1.0000   1.0000   1.0000
     1.0000   1.0000   1.0000   1.0000   1.0000   1.0000   1.0000   1.0000
     1.0000   1.0000   1.0000   1.0000   1.0000   1.0000   1.0000   1.0000
     1.0000   1.0000   1.0000   1.0000   0.0000   0.0000   0.0000   0.0000
     0.0000   0.0000   0.0000   0.0000

          k =-0.2652-0.3536 0.3536 (  6618 PWs)   bands (ev):

   -15.2481 -15.2480 -15.2105 -15.2092 -15.1896 -15.1882 -15.1474 -15.1473
   -14.2450 -14.2449 -14.2242 -14.2241 -14.1799 -14.1798 -14.0656 -14.0656
   -14.0438 -14.0438 -14.0301 -14.0300  -1.9016  -1.9016   0.7788   0.7788
     5.2401   5.2401   5.7805   5.7806   6.9843   6.9844   9.8228   9.8228
    10.0521  10.0521  12.4931  12.4931

     occupation numbers 
     1.0000   1.0000   1.0000   1.0000   1.0000   1.0000   1.0000   1.0000
     1.0000   1.0000   1.0000   1.0000   1.0000   1.0000   1.0000   1.0000
     1.0000   1.0000   1.0000   1.0000   1.0000   1.0000   1.0000   1.0000
     1.0000   1.0000   1.0000   1.0000   0.0000   0.0000   0.0000   0.0000
     0.0000   0.0000   0.0000   0.0000

          k =-0.2210-0.3094 0.3094 (  6616 PWs)   bands (ev):

   -15.2476 -15.2474 -15.2151 -15.2143 -15.1846 -15.1837 -15.1484 -15.1481
   -14.2560 -14.2558 -14.2137 -14.2136 -14.1776 -14.1772 -14.0681 -14.0680
   -14.0480 -14.0478 -14.0261 -14.0260  -2.1193  -2.1193   1.1570   1.1571
     5.2780   5.2781   5.8851   5.8852   7.0260   7.0261   9.8208   9.8208
    10.0419  10.0419  12.4050  12.4050

     occupation numbers 
     1.0000   1.0000   1.0000   1.0000   1.0000   1.0000   1.0000   1.0000
     1.0000   1.0000   1.0000   1.0000   1.0000   1.0000   1.0000   1.0000
     1.0000   1.0000   1.0000   1.0000   1.0000   1.0000   1.0000   1.0000
     1.0000   1.0000   1.0000   1.0000   0.0000   0.0000   0.0000   0.0000
     0.0000   0.0000   0.0000   0.0000

          k =-0.1768-0.2652 0.2652 (  6623 PWs)   bands (ev):

   -15.2467 -15.2463 -15.2208 -15.2204 -15.1786 -15.1782 -15.1501 -15.1496
   -14.2680 -14.2679 -14.2021 -14.2021 -14.1734 -14.1729 -14.0722 -14.0720
   -14.0543 -14.0541 -14.0208 -14.0207  -2.4090  -2.4090   1.7399   1.7399
     5.3744   5.3745   6.0390   6.0390   7.1095   7.1096   9.7495   9.7495
    10.0330  10.0330  11.8648  11.8648

     occupation numbers 
     1.0000   1.0000   1.0000   1.0000   1.0000   1.0000   1.0000   1.0000
     1.0000   1.0000   1.0000   1.0000   1.0000   1.0000   1.0000   1.0000
     1.0000   1.0000   1.0000   1.0000   1.0000   1.0000   1.0000   1.0000
     1.0000   1.0000   1.0000   1.0000   0.0000   0.0000   0.0000   0.0000
     0.0000   0.0000   0.0000   0.0000

          k =-0.1326-0.2210 0.2210 (  6621 PWs)   bands (ev):

   -15.2453 -15.2448 -15.2265 -15.2262 -15.1729 -15.1727 -15.1522 -15.1516
   -14.2799 -14.2798 -14.1899 -14.1898 -14.1676 -14.1670 -14.0776 -14.0772
   -14.0625 -14.0622 -14.0150 -14.0149  -2.6950  -2.6950   2.4416   2.4416
     5.5300   5.5301   6.2318   6.2318   7.2232   7.2233   9.5947   9.5947
     9.9395   9.9395  11.1485  11.1485

     occupation numbers 
     1.0000   1.0000   1.0000   1.0000   1.0000   1.0000   1.0000   1.0000
     1.0000   1.0000   1.0000   1.0000   1.0000   1.0000   1.0000   1.0000
     1.0000   1.0000   1.0000   1.0000   1.0000   1.0000   1.0000   1.0000
     1.0000   1.0000   1.0000   1.0000   0.0000   0.0000   0.0000   0.0000
     0.0000   0.0000   0.0000   0.0000

          k =-0.0884-0.1768 0.1768 (  6604 PWs)   bands (ev):

   -15.2438 -15.2432 -15.2315 -15.2314 -15.1678 -15.1678 -15.1546 -15.1539
   -14.2906 -14.2906 -14.1773 -14.1771 -14.1608 -14.1601 -14.0838 -14.0834
   -14.0721 -14.0717 -14.0095 -14.0095  -2.9414  -2.9414   3.2068   3.2068
     5.7433   5.7434   6.4463   6.4463   7.3394   7.3395   9.3629   9.3630
     9.6827   9.6828  10.5129  10.5130

     occupation numbers 
     1.0000   1.0000   1.0000   1.0000   1.0000   1.0000   1.0000   1.0000
     1.0000   1.0000   1.0000   1.0000   1.0000   1.0000   1.0000   1.0000
     1.0000   1.0000   1.0000   1.0000   1.0000   1.0000   1.0000   1.0000
     1.0000   1.0000   1.0000   1.0000   0.0000   0.0000   0.0000   0.0000
     0.0000   0.0000   0.0000   0.0000

          k =-0.0442-0.1326 0.1326 (  6606 PWs)   bands (ev):

   -15.2422 -15.2417 -15.2355 -15.2354 -15.1639 -15.1639 -15.1567 -15.1562
   -14.2995 -14.2994 -14.1647 -14.1644 -14.1536 -14.1529 -14.0904 -14.0899
   -14.0825 -14.0821 -14.0050 -14.0049  -3.1315  -3.1315   3.9813   3.9814
     6.0078   6.0079   6.6525   6.6525   7.3961   7.3962   9.0952   9.0953
     9.3355   9.3356   9.9654   9.9654

     occupation numbers 
     1.0000   1.0000   1.0000   1.0000   1.0000   1.0000   1.0000   1.0000
     1.0000   1.0000   1.0000   1.0000   1.0000   1.0000   1.0000   1.0000
     1.0000   1.0000   1.0000   1.0000   1.0000   1.0000   1.0000   1.0000
     1.0000   1.0000   1.0000   1.0000   0.0000   0.0000   0.0000   0.0000
     0.0000   0.0000   0.0000   0.0000

          k = 0.0000-0.0884 0.0884 (  6619 PWs)   bands (ev):

   -15.2410 -15.2407 -15.2381 -15.2381 -15.1613 -15.1612 -15.1583 -15.1579
   -14.3056 -14.3056 -14.1532 -14.1529 -14.1474 -14.1468 -14.0963 -14.0958
   -14.0924 -14.0920 -14.0018 -14.0018  -3.2573  -3.2573   4.6779   4.6779
     6.2911   6.2912   6.8151   6.8152   7.2985   7.2985   8.8525   8.8526
     9.1283   9.1283   9.4723   9.4724

     occupation numbers 
     1.0000   1.0000   1.0000   1.0000   1.0000   1.0000   1.0000   1.0000
     1.0000   1.0000   1.0000   1.0000   1.0000   1.0000   1.0000   1.0000
     1.0000   1.0000   1.0000   1.0000   1.0000   1.0000   1.0000   1.0000
     1.0000   1.0000   0.0000   0.0000   0.0000   0.0000   0.0000   0.0000
     0.0000   0.0000   0.0000   0.0000

          k = 0.1768 0.0000 0.0000 (  6619 PWs)   bands (ev):

   -15.2403 -15.2403 -15.2377 -15.2377 -15.1619 -15.1619 -15.1580 -15.1580
   -14.3010 -14.3010 -14.1630 -14.1630 -14.1503 -14.1503 -14.0893 -14.0893
   -14.0876 -14.0876 -14.0038 -14.0038  -3.1644  -3.1644   4.2330   4.2330
     6.0406   6.0406   6.2982   6.2982   8.0099   8.0099   8.3773   8.3773
     9.7221   9.7221   9.8261   9.8261

     occupation numbers 
     1.0000   1.0000   1.0000   1.0000   1.0000   1.0000   1.0000   1.0000
     1.0000   1.0000   1.0000   1.0000   1.0000   1.0000   1.0000   1.0000
     1.0000   1.0000   1.0000   1.0000   1.0000   1.0000   1.0000   1.0000
     1.0000   1.0000   1.0000   1.0000   0.0000   0.0000   0.0000   0.0000
     0.0000   0.0000   0.0000   0.0000

          k = 0.2210 0.0442-0.0442 (  6605 PWs)   bands (ev):

   -15.2413 -15.2410 -15.2354 -15.2353 -15.1642 -15.1641 -15.1568 -15.1565
   -14.2950 -14.2950 -14.1725 -14.1724 -14.1551 -14.1548 -14.0858 -14.0858
   -14.0794 -14.0791 -14.0064 -14.0064  -3.0384  -3.0384   3.6946   3.6946
     5.8196   5.8197   6.0543   6.0543   8.1486   8.1490   8.4068   8.4072
    10.0910  10.0911  10.2163  10.2163

     occupation numbers 
     1.0000   1.0000   1.0000   1.0000   1.0000   1.0000   1.0000   1.0000
     1.0000   1.0000   1.0000   1.0000   1.0000   1.0000   1.0000   1.0000
     1.0000   1.0000   1.0000   1.0000   1.0000   1.0000   1.0000   1.0000
     1.0000   1.0000   1.0000   1.0000   0.0000   0.0000   0.0000   0.0000
     0.0000   0.0000   0.0000   0.0000

          k = 0.2652 0.0884-0.0884 (  6602 PWs)   bands (ev):

   -15.2430 -15.2425 -15.2314 -15.2314 -15.1680 -15.1680 -15.1547 -15.1541
   -14.2865 -14.2864 -14.1835 -14.1833 -14.1608 -14.1604 -14.0832 -14.0832
   -14.0691 -14.0687 -14.0100 -14.0100  -2.8482  -2.8482   3.0228   3.0228
     5.5657   5.5658   5.8304   5.8304   8.0717   8.0719   8.6989   8.6991
    10.3855  10.3856  10.6215  10.6216

     occupation numbers 
     1.0000   1.0000   1.0000   1.0000   1.0000   1.0000   1.0000   1.0000
     1.0000   1.0000   1.0000   1.0000   1.0000   1.0000   1.0000   1.0000
     1.0000   1.0000   1.0000   1.0000   1.0000   1.0000   1.0000   1.0000
     1.0000   1.0000   1.0000   1.0000   0.0000   0.0000   0.0000   0.0000
     0.0000   0.0000   0.0000   0.0000

          k = 0.3094 0.1326-0.1326 (  6622 PWs)   bands (ev):

   -15.2447 -15.2442 -15.2266 -15.2263 -15.1732 -15.1728 -15.1522 -15.1516
   -14.2761 -14.2760 -14.1946 -14.1943 -14.1665 -14.1661 -14.0811 -14.0810
   -14.0594 -14.0591 -14.0139 -14.0139  -2.6016  -2.6016   2.3235   2.3235
     5.3063   5.3064   5.6537   5.6537   7.9349   7.9351   9.0747   9.0748
    10.5549  10.5549  10.9197  10.9197

     occupation numbers 
     1.0000   1.0000   1.0000   1.0000   1.0000   1.0000   1.0000   1.0000
     1.0000   1.0000   1.0000   1.0000   1.0000   1.0000   1.0000   1.0000
     1.0000   1.0000   1.0000   1.0000   1.0000   1.0000   1.0000   1.0000
     1.0000   1.0000   1.0000   1.0000   0.0000   0.0000   0.0000   0.0000
     0.0000   0.0000   0.0000   0.0000

          k = 0.3536 0.1768-0.1768 (  6618 PWs)   bands (ev):

   -15.2462 -15.2458 -15.2211 -15.2205 -15.1790 -15.1782 -15.1498 -15.1494
   -14.2650 -14.2649 -14.2050 -14.2047 -14.1716 -14.1712 -14.0797 -14.0795
   -14.0517 -14.0514 -14.0174 -14.0173  -2.3150  -2.3150   1.6635   1.6636
     5.0703   5.0704   5.5407   5.5407   7.7942   7.7943   9.3940   9.3940
    10.5906  10.5906  11.2657  11.2657

     occupation numbers 
     1.0000   1.0000   1.0000   1.0000   1.0000   1.0000   1.0000   1.0000
     1.0000   1.0000   1.0000   1.0000   1.0000   1.0000   1.0000   1.0000
     1.0000   1.0000   1.0000   1.0000   1.0000   1.0000   1.0000   1.0000
     1.0000   1.0000   1.0000   1.0000   0.0000   0.0000   0.0000   0.0000
     0.0000   0.0000   0.0000   0.0000

          k = 0.3977 0.2210-0.2210 (  6627 PWs)   bands (ev):

   -15.2473 -15.2470 -15.2157 -15.2143 -15.1852 -15.1837 -15.1479 -15.1476
   -14.2542 -14.2541 -14.2143 -14.2140 -14.1755 -14.1753 -14.0789 -14.0787
   -14.0466 -14.0463 -14.0197 -14.0196  -2.0239  -2.0239   1.1055   1.1055
     4.8784   4.8785   5.4932   5.4933   7.6790   7.6791   9.5877   9.5877
    10.5345  10.5345  11.7765  11.7765

     occupation numbers 
     1.0000   1.0000   1.0000   1.0000   1.0000   1.0000   1.0000   1.0000
     1.0000   1.0000   1.0000   1.0000   1.0000   1.0000   1.0000   1.0000
     1.0000   1.0000   1.0000   1.0000   1.0000   1.0000   1.0000   1.0000
     1.0000   1.0000   1.0000   1.0000   0.0000   0.0000   0.0000   0.0000
     0.0000   0.0000   0.0000   0.0000

          k =-0.2652-0.4419 0.4419 (  6608 PWs)   bands (ev):

   -15.2479 -15.2478 -15.2113 -15.2089 -15.1907 -15.1881 -15.1467 -15.1465
   -14.2456 -14.2455 -14.2218 -14.2214 -14.1778 -14.1776 -14.0789 -14.0786
   -14.0439 -14.0438 -14.0206 -14.0205  -1.8047  -1.8047   0.7397   0.7397
     4.7422   4.7423   5.5097   5.5098   7.6029   7.6029   9.7016   9.7016
    10.4360  10.4360  12.3355  12.3355

     occupation numbers 
     1.0000   1.0000   1.0000   1.0000   1.0000   1.0000   1.0000   1.0000
     1.0000   1.0000   1.0000   1.0000   1.0000   1.0000   1.0000   1.0000
     1.0000   1.0000   1.0000   1.0000   1.0000   1.0000   1.0000   1.0000
     1.0000   1.0000   1.0000   1.0000   0.0000   0.0000   0.0000   0.0000
     0.0000   0.0000   0.0000   0.0000

          k =-0.2210-0.3977 0.3977 (  6620 PWs)   bands (ev):

   -15.2481 -15.2480 -15.2102 -15.2072 -15.1924 -15.1893 -15.1463 -15.1463
   -14.2441 -14.2439 -14.2231 -14.2229 -14.1779 -14.1778 -14.0794 -14.0792
   -14.0430 -14.0430 -14.0209 -14.0207  -1.7691  -1.7691   0.6844   0.6844
     4.6692   4.6693   5.5870   5.5870   7.5708   7.5708   9.7954   9.7954
    10.3243  10.3243  12.6325  12.6326

     occupation numbers 
     1.0000   1.0000   1.0000   1.0000   1.0000   1.0000   1.0000   1.0000
     1.0000   1.0000   1.0000   1.0000   1.0000   1.0000   1.0000   1.0000
     1.0000   1.0000   1.0000   1.0000   1.0000   1.0000   1.0000   1.0000
     1.0000   1.0000   1.0000   1.0000   0.0000   0.0000   0.0000   0.0000
     0.0000   0.0000   0.0000   0.0000

          k =-0.1768-0.3536 0.3536 (  6625 PWs)   bands (ev):

   -15.2478 -15.2476 -15.2132 -15.2112 -15.1884 -15.1863 -15.1470 -15.1467
   -14.2513 -14.2510 -14.2169 -14.2169 -14.1757 -14.1757 -14.0804 -14.0802
   -14.0439 -14.0437 -14.0205 -14.0203  -1.9418  -1.9418   0.9642   0.9643
     4.6654   4.6655   5.7198   5.7198   7.5819   7.5819   9.8859   9.8859
    10.2076  10.2076  12.3892  12.3892

     occupation numbers 
     1.0000   1.0000   1.0000   1.0000   1.0000   1.0000   1.0000   1.0000
     1.0000   1.0000   1.0000   1.0000   1.0000   1.0000   1.0000   1.0000
     1.0000   1.0000   1.0000   1.0000   1.0000   1.0000   1.0000   1.0000
     1.0000   1.0000   1.0000   1.0000   0.0000   0.0000   0.0000   0.0000
     0.0000   0.0000   0.0000   0.0000

          k =-0.1326-0.3094 0.3094 (  6612 PWs)   bands (ev):

   -15.2471 -15.2467 -15.2183 -15.2171 -15.1825 -15.1813 -15.1484 -15.1480
   -14.2617 -14.2614 -14.2083 -14.2082 -14.1719 -14.1717 -14.0818 -14.0818
   -14.0472 -14.0469 -14.0190 -14.0188  -2.2208  -2.2208   1.4713   1.4713
     4.7377   4.7377   5.8995   5.8995   7.6289   7.6289   9.9188   9.9189
    10.0999  10.0999  11.7468  11.7468

     occupation numbers 
     1.0000   1.0000   1.0000   1.0000   1.0000   1.0000   1.0000   1.0000
     1.0000   1.0000   1.0000   1.0000   1.0000   1.0000   1.0000   1.0000
     1.0000   1.0000   1.0000   1.0000   1.0000   1.0000   1.0000   1.0000
     1.0000   1.0000   1.0000   1.0000   0.0000   0.0000   0.0000   0.0000
     0.0000   0.0000   0.0000   0.0000

          k =-0.0884-0.2652 0.2652 (  6627 PWs)   bands (ev):

   -15.2460 -15.2455 -15.2237 -15.2230 -15.1766 -15.1759 -15.1504 -15.1499
   -14.2728 -14.2726 -14.1984 -14.1982 -14.1670 -14.1667 -14.0837 -14.0836
   -14.0534 -14.0530 -14.0160 -14.0158  -2.5139  -2.5139   2.0988   2.0988
     4.8954   4.8955   6.1122   6.1122   7.6931   7.6932   9.7728   9.7728
    10.0053  10.0053  11.1475  11.1475

     occupation numbers 
     1.0000   1.0000   1.0000   1.0000   1.0000   1.0000   1.0000   1.0000
     1.0000   1.0000   1.0000   1.0000   1.0000   1.0000   1.0000   1.0000
     1.0000   1.0000   1.0000   1.0000   1.0000   1.0000   1.0000   1.0000
     1.0000   1.0000   1.0000   1.0000   0.0000   0.0000   0.0000   0.0000
     0.0000   0.0000   0.0000   0.0000

          k =-0.0442-0.2210 0.2210 (  6614 PWs)   bands (ev):

   -15.2446 -15.2441 -15.2286 -15.2283 -15.1713 -15.1710 -15.1528 -15.1522
   -14.2834 -14.2833 -14.1875 -14.1871 -14.1619 -14.1614 -14.0860 -14.0858
   -14.0620 -14.0616 -14.0121 -14.0120  -2.7754  -2.7754   2.7729   2.7730
     5.1530   5.1531   6.3345   6.3345   7.7309   7.7310   9.5245   9.5246
     9.7355   9.7355  10.7822  10.7822

     occupation numbers 
     1.0000   1.0000   1.0000   1.0000   1.0000   1.0000   1.0000   1.0000
     1.0000   1.0000   1.0000   1.0000   1.0000   1.0000   1.0000   1.0000
     1.0000   1.0000   1.0000   1.0000   1.0000   1.0000   1.0000   1.0000
     1.0000   1.0000   1.0000   1.0000   0.0000   0.0000   0.0000   0.0000
     0.0000   0.0000   0.0000   0.0000

          k = 0.0000-0.1768 0.1768 (  6579 PWs)   bands (ev):

   -15.2432 -15.2427 -15.2327 -15.2326 -15.1669 -15.1668 -15.1550 -15.1544
   -14.2926 -14.2925 -14.1759 -14.1755 -14.1571 -14.1566 -14.0884 -14.0880
   -14.0722 -14.0718 -14.0082 -14.0081  -2.9845  -2.9845   3.4254   3.4254
     5.5281   5.5282   6.5280   6.5280   7.6551   7.6552   9.2660   9.2661
     9.4345   9.4345  10.4592  10.4593

     occupation numbers 
     1.0000   1.0000   1.0000   1.0000   1.0000   1.0000   1.0000   1.0000
     1.0000   1.0000   1.0000   1.0000   1.0000   1.0000   1.0000   1.0000
     1.0000   1.0000   1.0000   1.0000   1.0000   1.0000   1.0000   1.0000
     1.0000   1.0000   1.0000   1.0000   0.0000   0.0000   0.0000   0.0000
     0.0000   0.0000   0.0000   0.0000

          k = 0.2652 0.0000 0.0000 (  6587 PWs)   bands (ev):

   -15.2403 -15.2403 -15.2353 -15.2353 -15.1645 -15.1645 -15.1569 -15.1569
   -14.2902 -14.2902 -14.1792 -14.1792 -14.1575 -14.1575 -14.0815 -14.0815
   -14.0770 -14.0770 -14.0077 -14.0077  -2.9339  -2.9339   3.3845   3.3845
     5.6287   5.6287   5.8012   5.8012   8.0383   8.0383   8.5491   8.5491
    10.4972  10.4972  10.5298  10.5298

     occupation numbers 
     1.0000   1.0000   1.0000   1.0000   1.0000   1.0000   1.0000   1.0000
     1.0000   1.0000   1.0000   1.0000   1.0000   1.0000   1.0000   1.0000
     1.0000   1.0000   1.0000   1.0000   1.0000   1.0000   1.0000   1.0000
     1.0000   1.0000   1.0000   1.0000   0.0000   0.0000   0.0000   0.0000
     0.0000   0.0000   0.0000   0.0000

          k = 0.3094 0.0442-0.0442 (  6599 PWs)   bands (ev):

   -15.2413 -15.2410 -15.2327 -15.2327 -15.1670 -15.1670 -15.1557 -15.1554
   -14.2828 -14.2827 -14.1880 -14.1878 -14.1613 -14.1612 -14.0821 -14.0820
   -14.0683 -14.0680 -14.0098 -14.0098  -2.7641  -2.7641   2.8828   2.8828
     5.3945   5.3945   5.5740   5.5740   8.0178   8.0179   8.6504   8.6504
    10.8165  10.8165  10.8745  10.8746

     occupation numbers 
     1.0000   1.0000   1.0000   1.0000   1.0000   1.0000   1.0000   1.0000
     1.0000   1.0000   1.0000   1.0000   1.0000   1.0000   1.0000   1.0000
     1.0000   1.0000   1.0000   1.0000   1.0000   1.0000   1.0000   1.0000
     1.0000   1.0000   1.0000   1.0000   0.0000   0.0000   0.0000   0.0000
     0.0000   0.0000   0.0000   0.0000

          k = 0.3536 0.0884-0.0884 (  6615 PWs)   bands (ev):

   -15.2430 -15.2426 -15.2285 -15.2283 -15.1714 -15.1711 -15.1533 -15.1529
   -14.2736 -14.2735 -14.1974 -14.1971 -14.1652 -14.1650 -14.0841 -14.0841
   -14.0588 -14.0584 -14.0120 -14.0120  -2.5347  -2.5347   2.2937   2.2937
     5.0977   5.0978   5.3945   5.3945   8.1089   8.1090   8.7962   8.7963
    10.8695  10.8695  11.0995  11.0995

     occupation numbers 
     1.0000   1.0000   1.0000   1.0000   1.0000   1.0000   1.0000   1.0000
     1.0000   1.0000   1.0000   1.0000   1.0000   1.0000   1.0000   1.0000
     1.0000   1.0000   1.0000   1.0000   1.0000   1.0000   1.0000   1.0000
     1.0000   1.0000   1.0000   1.0000   0.0000   0.0000   0.0000   0.0000
     0.0000   0.0000   0.0000   0.0000

          k = 0.3977 0.1326-0.1326 (  6630 PWs)   bands (ev):

   -15.2447 -15.2443 -15.2236 -15.2229 -15.1769 -15.1761 -15.1507 -15.1503
   -14.2637 -14.2636 -14.2060 -14.2056 -14.1688 -14.1686 -14.0870 -14.0868
   -14.0511 -14.0507 -14.0135 -14.0134  -2.2579  -2.2579   1.6932   1.6933
     4.7890   4.7891   5.2851   5.2851   8.0848   8.0849   9.1735   9.1736
    10.8587  10.8588  11.1792  11.1792

     occupation numbers 
     1.0000   1.0000   1.0000   1.0000   1.0000   1.0000   1.0000   1.0000
     1.0000   1.0000   1.0000   1.0000   1.0000   1.0000   1.0000   1.0000
     1.0000   1.0000   1.0000   1.0000   1.0000   1.0000   1.0000   1.0000
     1.0000   1.0000   1.0000   1.0000   0.0000   0.0000   0.0000   0.0000
     0.0000   0.0000   0.0000   0.0000

          k = 0.4419 0.1768-0.1768 (  6633 PWs)   bands (ev):

   -15.2461 -15.2458 -15.2185 -15.2170 -15.1830 -15.1813 -15.1483 -15.1480
   -14.2544 -14.2543 -14.2129 -14.2124 -14.1719 -14.1716 -14.0900 -14.0897
   -14.0462 -14.0459 -14.0136 -14.0135  -1.9604  -1.9604   1.1456   1.1457
     4.5198   4.5198   5.2434   5.2435   8.0115   8.0115   9.5859   9.5860
    10.9918  10.9918  11.1667  11.1667

     occupation numbers 
     1.0000   1.0000   1.0000   1.0000   1.0000   1.0000   1.0000   1.0000
     1.0000   1.0000   1.0000   1.0000   1.0000   1.0000   1.0000   1.0000
     1.0000   1.0000   1.0000   1.0000   1.0000   1.0000   1.0000   1.0000
     1.0000   1.0000   1.0000   1.0000   0.0000   0.0000   0.0000   0.0000
     0.0000   0.0000   0.0000   0.0000

          k =-0.2210-0.4861 0.4861 (  6630 PWs)   bands (ev):

   -15.2471 -15.2470 -15.2139 -15.2112 -15.1890 -15.1861 -15.1465 -15.1463
   -14.2476 -14.2475 -14.2175 -14.2170 -14.1741 -14.1737 -14.0926 -14.0921
   -14.0439 -14.0437 -14.0128 -14.0126  -1.7027  -1.7027   0.7328   0.7329
     4.3140   4.3141   5.2676   5.2676   7.9556   7.9557   9.8364   9.8364
    10.9780  10.9780  11.5381  11.5382

     occupation numbers 
     1.0000   1.0000   1.0000   1.0000   1.0000   1.0000   1.0000   1.0000
     1.0000   1.0000   1.0000   1.0000   1.0000   1.0000   1.0000   1.0000
     1.0000   1.0000   1.0000   1.0000   1.0000   1.0000   1.0000   1.0000
     1.0000   1.0000   1.0000   1.0000   0.0000   0.0000   0.0000   0.0000
     0.0000   0.0000   0.0000   0.0000

          k =-0.1768-0.4419 0.4419 (  6636 PWs)   bands (ev):

   -15.2477 -15.2476 -15.2112 -15.2069 -15.1934 -15.1890 -15.1455 -15.1455
   -14.2454 -14.2451 -14.2189 -14.2186 -14.1745 -14.1741 -14.0943 -14.0937
   -14.0429 -14.0429 -14.0123 -14.0121  -1.5971  -1.5971   0.5778   0.5779
     4.1842   4.1843   5.3546   5.3546   7.9358   7.9358   9.9636   9.9636
    10.8305  10.8305  12.1707  12.1707

     occupation numbers 
     1.0000   1.0000   1.0000   1.0000   1.0000   1.0000   1.0000   1.0000
     1.0000   1.0000   1.0000   1.0000   1.0000   1.0000   1.0000   1.0000
     1.0000   1.0000   1.0000   1.0000   1.0000   1.0000   1.0000   1.0000
     1.0000   1.0000   1.0000   1.0000   0.0000   0.0000   0.0000   0.0000
     0.0000   0.0000   0.0000   0.0000

          k =-0.1326-0.3977 0.3977 (  6629 PWs)   bands (ev):

   -15.2478 -15.2476 -15.2119 -15.2081 -15.1924 -15.1884 -15.1455 -15.1454
   -14.2484 -14.2481 -14.2171 -14.2170 -14.1728 -14.1724 -14.0946 -14.0941
   -14.0427 -14.0426 -14.0129 -14.0127  -1.7169  -1.7169   0.7555   0.7555
     4.1404   4.1405   5.4991   5.4991   7.9516   7.9516  10.0662  10.0662
    10.6523  10.6523  12.2799  12.2799

     occupation numbers 
     1.0000   1.0000   1.0000   1.0000   1.0000   1.0000   1.0000   1.0000
     1.0000   1.0000   1.0000   1.0000   1.0000   1.0000   1.0000   1.0000
     1.0000   1.0000   1.0000   1.0000   1.0000   1.0000   1.0000   1.0000
     1.0000   1.0000   1.0000   1.0000   0.0000   0.0000   0.0000   0.0000
     0.0000   0.0000   0.0000   0.0000

          k =-0.0884-0.3536 0.3536 (  6616 PWs)   bands (ev):

   -15.2475 -15.2471 -15.2155 -15.2131 -15.1873 -15.1848 -15.1465 -15.1462
   -14.2555 -14.2551 -14.2127 -14.2125 -14.1697 -14.1694 -14.0936 -14.0932
   -14.0436 -14.0434 -14.0142 -14.0140  -1.9796  -1.9796   1.1748   1.1748
     4.1955   4.1956   5.6913   5.6913   7.9893   7.9893  10.1668  10.1668
    10.4369  10.4369  11.6104  11.6105

     occupation numbers 
     1.0000   1.0000   1.0000   1.0000   1.0000   1.0000   1.0000   1.0000
     1.0000   1.0000   1.0000   1.0000   1.0000   1.0000   1.0000   1.0000
     1.0000   1.0000   1.0000   1.0000   1.0000   1.0000   1.0000   1.0000
     1.0000   1.0000   1.0000   1.0000   0.0000   0.0000   0.0000   0.0000
     0.0000   0.0000   0.0000   0.0000

          k =-0.0442-0.3094 0.3094 (  6612 PWs)   bands (ev):

   -15.2467 -15.2463 -15.2202 -15.2188 -15.1815 -15.1800 -15.1483 -15.1478
   -14.2647 -14.2643 -14.2061 -14.2058 -14.1663 -14.1663 -14.0914 -14.0912
   -14.0467 -14.0464 -14.0150 -14.0148  -2.2761  -2.2761   1.7066   1.7066
     4.3678   4.3679   5.9152   5.9153   8.0154   8.0155  10.1196  10.1196
    10.2356  10.2356  11.0035  11.0035

     occupation numbers 
     1.0000   1.0000   1.0000   1.0000   1.0000   1.0000   1.0000   1.0000
     1.0000   1.0000   1.0000   1.0000   1.0000   1.0000   1.0000   1.0000
     1.0000   1.0000   1.0000   1.0000   1.0000   1.0000   1.0000   1.0000
     1.0000   1.0000   1.0000   1.0000   0.0000   0.0000   0.0000   0.0000
     0.0000   0.0000   0.0000   0.0000

          k = 0.0000-0.2652 0.2652 (  6603 PWs)   bands (ev):

   -15.2457 -15.2451 -15.2247 -15.2240 -15.1759 -15.1752 -15.1505 -15.1499
   -14.2744 -14.2742 -14.1974 -14.1971 -14.1637 -14.1635 -14.0887 -14.0886
   -14.0530 -14.0526 -14.0142 -14.0141  -2.5497  -2.5497   2.2605   2.2606
     4.6816   4.6817   6.1438   6.1438   7.9601   7.9602   9.8204   9.8204
     9.9708   9.9709  10.8194  10.8194

     occupation numbers 
     1.0000   1.0000   1.0000   1.0000   1.0000   1.0000   1.0000   1.0000
     1.0000   1.0000   1.0000   1.0000   1.0000   1.0000   1.0000   1.0000
     1.0000   1.0000   1.0000   1.0000   1.0000   1.0000   1.0000   1.0000
     1.0000   1.0000   1.0000   1.0000   0.0000   0.0000   0.0000   0.0000
     0.0000   0.0000   0.0000   0.0000

          k = 0.3536 0.0000 0.0000 (  6606 PWs)   bands (ev):

   -15.2400 -15.2400 -15.2327 -15.2327 -15.1669 -15.1669 -15.1561 -15.1561
   -14.2766 -14.2766 -14.1943 -14.1943 -14.1636 -14.1636 -14.0823 -14.0823
   -14.0637 -14.0637 -14.0105 -14.0105  -2.6141  -2.6141   2.5403   2.5403
     5.2443   5.2443   5.3633   5.3633   7.7501   7.7501   8.7025   8.7025
    11.2872  11.2873  11.3269  11.3269

     occupation numbers 
     1.0000   1.0000   1.0000   1.0000   1.0000   1.0000   1.0000   1.0000
     1.0000   1.0000   1.0000   1.0000   1.0000   1.0000   1.0000   1.0000
     1.0000   1.0000   1.0000   1.0000   1.0000   1.0000   1.0000   1.0000
     1.0000   1.0000   1.0000   1.0000   0.0000   0.0000   0.0000   0.0000
     0.0000   0.0000   0.0000   0.0000

          k = 0.3977 0.0442-0.0442 (  6613 PWs)   bands (ev):

   -15.2408 -15.2406 -15.2303 -15.2302 -15.1694 -15.1692 -15.1551 -15.1549
   -14.2686 -14.2686 -14.2018 -14.2016 -14.1659 -14.1658 -14.0863 -14.0863
   -14.0561 -14.0559 -14.0114 -14.0113  -2.4024  -2.4024   2.0760   2.0760
     5.0188   5.0189   5.1741   5.1742   7.7715   7.7715   8.6654   8.6654
    11.4216  11.4217  11.6503  11.6503

     occupation numbers 
     1.0000   1.0000   1.0000   1.0000   1.0000   1.0000   1.0000   1.0000
     1.0000   1.0000   1.0000   1.0000   1.0000   1.0000   1.0000   1.0000
     1.0000   1.0000   1.0000   1.0000   1.0000   1.0000   1.0000   1.0000
     1.0000   1.0000   1.0000   1.0000   0.0000   0.0000   0.0000   0.0000
     0.0000   0.0000   0.0000   0.0000

          k = 0.4419 0.0884-0.0884 (  6614 PWs)   bands (ev):

   -15.2425 -15.2422 -15.2263 -15.2257 -15.1740 -15.1732 -15.1526 -15.1524
   -14.2601 -14.2600 -14.2087 -14.2083 -14.1675 -14.1674 -14.0924 -14.0922
   -14.0490 -14.0487 -14.0115 -14.0115  -2.1382  -2.1382   1.5647   1.5647
     4.6938   4.6939   5.0542   5.0543   7.9153   7.9154   8.7999   8.8000
    11.2820  11.2820  11.8117  11.8117

     occupation numbers 
     1.0000   1.0000   1.0000   1.0000   1.0000   1.0000   1.0000   1.0000
     1.0000   1.0000   1.0000   1.0000   1.0000   1.0000   1.0000   1.0000
     1.0000   1.0000   1.0000   1.0000   1.0000   1.0000   1.0000   1.0000
     1.0000   1.0000   1.0000   1.0000   0.0000   0.0000   0.0000   0.0000
     0.0000   0.0000   0.0000   0.0000

          k = 0.4861 0.1326-0.1326 (  6637 PWs)   bands (ev):

   -15.2442 -15.2440 -15.2218 -15.2205 -15.1796 -15.1780 -15.1498 -15.1496
   -14.2526 -14.2525 -14.2135 -14.2130 -14.1688 -14.1684 -14.0989 -14.0985
   -14.0445 -14.0442 -14.0103 -14.0102  -1.8407  -1.8407   1.0652   1.0653
     4.3580   4.3581   5.0071   5.0071   7.9591   7.9592   9.2586   9.2586
    11.1493  11.1494  11.8035  11.8035

     occupation numbers 
     1.0000   1.0000   1.0000   1.0000   1.0000   1.0000   1.0000   1.0000
     1.0000   1.0000   1.0000   1.0000   1.0000   1.0000   1.0000   1.0000
     1.0000   1.0000   1.0000   1.0000   1.0000   1.0000   1.0000   1.0000
     1.0000   1.0000   1.0000   1.0000   0.0000   0.0000   0.0000   0.0000
     0.0000   0.0000   0.0000   0.0000

          k =-0.1768-0.5303 0.5303 (  6630 PWs)   bands (ev):

   -15.2456 -15.2455 -15.2175 -15.2150 -15.1855 -15.1829 -15.1473 -15.1472
   -14.2479 -14.2477 -14.2152 -14.2147 -14.1697 -14.1690 -14.1047 -14.1039
   -14.0427 -14.0425 -14.0081 -14.0080  -1.5560  -1.5559   0.6457   0.6457
     4.0759   4.0759   5.0277   5.0277   7.9574   7.9574   9.8769   9.8769
    11.1235  11.1236  11.6849  11.6849

     occupation numbers 
     1.0000   1.0000   1.0000   1.0000   1.0000   1.0000   1.0000   1.0000
     1.0000   1.0000   1.0000   1.0000   1.0000   1.0000   1.0000   1.0000
[...]

     occupation numbers 
     1.0000   1.0000   1.0000   1.0000   1.0000   1.0000   1.0000   1.0000
     1.0000   1.0000   1.0000   1.0000   1.0000   1.0000   1.0000   1.0000
     1.0000   1.0000   1.0000   1.0000   1.0000   1.0000   1.0000   1.0000
     1.0000   1.0000   1.0000   1.0000   0.0000   0.0000   0.0000   0.0000
     0.0000   0.0000   0.0000   0.0000

          k =-0.1326-0.3977 0.5745 (  6631 PWs)   bands (ev):

   -15.2468 -15.2464 -15.2143 -15.2094 -15.1919 -15.1867 -15.1453 -15.1448
   -14.2475 -14.2472 -14.2125 -14.2118 -14.1679 -14.1668 -14.1136 -14.1124
   -14.0433 -14.0427 -14.0039 -14.0036  -1.2986  -1.2986   0.3490   0.3490
     3.8404   3.8405   4.8312   4.8312   8.6370   8.6371   9.8888   9.8889
    11.1494  11.1496  11.8809  11.8810

     occupation numbers 
     1.0000   1.0000   1.0000   1.0000   1.0000   1.0000   1.0000   1.0000
     1.0000   1.0000   1.0000   1.0000   1.0000   1.0000   1.0000   1.0000
     1.0000   1.0000   1.0000   1.0000   1.0000   1.0000   1.0000   1.0000
     1.0000   1.0000   1.0000   1.0000   0.0000   0.0000   0.0000   0.0000
     0.0000   0.0000   0.0000   0.0000

          k =-0.0884-0.3536 0.5303 (  6626 PWs)   bands (ev):

   -15.2471 -15.2466 -15.2138 -15.2087 -15.1927 -15.1873 -15.1451 -15.1446
   -14.2480 -14.2476 -14.2126 -14.2119 -14.1676 -14.1666 -14.1131 -14.1120
   -14.0434 -14.0428 -14.0041 -14.0039  -1.3533  -1.3532   0.4183   0.4184
     3.8077   3.8078   4.8999   4.9000   8.6838   8.6839   9.8790   9.8791
    11.2110  11.2112  11.8463  11.8465

     occupation numbers 
     1.0000   1.0000   1.0000   1.0000   1.0000   1.0000   1.0000   1.0000
     1.0000   1.0000   1.0000   1.0000   1.0000   1.0000   1.0000   1.0000
     1.0000   1.0000   1.0000   1.0000   1.0000   1.0000   1.0000   1.0000
     1.0000   1.0000   1.0000   1.0000   0.0000   0.0000   0.0000   0.0000
     0.0000   0.0000   0.0000   0.0000

          k =-0.0442-0.3094 0.4861 (  6627 PWs)   bands (ev):

   -15.2469 -15.2465 -15.2154 -15.2116 -15.1896 -15.1856 -15.1458 -15.1453
   -14.2502 -14.2497 -14.2133 -14.2126 -14.1671 -14.1664 -14.1085 -14.1076
   -14.0436 -14.0430 -14.0063 -14.0061  -1.5975  -1.5975   0.7377   0.7377
     3.8795   3.8796   5.0427   5.0427   8.7347   8.7349   9.7728   9.7729
    10.6375  10.6376  12.0623  12.0623

     occupation numbers 
     1.0000   1.0000   1.0000   1.0000   1.0000   1.0000   1.0000   1.0000
     1.0000   1.0000   1.0000   1.0000   1.0000   1.0000   1.0000   1.0000
     1.0000   1.0000   1.0000   1.0000   1.0000   1.0000   1.0000   1.0000
     1.0000   1.0000   1.0000   1.0000   0.0000   0.0000   0.0000   0.0000
     0.0000   0.0000   0.0000   0.0000

          k = 0.0000-0.2652 0.4419 (  6629 PWs)   bands (ev):

   -15.2464 -15.2459 -15.2183 -15.2159 -15.1849 -15.1824 -15.1472 -15.1467
   -14.2548 -14.2544 -14.2121 -14.2115 -14.1670 -14.1666 -14.1010 -14.1005
   -14.0448 -14.0442 -14.0097 -14.0095  -1.8962  -1.8962   1.1562   1.1563
     4.0749   4.0750   5.2342   5.2343   8.7283   8.7285   9.4327   9.4329
    10.4577  10.4578  11.8339  11.8340

     occupation numbers 
     1.0000   1.0000   1.0000   1.0000   1.0000   1.0000   1.0000   1.0000
     1.0000   1.0000   1.0000   1.0000   1.0000   1.0000   1.0000   1.0000
     1.0000   1.0000   1.0000   1.0000   1.0000   1.0000   1.0000   1.0000
     1.0000   1.0000   1.0000   1.0000   0.0000   0.0000   0.0000   0.0000
     0.0000   0.0000   0.0000   0.0000

          k =-0.1768-0.5303 0.7071 (  6646 PWs)   bands (ev):

   -15.2435 -15.2430 -15.2226 -15.2207 -15.1796 -15.1774 -15.1502 -15.1496
   -14.2492 -14.2490 -14.2149 -14.2142 -14.1656 -14.1651 -14.1090 -14.1084
   -14.0419 -14.0414 -14.0077 -14.0075  -1.6048  -1.6048   0.7759   0.7760
     4.2442   4.2443   4.7076   4.7076   8.3603   8.3604   8.7570   8.7571
    11.1589  11.1590  12.7880  12.7880

     occupation numbers 
     1.0000   1.0000   1.0000   1.0000   1.0000   1.0000   1.0000   1.0000
     1.0000   1.0000   1.0000   1.0000   1.0000   1.0000   1.0000   1.0000
     1.0000   1.0000   1.0000   1.0000   1.0000   1.0000   1.0000   1.0000
     1.0000   1.0000   1.0000   1.0000   0.0000   0.0000   0.0000   0.0000
     0.0000   0.0000   0.0000   0.0000

          k =-0.1326-0.4861 0.6629 (  6645 PWs)   bands (ev):

   -15.2446 -15.2441 -15.2199 -15.2169 -15.1840 -15.1807 -15.1481 -15.1474
   -14.2475 -14.2472 -14.2134 -14.2126 -14.1636 -14.1626 -14.1182 -14.1170
   -14.0415 -14.0410 -14.0042 -14.0040  -1.3005  -1.3005   0.3926   0.3927
     4.0138   4.0139   4.5838   4.5839   8.5335   8.5336   9.2252   9.2252
    10.9828  10.9828  12.7393  12.7393

     occupation numbers 
     1.0000   1.0000   1.0000   1.0000   1.0000   1.0000   1.0000   1.0000
     1.0000   1.0000   1.0000   1.0000   1.0000   1.0000   1.0000   1.0000
     1.0000   1.0000   1.0000   1.0000   1.0000   1.0000   1.0000   1.0000
     1.0000   1.0000   1.0000   1.0000   0.0000   0.0000   0.0000   0.0000
     0.0000   0.0000   0.0000   0.0000

          k =-0.0884-0.4419 0.6187 (  6640 PWs)   bands (ev):

   -15.2457 -15.2451 -15.2173 -15.2131 -15.1883 -15.1838 -15.1463 -15.1456
   -14.2477 -14.2473 -14.2107 -14.2099 -14.1622 -14.1604 -14.1247 -14.1228
   -14.0422 -14.0416 -14.0015 -14.0012  -1.0621  -1.0620   0.1173   0.1173
     3.8162   3.8163   4.5721   4.5722   8.5947   8.5948   9.9452   9.9453
    10.8794  10.8795  12.1567  12.1567

     occupation numbers 
     1.0000   1.0000   1.0000   1.0000   1.0000   1.0000   1.0000   1.0000
     1.0000   1.0000   1.0000   1.0000   1.0000   1.0000   1.0000   1.0000
     1.0000   1.0000   1.0000   1.0000   1.0000   1.0000   1.0000   1.0000
     1.0000   1.0000   1.0000   1.0000   0.0000   0.0000   0.0000   0.0000
     0.0000   0.0000   0.0000   0.0000

          k =-0.0442-0.3977 0.5745 (  6643 PWs)   bands (ev):

   -15.2465 -15.2459 -15.2154 -15.2101 -15.1915 -15.1860 -15.1453 -15.1445
   -14.2483 -14.2479 -14.2097 -14.2089 -14.1625 -14.1605 -14.1252 -14.1231
   -14.0429 -14.0423 -14.0008 -14.0005  -1.0639  -1.0639   0.1221   0.1221
     3.7039   3.7040   4.6601   4.6601   8.6747   8.6748  10.4052  10.4053
    11.0927  11.0930  11.4361  11.4364

     occupation numbers 
     1.0000   1.0000   1.0000   1.0000   1.0000   1.0000   1.0000   1.0000
     1.0000   1.0000   1.0000   1.0000   1.0000   1.0000   1.0000   1.0000
     1.0000   1.0000   1.0000   1.0000   1.0000   1.0000   1.0000   1.0000
     1.0000   1.0000   1.0000   1.0000   0.0000   0.0000   0.0000   0.0000
     0.0000   0.0000   0.0000   0.0000

          k = 0.0000-0.3536 0.5303 (  6634 PWs)   bands (ev):

   -15.2469 -15.2464 -15.2146 -15.2095 -15.1921 -15.1867 -15.1451 -15.1444
   -14.2488 -14.2484 -14.2112 -14.2104 -14.1645 -14.1631 -14.1189 -14.1174
   -14.0433 -14.0427 -14.0025 -14.0022  -1.2996  -1.2995   0.3908   0.3908
     3.7167   3.7167   4.8259   4.8259   8.7549   8.7550  10.2713  10.2714
    10.7157  10.7158  11.9204  11.9206

     occupation numbers 
     1.0000   1.0000   1.0000   1.0000   1.0000   1.0000   1.0000   1.0000
     1.0000   1.0000   1.0000   1.0000   1.0000   1.0000   1.0000   1.0000
     1.0000   1.0000   1.0000   1.0000   1.0000   1.0000   1.0000   1.0000
     1.0000   1.0000   1.0000   1.0000   0.0000   0.0000   0.0000   0.0000
     0.0000   0.0000   0.0000   0.0000

          k =-0.0884-0.5303 0.7071 (  6627 PWs)   bands (ev):

   -15.2428 -15.2421 -15.2229 -15.2204 -15.1800 -15.1771 -15.1504 -15.1497
   -14.2453 -14.2450 -14.2156 -14.2149 -14.1587 -14.1571 -14.1256 -14.1240
   -14.0381 -14.0376 -14.0051 -14.0049  -1.0782  -1.0781   0.1256   0.1257
     4.1635   4.1636   4.4236   4.4236   8.3228   8.3230   8.5783   8.5784
    11.8294  11.8294  13.0699  13.0700

     occupation numbers 
     1.0000   1.0000   1.0000   1.0000   1.0000   1.0000   1.0000   1.0000
     1.0000   1.0000   1.0000   1.0000   1.0000   1.0000   1.0000   1.0000
     1.0000   1.0000   1.0000   1.0000   1.0000   1.0000   1.0000   1.0000
     1.0000   1.0000   1.0000   1.0000   0.0000   0.0000   0.0000   0.0000
     0.0000   0.0000   0.0000   0.0000

          k =-0.0442-0.4861 0.6629 (  6643 PWs)   bands (ev):

   -15.2441 -15.2434 -15.2205 -15.2170 -15.1841 -15.1803 -15.1482 -15.1474
   -14.2467 -14.2463 -14.2119 -14.2111 -14.1559 -14.1526 -14.1340 -14.1308
   -14.0399 -14.0393 -14.0018 -14.0015  -0.7944  -0.7943  -0.1738  -0.1737
     3.9573   3.9575   4.3755   4.3755   8.4816   8.4817   9.1675   9.1675
    11.6454  11.6454  12.3714  12.3715

     occupation numbers 
     1.0000   1.0000   1.0000   1.0000   1.0000   1.0000   1.0000   1.0000
     1.0000   1.0000   1.0000   1.0000   1.0000   1.0000   1.0000   1.0000
     1.0000   1.0000   1.0000   1.0000   1.0000   1.0000   1.0000   1.0000
     1.0000   1.0000   1.0000   1.0000   0.0000   0.0000   0.0000   0.0000
     0.0000   0.0000   0.0000   0.0000

          k = 0.0000-0.4419 0.6187 (  6651 PWs)   bands (ev):

   -15.2454 -15.2448 -15.2178 -15.2133 -15.1882 -15.1834 -15.1464 -15.1455
   -14.2479 -14.2475 -14.2094 -14.2085 -14.1575 -14.1540 -14.1339 -14.1305
   -14.0418 -14.0411 -14.0000 -13.9998  -0.7962  -0.7961  -0.1625  -0.1623
     3.7672   3.7673   4.4758   4.4758   8.5742   8.5743   9.9794   9.9795
    11.4507  11.4509  11.5538  11.5539

     occupation numbers 
     1.0000   1.0000   1.0000   1.0000   1.0000   1.0000   1.0000   1.0000
     1.0000   1.0000   1.0000   1.0000   1.0000   1.0000   1.0000   1.0000
     1.0000   1.0000   1.0000   1.0000   1.0000   1.0000   1.0000   1.0000
     1.0000   1.0000   1.0000   1.0000   0.0000   0.0000   0.0000   0.0000
     0.0000   0.0000   0.0000   0.0000

          k =-0.7071 0.1768 0.0000 (  6638 PWs)   bands (ev):

   -15.2424 -15.2417 -15.2232 -15.2205 -15.1799 -15.1768 -15.1506 -15.1498
   -14.2446 -14.2443 -14.2153 -14.2146 -14.1512 -14.1454 -14.1402 -14.1345
   -14.0367 -14.0362 -14.0041 -14.0039  -0.5132  -0.5117  -0.4823  -0.4807
     4.1625   4.1626   4.3015   4.3016   8.3387   8.3390   8.4789   8.4791
    12.4731  12.4731  12.6392  12.6393

     occupation numbers 
     1.0000   1.0000   1.0000   1.0000   1.0000   1.0000   1.0000   1.0000
     1.0000   1.0000   1.0000   1.0000   1.0000   1.0000   1.0000   1.0000
     1.0000   1.0000   1.0000   1.0000   1.0000   1.0000   1.0000   1.0000
     1.0000   1.0000   1.0000   1.0000   0.0000   0.0000   0.0000   0.0000
     0.0000   0.0000   0.0000   0.0000

          k =-0.1768-0.4419 0.7071 (  6639 PWs)   bands (ev):

   -15.2459 -15.2453 -15.2178 -15.2143 -15.1868 -15.1831 -15.1468 -15.1461
   -14.2493 -14.2489 -14.2127 -14.2118 -14.1655 -14.1647 -14.1134 -14.1125
   -14.0434 -14.0427 -14.0045 -14.0043  -1.4707  -1.4707   0.6035   0.6035
     3.9355   3.9356   4.7399   4.7399   9.0702   9.0706   9.3439   9.3443
    10.4153  10.4154  12.5188  12.5189

     occupation numbers 
     1.0000   1.0000   1.0000   1.0000   1.0000   1.0000   1.0000   1.0000
     1.0000   1.0000   1.0000   1.0000   1.0000   1.0000   1.0000   1.0000
     1.0000   1.0000   1.0000   1.0000   1.0000   1.0000   1.0000   1.0000
     1.0000   1.0000   1.0000   1.0000   0.0000   0.0000   0.0000   0.0000
     0.0000   0.0000   0.0000   0.0000

          k =-0.1326-0.3977 0.6629 (  6637 PWs)   bands (ev):

   -15.2463 -15.2457 -15.2162 -15.2114 -15.1901 -15.1850 -15.1457 -15.1449
   -14.2485 -14.2481 -14.2103 -14.2094 -14.1637 -14.1623 -14.1217 -14.1201
   -14.0434 -14.0426 -14.0015 -14.0012  -1.1867  -1.1867   0.2650   0.2651
     3.8070   3.8071   4.5837   4.5837   9.1432   9.1435   9.7860   9.7862
    10.5275  10.5276  12.0430  12.0431

     occupation numbers 
     1.0000   1.0000   1.0000   1.0000   1.0000   1.0000   1.0000   1.0000
     1.0000   1.0000   1.0000   1.0000   1.0000   1.0000   1.0000   1.0000
     1.0000   1.0000   1.0000   1.0000   1.0000   1.0000   1.0000   1.0000
     1.0000   1.0000   1.0000   1.0000   0.0000   0.0000   0.0000   0.0000
     0.0000   0.0000   0.0000   0.0000

          k =-0.0884-0.3536 0.6187 (  6652 PWs)   bands (ev):

   -15.2465 -15.2458 -15.2156 -15.2102 -15.1915 -15.1858 -15.1453 -15.1445
   -14.2485 -14.2480 -14.2091 -14.2081 -14.1629 -14.1611 -14.1250 -14.1231
   -14.0435 -14.0427 -14.0004 -14.0000  -1.0486  -1.0485   0.1076   0.1077
     3.7661   3.7662   4.5267   4.5268   9.1486   9.1488   9.8978   9.8979
    11.0417  11.0420  11.3752  11.3755

     occupation numbers 
     1.0000   1.0000   1.0000   1.0000   1.0000   1.0000   1.0000   1.0000
     1.0000   1.0000   1.0000   1.0000   1.0000   1.0000   1.0000   1.0000
     1.0000   1.0000   1.0000   1.0000   1.0000   1.0000   1.0000   1.0000
     1.0000   1.0000   1.0000   1.0000   0.0000   0.0000   0.0000   0.0000
     0.0000   0.0000   0.0000   0.0000

          k =-0.0884-0.4419 0.7071 (  6650 PWs)   bands (ev):

   -15.2453 -15.2445 -15.2186 -15.2144 -15.1870 -15.1825 -15.1468 -15.1459
   -14.2480 -14.2476 -14.2101 -14.2091 -14.1598 -14.1577 -14.1285 -14.1264
   -14.0422 -14.0415 -14.0008 -14.0005  -0.9945  -0.9944   0.0559   0.0560
     3.9198   3.9199   4.3501   4.3502   9.1213   9.1216   9.3371   9.3374
    10.8030  10.8030  12.2062  12.2063

     occupation numbers 
     1.0000   1.0000   1.0000   1.0000   1.0000   1.0000   1.0000   1.0000
     1.0000   1.0000   1.0000   1.0000   1.0000   1.0000   1.0000   1.0000
     1.0000   1.0000   1.0000   1.0000   1.0000   1.0000   1.0000   1.0000
     1.0000   1.0000   1.0000   1.0000   0.0000   0.0000   0.0000   0.0000
     0.0000   0.0000   0.0000   0.0000

          k =-0.0442-0.3977 0.6629 (  6651 PWs)   bands (ev):

   -15.2458 -15.2450 -15.2174 -15.2122 -15.1896 -15.1840 -15.1459 -15.1448
   -14.2487 -14.2483 -14.2076 -14.2065 -14.1575 -14.1542 -14.1350 -14.1316
   -14.0431 -14.0423 -13.9988 -13.9985  -0.7747  -0.7746  -0.1728  -0.1727
     3.8367   3.8368   4.2697   4.2697   9.2667   9.2669   9.9802   9.9803
    10.7233  10.7234  11.3471  11.3472

     occupation numbers 
     1.0000   1.0000   1.0000   1.0000   1.0000   1.0000   1.0000   1.0000
     1.0000   1.0000   1.0000   1.0000   1.0000   1.0000   1.0000   1.0000
     1.0000   1.0000   1.0000   1.0000   1.0000   1.0000   1.0000   1.0000
     1.0000   1.0000   1.0000   1.0000   0.0000   0.0000   0.0000   0.0000
     0.0000   0.0000   0.0000   0.0000

          k =-0.0000-0.3536 0.6187 (  6657 PWs)   bands (ev):

   -15.2462 -15.2454 -15.2165 -15.2111 -15.1908 -15.1850 -15.1454 -15.1445
   -14.2489 -14.2484 -14.2077 -14.2066 -14.1595 -14.1568 -14.1316 -14.1289
   -14.0434 -14.0427 -13.9990 -13.9987  -0.8963  -0.8962  -0.0433  -0.0432
     3.7752   3.7753   4.3699   4.3700   9.3203   9.3205  10.1623  10.1624
    10.6093  10.6094  11.2526  11.2527

     occupation numbers 
     1.0000   1.0000   1.0000   1.0000   1.0000   1.0000   1.0000   1.0000
     1.0000   1.0000   1.0000   1.0000   1.0000   1.0000   1.0000   1.0000
     1.0000   1.0000   1.0000   1.0000   1.0000   1.0000   1.0000   1.0000
     1.0000   1.0000   1.0000   1.0000   0.0000   0.0000   0.0000   0.0000
     0.0000   0.0000   0.0000   0.0000

          k =-0.7071 0.2652 0.0000 (  6650 PWs)   bands (ev):

   -15.2450 -15.2441 -15.2191 -15.2147 -15.1869 -15.1821 -15.1469 -15.1459
   -14.2480 -14.2476 -14.2088 -14.2078 -14.1540 -14.1482 -14.1409 -14.1351
   -14.0417 -14.0410 -13.9994 -13.9991  -0.5020  -0.5004  -0.4609  -0.4593
     3.9828   3.9830   4.1480   4.1480   9.1188   9.1192   9.3151   9.3153
    11.4223  11.4224  11.5318  11.5319

     occupation numbers 
     1.0000   1.0000   1.0000   1.0000   1.0000   1.0000   1.0000   1.0000
     1.0000   1.0000   1.0000   1.0000   1.0000   1.0000   1.0000   1.0000
     1.0000   1.0000   1.0000   1.0000   1.0000   1.0000   1.0000   1.0000
     1.0000   1.0000   1.0000   1.0000   0.0000   0.0000   0.0000   0.0000
     0.0000   0.0000   0.0000   0.0000

          k =-0.7071 0.3536 0.0000 (  6652 PWs)   bands (ev):

   -15.2458 -15.2449 -15.2175 -15.2119 -15.1900 -15.1841 -15.1457 -15.1446
   -14.2491 -14.2487 -14.2063 -14.2051 -14.1550 -14.1492 -14.1415 -14.1356
   -14.0435 -14.0426 -13.9978 -13.9974  -0.4970  -0.4955  -0.4522  -0.4506
     3.9157   3.9159   4.0887   4.0888   9.7267   9.7273  10.0522  10.0528
    10.6979  10.6984  10.7199  10.7203

     occupation numbers 
     1.0000   1.0000   1.0000   1.0000   1.0000   1.0000   1.0000   1.0000
     1.0000   1.0000   1.0000   1.0000   1.0000   1.0000   1.0000   1.0000
     1.0000   1.0000   1.0000   1.0000   1.0000   1.0000   1.0000   1.0000
     1.0000   1.0000   1.0000   1.0000   0.0000   0.0000   0.0000   0.0000
     0.0000   0.0000   0.0000   0.0000

     the Fermi energy is     6.7900 ev

!    total energy              =    -874.81371136 Ry
     Harris-Foulkes estimate   =    -874.81371150 Ry
     estimated scf accuracy    <       0.00000095 Ry

     total all-electron energy =    -24705.623594 Ry

     The total energy is the sum of the following terms:

     one-electron contribution =    -153.90881416 Ry
     hartree contribution      =      95.47047781 Ry
     xc contribution           =     -95.07335997 Ry
     ewald contribution        =    -167.52979533 Ry
     one-center paw contrib.   =    -553.77221952 Ry
     smearing contrib. (-TS)   =      -0.00000019 Ry

     convergence has been achieved in   5 iterations

     Writing output data file Sn.save
 
     init_run     :     14.61s CPU     16.19s WALL (       1 calls)
     electrons    :    287.86s CPU    307.33s WALL (       1 calls)

     Called by init_run:
     wfcinit      :     13.51s CPU     14.53s WALL (       1 calls)
     potinit      :      0.26s CPU      0.32s WALL (       1 calls)

     Called by electrons:
     c_bands      :    241.70s CPU    258.45s WALL (       6 calls)
     sum_band     :     44.59s CPU     47.12s WALL (       6 calls)
     v_of_rho     :      0.10s CPU      0.11s WALL (       6 calls)
     v_h          :      0.02s CPU      0.02s WALL (       6 calls)
     v_xc         :      0.08s CPU      0.09s WALL (       6 calls)
     newd         :      0.54s CPU      0.61s WALL (       6 calls)
     PAW_pot      :      1.18s CPU      1.29s WALL (       6 calls)
     mix_rho      :      0.03s CPU      0.05s WALL (       6 calls)

     Called by c_bands:
     init_us_2    :      0.72s CPU      0.83s WALL (    1885 calls)
     cegterg      :    228.90s CPU    245.33s WALL (     870 calls)

     Called by sum_band:
     sum_band:bec :      2.90s CPU      2.96s WALL (     870 calls)
     addusdens    :      0.42s CPU      0.52s WALL (       6 calls)

     Called by *egterg:
     h_psi        :    198.69s CPU    211.98s WALL (    3219 calls)
     s_psi        :      5.86s CPU      5.90s WALL (    3219 calls)
     g_psi        :      0.61s CPU      0.61s WALL (    2204 calls)
     cdiaghg      :     12.85s CPU     13.19s WALL (    2929 calls)
     cegterg:over :      9.52s CPU      9.59s WALL (    2204 calls)
     cegterg:upda :      4.88s CPU      4.92s WALL (    2204 calls)
     cegterg:last :      2.66s CPU      2.70s WALL (     870 calls)

     Called by h_psi:
     h_psi:vloc   :    184.91s CPU    197.92s WALL (    3219 calls)
     h_psi:vnl    :     13.31s CPU     13.55s WALL (    3219 calls)
     add_vuspsi   :      6.17s CPU      6.23s WALL (    3219 calls)

     General routines
     calbec       :      9.65s CPU      9.87s WALL (    4089 calls)
     fft          :      0.16s CPU      0.32s WALL (     116 calls)
     fftw         :    207.59s CPU    221.93s WALL (  400716 calls)
     davcio       :      0.04s CPU      0.93s WALL (     145 calls)
 
     Parallel routines
     fft_scatter  :    132.12s CPU    141.61s WALL (  400832 calls)

     PAW routines
     PAW_pot      :      1.18s CPU      1.29s WALL (       6 calls)
     PAW_symme    :      0.02s CPU      0.02s WALL (      12 calls)
 
     PWSCF        :  5m 3.85s CPU     5m26.42s WALL

 
   This run was terminated on:  23: 0: 5  16Mar2020            

=------------------------------------------------------------------------------=
   JOB DONE.
=------------------------------------------------------------------------------=
