
     Program PWSCF v.5.4.0 starts on 15Mar2020 at 19:53:34 

     This program is part of the open-source Quantum ESPRESSO suite
     for quantum simulation of materials; please cite
         "P. Giannozzi et al., J. Phys.:Condens. Matter 21 395502 (2009);
          URL http://www.quantum-espresso.org", 
     in publications or presentations arising from this work. More details at
     http://www.quantum-espresso.org/quote

     Parallel version (MPI & OpenMP), running on      16 processor cores
     Number of MPI processes:                16
     Threads/MPI process:                     1
     R & G space division:  proc/nbgrp/npool/nimage =      16
     Waiting for input...
     Reading input from standard input
Warning: card &IONS ignored
Warning: card / ignored
Warning: card &CELL ignored
Warning: card / ignored

     Current dimensions of program PWSCF are:
     Max number of different atomic species (ntypx) = 10
     Max number of k-points (npk) =  40000
     Max angular momentum in pseudopotentials (lmaxx) =  3
               file Sn.rel-pbesol-dn-kjpaw_psl.1.0.0.UPF: wavefunction(s)  5S 5P 5P 4D 4D renormalized

     Subspace diagonalization in iterative solution of the eigenvalue problem:
     a serial algorithm will be used

 
     Parallelization info
     --------------------
     sticks:   dense  smooth     PW     G-vecs:    dense   smooth      PW
     Min          68      68     19                 1497     1497     237
     Max          69      69     20                 1499     1499     242
     Sum        1099    1099    313                23973    23973    3839
 

     Title: 
     Sn                                                                         


     bravais-lattice index     =            0
     lattice parameter (alat)  =       8.9127  a.u.
     unit-cell volume          =     500.6268 (a.u.)^3
     number of atoms/cell      =            2
     number of atomic types    =            1
     number of electrons       =        28.00
     number of Kohn-Sham states=           36
     kinetic-energy cutoff     =      50.0000  Ry
     charge density cutoff     =     200.0000  Ry
     convergence threshold     =      1.0E-06
     mixing beta               =       0.7000
     number of iterations used =            8  plain     mixing
     Exchange-correlation      =  SLA  PW   PSX  PSC ( 1  4 10  8 0 0)
     Non magnetic calculation with spin-orbit


     celldm(1)=   8.912709  celldm(2)=   0.000000  celldm(3)=   0.000000
     celldm(4)=   0.000000  celldm(5)=   0.000000  celldm(6)=   0.000000

     crystal axes: (cart. coord. in units of alat)
               a(1) = (   0.000000   0.707107   0.707107 )  
               a(2) = (   0.707107   0.000000   0.707107 )  
               a(3) = (   0.707107   0.707107   0.000000 )  

     reciprocal axes: (cart. coord. in units 2 pi/alat)
               b(1) = ( -0.707107  0.707107  0.707107 )  
               b(2) = (  0.707107 -0.707107  0.707107 )  
               b(3) = (  0.707107  0.707107 -0.707107 )  


     PseudoPot. # 1 for Sn read from file:
     ../PseudopotentialDatabase/Sn.rel-pbesol-dn-kjpaw_psl.1.0.0.UPF
     MD5 check sum: e69eff64f15ae39ad43ef58bacbfdf88
     Pseudo is Projector augmented-wave + core cor, Zval = 14.0
     Generated using "atomic" code by A. Dal Corso  v.6.3
     Shape of augmentation charge: PSQ
     Using radial grid of 1243 points, 10 beta functions with: 
                l(1) =   0
                l(2) =   0
                l(3) =   1
                l(4) =   1
                l(5) =   1
                l(6) =   1
                l(7) =   2
                l(8) =   2
                l(9) =   2
               l(10) =   2
     Q(r) pseudized with 0 coefficients 


     atomic species   valence    mass     pseudopotential
        Sn            14.00   118.71000     Sn( 1.00)

     24 Sym. Ops. (no inversion) found
          (note: 24 additional sym.ops. were found but ignored
           their fractional translations are incommensurate with FFT grid)

                                    s                        frac. trans.

      isym =  1     identity                                     

 cryst.   s( 1) = (     1          0          0      )
                  (     0          1          0      )
                  (     0          0          1      )

 cart.    s( 1) = (  1.0000000  0.0000000  0.0000000 )
                  (  0.0000000  1.0000000  0.0000000 )
                  (  0.0000000  0.0000000  1.0000000 )


      isym =  2     180 deg rotation - cart. axis [0,0,1]        

 cryst.   s( 2) = (     0          1         -1      )
                  (     1          0         -1      )
                  (     0          0         -1      )

 cart.    s( 2) = ( -1.0000000  0.0000000  0.0000000 )
                  (  0.0000000 -1.0000000  0.0000000 )
                  (  0.0000000  0.0000000  1.0000000 )


      isym =  3     180 deg rotation - cart. axis [0,1,0]        

 cryst.   s( 3) = (     0         -1          1      )
                  (     0         -1          0      )
                  (     1         -1          0      )

 cart.    s( 3) = ( -1.0000000  0.0000000  0.0000000 )
                  (  0.0000000  1.0000000  0.0000000 )
                  (  0.0000000  0.0000000 -1.0000000 )


      isym =  4     180 deg rotation - cart. axis [1,0,0]        

 cryst.   s( 4) = (    -1          0          0      )
                  (    -1          0          1      )
                  (    -1          1          0      )

 cart.    s( 4) = (  1.0000000  0.0000000  0.0000000 )
                  (  0.0000000 -1.0000000  0.0000000 )
                  (  0.0000000  0.0000000 -1.0000000 )


      isym =  5     120 deg rotation - cart. axis [-1,-1,-1]     

 cryst.   s( 5) = (     0          0          1      )
                  (     1          0          0      )
                  (     0          1          0      )

 cart.    s( 5) = (  0.0000000  1.0000000  0.0000000 )
                  (  0.0000000  0.0000000  1.0000000 )
                  (  1.0000000  0.0000000  0.0000000 )


      isym =  6     120 deg rotation - cart. axis [-1,1,1]       

 cryst.   s( 6) = (     1         -1          0      )
                  (     0         -1          1      )
                  (     0         -1          0      )

 cart.    s( 6) = (  0.0000000 -1.0000000  0.0000000 )
                  (  0.0000000  0.0000000  1.0000000 )
                  ( -1.0000000  0.0000000  0.0000000 )


      isym =  7     120 deg rotation - cart. axis [1,1,-1]       

 cryst.   s( 7) = (    -1          1          0      )
                  (    -1          0          0      )
                  (    -1          0          1      )

 cart.    s( 7) = (  0.0000000  1.0000000  0.0000000 )
                  (  0.0000000  0.0000000 -1.0000000 )
                  ( -1.0000000  0.0000000  0.0000000 )


      isym =  8     120 deg rotation - cart. axis [1,-1,1]       

 cryst.   s( 8) = (     0          0         -1      )
                  (     0          1         -1      )
                  (     1          0         -1      )

 cart.    s( 8) = (  0.0000000 -1.0000000  0.0000000 )
                  (  0.0000000  0.0000000 -1.0000000 )
                  (  1.0000000  0.0000000  0.0000000 )


      isym =  9     120 deg rotation - cart. axis [1,1,1]        

 cryst.   s( 9) = (     0          1          0      )
                  (     0          0          1      )
                  (     1          0          0      )

 cart.    s( 9) = (  0.0000000  0.0000000  1.0000000 )
                  (  1.0000000  0.0000000  0.0000000 )
                  (  0.0000000  1.0000000  0.0000000 )


      isym = 10     120 deg rotation - cart. axis [-1,1,-1]      

 cryst.   s(10) = (    -1          0          1      )
                  (    -1          1          0      )
                  (    -1          0          0      )

 cart.    s(10) = (  0.0000000  0.0000000  1.0000000 )
                  ( -1.0000000  0.0000000  0.0000000 )
                  (  0.0000000 -1.0000000  0.0000000 )


      isym = 11     120 deg rotation - cart. axis [1,-1,-1]      

 cryst.   s(11) = (     1          0         -1      )
                  (     0          0         -1      )
                  (     0          1         -1      )

 cart.    s(11) = (  0.0000000  0.0000000 -1.0000000 )
                  ( -1.0000000  0.0000000  0.0000000 )
                  (  0.0000000  1.0000000  0.0000000 )


      isym = 12     120 deg rotation - cart. axis [-1,-1,1]      

 cryst.   s(12) = (     0         -1          0      )
                  (     1         -1          0      )
                  (     0         -1          1      )

 cart.    s(12) = (  0.0000000  0.0000000 -1.0000000 )
                  (  1.0000000  0.0000000  0.0000000 )
                  (  0.0000000 -1.0000000  0.0000000 )


      isym = 13     inv. 180 deg rotation - cart. axis [1,1,0]   

 cryst.   s(13) = (     1          0         -1      )
                  (     0          1         -1      )
                  (     0          0         -1      )

 cart.    s(13) = (  0.0000000 -1.0000000  0.0000000 )
                  ( -1.0000000  0.0000000  0.0000000 )
                  (  0.0000000  0.0000000  1.0000000 )


      isym = 14     inv. 180 deg rotation - cart. axis [1,-1,0]  

 cryst.   s(14) = (     0          1          0      )
                  (     1          0          0      )
                  (     0          0          1      )

 cart.    s(14) = (  0.0000000  1.0000000  0.0000000 )
                  (  1.0000000  0.0000000  0.0000000 )
                  (  0.0000000  0.0000000  1.0000000 )


      isym = 15     inv.  90 deg rotation - cart. axis [0,0,-1]  

 cryst.   s(15) = (     0         -1          0      )
                  (     0         -1          1      )
                  (     1         -1          0      )

 cart.    s(15) = (  0.0000000 -1.0000000  0.0000000 )
                  (  1.0000000  0.0000000  0.0000000 )
                  (  0.0000000  0.0000000 -1.0000000 )


      isym = 16     inv.  90 deg rotation - cart. axis [0,0,1]   

 cryst.   s(16) = (    -1          0          1      )
                  (    -1          0          0      )
                  (    -1          1          0      )

 cart.    s(16) = (  0.0000000  1.0000000  0.0000000 )
                  ( -1.0000000  0.0000000  0.0000000 )
                  (  0.0000000  0.0000000 -1.0000000 )


      isym = 17     inv. 180 deg rotation - cart. axis [1,0,1]   

 cryst.   s(17) = (     1         -1          0      )
                  (     0         -1          0      )
                  (     0         -1          1      )

 cart.    s(17) = (  0.0000000  0.0000000 -1.0000000 )
                  (  0.0000000  1.0000000  0.0000000 )
                  ( -1.0000000  0.0000000  0.0000000 )


      isym = 18     inv. 180 deg rotation - cart. axis [-1,0,1]  

 cryst.   s(18) = (     0          0          1      )
                  (     0          1          0      )
                  (     1          0          0      )

 cart.    s(18) = (  0.0000000  0.0000000  1.0000000 )
                  (  0.0000000  1.0000000  0.0000000 )
                  (  1.0000000  0.0000000  0.0000000 )


      isym = 19     inv.  90 deg rotation - cart. axis [0,1,0]   

 cryst.   s(19) = (     0          0         -1      )
                  (     1          0         -1      )
                  (     0          1         -1      )

 cart.    s(19) = (  0.0000000  0.0000000 -1.0000000 )
                  (  0.0000000 -1.0000000  0.0000000 )
                  (  1.0000000  0.0000000  0.0000000 )


      isym = 20     inv.  90 deg rotation - cart. axis [0,-1,0]  

 cryst.   s(20) = (    -1          1          0      )
                  (    -1          0          1      )
                  (    -1          0          0      )

 cart.    s(20) = (  0.0000000  0.0000000  1.0000000 )
                  (  0.0000000 -1.0000000  0.0000000 )
                  ( -1.0000000  0.0000000  0.0000000 )


      isym = 21     inv. 180 deg rotation - cart. axis [0,1,1]   

 cryst.   s(21) = (    -1          0          0      )
                  (    -1          1          0      )
                  (    -1          0          1      )

 cart.    s(21) = (  1.0000000  0.0000000  0.0000000 )
                  (  0.0000000  0.0000000 -1.0000000 )
                  (  0.0000000 -1.0000000  0.0000000 )


      isym = 22     inv. 180 deg rotation - cart. axis [0,1,-1]  

 cryst.   s(22) = (     1          0          0      )
                  (     0          0          1      )
                  (     0          1          0      )

 cart.    s(22) = (  1.0000000  0.0000000  0.0000000 )
                  (  0.0000000  0.0000000  1.0000000 )
                  (  0.0000000  1.0000000  0.0000000 )


      isym = 23     inv.  90 deg rotation - cart. axis [-1,0,0]  

 cryst.   s(23) = (     0          1         -1      )
                  (     0          0         -1      )
                  (     1          0         -1      )

 cart.    s(23) = ( -1.0000000  0.0000000  0.0000000 )
                  (  0.0000000  0.0000000 -1.0000000 )
                  (  0.0000000  1.0000000  0.0000000 )


      isym = 24     inv.  90 deg rotation - cart. axis [1,0,0]   

 cryst.   s(24) = (     0         -1          1      )
                  (     1         -1          0      )
                  (     0         -1          0      )

 cart.    s(24) = ( -1.0000000  0.0000000  0.0000000 )
                  (  0.0000000  0.0000000  1.0000000 )
                  (  0.0000000 -1.0000000  0.0000000 )


   Cartesian axes

     site n.     atom                  positions (alat units)
         1           Sn  tau(   1) = (   0.0000000   0.0000000   0.0000000  )
         2           Sn  tau(   2) = (   0.3535534   0.3535534   0.3535534  )

   Crystallographic axes

     site n.     atom                  positions (cryst. coord.)
         1           Sn  tau(   1) = (  0.0000000  0.0000000  0.0000000  )
         2           Sn  tau(   2) = (  0.2500000  0.2500000  0.2500000  )

     number of k points=   145  gaussian smearing, width (Ry)=  0.0001
                       cart. coord. in units 2pi/alat
        k(    1) = (   0.0000000   0.0000000   0.0000000), wk =   0.0002441
        k(    2) = (   0.0441942   0.0441942  -0.0441942), wk =   0.0019531
        k(    3) = (   0.0883883   0.0883883  -0.0883883), wk =   0.0019531
        k(    4) = (   0.1325825   0.1325825  -0.1325825), wk =   0.0019531
        k(    5) = (   0.1767767   0.1767767  -0.1767767), wk =   0.0019531
        k(    6) = (   0.2209709   0.2209709  -0.2209709), wk =   0.0019531
        k(    7) = (   0.2651650   0.2651650  -0.2651650), wk =   0.0019531
        k(    8) = (   0.3093592   0.3093592  -0.3093592), wk =   0.0019531
        k(    9) = (  -0.3535534  -0.3535534   0.3535534), wk =   0.0009766
        k(   10) = (   0.0883883   0.0000000   0.0000000), wk =   0.0014648
        k(   11) = (   0.1325825   0.0441942  -0.0441942), wk =   0.0058594
        k(   12) = (   0.1767767   0.0883883  -0.0883883), wk =   0.0058594
        k(   13) = (   0.2209709   0.1325825  -0.1325825), wk =   0.0058594
        k(   14) = (   0.2651650   0.1767767  -0.1767767), wk =   0.0058594
        k(   15) = (   0.3093592   0.2209709  -0.2209709), wk =   0.0058594
        k(   16) = (   0.3535534   0.2651650  -0.2651650), wk =   0.0058594
        k(   17) = (  -0.3093592  -0.3977476   0.3977476), wk =   0.0058594
        k(   18) = (  -0.2651650  -0.3535534   0.3535534), wk =   0.0058594
        k(   19) = (  -0.2209709  -0.3093592   0.3093592), wk =   0.0058594
        k(   20) = (  -0.1767767  -0.2651650   0.2651650), wk =   0.0058594
        k(   21) = (  -0.1325825  -0.2209709   0.2209709), wk =   0.0058594
        k(   22) = (  -0.0883883  -0.1767767   0.1767767), wk =   0.0058594
        k(   23) = (  -0.0441942  -0.1325825   0.1325825), wk =   0.0058594
        k(   24) = (   0.0000000  -0.0883883   0.0883883), wk =   0.0029297
        k(   25) = (   0.1767767   0.0000000   0.0000000), wk =   0.0014648
        k(   26) = (   0.2209709   0.0441942  -0.0441942), wk =   0.0058594
        k(   27) = (   0.2651650   0.0883883  -0.0883883), wk =   0.0058594
        k(   28) = (   0.3093592   0.1325825  -0.1325825), wk =   0.0058594
        k(   29) = (   0.3535534   0.1767767  -0.1767767), wk =   0.0058594
        k(   30) = (   0.3977476   0.2209709  -0.2209709), wk =   0.0058594
        k(   31) = (  -0.2651650  -0.4419417   0.4419417), wk =   0.0058594
        k(   32) = (  -0.2209709  -0.3977476   0.3977476), wk =   0.0058594
        k(   33) = (  -0.1767767  -0.3535534   0.3535534), wk =   0.0058594
        k(   34) = (  -0.1325825  -0.3093592   0.3093592), wk =   0.0058594
        k(   35) = (  -0.0883883  -0.2651650   0.2651650), wk =   0.0058594
        k(   36) = (  -0.0441942  -0.2209709   0.2209709), wk =   0.0058594
        k(   37) = (   0.0000000  -0.1767767   0.1767767), wk =   0.0029297
        k(   38) = (   0.2651650   0.0000000   0.0000000), wk =   0.0014648
        k(   39) = (   0.3093592   0.0441942  -0.0441942), wk =   0.0058594
        k(   40) = (   0.3535534   0.0883883  -0.0883883), wk =   0.0058594
        k(   41) = (   0.3977476   0.1325825  -0.1325825), wk =   0.0058594
        k(   42) = (   0.4419417   0.1767767  -0.1767767), wk =   0.0058594
        k(   43) = (  -0.2209709  -0.4861359   0.4861359), wk =   0.0058594
        k(   44) = (  -0.1767767  -0.4419417   0.4419417), wk =   0.0058594
        k(   45) = (  -0.1325825  -0.3977476   0.3977476), wk =   0.0058594
        k(   46) = (  -0.0883883  -0.3535534   0.3535534), wk =   0.0058594
        k(   47) = (  -0.0441942  -0.3093592   0.3093592), wk =   0.0058594
        k(   48) = (   0.0000000  -0.2651650   0.2651650), wk =   0.0029297
        k(   49) = (   0.3535534   0.0000000   0.0000000), wk =   0.0014648
        k(   50) = (   0.3977476   0.0441942  -0.0441942), wk =   0.0058594
        k(   51) = (   0.4419417   0.0883883  -0.0883883), wk =   0.0058594
        k(   52) = (   0.4861359   0.1325825  -0.1325825), wk =   0.0058594
        k(   53) = (  -0.1767767  -0.5303301   0.5303301), wk =   0.0058594
        k(   54) = (  -0.1325825  -0.4861359   0.4861359), wk =   0.0058594
        k(   55) = (  -0.0883883  -0.4419417   0.4419417), wk =   0.0058594
        k(   56) = (  -0.0441942  -0.3977476   0.3977476), wk =   0.0058594
        k(   57) = (   0.0000000  -0.3535534   0.3535534), wk =   0.0029297
        k(   58) = (   0.4419417   0.0000000   0.0000000), wk =   0.0014648
        k(   59) = (   0.4861359   0.0441942  -0.0441942), wk =   0.0058594
        k(   60) = (   0.5303301   0.0883883  -0.0883883), wk =   0.0058594
        k(   61) = (  -0.1325825  -0.5745243   0.5745243), wk =   0.0058594
        k(   62) = (  -0.0883883  -0.5303301   0.5303301), wk =   0.0058594
        k(   63) = (  -0.0441942  -0.4861359   0.4861359), wk =   0.0058594
        k(   64) = (   0.0000000  -0.4419417   0.4419417), wk =   0.0029297
        k(   65) = (   0.5303301   0.0000000   0.0000000), wk =   0.0014648
        k(   66) = (   0.5745243   0.0441942  -0.0441942), wk =   0.0058594
        k(   67) = (  -0.0883883  -0.6187184   0.6187184), wk =   0.0058594
        k(   68) = (  -0.0441942  -0.5745243   0.5745243), wk =   0.0058594
        k(   69) = (   0.0000000  -0.5303301   0.5303301), wk =   0.0029297
        k(   70) = (   0.6187184   0.0000000   0.0000000), wk =   0.0014648
        k(   71) = (  -0.0441942  -0.6629126   0.6629126), wk =   0.0058594
        k(   72) = (   0.0000000  -0.6187184   0.6187184), wk =   0.0029297
        k(   73) = (  -0.7071068   0.0000000   0.0000000), wk =   0.0007324
        k(   74) = (   0.1767767   0.0883883   0.0000000), wk =   0.0058594
        k(   75) = (   0.2209709   0.1325825  -0.0441942), wk =   0.0117188
        k(   76) = (   0.2651650   0.1767767  -0.0883883), wk =   0.0117188
        k(   77) = (   0.3093592   0.2209709  -0.1325825), wk =   0.0117188
        k(   78) = (   0.3535534   0.2651650  -0.1767767), wk =   0.0117188
        k(   79) = (  -0.3093592  -0.3977476   0.4861359), wk =   0.0117188
        k(   80) = (  -0.2651650  -0.3535534   0.4419417), wk =   0.0058594
        k(   81) = (   0.2651650   0.0883883   0.0000000), wk =   0.0058594
        k(   82) = (   0.3093592   0.1325825  -0.0441942), wk =   0.0117188
        k(   83) = (   0.3535534   0.1767767  -0.0883883), wk =   0.0117188
        k(   84) = (   0.3977476   0.2209709  -0.1325825), wk =   0.0117188
        k(   85) = (  -0.2651650  -0.4419417   0.5303301), wk =   0.0117188
        k(   86) = (  -0.2209709  -0.3977476   0.4861359), wk =   0.0117188
        k(   87) = (  -0.1767767  -0.3535534   0.4419417), wk =   0.0117188
        k(   88) = (  -0.1325825  -0.3093592   0.3977476), wk =   0.0117188
        k(   89) = (  -0.0883883  -0.2651650   0.3535534), wk =   0.0117188
        k(   90) = (  -0.0441942  -0.2209709   0.3093592), wk =   0.0117188
        k(   91) = (   0.0000000  -0.1767767   0.2651650), wk =   0.0058594
        k(   92) = (   0.3535534   0.0883883   0.0000000), wk =   0.0058594
        k(   93) = (   0.3977476   0.1325825  -0.0441942), wk =   0.0117188
        k(   94) = (   0.4419417   0.1767767  -0.0883883), wk =   0.0117188
        k(   95) = (  -0.2209709  -0.4861359   0.5745243), wk =   0.0117188
        k(   96) = (  -0.1767767  -0.4419417   0.5303301), wk =   0.0117188
        k(   97) = (  -0.1325825  -0.3977476   0.4861359), wk =   0.0117188
        k(   98) = (  -0.0883883  -0.3535534   0.4419417), wk =   0.0117188
        k(   99) = (  -0.0441942  -0.3093592   0.3977476), wk =   0.0117188
        k(  100) = (   0.0000000  -0.2651650   0.3535534), wk =   0.0058594
        k(  101) = (   0.4419417   0.0883883   0.0000000), wk =   0.0058594
        k(  102) = (   0.4861359   0.1325825  -0.0441942), wk =   0.0117188
        k(  103) = (  -0.1767767  -0.5303301   0.6187184), wk =   0.0117188
        k(  104) = (  -0.1325825  -0.4861359   0.5745243), wk =   0.0117188
        k(  105) = (  -0.0883883  -0.4419417   0.5303301), wk =   0.0117188
        k(  106) = (  -0.0441942  -0.3977476   0.4861359), wk =   0.0117188
        k(  107) = (   0.0000000  -0.3535534   0.4419417), wk =   0.0058594
        k(  108) = (   0.5303301   0.0883883   0.0000000), wk =   0.0058594
        k(  109) = (  -0.1325825  -0.5745243   0.6629126), wk =   0.0117188
        k(  110) = (  -0.0883883  -0.5303301   0.6187184), wk =   0.0117188
        k(  111) = (  -0.0441942  -0.4861359   0.5745243), wk =   0.0117188
        k(  112) = (   0.0000000  -0.4419417   0.5303301), wk =   0.0058594
        k(  113) = (  -0.0883883  -0.6187184   0.7071068), wk =   0.0058594
        k(  114) = (  -0.0441942  -0.5745243   0.6629126), wk =   0.0117188
        k(  115) = (  -0.0000000  -0.5303301   0.6187184), wk =   0.0058594
        k(  116) = (  -0.7071068   0.0883883   0.0000000), wk =   0.0029297
        k(  117) = (   0.3535534   0.1767767   0.0000000), wk =   0.0058594
        k(  118) = (   0.3977476   0.2209709  -0.0441942), wk =   0.0117188
        k(  119) = (  -0.2651650  -0.4419417   0.6187184), wk =   0.0117188
        k(  120) = (  -0.2209709  -0.3977476   0.5745243), wk =   0.0117188
        k(  121) = (  -0.1767767  -0.3535534   0.5303301), wk =   0.0058594
        k(  122) = (   0.4419417   0.1767767   0.0000000), wk =   0.0058594
        k(  123) = (  -0.2209709  -0.4861359   0.6629126), wk =   0.0117188
        k(  124) = (  -0.1767767  -0.4419417   0.6187184), wk =   0.0117188
        k(  125) = (  -0.1325825  -0.3977476   0.5745243), wk =   0.0117188
        k(  126) = (  -0.0883883  -0.3535534   0.5303301), wk =   0.0117188
        k(  127) = (  -0.0441942  -0.3093592   0.4861359), wk =   0.0117188
        k(  128) = (   0.0000000  -0.2651650   0.4419417), wk =   0.0058594
        k(  129) = (  -0.1767767  -0.5303301   0.7071068), wk =   0.0058594
        k(  130) = (  -0.1325825  -0.4861359   0.6629126), wk =   0.0117188
        k(  131) = (  -0.0883883  -0.4419417   0.6187184), wk =   0.0117188
        k(  132) = (  -0.0441942  -0.3977476   0.5745243), wk =   0.0117188
        k(  133) = (   0.0000000  -0.3535534   0.5303301), wk =   0.0058594
        k(  134) = (  -0.0883883  -0.5303301   0.7071068), wk =   0.0058594
        k(  135) = (  -0.0441942  -0.4861359   0.6629126), wk =   0.0117188
        k(  136) = (   0.0000000  -0.4419417   0.6187184), wk =   0.0058594
        k(  137) = (  -0.7071068   0.1767767   0.0000000), wk =   0.0029297
        k(  138) = (  -0.1767767  -0.4419417   0.7071068), wk =   0.0058594
        k(  139) = (  -0.1325825  -0.3977476   0.6629126), wk =   0.0117188
        k(  140) = (  -0.0883883  -0.3535534   0.6187184), wk =   0.0058594
        k(  141) = (  -0.0883883  -0.4419417   0.7071068), wk =   0.0058594
        k(  142) = (  -0.0441942  -0.3977476   0.6629126), wk =   0.0117188
        k(  143) = (  -0.0000000  -0.3535534   0.6187184), wk =   0.0058594
        k(  144) = (  -0.7071068   0.2651650   0.0000000), wk =   0.0029297
        k(  145) = (  -0.7071068   0.3535534   0.0000000), wk =   0.0014648

                       cryst. coord.
        k(    1) = (   0.0000000   0.0000000   0.0000000), wk =   0.0002441
        k(    2) = (   0.0000000   0.0000000   0.0625000), wk =   0.0019531
        k(    3) = (   0.0000000   0.0000000   0.1250000), wk =   0.0019531
        k(    4) = (   0.0000000   0.0000000   0.1875000), wk =   0.0019531
        k(    5) = (   0.0000000   0.0000000   0.2500000), wk =   0.0019531
        k(    6) = (   0.0000000   0.0000000   0.3125000), wk =   0.0019531
        k(    7) = (   0.0000000   0.0000000   0.3750000), wk =   0.0019531
        k(    8) = (   0.0000000   0.0000000   0.4375000), wk =   0.0019531
        k(    9) = (   0.0000000   0.0000000  -0.5000000), wk =   0.0009766
        k(   10) = (   0.0000000   0.0625000   0.0625000), wk =   0.0014648
        k(   11) = (   0.0000000   0.0625000   0.1250000), wk =   0.0058594
        k(   12) = (   0.0000000   0.0625000   0.1875000), wk =   0.0058594
        k(   13) = (   0.0000000   0.0625000   0.2500000), wk =   0.0058594
        k(   14) = (   0.0000000   0.0625000   0.3125000), wk =   0.0058594
        k(   15) = (   0.0000000   0.0625000   0.3750000), wk =   0.0058594
        k(   16) = (   0.0000000   0.0625000   0.4375000), wk =   0.0058594
        k(   17) = (   0.0000000   0.0625000  -0.5000000), wk =   0.0058594
        k(   18) = (   0.0000000   0.0625000  -0.4375000), wk =   0.0058594
        k(   19) = (   0.0000000   0.0625000  -0.3750000), wk =   0.0058594
        k(   20) = (   0.0000000   0.0625000  -0.3125000), wk =   0.0058594
        k(   21) = (   0.0000000   0.0625000  -0.2500000), wk =   0.0058594
        k(   22) = (   0.0000000   0.0625000  -0.1875000), wk =   0.0058594
        k(   23) = (   0.0000000   0.0625000  -0.1250000), wk =   0.0058594
        k(   24) = (   0.0000000   0.0625000  -0.0625000), wk =   0.0029297
        k(   25) = (   0.0000000   0.1250000   0.1250000), wk =   0.0014648
        k(   26) = (   0.0000000   0.1250000   0.1875000), wk =   0.0058594
        k(   27) = (   0.0000000   0.1250000   0.2500000), wk =   0.0058594
        k(   28) = (   0.0000000   0.1250000   0.3125000), wk =   0.0058594
        k(   29) = (   0.0000000   0.1250000   0.3750000), wk =   0.0058594
        k(   30) = (   0.0000000   0.1250000   0.4375000), wk =   0.0058594
        k(   31) = (   0.0000000   0.1250000  -0.5000000), wk =   0.0058594
        k(   32) = (   0.0000000   0.1250000  -0.4375000), wk =   0.0058594
        k(   33) = (   0.0000000   0.1250000  -0.3750000), wk =   0.0058594
        k(   34) = (   0.0000000   0.1250000  -0.3125000), wk =   0.0058594
        k(   35) = (   0.0000000   0.1250000  -0.2500000), wk =   0.0058594
        k(   36) = (   0.0000000   0.1250000  -0.1875000), wk =   0.0058594
        k(   37) = (   0.0000000   0.1250000  -0.1250000), wk =   0.0029297
        k(   38) = (   0.0000000   0.1875000   0.1875000), wk =   0.0014648
        k(   39) = (   0.0000000   0.1875000   0.2500000), wk =   0.0058594
        k(   40) = (   0.0000000   0.1875000   0.3125000), wk =   0.0058594
        k(   41) = (   0.0000000   0.1875000   0.3750000), wk =   0.0058594
        k(   42) = (   0.0000000   0.1875000   0.4375000), wk =   0.0058594
        k(   43) = (   0.0000000   0.1875000  -0.5000000), wk =   0.0058594
        k(   44) = (   0.0000000   0.1875000  -0.4375000), wk =   0.0058594
        k(   45) = (   0.0000000   0.1875000  -0.3750000), wk =   0.0058594
        k(   46) = (   0.0000000   0.1875000  -0.3125000), wk =   0.0058594
        k(   47) = (   0.0000000   0.1875000  -0.2500000), wk =   0.0058594
        k(   48) = (   0.0000000   0.1875000  -0.1875000), wk =   0.0029297
        k(   49) = (   0.0000000   0.2500000   0.2500000), wk =   0.0014648
        k(   50) = (   0.0000000   0.2500000   0.3125000), wk =   0.0058594
        k(   51) = (   0.0000000   0.2500000   0.3750000), wk =   0.0058594
        k(   52) = (   0.0000000   0.2500000   0.4375000), wk =   0.0058594
        k(   53) = (   0.0000000   0.2500000  -0.5000000), wk =   0.0058594
        k(   54) = (   0.0000000   0.2500000  -0.4375000), wk =   0.0058594
        k(   55) = (   0.0000000   0.2500000  -0.3750000), wk =   0.0058594
        k(   56) = (   0.0000000   0.2500000  -0.3125000), wk =   0.0058594
        k(   57) = (   0.0000000   0.2500000  -0.2500000), wk =   0.0029297
        k(   58) = (   0.0000000   0.3125000   0.3125000), wk =   0.0014648
        k(   59) = (   0.0000000   0.3125000   0.3750000), wk =   0.0058594
        k(   60) = (   0.0000000   0.3125000   0.4375000), wk =   0.0058594
        k(   61) = (   0.0000000   0.3125000  -0.5000000), wk =   0.0058594
        k(   62) = (   0.0000000   0.3125000  -0.4375000), wk =   0.0058594
        k(   63) = (   0.0000000   0.3125000  -0.3750000), wk =   0.0058594
        k(   64) = (   0.0000000   0.3125000  -0.3125000), wk =   0.0029297
        k(   65) = (   0.0000000   0.3750000   0.3750000), wk =   0.0014648
        k(   66) = (   0.0000000   0.3750000   0.4375000), wk =   0.0058594
        k(   67) = (   0.0000000   0.3750000  -0.5000000), wk =   0.0058594
        k(   68) = (   0.0000000   0.3750000  -0.4375000), wk =   0.0058594
        k(   69) = (   0.0000000   0.3750000  -0.3750000), wk =   0.0029297
        k(   70) = (   0.0000000   0.4375000   0.4375000), wk =   0.0014648
        k(   71) = (   0.0000000   0.4375000  -0.5000000), wk =   0.0058594
        k(   72) = (   0.0000000   0.4375000  -0.4375000), wk =   0.0029297
        k(   73) = (   0.0000000  -0.5000000  -0.5000000), wk =   0.0007324
        k(   74) = (   0.0625000   0.1250000   0.1875000), wk =   0.0058594
        k(   75) = (   0.0625000   0.1250000   0.2500000), wk =   0.0117188
        k(   76) = (   0.0625000   0.1250000   0.3125000), wk =   0.0117188
        k(   77) = (   0.0625000   0.1250000   0.3750000), wk =   0.0117188
        k(   78) = (   0.0625000   0.1250000   0.4375000), wk =   0.0117188
        k(   79) = (   0.0625000   0.1250000  -0.5000000), wk =   0.0117188
        k(   80) = (   0.0625000   0.1250000  -0.4375000), wk =   0.0058594
        k(   81) = (   0.0625000   0.1875000   0.2500000), wk =   0.0058594
        k(   82) = (   0.0625000   0.1875000   0.3125000), wk =   0.0117188
        k(   83) = (   0.0625000   0.1875000   0.3750000), wk =   0.0117188
        k(   84) = (   0.0625000   0.1875000   0.4375000), wk =   0.0117188
        k(   85) = (   0.0625000   0.1875000  -0.5000000), wk =   0.0117188
        k(   86) = (   0.0625000   0.1875000  -0.4375000), wk =   0.0117188
        k(   87) = (   0.0625000   0.1875000  -0.3750000), wk =   0.0117188
        k(   88) = (   0.0625000   0.1875000  -0.3125000), wk =   0.0117188
        k(   89) = (   0.0625000   0.1875000  -0.2500000), wk =   0.0117188
        k(   90) = (   0.0625000   0.1875000  -0.1875000), wk =   0.0117188
        k(   91) = (   0.0625000   0.1875000  -0.1250000), wk =   0.0058594
        k(   92) = (   0.0625000   0.2500000   0.3125000), wk =   0.0058594
        k(   93) = (   0.0625000   0.2500000   0.3750000), wk =   0.0117188
        k(   94) = (   0.0625000   0.2500000   0.4375000), wk =   0.0117188
        k(   95) = (   0.0625000   0.2500000  -0.5000000), wk =   0.0117188
        k(   96) = (   0.0625000   0.2500000  -0.4375000), wk =   0.0117188
        k(   97) = (   0.0625000   0.2500000  -0.3750000), wk =   0.0117188
        k(   98) = (   0.0625000   0.2500000  -0.3125000), wk =   0.0117188
        k(   99) = (   0.0625000   0.2500000  -0.2500000), wk =   0.0117188
        k(  100) = (   0.0625000   0.2500000  -0.1875000), wk =   0.0058594
        k(  101) = (   0.0625000   0.3125000   0.3750000), wk =   0.0058594
        k(  102) = (   0.0625000   0.3125000   0.4375000), wk =   0.0117188
        k(  103) = (   0.0625000   0.3125000  -0.5000000), wk =   0.0117188
        k(  104) = (   0.0625000   0.3125000  -0.4375000), wk =   0.0117188
        k(  105) = (   0.0625000   0.3125000  -0.3750000), wk =   0.0117188
        k(  106) = (   0.0625000   0.3125000  -0.3125000), wk =   0.0117188
        k(  107) = (   0.0625000   0.3125000  -0.2500000), wk =   0.0058594
        k(  108) = (   0.0625000   0.3750000   0.4375000), wk =   0.0058594
        k(  109) = (   0.0625000   0.3750000  -0.5000000), wk =   0.0117188
        k(  110) = (   0.0625000   0.3750000  -0.4375000), wk =   0.0117188
        k(  111) = (   0.0625000   0.3750000  -0.3750000), wk =   0.0117188
        k(  112) = (   0.0625000   0.3750000  -0.3125000), wk =   0.0058594
        k(  113) = (   0.0625000   0.4375000  -0.5000000), wk =   0.0058594
        k(  114) = (   0.0625000   0.4375000  -0.4375000), wk =   0.0117188
        k(  115) = (   0.0625000   0.4375000  -0.3750000), wk =   0.0058594
        k(  116) = (   0.0625000  -0.5000000  -0.4375000), wk =   0.0029297
        k(  117) = (   0.1250000   0.2500000   0.3750000), wk =   0.0058594
        k(  118) = (   0.1250000   0.2500000   0.4375000), wk =   0.0117188
        k(  119) = (   0.1250000   0.2500000  -0.5000000), wk =   0.0117188
        k(  120) = (   0.1250000   0.2500000  -0.4375000), wk =   0.0117188
        k(  121) = (   0.1250000   0.2500000  -0.3750000), wk =   0.0058594
        k(  122) = (   0.1250000   0.3125000   0.4375000), wk =   0.0058594
        k(  123) = (   0.1250000   0.3125000  -0.5000000), wk =   0.0117188
        k(  124) = (   0.1250000   0.3125000  -0.4375000), wk =   0.0117188
        k(  125) = (   0.1250000   0.3125000  -0.3750000), wk =   0.0117188
        k(  126) = (   0.1250000   0.3125000  -0.3125000), wk =   0.0117188
        k(  127) = (   0.1250000   0.3125000  -0.2500000), wk =   0.0117188
        k(  128) = (   0.1250000   0.3125000  -0.1875000), wk =   0.0058594
        k(  129) = (   0.1250000   0.3750000  -0.5000000), wk =   0.0058594
        k(  130) = (   0.1250000   0.3750000  -0.4375000), wk =   0.0117188
        k(  131) = (   0.1250000   0.3750000  -0.3750000), wk =   0.0117188
        k(  132) = (   0.1250000   0.3750000  -0.3125000), wk =   0.0117188
        k(  133) = (   0.1250000   0.3750000  -0.2500000), wk =   0.0058594
        k(  134) = (   0.1250000   0.4375000  -0.4375000), wk =   0.0058594
        k(  135) = (   0.1250000   0.4375000  -0.3750000), wk =   0.0117188
        k(  136) = (   0.1250000   0.4375000  -0.3125000), wk =   0.0058594
        k(  137) = (   0.1250000  -0.5000000  -0.3750000), wk =   0.0029297
        k(  138) = (   0.1875000   0.3750000  -0.4375000), wk =   0.0058594
        k(  139) = (   0.1875000   0.3750000  -0.3750000), wk =   0.0117188
        k(  140) = (   0.1875000   0.3750000  -0.3125000), wk =   0.0058594
        k(  141) = (   0.1875000   0.4375000  -0.3750000), wk =   0.0058594
        k(  142) = (   0.1875000   0.4375000  -0.3125000), wk =   0.0117188
        k(  143) = (   0.1875000   0.4375000  -0.2500000), wk =   0.0058594
        k(  144) = (   0.1875000  -0.5000000  -0.3125000), wk =   0.0029297
        k(  145) = (   0.2500000  -0.5000000  -0.2500000), wk =   0.0014648

     Dense  grid:    23973 G-vectors     FFT dimensions: (  45,  45,  45)

     Largest allocated arrays     est. size (Mb)     dimensions
        Kohn-Sham Wavefunctions         0.21 Mb     (     382,   36)
        NL pseudopotentials             0.20 Mb     (     191,   68)
        Each V/rho on FFT grid          0.09 Mb     (    6075)
        Each G-vector array             0.01 Mb     (    1498)
        G-vector shells                 0.00 Mb     (     257)
     Largest temporary arrays     est. size (Mb)     dimensions
        Auxiliary wavefunctions         0.84 Mb     (     382,  144)
        Each subspace H/S matrix        0.32 Mb     (     144,  144)
        Each <psi_i|beta_j> matrix      0.07 Mb     (      68,   2,   36)
        Arrays for rho mixing           0.74 Mb     (    6075,    8)

     Check: negative/imaginary core charge=   -0.000006    0.000000

     Initial potential from superposition of free atoms

     starting charge   27.99801, renormalised to   28.00000
     Starting wfc are   36 randomized atomic wfcs
     Checking if some PAW data can be deallocated... 

     total cpu time spent up to now is        8.6 secs

     Self-consistent Calculation

     iteration #  1     ecut=    50.00 Ry     beta=0.70
     Davidson diagonalization with overlap
     ethr =  1.00E-02,  avg # of iterations =  3.4

     Threshold (ethr) on eigenvalues was too large:
     Diagonalizing with lowered threshold

     Davidson diagonalization with overlap
     ethr =  5.65E-05,  avg # of iterations =  3.4

     total cpu time spent up to now is       56.2 secs

     total energy              =    -874.79275391 Ry
     Harris-Foulkes estimate   =    -874.79725300 Ry
     estimated scf accuracy    <       0.01861530 Ry

     iteration #  2     ecut=    50.00 Ry     beta=0.70
     Davidson diagonalization with overlap
     ethr =  6.65E-05,  avg # of iterations =  2.0

     total cpu time spent up to now is       75.4 secs

     total energy              =    -874.79366808 Ry
     Harris-Foulkes estimate   =    -874.79405332 Ry
     estimated scf accuracy    <       0.00160685 Ry

     iteration #  3     ecut=    50.00 Ry     beta=0.70
     Davidson diagonalization with overlap
     ethr =  5.74E-06,  avg # of iterations =  2.3

     total cpu time spent up to now is      100.6 secs

     total energy              =    -874.79396079 Ry
     Harris-Foulkes estimate   =    -874.79404695 Ry
     estimated scf accuracy    <       0.00012926 Ry

     iteration #  4     ecut=    50.00 Ry     beta=0.70
     Davidson diagonalization with overlap
     ethr =  4.62E-07,  avg # of iterations =  2.1

     total cpu time spent up to now is      124.4 secs

     total energy              =    -874.79400109 Ry
     Harris-Foulkes estimate   =    -874.79400350 Ry
     estimated scf accuracy    <       0.00000721 Ry

     iteration #  5     ecut=    50.00 Ry     beta=0.70
     Davidson diagonalization with overlap
     ethr =  2.57E-08,  avg # of iterations =  2.0

     total cpu time spent up to now is      145.3 secs

     End of self-consistent calculation

          k = 0.0000 0.0000 0.0000 (  2975 PWs)   bands (ev):

   -15.2346 -15.2346 -15.2346 -15.2346 -15.1536 -15.1536 -15.1536 -15.1536
   -14.3059 -14.3059 -14.1358 -14.1358 -14.1358 -14.1358 -14.0981 -14.0981
   -14.0981 -14.0981 -13.9942 -13.9942  -3.3473  -3.3473   5.5182   5.5182
     6.3947   6.3947   7.0502   7.0502   7.0502   7.0502   8.5657   8.5657
     9.0406   9.0406   9.0406   9.0406

     occupation numbers 
     1.0000   1.0000   1.0000   1.0000   1.0000   1.0000   1.0000   1.0000
     1.0000   1.0000   1.0000   1.0000   1.0000   1.0000   1.0000   1.0000
     1.0000   1.0000   1.0000   1.0000   1.0000   1.0000   1.0000   1.0000
     1.0000   1.0000   0.0000   0.0000   0.0000   0.0000   0.0000   0.0000
     0.0000   0.0000   0.0000   0.0000

          k = 0.0442 0.0442-0.0442 (  2972 PWs)   bands (ev):

   -15.2351 -15.2348 -15.2338 -15.2338 -15.1544 -15.1544 -15.1532 -15.1530
   -14.3041 -14.3041 -14.1408 -14.1408 -14.1393 -14.1387 -14.0950 -14.0944
   -14.0937 -14.0937 -13.9952 -13.9952  -3.3125  -3.3125   5.1222   5.1222
     6.4378   6.4378   6.9750   6.9750   7.0990   7.0990   8.7230   8.7230
     9.1170   9.1170   9.1380   9.1380

     occupation numbers 
     1.0000   1.0000   1.0000   1.0000   1.0000   1.0000   1.0000   1.0000
     1.0000   1.0000   1.0000   1.0000   1.0000   1.0000   1.0000   1.0000
     1.0000   1.0000   1.0000   1.0000   1.0000   1.0000   1.0000   1.0000
     1.0000   1.0000   0.0000   0.0000   0.0000   0.0000   0.0000   0.0000
     0.0000   0.0000   0.0000   0.0000

          k = 0.0884 0.0884-0.0884 (  2981 PWs)   bands (ev):

   -15.2362 -15.2358 -15.2314 -15.2314 -15.1567 -15.1567 -15.1519 -15.1514
   -14.2989 -14.2989 -14.1519 -14.1519 -14.1466 -14.1457 -14.0874 -14.0866
   -14.0847 -14.0847 -13.9980 -13.9980  -3.2089  -3.2089   4.3686   4.3686
     6.3335   6.3335   6.7924   6.7924   7.1285   7.1285   9.0517   9.0517
     9.3756   9.3756   9.4563   9.4563

     occupation numbers 
     1.0000   1.0000   1.0000   1.0000   1.0000   1.0000   1.0000   1.0000
     1.0000   1.0000   1.0000   1.0000   1.0000   1.0000   1.0000   1.0000
     1.0000   1.0000   1.0000   1.0000   1.0000   1.0000   1.0000   1.0000
     1.0000   1.0000   0.4903   0.4889   0.0000   0.0000   0.0000   0.0000
     0.0000   0.0000   0.0000   0.0000

          k = 0.1326 0.1326-0.1326 (  2957 PWs)   bands (ev):

   -15.2377 -15.2372 -15.2277 -15.2277 -15.1601 -15.1601 -15.1499 -15.1492
   -14.2907 -14.2907 -14.1650 -14.1650 -14.1545 -14.1536 -14.0785 -14.0777
   -14.0748 -14.0748 -14.0023 -14.0023  -3.0394  -3.0394   3.5448   3.5448
     6.1388   6.1388   6.5735   6.5735   7.0386   7.0386   9.3371   9.3371
     9.6495   9.6495  10.1119  10.1119

     occupation numbers 
     1.0000   1.0000   1.0000   1.0000   1.0000   1.0000   1.0000   1.0000
     1.0000   1.0000   1.0000   1.0000   1.0000   1.0000   1.0000   1.0000
     1.0000   1.0000   1.0000   1.0000   1.0000   1.0000   1.0000   1.0000
     1.0000   1.0000   1.0000   1.0000   0.0000   0.0000   0.0000   0.0000
     0.0000   0.0000   0.0000   0.0000

          k = 0.1768 0.1768-0.1768 (  2971 PWs)   bands (ev):

   -15.2393 -15.2388 -15.2229 -15.2229 -15.1648 -15.1648 -15.1476 -15.1469
   -14.2803 -14.2803 -14.1785 -14.1785 -14.1619 -14.1611 -14.0700 -14.0693
   -14.0654 -14.0654 -14.0080 -14.0080  -2.8103  -2.8103   2.7364   2.7364
     5.9388   5.9388   6.3643   6.3643   6.8926   6.8926   9.5670   9.5670
     9.8698   9.8698  10.9111  10.9111

     occupation numbers 
     1.0000   1.0000   1.0000   1.0000   1.0000   1.0000   1.0000   1.0000
     1.0000   1.0000   1.0000   1.0000   1.0000   1.0000   1.0000   1.0000
     1.0000   1.0000   1.0000   1.0000   1.0000   1.0000   1.0000   1.0000
     1.0000   1.0000   1.0000   1.0000   0.0000   0.0000   0.0000   0.0000
     0.0000   0.0000   0.0000   0.0000

          k = 0.2210 0.2210-0.2210 (  2980 PWs)   bands (ev):

   -15.2408 -15.2403 -15.2173 -15.2173 -15.1703 -15.1703 -15.1454 -15.1448
   -14.2685 -14.2685 -14.1918 -14.1918 -14.1681 -14.1674 -14.0627 -14.0621
   -14.0570 -14.0570 -14.0145 -14.0145  -2.5348  -2.5348   1.9898   1.9898
     5.7668   5.7668   6.1881   6.1881   6.7489   6.7489   9.7145   9.7145
     9.9923   9.9923  11.7664  11.7665

     occupation numbers 
     1.0000   1.0000   1.0000   1.0000   1.0000   1.0000   1.0000   1.0000
     1.0000   1.0000   1.0000   1.0000   1.0000   1.0000   1.0000   1.0000
     1.0000   1.0000   1.0000   1.0000   1.0000   1.0000   1.0000   1.0000
     1.0000   1.0000   1.0000   1.0000   1.0000   1.0000   0.0000   0.0000
     0.0000   0.0000   0.0000   0.0000

          k = 0.2652 0.2652-0.2652 (  2980 PWs)   bands (ev):

   -15.2419 -15.2415 -15.2113 -15.2113 -15.1761 -15.1761 -15.1435 -15.1430
   -14.2560 -14.2560 -14.2045 -14.2045 -14.1727 -14.1722 -14.0570 -14.0566
   -14.0493 -14.0493 -14.0213 -14.0213  -2.2406  -2.2406   1.3501   1.3501
     5.6375   5.6375   6.0568   6.0568   6.6356   6.6356   9.7822   9.7822
    10.0321  10.0321  12.3885  12.3885

     occupation numbers 
     1.0000   1.0000   1.0000   1.0000   1.0000   1.0000   1.0000   1.0000
     1.0000   1.0000   1.0000   1.0000   1.0000   1.0000   1.0000   1.0000
     1.0000   1.0000   1.0000   1.0000   1.0000   1.0000   1.0000   1.0000
     1.0000   1.0000   1.0000   1.0000   1.0000   1.0000   0.0000   0.0000
     0.0000   0.0000   0.0000   0.0000

          k = 0.3094 0.3094-0.3094 (  2983 PWs)   bands (ev):

   -15.2426 -15.2424 -15.2059 -15.2059 -15.1814 -15.1814 -15.1422 -15.1420
   -14.2438 -14.2438 -14.2166 -14.2166 -14.1755 -14.1753 -14.0534 -14.0532
   -14.0423 -14.0423 -14.0282 -14.0282  -1.9881  -1.9881   0.8871   0.8871
     5.5578   5.5578   5.9761   5.9761   6.5644   6.5644   9.8026   9.8026
    10.0331  10.0331  12.3812  12.3812

     occupation numbers 
     1.0000   1.0000   1.0000   1.0000   1.0000   1.0000   1.0000   1.0000
     1.0000   1.0000   1.0000   1.0000   1.0000   1.0000   1.0000   1.0000
     1.0000   1.0000   1.0000   1.0000   1.0000   1.0000   1.0000   1.0000
     1.0000   1.0000   1.0000   1.0000   1.0000   1.0000   0.0000   0.0000
     0.0000   0.0000   0.0000   0.0000

          k =-0.3536-0.3536 0.3536 (  2998 PWs)   bands (ev):

   -15.2428 -15.2428 -15.2032 -15.2032 -15.1841 -15.1841 -15.1417 -15.1417
   -14.2353 -14.2353 -14.2250 -14.2250 -14.1765 -14.1765 -14.0521 -14.0521
   -14.0372 -14.0372 -14.0334 -14.0334  -1.8813  -1.8813   0.7095   0.7095
     5.5309   5.5309   5.9489   5.9489   6.5402   6.5402   9.8056   9.8056
    10.0295  10.0295  12.3524  12.3525

     occupation numbers 
     1.0000   1.0000   1.0000   1.0000   1.0000   1.0000   1.0000   1.0000
     1.0000   1.0000   1.0000   1.0000   1.0000   1.0000   1.0000   1.0000
     1.0000   1.0000   1.0000   1.0000   1.0000   1.0000   1.0000   1.0000
     1.0000   1.0000   1.0000   1.0000   1.0000   1.0000   0.0000   0.0000
     0.0000   0.0000   0.0000   0.0000

          k = 0.0884 0.0000 0.0000 (  2971 PWs)   bands (ev):

   -15.2346 -15.2346 -15.2339 -15.2339 -15.1544 -15.1544 -15.1532 -15.1532
   -14.3035 -14.3035 -14.1433 -14.1433 -14.1389 -14.1389 -14.0940 -14.0940
   -14.0922 -14.0922 -13.9955 -13.9955  -3.3008  -3.3008   5.0423   5.0423
     6.3715   6.3715   6.7923   6.7923   7.3561   7.3561   8.6350   8.6350
     9.1343   9.1343   9.2719   9.2719

     occupation numbers 
     1.0000   1.0000   1.0000   1.0000   1.0000   1.0000   1.0000   1.0000
     1.0000   1.0000   1.0000   1.0000   1.0000   1.0000   1.0000   1.0000
     1.0000   1.0000   1.0000   1.0000   1.0000   1.0000   1.0000   1.0000
     1.0000   1.0000   0.5139   0.5139   0.0000   0.0000   0.0000   0.0000
     0.0000   0.0000   0.0000   0.0000

          k = 0.1326 0.0442-0.0442 (  2982 PWs)   bands (ev):

   -15.2356 -15.2352 -15.2323 -15.2322 -15.1561 -15.1560 -15.1524 -15.1520
   -14.2994 -14.2994 -14.1522 -14.1522 -14.1440 -14.1436 -14.0889 -14.0886
   -14.0850 -14.0849 -13.9976 -13.9976  -3.2200  -3.2200   4.4839   4.4839
     6.2325   6.2326   6.5785   6.5785   7.5504   7.5505   8.6963   8.6964
     9.4191   9.4191   9.5706   9.5706

     occupation numbers 
     1.0000   1.0000   1.0000   1.0000   1.0000   1.0000   1.0000   1.0000
     1.0000   1.0000   1.0000   1.0000   1.0000   1.0000   1.0000   1.0000
     1.0000   1.0000   1.0000   1.0000   1.0000   1.0000   1.0000   1.0000
     1.0000   1.0000   1.0000   1.0000   0.0000   0.0000   0.0000   0.0000
     0.0000   0.0000   0.0000   0.0000

          k = 0.1768 0.0884-0.0884 (  2973 PWs)   bands (ev):

   -15.2370 -15.2365 -15.2290 -15.2289 -15.1591 -15.1591 -15.1505 -15.1500
   -14.2923 -14.2922 -14.1640 -14.1639 -14.1512 -14.1506 -14.0823 -14.0819
   -14.0750 -14.0748 -14.0012 -14.0012  -3.0720  -3.0720   3.7365   3.7365
     6.0271   6.0271   6.3568   6.3569   7.5385   7.5386   8.9402   8.9403
     9.7535   9.7535  10.0683  10.0683

     occupation numbers 
     1.0000   1.0000   1.0000   1.0000   1.0000   1.0000   1.0000   1.0000
     1.0000   1.0000   1.0000   1.0000   1.0000   1.0000   1.0000   1.0000
     1.0000   1.0000   1.0000   1.0000   1.0000   1.0000   1.0000   1.0000
     1.0000   1.0000   1.0000   1.0000   0.0000   0.0000   0.0000   0.0000
     0.0000   0.0000   0.0000   0.0000

          k = 0.2210 0.1326-0.1326 (  2967 PWs)   bands (ev):

   -15.2387 -15.2381 -15.2245 -15.2245 -15.1635 -15.1634 -15.1482 -15.1476
   -14.2826 -14.2826 -14.1766 -14.1766 -14.1586 -14.1579 -14.0757 -14.0753
   -14.0648 -14.0645 -14.0061 -14.0061  -2.8618  -2.8618   2.9522   2.9522
     5.8098   5.8099   6.1376   6.1376   7.4158   7.4159   9.2483   9.2484
    10.0081  10.0081  10.6893  10.6893

     occupation numbers 
     1.0000   1.0000   1.0000   1.0000   1.0000   1.0000   1.0000   1.0000
     1.0000   1.0000   1.0000   1.0000   1.0000   1.0000   1.0000   1.0000
     1.0000   1.0000   1.0000   1.0000   1.0000   1.0000   1.0000   1.0000
     1.0000   1.0000   1.0000   1.0000   0.0000   0.0000   0.0000   0.0000
     0.0000   0.0000   0.0000   0.0000

          k = 0.2652 0.1768-0.1768 (  2973 PWs)   bands (ev):

   -15.2402 -15.2397 -15.2192 -15.2190 -15.1688 -15.1686 -15.1458 -15.1452
   -14.2714 -14.2713 -14.1892 -14.1891 -14.1651 -14.1645 -14.0698 -14.0695
   -14.0556 -14.0553 -14.0117 -14.0117  -2.5996  -2.5996   2.2004   2.2005
     5.6133   5.6134   5.9515   5.9515   7.2683   7.2684   9.5026   9.5027
    10.1460  10.1460  11.3529  11.3529

     occupation numbers 
     1.0000   1.0000   1.0000   1.0000   1.0000   1.0000   1.0000   1.0000
     1.0000   1.0000   1.0000   1.0000   1.0000   1.0000   1.0000   1.0000
     1.0000   1.0000   1.0000   1.0000   1.0000   1.0000   1.0000   1.0000
     1.0000   1.0000   1.0000   1.0000   0.0000   0.0000   0.0000   0.0000
     0.0000   0.0000   0.0000   0.0000

          k = 0.3094 0.2210-0.2210 (  2980 PWs)   bands (ev):

   -15.2415 -15.2411 -15.2134 -15.2130 -15.1747 -15.1742 -15.1438 -15.1433
   -14.2593 -14.2592 -14.2013 -14.2012 -14.1704 -14.1699 -14.0650 -14.0648
   -14.0479 -14.0476 -14.0174 -14.0174  -2.3068  -2.3068   1.5306   1.5306
     5.4514   5.4515   5.8179   5.8179   7.1378   7.1379   9.6571   9.6571
    10.1752  10.1752  12.0074  12.0074

     occupation numbers 
     1.0000   1.0000   1.0000   1.0000   1.0000   1.0000   1.0000   1.0000
     1.0000   1.0000   1.0000   1.0000   1.0000   1.0000   1.0000   1.0000
     1.0000   1.0000   1.0000   1.0000   1.0000   1.0000   1.0000   1.0000
     1.0000   1.0000   1.0000   1.0000   0.0000   0.0000   0.0000   0.0000
     0.0000   0.0000   0.0000   0.0000

          k = 0.3536 0.2652-0.2652 (  2997 PWs)   bands (ev):

   -15.2424 -15.2421 -15.2079 -15.2070 -15.1807 -15.1797 -15.1423 -15.1420
   -14.2474 -14.2473 -14.2127 -14.2126 -14.1740 -14.1737 -14.0617 -14.0615
   -14.0420 -14.0418 -14.0225 -14.0224  -2.0302  -2.0302   1.0043   1.0043
     5.3318   5.3319   5.7449   5.7449   7.0427   7.0428   9.7386   9.7386
    10.1422  10.1422  12.4053  12.4053

     occupation numbers 
     1.0000   1.0000   1.0000   1.0000   1.0000   1.0000   1.0000   1.0000
     1.0000   1.0000   1.0000   1.0000   1.0000   1.0000   1.0000   1.0000
     1.0000   1.0000   1.0000   1.0000   1.0000   1.0000   1.0000   1.0000
     1.0000   1.0000   1.0000   1.0000   0.0000   0.0000   0.0000   0.0000
     0.0000   0.0000   0.0000   0.0000

          k =-0.3094-0.3977 0.3977 (  2980 PWs)   bands (ev):

   -15.2427 -15.2426 -15.2042 -15.2027 -15.1849 -15.1833 -15.1415 -15.1414
   -14.2376 -14.2375 -14.2221 -14.2219 -14.1755 -14.1755 -14.0602 -14.0601
   -14.0384 -14.0383 -14.0257 -14.0256  -1.8616  -1.8616   0.7210   0.7210
     5.2605   5.2605   5.7339   5.7339   6.9914   6.9914   9.7893   9.7893
    10.0921  10.0921  12.4806  12.4806

     occupation numbers 
     1.0000   1.0000   1.0000   1.0000   1.0000   1.0000   1.0000   1.0000
     1.0000   1.0000   1.0000   1.0000   1.0000   1.0000   1.0000   1.0000
     1.0000   1.0000   1.0000   1.0000   1.0000   1.0000   1.0000   1.0000
     1.0000   1.0000   1.0000   1.0000   0.0000   0.0000   0.0000   0.0000
     0.0000   0.0000   0.0000   0.0000

          k =-0.2652-0.3536 0.3536 (  2981 PWs)   bands (ev):

   -15.2426 -15.2425 -15.2050 -15.2036 -15.1840 -15.1825 -15.1416 -15.1414
   -14.2404 -14.2402 -14.2195 -14.2194 -14.1752 -14.1751 -14.0607 -14.0607
   -14.0388 -14.0388 -14.0251 -14.0250  -1.8988  -1.8988   0.7814   0.7814
     5.2421   5.2421   5.7828   5.7828   6.9868   6.9868   9.8247   9.8247
    10.0544  10.0544  12.4946  12.4947

     occupation numbers 
     1.0000   1.0000   1.0000   1.0000   1.0000   1.0000   1.0000   1.0000
     1.0000   1.0000   1.0000   1.0000   1.0000   1.0000   1.0000   1.0000
     1.0000   1.0000   1.0000   1.0000   1.0000   1.0000   1.0000   1.0000
     1.0000   1.0000   1.0000   1.0000   0.0000   0.0000   0.0000   0.0000
     0.0000   0.0000   0.0000   0.0000

          k =-0.2210-0.3094 0.3094 (  2983 PWs)   bands (ev):

   -15.2422 -15.2418 -15.2095 -15.2087 -15.1790 -15.1781 -15.1426 -15.1422
   -14.2514 -14.2512 -14.2090 -14.2089 -14.1728 -14.1725 -14.0632 -14.0630
   -14.0430 -14.0429 -14.0211 -14.0210  -2.1166  -2.1166   1.1597   1.1597
     5.2800   5.2801   5.8873   5.8874   7.0284   7.0285   9.8227   9.8227
    10.0441  10.0441  12.4066  12.4067

     occupation numbers 
     1.0000   1.0000   1.0000   1.0000   1.0000   1.0000   1.0000   1.0000
     1.0000   1.0000   1.0000   1.0000   1.0000   1.0000   1.0000   1.0000
     1.0000   1.0000   1.0000   1.0000   1.0000   1.0000   1.0000   1.0000
     1.0000   1.0000   1.0000   1.0000   0.0000   0.0000   0.0000   0.0000
     0.0000   0.0000   0.0000   0.0000

          k =-0.1768-0.2652 0.2652 (  2975 PWs)   bands (ev):

   -15.2412 -15.2407 -15.2153 -15.2148 -15.1730 -15.1724 -15.1443 -15.1438
   -14.2634 -14.2633 -14.1973 -14.1973 -14.1686 -14.1681 -14.0673 -14.0670
   -14.0494 -14.0491 -14.0157 -14.0156  -2.4063  -2.4063   1.7426   1.7426
     5.3765   5.3765   6.0412   6.0412   7.1119   7.1120   9.7514   9.7514
    10.0352  10.0352  11.8668  11.8668

     occupation numbers 
     1.0000   1.0000   1.0000   1.0000   1.0000   1.0000   1.0000   1.0000
     1.0000   1.0000   1.0000   1.0000   1.0000   1.0000   1.0000   1.0000
     1.0000   1.0000   1.0000   1.0000   1.0000   1.0000   1.0000   1.0000
     1.0000   1.0000   1.0000   1.0000   0.0000   0.0000   0.0000   0.0000
     0.0000   0.0000   0.0000   0.0000

          k =-0.1326-0.2210 0.2210 (  2974 PWs)   bands (ev):

   -15.2399 -15.2393 -15.2209 -15.2207 -15.1672 -15.1669 -15.1465 -15.1458
   -14.2753 -14.2752 -14.1852 -14.1850 -14.1628 -14.1622 -14.0726 -14.0723
   -14.0576 -14.0572 -14.0099 -14.0099  -2.6924  -2.6924   2.4444   2.4444
     5.5320   5.5321   6.2340   6.2340   7.2256   7.2257   9.5966   9.5966
     9.9417   9.9417  11.1506  11.1506

     occupation numbers 
     1.0000   1.0000   1.0000   1.0000   1.0000   1.0000   1.0000   1.0000
     1.0000   1.0000   1.0000   1.0000   1.0000   1.0000   1.0000   1.0000
     1.0000   1.0000   1.0000   1.0000   1.0000   1.0000   1.0000   1.0000
     1.0000   1.0000   1.0000   1.0000   0.0000   0.0000   0.0000   0.0000
     0.0000   0.0000   0.0000   0.0000

          k =-0.0884-0.1768 0.1768 (  2973 PWs)   bands (ev):

   -15.2383 -15.2377 -15.2259 -15.2259 -15.1621 -15.1621 -15.1488 -15.1482
   -14.2861 -14.2861 -14.1725 -14.1723 -14.1560 -14.1553 -14.0789 -14.0785
   -14.0672 -14.0668 -14.0045 -14.0044  -2.9387  -2.9387   3.2097   3.2097
     5.7453   5.7454   6.4486   6.4486   7.3418   7.3419   9.3649   9.3649
     9.6850   9.6850  10.5151  10.5151

     occupation numbers 
     1.0000   1.0000   1.0000   1.0000   1.0000   1.0000   1.0000   1.0000
     1.0000   1.0000   1.0000   1.0000   1.0000   1.0000   1.0000   1.0000
     1.0000   1.0000   1.0000   1.0000   1.0000   1.0000   1.0000   1.0000
     1.0000   1.0000   1.0000   1.0000   0.0000   0.0000   0.0000   0.0000
     0.0000   0.0000   0.0000   0.0000

          k =-0.0442-0.1326 0.1326 (  2979 PWs)   bands (ev):

   -15.2368 -15.2363 -15.2300 -15.2299 -15.1582 -15.1582 -15.1510 -15.1505
   -14.2950 -14.2950 -14.1600 -14.1597 -14.1489 -14.1481 -14.0855 -14.0850
   -14.0776 -14.0772 -13.9999 -13.9999  -3.1288  -3.1288   3.9843   3.9843
     6.0098   6.0099   6.6547   6.6548   7.3985   7.3986   9.0972   9.0972
     9.3377   9.3378   9.9676   9.9676

     occupation numbers 
     1.0000   1.0000   1.0000   1.0000   1.0000   1.0000   1.0000   1.0000
     1.0000   1.0000   1.0000   1.0000   1.0000   1.0000   1.0000   1.0000
     1.0000   1.0000   1.0000   1.0000   1.0000   1.0000   1.0000   1.0000
     1.0000   1.0000   1.0000   1.0000   0.0000   0.0000   0.0000   0.0000
     0.0000   0.0000   0.0000   0.0000

          k = 0.0000-0.0884 0.0884 (  3004 PWs)   bands (ev):

   -15.2356 -15.2353 -15.2327 -15.2326 -15.1557 -15.1556 -15.1526 -15.1522
   -14.3012 -14.3012 -14.1485 -14.1482 -14.1427 -14.1420 -14.0915 -14.0910
   -14.0875 -14.0872 -13.9968 -13.9968  -3.2547  -3.2547   4.6809   4.6809
     6.2931   6.2932   6.8174   6.8175   7.3009   7.3010   8.8544   8.8545
     9.1304   9.1304   9.4745   9.4745

     occupation numbers 
     1.0000   1.0000   1.0000   1.0000   1.0000   1.0000   1.0000   1.0000
     1.0000   1.0000   1.0000   1.0000   1.0000   1.0000   1.0000   1.0000
     1.0000   1.0000   1.0000   1.0000   1.0000   1.0000   1.0000   1.0000
     1.0000   1.0000   0.0000   0.0000   0.0000   0.0000   0.0000   0.0000
     0.0000   0.0000   0.0000   0.0000

          k = 0.1768 0.0000 0.0000 (  2970 PWs)   bands (ev):

   -15.2348 -15.2348 -15.2322 -15.2322 -15.1562 -15.1562 -15.1523 -15.1523
   -14.2965 -14.2965 -14.1582 -14.1582 -14.1455 -14.1455 -14.0844 -14.0844
   -14.0827 -14.0827 -13.9988 -13.9988  -3.1618  -3.1618   4.2361   4.2361
     6.0426   6.0426   6.3005   6.3005   8.0124   8.0124   8.3793   8.3793
     9.7241   9.7241   9.8283   9.8283

     occupation numbers 
     1.0000   1.0000   1.0000   1.0000   1.0000   1.0000   1.0000   1.0000
     1.0000   1.0000   1.0000   1.0000   1.0000   1.0000   1.0000   1.0000
     1.0000   1.0000   1.0000   1.0000   1.0000   1.0000   1.0000   1.0000
     1.0000   1.0000   1.0000   1.0000   0.0000   0.0000   0.0000   0.0000
     0.0000   0.0000   0.0000   0.0000

          k = 0.2210 0.0442-0.0442 (  2960 PWs)   bands (ev):

   -15.2358 -15.2354 -15.2299 -15.2298 -15.1585 -15.1584 -15.1511 -15.1507
   -14.2905 -14.2905 -14.1677 -14.1676 -14.1503 -14.1500 -14.0809 -14.0809
   -14.0745 -14.0742 -14.0013 -14.0013  -3.0357  -3.0357   3.6976   3.6976
     5.8216   5.8217   6.0565   6.0565   8.1509   8.1512   8.4090   8.4093
    10.0931  10.0932  10.2185  10.2185

     occupation numbers 
     1.0000   1.0000   1.0000   1.0000   1.0000   1.0000   1.0000   1.0000
     1.0000   1.0000   1.0000   1.0000   1.0000   1.0000   1.0000   1.0000
     1.0000   1.0000   1.0000   1.0000   1.0000   1.0000   1.0000   1.0000
     1.0000   1.0000   1.0000   1.0000   0.0000   0.0000   0.0000   0.0000
     0.0000   0.0000   0.0000   0.0000

          k = 0.2652 0.0884-0.0884 (  2968 PWs)   bands (ev):

   -15.2375 -15.2370 -15.2259 -15.2259 -15.1623 -15.1623 -15.1489 -15.1484
   -14.2819 -14.2819 -14.1788 -14.1785 -14.1560 -14.1556 -14.0783 -14.0783
   -14.0642 -14.0638 -14.0049 -14.0049  -2.8455  -2.8455   3.0257   3.0257
     5.5677   5.5678   5.8326   5.8327   8.0740   8.0742   8.7010   8.7012
    10.3876  10.3876  10.6237  10.6237

     occupation numbers 
     1.0000   1.0000   1.0000   1.0000   1.0000   1.0000   1.0000   1.0000
     1.0000   1.0000   1.0000   1.0000   1.0000   1.0000   1.0000   1.0000
     1.0000   1.0000   1.0000   1.0000   1.0000   1.0000   1.0000   1.0000
     1.0000   1.0000   1.0000   1.0000   0.0000   0.0000   0.0000   0.0000
     0.0000   0.0000   0.0000   0.0000

          k = 0.3094 0.1326-0.1326 (  2975 PWs)   bands (ev):

   -15.2392 -15.2387 -15.2210 -15.2208 -15.1674 -15.1671 -15.1464 -15.1459
   -14.2716 -14.2715 -14.1899 -14.1896 -14.1617 -14.1613 -14.0762 -14.0761
   -14.0545 -14.0541 -14.0089 -14.0088  -2.5989  -2.5989   2.3263   2.3264
     5.3083   5.3084   5.6559   5.6559   7.9372   7.9373   9.0768   9.0769
    10.5570  10.5570  10.9218  10.9218

     occupation numbers 
     1.0000   1.0000   1.0000   1.0000   1.0000   1.0000   1.0000   1.0000
     1.0000   1.0000   1.0000   1.0000   1.0000   1.0000   1.0000   1.0000
     1.0000   1.0000   1.0000   1.0000   1.0000   1.0000   1.0000   1.0000
     1.0000   1.0000   1.0000   1.0000   0.0000   0.0000   0.0000   0.0000
     0.0000   0.0000   0.0000   0.0000

          k = 0.3536 0.1768-0.1768 (  2982 PWs)   bands (ev):

   -15.2407 -15.2403 -15.2156 -15.2149 -15.1733 -15.1725 -15.1440 -15.1436
   -14.2604 -14.2603 -14.2003 -14.2000 -14.1668 -14.1665 -14.0748 -14.0746
   -14.0467 -14.0464 -14.0124 -14.0123  -2.3122  -2.3122   1.6663   1.6664
     5.0723   5.0724   5.5429   5.5429   7.7965   7.7966   9.3960   9.3960
    10.5927  10.5927  11.2677  11.2677

     occupation numbers 
     1.0000   1.0000   1.0000   1.0000   1.0000   1.0000   1.0000   1.0000
     1.0000   1.0000   1.0000   1.0000   1.0000   1.0000   1.0000   1.0000
     1.0000   1.0000   1.0000   1.0000   1.0000   1.0000   1.0000   1.0000
     1.0000   1.0000   1.0000   1.0000   0.0000   0.0000   0.0000   0.0000
     0.0000   0.0000   0.0000   0.0000

          k = 0.3977 0.2210-0.2210 (  2991 PWs)   bands (ev):

   -15.2418 -15.2415 -15.2102 -15.2087 -15.1795 -15.1780 -15.1421 -15.1418
   -14.2496 -14.2495 -14.2097 -14.2093 -14.1708 -14.1705 -14.0740 -14.0738
   -14.0416 -14.0413 -14.0147 -14.0146  -2.0211  -2.0211   1.1082   1.1082
     4.8804   4.8805   5.4954   5.4954   7.6813   7.6814   9.5897   9.5897
    10.5366  10.5366  11.7785  11.7785

     occupation numbers 
     1.0000   1.0000   1.0000   1.0000   1.0000   1.0000   1.0000   1.0000
     1.0000   1.0000   1.0000   1.0000   1.0000   1.0000   1.0000   1.0000
     1.0000   1.0000   1.0000   1.0000   1.0000   1.0000   1.0000   1.0000
     1.0000   1.0000   1.0000   1.0000   0.0000   0.0000   0.0000   0.0000
     0.0000   0.0000   0.0000   0.0000

          k =-0.2652-0.4419 0.4419 (  2996 PWs)   bands (ev):

   -15.2424 -15.2423 -15.2058 -15.2032 -15.1851 -15.1824 -15.1409 -15.1408
   -14.2410 -14.2408 -14.2171 -14.2168 -14.1731 -14.1729 -14.0740 -14.0738
   -14.0389 -14.0388 -14.0157 -14.0155  -1.8019  -1.8019   0.7424   0.7424
     4.7443   4.7444   5.5119   5.5119   7.6052   7.6053   9.7036   9.7037
    10.4381  10.4381  12.3373  12.3373

     occupation numbers 
     1.0000   1.0000   1.0000   1.0000   1.0000   1.0000   1.0000   1.0000
     1.0000   1.0000   1.0000   1.0000   1.0000   1.0000   1.0000   1.0000
     1.0000   1.0000   1.0000   1.0000   1.0000   1.0000   1.0000   1.0000
     1.0000   1.0000   1.0000   1.0000   0.0000   0.0000   0.0000   0.0000
     0.0000   0.0000   0.0000   0.0000

          k =-0.2210-0.3977 0.3977 (  2985 PWs)   bands (ev):

   -15.2426 -15.2425 -15.2047 -15.2015 -15.1868 -15.1835 -15.1405 -15.1405
   -14.2395 -14.2392 -14.2184 -14.2183 -14.1731 -14.1730 -14.0745 -14.0743
   -14.0380 -14.0380 -14.0159 -14.0157  -1.7663  -1.7663   0.6870   0.6871
     4.6713   4.6713   5.5891   5.5891   7.5731   7.5732   9.7974   9.7974
    10.3264  10.3264  12.6342  12.6342

     occupation numbers 
     1.0000   1.0000   1.0000   1.0000   1.0000   1.0000   1.0000   1.0000
     1.0000   1.0000   1.0000   1.0000   1.0000   1.0000   1.0000   1.0000
     1.0000   1.0000   1.0000   1.0000   1.0000   1.0000   1.0000   1.0000
     1.0000   1.0000   1.0000   1.0000   0.0000   0.0000   0.0000   0.0000
     0.0000   0.0000   0.0000   0.0000

          k =-0.1768-0.3536 0.3536 (  2990 PWs)   bands (ev):

   -15.2424 -15.2421 -15.2077 -15.2056 -15.1828 -15.1806 -15.1412 -15.1409
   -14.2467 -14.2464 -14.2123 -14.2122 -14.1710 -14.1710 -14.0755 -14.0753
   -14.0389 -14.0387 -14.0156 -14.0153  -1.9391  -1.9391   0.9670   0.9670
     4.6675   4.6675   5.7219   5.7219   7.5842   7.5843   9.8880   9.8880
    10.2097  10.2097  12.3910  12.3910

     occupation numbers 
     1.0000   1.0000   1.0000   1.0000   1.0000   1.0000   1.0000   1.0000
     1.0000   1.0000   1.0000   1.0000   1.0000   1.0000   1.0000   1.0000
     1.0000   1.0000   1.0000   1.0000   1.0000   1.0000   1.0000   1.0000
     1.0000   1.0000   1.0000   1.0000   0.0000   0.0000   0.0000   0.0000
     0.0000   0.0000   0.0000   0.0000

          k =-0.1326-0.3094 0.3094 (  2988 PWs)   bands (ev):

   -15.2417 -15.2412 -15.2128 -15.2115 -15.1769 -15.1756 -15.1426 -15.1422
   -14.2571 -14.2569 -14.2036 -14.2035 -14.1672 -14.1670 -14.0769 -14.0769
   -14.0422 -14.0419 -14.0140 -14.0138  -2.2181  -2.2181   1.4741   1.4741
     4.7397   4.7398   5.9016   5.9016   7.6312   7.6313   9.9208   9.9208
    10.1020  10.1020  11.7488  11.7488

     occupation numbers 
     1.0000   1.0000   1.0000   1.0000   1.0000   1.0000   1.0000   1.0000
     1.0000   1.0000   1.0000   1.0000   1.0000   1.0000   1.0000   1.0000
     1.0000   1.0000   1.0000   1.0000   1.0000   1.0000   1.0000   1.0000
     1.0000   1.0000   1.0000   1.0000   0.0000   0.0000   0.0000   0.0000
     0.0000   0.0000   0.0000   0.0000

          k =-0.0884-0.2652 0.2652 (  2977 PWs)   bands (ev):

   -15.2405 -15.2400 -15.2181 -15.2174 -15.1709 -15.1702 -15.1447 -15.1441
   -14.2682 -14.2680 -14.1937 -14.1934 -14.1623 -14.1620 -14.0788 -14.0787
   -14.0484 -14.0480 -14.0110 -14.0108  -2.5112  -2.5112   2.1016   2.1017
     4.8974   4.8975   6.1143   6.1143   7.6955   7.6956   9.7747   9.7747
    10.0075  10.0075  11.1495  11.1496

     occupation numbers 
     1.0000   1.0000   1.0000   1.0000   1.0000   1.0000   1.0000   1.0000
     1.0000   1.0000   1.0000   1.0000   1.0000   1.0000   1.0000   1.0000
     1.0000   1.0000   1.0000   1.0000   1.0000   1.0000   1.0000   1.0000
     1.0000   1.0000   1.0000   1.0000   0.0000   0.0000   0.0000   0.0000
     0.0000   0.0000   0.0000   0.0000

          k =-0.0442-0.2210 0.2210 (  2980 PWs)   bands (ev):

   -15.2391 -15.2386 -15.2231 -15.2228 -15.1656 -15.1652 -15.1470 -15.1464
   -14.2789 -14.2788 -14.1827 -14.1824 -14.1571 -14.1567 -14.0811 -14.0809
   -14.0571 -14.0567 -14.0071 -14.0069  -2.7727  -2.7727   2.7758   2.7759
     5.1550   5.1551   6.3367   6.3367   7.7333   7.7334   9.5265   9.5266
     9.7377   9.7377  10.7843  10.7843

     occupation numbers 
     1.0000   1.0000   1.0000   1.0000   1.0000   1.0000   1.0000   1.0000
     1.0000   1.0000   1.0000   1.0000   1.0000   1.0000   1.0000   1.0000
     1.0000   1.0000   1.0000   1.0000   1.0000   1.0000   1.0000   1.0000
     1.0000   1.0000   1.0000   1.0000   0.0000   0.0000   0.0000   0.0000
     0.0000   0.0000   0.0000   0.0000

          k = 0.0000-0.1768 0.1768 (  2984 PWs)   bands (ev):

   -15.2378 -15.2372 -15.2272 -15.2271 -15.1612 -15.1611 -15.1493 -15.1487
   -14.2881 -14.2881 -14.1711 -14.1708 -14.1524 -14.1518 -14.0835 -14.0832
   -14.0674 -14.0669 -14.0031 -14.0031  -2.9818  -2.9818   3.4283   3.4283
     5.5301   5.5302   6.5302   6.5303   7.6575   7.6576   9.2680   9.2680
     9.4366   9.4366  10.4614  10.4614

     occupation numbers 
     1.0000   1.0000   1.0000   1.0000   1.0000   1.0000   1.0000   1.0000
     1.0000   1.0000   1.0000   1.0000   1.0000   1.0000   1.0000   1.0000
     1.0000   1.0000   1.0000   1.0000   1.0000   1.0000   1.0000   1.0000
     1.0000   1.0000   1.0000   1.0000   0.0000   0.0000   0.0000   0.0000
     0.0000   0.0000   0.0000   0.0000

          k = 0.2652 0.0000 0.0000 (  2970 PWs)   bands (ev):

   -15.2348 -15.2348 -15.2298 -15.2298 -15.1587 -15.1587 -15.1511 -15.1511
   -14.2856 -14.2856 -14.1744 -14.1744 -14.1527 -14.1527 -14.0766 -14.0766
   -14.0721 -14.0721 -14.0026 -14.0026  -2.9313  -2.9313   3.3875   3.3875
     5.6306   5.6306   5.8033   5.8033   8.0403   8.0403   8.5514   8.5514
    10.4993  10.4993  10.5319  10.5320

     occupation numbers 
     1.0000   1.0000   1.0000   1.0000   1.0000   1.0000   1.0000   1.0000
     1.0000   1.0000   1.0000   1.0000   1.0000   1.0000   1.0000   1.0000
     1.0000   1.0000   1.0000   1.0000   1.0000   1.0000   1.0000   1.0000
     1.0000   1.0000   1.0000   1.0000   0.0000   0.0000   0.0000   0.0000
     0.0000   0.0000   0.0000   0.0000

          k = 0.3094 0.0442-0.0442 (  2970 PWs)   bands (ev):

   -15.2358 -15.2355 -15.2272 -15.2271 -15.1612 -15.1612 -15.1499 -15.1496
   -14.2782 -14.2782 -14.1833 -14.1831 -14.1565 -14.1564 -14.0772 -14.0771
   -14.0634 -14.0630 -14.0048 -14.0047  -2.7614  -2.7614   2.8858   2.8858
     5.3964   5.3965   5.5761   5.5762   8.0199   8.0200   8.6527   8.6527
    10.8186  10.8186  10.8767  10.8767

     occupation numbers 
     1.0000   1.0000   1.0000   1.0000   1.0000   1.0000   1.0000   1.0000
     1.0000   1.0000   1.0000   1.0000   1.0000   1.0000   1.0000   1.0000
     1.0000   1.0000   1.0000   1.0000   1.0000   1.0000   1.0000   1.0000
     1.0000   1.0000   1.0000   1.0000   0.0000   0.0000   0.0000   0.0000
     0.0000   0.0000   0.0000   0.0000

          k = 0.3536 0.0884-0.0884 (  2971 PWs)   bands (ev):

   -15.2375 -15.2371 -15.2229 -15.2227 -15.1657 -15.1653 -15.1476 -15.1472
   -14.2690 -14.2689 -14.1926 -14.1923 -14.1604 -14.1602 -14.0793 -14.0793
   -14.0538 -14.0534 -14.0070 -14.0069  -2.5320  -2.5320   2.2966   2.2966
     5.0997   5.0998   5.3966   5.3967   8.1110   8.1112   8.7985   8.7986
    10.8716  10.8716  11.1016  11.1016

     occupation numbers 
     1.0000   1.0000   1.0000   1.0000   1.0000   1.0000   1.0000   1.0000
     1.0000   1.0000   1.0000   1.0000   1.0000   1.0000   1.0000   1.0000
     1.0000   1.0000   1.0000   1.0000   1.0000   1.0000   1.0000   1.0000
     1.0000   1.0000   1.0000   1.0000   0.0000   0.0000   0.0000   0.0000
     0.0000   0.0000   0.0000   0.0000

          k = 0.3977 0.1326-0.1326 (  2982 PWs)   bands (ev):

   -15.2392 -15.2388 -15.2181 -15.2173 -15.1712 -15.1703 -15.1449 -15.1445
   -14.2591 -14.2590 -14.2013 -14.2008 -14.1640 -14.1638 -14.0821 -14.0819
   -14.0461 -14.0457 -14.0084 -14.0084  -2.2552  -2.2552   1.6961   1.6961
     4.7910   4.7911   5.2872   5.2872   8.0870   8.0871   9.1757   9.1757
    10.8608  10.8608  11.1813  11.1813

     occupation numbers 
     1.0000   1.0000   1.0000   1.0000   1.0000   1.0000   1.0000   1.0000
     1.0000   1.0000   1.0000   1.0000   1.0000   1.0000   1.0000   1.0000
     1.0000   1.0000   1.0000   1.0000   1.0000   1.0000   1.0000   1.0000
     1.0000   1.0000   1.0000   1.0000   0.0000   0.0000   0.0000   0.0000
     0.0000   0.0000   0.0000   0.0000

          k = 0.4419 0.1768-0.1768 (  2990 PWs)   bands (ev):

   -15.2406 -15.2404 -15.2130 -15.2114 -15.1773 -15.1756 -15.1426 -15.1423
   -14.2498 -14.2497 -14.2082 -14.2077 -14.1672 -14.1669 -14.0851 -14.0848
   -14.0412 -14.0409 -14.0086 -14.0085  -1.9577  -1.9577   1.1484   1.1485
     4.5218   4.5219   5.2455   5.2455   8.0137   8.0138   9.5880   9.5881
    10.9937  10.9938  11.1689  11.1689

     occupation numbers 
     1.0000   1.0000   1.0000   1.0000   1.0000   1.0000   1.0000   1.0000
     1.0000   1.0000   1.0000   1.0000   1.0000   1.0000   1.0000   1.0000
     1.0000   1.0000   1.0000   1.0000   1.0000   1.0000   1.0000   1.0000
     1.0000   1.0000   1.0000   1.0000   0.0000   0.0000   0.0000   0.0000
     0.0000   0.0000   0.0000   0.0000

          k =-0.2210-0.4861 0.4861 (  2994 PWs)   bands (ev):

   -15.2416 -15.2415 -15.2084 -15.2056 -15.1834 -15.1804 -15.1407 -15.1406
   -14.2430 -14.2428 -14.2128 -14.2123 -14.1694 -14.1690 -14.0878 -14.0873
   -14.0389 -14.0387 -14.0078 -14.0077  -1.6999  -1.6999   0.7356   0.7356
     4.3160   4.3161   5.2697   5.2697   7.9578   7.9579   9.8385   9.8385
    10.9801  10.9801  11.5402  11.5402

     occupation numbers 
     1.0000   1.0000   1.0000   1.0000   1.0000   1.0000   1.0000   1.0000
     1.0000   1.0000   1.0000   1.0000   1.0000   1.0000   1.0000   1.0000
     1.0000   1.0000   1.0000   1.0000   1.0000   1.0000   1.0000   1.0000
     1.0000   1.0000   1.0000   1.0000   0.0000   0.0000   0.0000   0.0000
     0.0000   0.0000   0.0000   0.0000

          k =-0.1768-0.4419 0.4419 (  2999 PWs)   bands (ev):

   -15.2422 -15.2422 -15.2057 -15.2012 -15.1879 -15.1833 -15.1397 -15.1397
   -14.2408 -14.2405 -14.2142 -14.2140 -14.1698 -14.1693 -14.0895 -14.0889
   -14.0379 -14.0379 -14.0073 -14.0072  -1.5943  -1.5943   0.5806   0.5806
     4.1862   4.1863   5.3567   5.3567   7.9380   7.9381   9.9656   9.9657
    10.8326  10.8326  12.1725  12.1725

     occupation numbers 
     1.0000   1.0000   1.0000   1.0000   1.0000   1.0000   1.0000   1.0000
     1.0000   1.0000   1.0000   1.0000   1.0000   1.0000   1.0000   1.0000
     1.0000   1.0000   1.0000   1.0000   1.0000   1.0000   1.0000   1.0000
     1.0000   1.0000   1.0000   1.0000   0.0000   0.0000   0.0000   0.0000
     0.0000   0.0000   0.0000   0.0000

          k =-0.1326-0.3977 0.3977 (  2996 PWs)   bands (ev):

   -15.2424 -15.2422 -15.2065 -15.2024 -15.1868 -15.1827 -15.1398 -15.1396
   -14.2438 -14.2434 -14.2124 -14.2124 -14.1681 -14.1677 -14.0898 -14.0892
   -14.0377 -14.0376 -14.0079 -14.0077  -1.7141  -1.7141   0.7582   0.7583
     4.1424   4.1425   5.5012   5.5012   7.9538   7.9539  10.0682  10.0683
    10.6544  10.6544  12.2818  12.2818

     occupation numbers 
     1.0000   1.0000   1.0000   1.0000   1.0000   1.0000   1.0000   1.0000
     1.0000   1.0000   1.0000   1.0000   1.0000   1.0000   1.0000   1.0000
     1.0000   1.0000   1.0000   1.0000   1.0000   1.0000   1.0000   1.0000
     1.0000   1.0000   1.0000   1.0000   0.0000   0.0000   0.0000   0.0000
     0.0000   0.0000   0.0000   0.0000

          k =-0.0884-0.3536 0.3536 (  2993 PWs)   bands (ev):

   -15.2420 -15.2417 -15.2101 -15.2075 -15.1817 -15.1791 -15.1408 -15.1404
   -14.2509 -14.2505 -14.2081 -14.2078 -14.1650 -14.1647 -14.0887 -14.0883
   -14.0386 -14.0383 -14.0092 -14.0090  -1.9768  -1.9768   1.1776   1.1777
     4.1975   4.1976   5.6934   5.6934   7.9915   7.9916  10.1688  10.1688
    10.4389  10.4389  11.6124  11.6125

     occupation numbers 
     1.0000   1.0000   1.0000   1.0000   1.0000   1.0000   1.0000   1.0000
     1.0000   1.0000   1.0000   1.0000   1.0000   1.0000   1.0000   1.0000
     1.0000   1.0000   1.0000   1.0000   1.0000   1.0000   1.0000   1.0000
     1.0000   1.0000   1.0000   1.0000   0.0000   0.0000   0.0000   0.0000
     0.0000   0.0000   0.0000   0.0000

          k =-0.0442-0.3094 0.3094 (  2987 PWs)   bands (ev):

   -15.2413 -15.2408 -15.2147 -15.2132 -15.1758 -15.1743 -15.1425 -15.1420
   -14.2601 -14.2598 -14.2014 -14.2011 -14.1616 -14.1615 -14.0865 -14.0863
   -14.0418 -14.0414 -14.0100 -14.0098  -2.2734  -2.2734   1.7095   1.7095
     4.3697   4.3698   5.9174   5.9174   8.0177   8.0178  10.1216  10.1216
    10.2377  10.2377  11.0055  11.0055

     occupation numbers 
     1.0000   1.0000   1.0000   1.0000   1.0000   1.0000   1.0000   1.0000
     1.0000   1.0000   1.0000   1.0000   1.0000   1.0000   1.0000   1.0000
     1.0000   1.0000   1.0000   1.0000   1.0000   1.0000   1.0000   1.0000
     1.0000   1.0000   1.0000   1.0000   0.0000   0.0000   0.0000   0.0000
     0.0000   0.0000   0.0000   0.0000

          k = 0.0000-0.2652 0.2652 (  2970 PWs)   bands (ev):

   -15.2402 -15.2396 -15.2192 -15.2184 -15.1702 -15.1695 -15.1447 -15.1441
   -14.2699 -14.2696 -14.1927 -14.1924 -14.1589 -14.1587 -14.0837 -14.0837
   -14.0481 -14.0476 -14.0092 -14.0090  -2.5470  -2.5470   2.2634   2.2635
     4.6836   4.6837   6.1459   6.1459   7.9624   7.9625   9.8224   9.8224
     9.9730   9.9730  10.8214  10.8214

     occupation numbers 
     1.0000   1.0000   1.0000   1.0000   1.0000   1.0000   1.0000   1.0000
     1.0000   1.0000   1.0000   1.0000   1.0000   1.0000   1.0000   1.0000
     1.0000   1.0000   1.0000   1.0000   1.0000   1.0000   1.0000   1.0000
     1.0000   1.0000   1.0000   1.0000   0.0000   0.0000   0.0000   0.0000
     0.0000   0.0000   0.0000   0.0000

          k = 0.3536 0.0000 0.0000 (  2978 PWs)   bands (ev):

   -15.2345 -15.2345 -15.2272 -15.2272 -15.1612 -15.1612 -15.1504 -15.1504
   -14.2720 -14.2720 -14.1896 -14.1896 -14.1588 -14.1588 -14.0775 -14.0775
   -14.0588 -14.0588 -14.0054 -14.0054  -2.6114  -2.6114   2.5433   2.5433
     5.2463   5.2463   5.3654   5.3654   7.7521   7.7521   8.7048   8.7048
    11.2893  11.2894  11.3291  11.3291

     occupation numbers 
     1.0000   1.0000   1.0000   1.0000   1.0000   1.0000   1.0000   1.0000
     1.0000   1.0000   1.0000   1.0000   1.0000   1.0000   1.0000   1.0000
     1.0000   1.0000   1.0000   1.0000   1.0000   1.0000   1.0000   1.0000
     1.0000   1.0000   1.0000   1.0000   0.0000   0.0000   0.0000   0.0000
     0.0000   0.0000   0.0000   0.0000

          k = 0.3977 0.0442-0.0442 (  2981 PWs)   bands (ev):

   -15.2353 -15.2351 -15.2248 -15.2247 -15.1637 -15.1634 -15.1493 -15.1491
   -14.2641 -14.2640 -14.1971 -14.1969 -14.1611 -14.1610 -14.0815 -14.0815
   -14.0512 -14.0509 -14.0063 -14.0063  -2.3997  -2.3997   2.0789   2.0789
     5.0208   5.0208   5.1762   5.1763   7.7736   7.7736   8.6676   8.6676
    11.4237  11.4237  11.6524  11.6524

     occupation numbers 
     1.0000   1.0000   1.0000   1.0000   1.0000   1.0000   1.0000   1.0000
     1.0000   1.0000   1.0000   1.0000   1.0000   1.0000   1.0000   1.0000
     1.0000   1.0000   1.0000   1.0000   1.0000   1.0000   1.0000   1.0000
     1.0000   1.0000   1.0000   1.0000   0.0000   0.0000   0.0000   0.0000
     0.0000   0.0000   0.0000   0.0000

          k = 0.4419 0.0884-0.0884 (  2986 PWs)   bands (ev):

   -15.2370 -15.2367 -15.2208 -15.2202 -15.1683 -15.1675 -15.1468 -15.1466
   -14.2555 -14.2554 -14.2040 -14.2036 -14.1627 -14.1626 -14.0875 -14.0874
   -14.0440 -14.0437 -14.0065 -14.0065  -2.1354  -2.1354   1.5676   1.5676
     4.6958   4.6959   5.0563   5.0563   7.9174   7.9175   8.8021   8.8021
    11.2841  11.2841  11.8138  11.8138

     occupation numbers 
     1.0000   1.0000   1.0000   1.0000   1.0000   1.0000   1.0000   1.0000
     1.0000   1.0000   1.0000   1.0000   1.0000   1.0000   1.0000   1.0000
     1.0000   1.0000   1.0000   1.0000   1.0000   1.0000   1.0000   1.0000
     1.0000   1.0000   1.0000   1.0000   0.0000   0.0000   0.0000   0.0000
     0.0000   0.0000   0.0000   0.0000

          k = 0.4861 0.1326-0.1326 (  2990 PWs)   bands (ev):

   -15.2387 -15.2385 -15.2163 -15.2149 -15.1739 -15.1723 -15.1440 -15.1439
   -14.2479 -14.2478 -14.2088 -14.2083 -14.1640 -14.1637 -14.0941 -14.0936
   -14.0395 -14.0392 -14.0053 -14.0052  -1.8379  -1.8379   1.0681   1.0681
     4.3599   4.3600   5.0092   5.0092   7.9612   7.9613   9.2607   9.2607
    11.1514  11.1514  11.8056  11.8056

     occupation numbers 
     1.0000   1.0000   1.0000   1.0000   1.0000   1.0000   1.0000   1.0000
     1.0000   1.0000   1.0000   1.0000   1.0000   1.0000   1.0000   1.0000
     1.0000   1.0000   1.0000   1.0000   1.0000   1.0000   1.0000   1.0000
     1.0000   1.0000   1.0000   1.0000   0.0000   0.0000   0.0000   0.0000
     0.0000   0.0000   0.0000   0.0000

          k =-0.1768-0.5303 0.5303 (  3004 PWs)   bands (ev):

   -15.2402 -15.2401 -15.2120 -15.2095 -15.1799 -15.1771 -15.1416 -15.1414
   -14.2433 -14.2431 -14.2106 -14.2101 -14.1650 -14.1642 -14.0999 -14.0991
   -14.0377 -14.0375 -14.0031 -14.0030  -1.5532  -1.5532   0.6485   0.6485
     4.0778   4.0779   5.0297   5.0298   7.9596   7.9596   9.8789   9.8790
    11.1255  11.1256  11.6870  11.6870

     occupation numbers 
     1.0000   1.0000   1.0000   1.0000   1.0000   1.0000   1.0000   1.0000
     1.0000   1.0000   1.0000   1.0000   1.0000   1.0000   1.0000   1.0000
[...]

     occupation numbers 
     1.0000   1.0000   1.0000   1.0000   1.0000   1.0000   1.0000   1.0000
     1.0000   1.0000   1.0000   1.0000   1.0000   1.0000   1.0000   1.0000
     1.0000   1.0000   1.0000   1.0000   1.0000   1.0000   1.0000   1.0000
     1.0000   1.0000   1.0000   1.0000   0.0000   0.0000   0.0000   0.0000
     0.0000   0.0000   0.0000   0.0000

          k =-0.1326-0.3977 0.5745 (  2999 PWs)   bands (ev):

   -15.2414 -15.2409 -15.2088 -15.2037 -15.1864 -15.1810 -15.1396 -15.1390
   -14.2429 -14.2425 -14.2079 -14.2071 -14.1632 -14.1621 -14.1088 -14.1076
   -14.0383 -14.0377 -13.9989 -13.9986  -1.2958  -1.2958   0.3518   0.3519
     3.8424   3.8425   4.8332   4.8333   8.6391   8.6392   9.8909   9.8910
    11.1514  11.1516  11.8829  11.8830

     occupation numbers 
     1.0000   1.0000   1.0000   1.0000   1.0000   1.0000   1.0000   1.0000
     1.0000   1.0000   1.0000   1.0000   1.0000   1.0000   1.0000   1.0000
     1.0000   1.0000   1.0000   1.0000   1.0000   1.0000   1.0000   1.0000
     1.0000   1.0000   1.0000   1.0000   0.0000   0.0000   0.0000   0.0000
     0.0000   0.0000   0.0000   0.0000

          k =-0.0884-0.3536 0.5303 (  3004 PWs)   bands (ev):

   -15.2416 -15.2412 -15.2084 -15.2030 -15.1872 -15.1815 -15.1394 -15.1388
   -14.2434 -14.2430 -14.2080 -14.2072 -14.1629 -14.1618 -14.1084 -14.1071
   -14.0384 -14.0378 -13.9992 -13.9989  -1.3505  -1.3504   0.4211   0.4212
     3.8096   3.8097   4.9020   4.9020   8.6860   8.6861   9.8811   9.8811
    11.2130  11.2132  11.8483  11.8485

     occupation numbers 
     1.0000   1.0000   1.0000   1.0000   1.0000   1.0000   1.0000   1.0000
     1.0000   1.0000   1.0000   1.0000   1.0000   1.0000   1.0000   1.0000
     1.0000   1.0000   1.0000   1.0000   1.0000   1.0000   1.0000   1.0000
     1.0000   1.0000   1.0000   1.0000   0.0000   0.0000   0.0000   0.0000
     0.0000   0.0000   0.0000   0.0000

          k =-0.0442-0.3094 0.4861 (  3006 PWs)   bands (ev):

   -15.2414 -15.2410 -15.2099 -15.2059 -15.1840 -15.1798 -15.1400 -15.1395
   -14.2455 -14.2451 -14.2087 -14.2079 -14.1624 -14.1617 -14.1037 -14.1028
   -14.0386 -14.0380 -14.0014 -14.0011  -1.5947  -1.5947   0.7405   0.7406
     3.8814   3.8815   5.0447   5.0448   8.7369   8.7370   9.7749   9.7750
    10.6395  10.6396  12.0642  12.0643

     occupation numbers 
     1.0000   1.0000   1.0000   1.0000   1.0000   1.0000   1.0000   1.0000
     1.0000   1.0000   1.0000   1.0000   1.0000   1.0000   1.0000   1.0000
     1.0000   1.0000   1.0000   1.0000   1.0000   1.0000   1.0000   1.0000
     1.0000   1.0000   1.0000   1.0000   0.0000   0.0000   0.0000   0.0000
     0.0000   0.0000   0.0000   0.0000

          k = 0.0000-0.2652 0.4419 (  3011 PWs)   bands (ev):

   -15.2409 -15.2405 -15.2128 -15.2103 -15.1793 -15.1766 -15.1415 -15.1410
   -14.2502 -14.2498 -14.2075 -14.2068 -14.1623 -14.1619 -14.0962 -14.0957
   -14.0398 -14.0392 -14.0047 -14.0045  -1.8934  -1.8934   1.1591   1.1592
     4.0768   4.0769   5.2363   5.2363   8.7305   8.7307   9.4348   9.4350
    10.4597  10.4598  11.8360  11.8360

     occupation numbers 
     1.0000   1.0000   1.0000   1.0000   1.0000   1.0000   1.0000   1.0000
     1.0000   1.0000   1.0000   1.0000   1.0000   1.0000   1.0000   1.0000
     1.0000   1.0000   1.0000   1.0000   1.0000   1.0000   1.0000   1.0000
     1.0000   1.0000   1.0000   1.0000   0.0000   0.0000   0.0000   0.0000
     0.0000   0.0000   0.0000   0.0000

          k =-0.1768-0.5303 0.7071 (  2992 PWs)   bands (ev):

   -15.2380 -15.2375 -15.2172 -15.2151 -15.1740 -15.1717 -15.1444 -15.1439
   -14.2446 -14.2443 -14.2102 -14.2095 -14.1608 -14.1603 -14.1042 -14.1035
   -14.0369 -14.0364 -14.0027 -14.0025  -1.6020  -1.6020   0.7788   0.7789
     4.2461   4.2462   4.7096   4.7097   8.3623   8.3625   8.7591   8.7593
    11.1610  11.1610  12.7900  12.7900

     occupation numbers 
     1.0000   1.0000   1.0000   1.0000   1.0000   1.0000   1.0000   1.0000
     1.0000   1.0000   1.0000   1.0000   1.0000   1.0000   1.0000   1.0000
     1.0000   1.0000   1.0000   1.0000   1.0000   1.0000   1.0000   1.0000
     1.0000   1.0000   1.0000   1.0000   0.0000   0.0000   0.0000   0.0000
     0.0000   0.0000   0.0000   0.0000

          k =-0.1326-0.4861 0.6629 (  2998 PWs)   bands (ev):

   -15.2392 -15.2386 -15.2145 -15.2113 -15.1784 -15.1749 -15.1424 -15.1417
   -14.2429 -14.2425 -14.2088 -14.2080 -14.1589 -14.1578 -14.1134 -14.1122
   -14.0366 -14.0360 -13.9992 -13.9990  -1.2977  -1.2977   0.3955   0.3956
     4.0157   4.0158   4.5858   4.5859   8.5355   8.5357   9.2273   9.2273
    10.9848  10.9849  12.7412  12.7412

     occupation numbers 
     1.0000   1.0000   1.0000   1.0000   1.0000   1.0000   1.0000   1.0000
     1.0000   1.0000   1.0000   1.0000   1.0000   1.0000   1.0000   1.0000
     1.0000   1.0000   1.0000   1.0000   1.0000   1.0000   1.0000   1.0000
     1.0000   1.0000   1.0000   1.0000   0.0000   0.0000   0.0000   0.0000
     0.0000   0.0000   0.0000   0.0000

          k =-0.0884-0.4419 0.6187 (  3004 PWs)   bands (ev):

   -15.2402 -15.2396 -15.2119 -15.2075 -15.1827 -15.1780 -15.1406 -15.1398
   -14.2431 -14.2427 -14.2061 -14.2052 -14.1576 -14.1556 -14.1199 -14.1180
   -14.0373 -14.0366 -13.9966 -13.9963  -1.0593  -1.0592   0.1201   0.1202
     3.8181   3.8182   4.5741   4.5742   8.5969   8.5970   9.9473   9.9474
    10.8814  10.8815  12.1586  12.1587

     occupation numbers 
     1.0000   1.0000   1.0000   1.0000   1.0000   1.0000   1.0000   1.0000
     1.0000   1.0000   1.0000   1.0000   1.0000   1.0000   1.0000   1.0000
     1.0000   1.0000   1.0000   1.0000   1.0000   1.0000   1.0000   1.0000
     1.0000   1.0000   1.0000   1.0000   0.0000   0.0000   0.0000   0.0000
     0.0000   0.0000   0.0000   0.0000

          k =-0.0442-0.3977 0.5745 (  2994 PWs)   bands (ev):

   -15.2410 -15.2404 -15.2100 -15.2044 -15.1860 -15.1802 -15.1395 -15.1388
   -14.2436 -14.2432 -14.2051 -14.2042 -14.1579 -14.1557 -14.1204 -14.1182
   -14.0379 -14.0373 -13.9958 -13.9955  -1.0611  -1.0611   0.1249   0.1250
     3.7058   3.7059   4.6621   4.6621   8.6768   8.6769  10.4072  10.4074
    11.0947  11.0950  11.4382  11.4384

     occupation numbers 
     1.0000   1.0000   1.0000   1.0000   1.0000   1.0000   1.0000   1.0000
     1.0000   1.0000   1.0000   1.0000   1.0000   1.0000   1.0000   1.0000
     1.0000   1.0000   1.0000   1.0000   1.0000   1.0000   1.0000   1.0000
     1.0000   1.0000   1.0000   1.0000   0.0000   0.0000   0.0000   0.0000
     0.0000   0.0000   0.0000   0.0000

          k = 0.0000-0.3536 0.5303 (  2995 PWs)   bands (ev):

   -15.2414 -15.2409 -15.2092 -15.2038 -15.1865 -15.1809 -15.1393 -15.1387
   -14.2442 -14.2437 -14.2066 -14.2057 -14.1598 -14.1583 -14.1141 -14.1125
   -14.0383 -14.0376 -13.9975 -13.9972  -1.2968  -1.2967   0.3936   0.3937
     3.7186   3.7187   4.8279   4.8279   8.7570   8.7572  10.2734  10.2734
    10.7177  10.7178  11.9224  11.9225

     occupation numbers 
     1.0000   1.0000   1.0000   1.0000   1.0000   1.0000   1.0000   1.0000
     1.0000   1.0000   1.0000   1.0000   1.0000   1.0000   1.0000   1.0000
     1.0000   1.0000   1.0000   1.0000   1.0000   1.0000   1.0000   1.0000
     1.0000   1.0000   1.0000   1.0000   0.0000   0.0000   0.0000   0.0000
     0.0000   0.0000   0.0000   0.0000

          k =-0.0884-0.5303 0.7071 (  2993 PWs)   bands (ev):

   -15.2373 -15.2366 -15.2175 -15.2148 -15.1743 -15.1714 -15.1447 -15.1439
   -14.2407 -14.2404 -14.2110 -14.2103 -14.1540 -14.1523 -14.1208 -14.1192
   -14.0331 -14.0326 -14.0001 -13.9999  -1.0754  -1.0753   0.1285   0.1286
     4.1654   4.1655   4.4256   4.4256   8.3249   8.3250   8.5804   8.5806
    11.8314  11.8314  13.0718  13.0718

     occupation numbers 
     1.0000   1.0000   1.0000   1.0000   1.0000   1.0000   1.0000   1.0000
     1.0000   1.0000   1.0000   1.0000   1.0000   1.0000   1.0000   1.0000
     1.0000   1.0000   1.0000   1.0000   1.0000   1.0000   1.0000   1.0000
     1.0000   1.0000   1.0000   1.0000   0.0000   0.0000   0.0000   0.0000
     0.0000   0.0000   0.0000   0.0000

          k =-0.0442-0.4861 0.6629 (  2992 PWs)   bands (ev):

   -15.2387 -15.2379 -15.2150 -15.2114 -15.1785 -15.1745 -15.1425 -15.1416
   -14.2420 -14.2416 -14.2073 -14.2064 -14.1512 -14.1478 -14.1293 -14.1259
   -14.0349 -14.0343 -13.9968 -13.9965  -0.7916  -0.7915  -0.1709  -0.1708
     3.9592   3.9594   4.3775   4.3775   8.4837   8.4838   9.1696   9.1696
    11.6474  11.6474  12.3734  12.3734

     occupation numbers 
     1.0000   1.0000   1.0000   1.0000   1.0000   1.0000   1.0000   1.0000
     1.0000   1.0000   1.0000   1.0000   1.0000   1.0000   1.0000   1.0000
     1.0000   1.0000   1.0000   1.0000   1.0000   1.0000   1.0000   1.0000
     1.0000   1.0000   1.0000   1.0000   0.0000   0.0000   0.0000   0.0000
     0.0000   0.0000   0.0000   0.0000

          k = 0.0000-0.4419 0.6187 (  2996 PWs)   bands (ev):

   -15.2400 -15.2393 -15.2124 -15.2077 -15.1826 -15.1776 -15.1406 -15.1397
   -14.2433 -14.2428 -14.2047 -14.2038 -14.1529 -14.1492 -14.1292 -14.1256
   -14.0368 -14.0361 -13.9951 -13.9948  -0.7934  -0.7933  -0.1596  -0.1595
     3.7691   3.7692   4.4778   4.4778   8.5763   8.5764   9.9814   9.9815
    11.4527  11.4529  11.5558  11.5560

     occupation numbers 
     1.0000   1.0000   1.0000   1.0000   1.0000   1.0000   1.0000   1.0000
     1.0000   1.0000   1.0000   1.0000   1.0000   1.0000   1.0000   1.0000
     1.0000   1.0000   1.0000   1.0000   1.0000   1.0000   1.0000   1.0000
     1.0000   1.0000   1.0000   1.0000   0.0000   0.0000   0.0000   0.0000
     0.0000   0.0000   0.0000   0.0000

          k =-0.7071 0.1768 0.0000 (  2986 PWs)   bands (ev):

   -15.2369 -15.2362 -15.2178 -15.2149 -15.1743 -15.1711 -15.1449 -15.1440
   -14.2400 -14.2396 -14.2107 -14.2099 -14.1466 -14.1405 -14.1356 -14.1296
   -14.0317 -14.0312 -13.9992 -13.9989  -0.5104  -0.5088  -0.4795  -0.4778
     4.1643   4.1645   4.3035   4.3036   8.3407   8.3410   8.4811   8.4813
    12.4750  12.4750  12.6412  12.6413

     occupation numbers 
     1.0000   1.0000   1.0000   1.0000   1.0000   1.0000   1.0000   1.0000
     1.0000   1.0000   1.0000   1.0000   1.0000   1.0000   1.0000   1.0000
     1.0000   1.0000   1.0000   1.0000   1.0000   1.0000   1.0000   1.0000
     1.0000   1.0000   1.0000   1.0000   0.0000   0.0000   0.0000   0.0000
     0.0000   0.0000   0.0000   0.0000

          k =-0.1768-0.4419 0.7071 (  3000 PWs)   bands (ev):

   -15.2404 -15.2398 -15.2123 -15.2087 -15.1812 -15.1773 -15.1410 -15.1403
   -14.2446 -14.2442 -14.2080 -14.2071 -14.1608 -14.1600 -14.1086 -14.1076
   -14.0384 -14.0377 -13.9996 -13.9993  -1.4679  -1.4679   0.6063   0.6064
     3.9374   3.9375   4.7419   4.7419   9.0722   9.0726   9.3461   9.3465
    10.4173  10.4174  12.5207  12.5208

     occupation numbers 
     1.0000   1.0000   1.0000   1.0000   1.0000   1.0000   1.0000   1.0000
     1.0000   1.0000   1.0000   1.0000   1.0000   1.0000   1.0000   1.0000
     1.0000   1.0000   1.0000   1.0000   1.0000   1.0000   1.0000   1.0000
     1.0000   1.0000   1.0000   1.0000   0.0000   0.0000   0.0000   0.0000
     0.0000   0.0000   0.0000   0.0000

          k =-0.1326-0.3977 0.6629 (  3005 PWs)   bands (ev):

   -15.2408 -15.2402 -15.2108 -15.2058 -15.1846 -15.1793 -15.1400 -15.1391
   -14.2439 -14.2434 -14.2057 -14.2047 -14.1590 -14.1575 -14.1169 -14.1153
   -14.0384 -14.0376 -13.9965 -13.9962  -1.1839  -1.1839   0.2679   0.2680
     3.8089   3.8091   4.5857   4.5857   9.1453   9.1456   9.7881   9.7883
    10.5296  10.5296  12.0450  12.0451

     occupation numbers 
     1.0000   1.0000   1.0000   1.0000   1.0000   1.0000   1.0000   1.0000
     1.0000   1.0000   1.0000   1.0000   1.0000   1.0000   1.0000   1.0000
     1.0000   1.0000   1.0000   1.0000   1.0000   1.0000   1.0000   1.0000
     1.0000   1.0000   1.0000   1.0000   0.0000   0.0000   0.0000   0.0000
     0.0000   0.0000   0.0000   0.0000

          k =-0.0884-0.3536 0.6187 (  3014 PWs)   bands (ev):

   -15.2410 -15.2403 -15.2102 -15.2045 -15.1860 -15.1800 -15.1396 -15.1387
   -14.2438 -14.2434 -14.2045 -14.2035 -14.1583 -14.1564 -14.1203 -14.1183
   -14.0385 -14.0378 -13.9954 -13.9951  -1.0457  -1.0457   0.1105   0.1106
     3.7680   3.7681   4.5287   4.5287   9.1507   9.1509   9.8999   9.9000
    11.0436  11.0439  11.3772  11.3775

     occupation numbers 
     1.0000   1.0000   1.0000   1.0000   1.0000   1.0000   1.0000   1.0000
     1.0000   1.0000   1.0000   1.0000   1.0000   1.0000   1.0000   1.0000
     1.0000   1.0000   1.0000   1.0000   1.0000   1.0000   1.0000   1.0000
     1.0000   1.0000   1.0000   1.0000   0.0000   0.0000   0.0000   0.0000
     0.0000   0.0000   0.0000   0.0000

          k =-0.0884-0.4419 0.7071 (  2996 PWs)   bands (ev):

   -15.2398 -15.2390 -15.2132 -15.2088 -15.1815 -15.1767 -15.1411 -15.1402
   -14.2433 -14.2429 -14.2055 -14.2044 -14.1551 -14.1529 -14.1238 -14.1215
   -14.0372 -14.0365 -13.9958 -13.9955  -0.9916  -0.9916   0.0588   0.0588
     3.9217   3.9218   4.3521   4.3522   9.1232   9.1236   9.3393   9.3396
    10.8050  10.8051  12.2082  12.2083

     occupation numbers 
     1.0000   1.0000   1.0000   1.0000   1.0000   1.0000   1.0000   1.0000
     1.0000   1.0000   1.0000   1.0000   1.0000   1.0000   1.0000   1.0000
     1.0000   1.0000   1.0000   1.0000   1.0000   1.0000   1.0000   1.0000
     1.0000   1.0000   1.0000   1.0000   0.0000   0.0000   0.0000   0.0000
     0.0000   0.0000   0.0000   0.0000

          k =-0.0442-0.3977 0.6629 (  3005 PWs)   bands (ev):

   -15.2403 -15.2395 -15.2120 -15.2066 -15.1840 -15.1782 -15.1402 -15.1391
   -14.2441 -14.2436 -14.2030 -14.2018 -14.1529 -14.1494 -14.1303 -14.1267
   -14.0381 -14.0373 -13.9938 -13.9935  -0.7718  -0.7717  -0.1699  -0.1698
     3.8386   3.8387   4.2717   4.2717   9.2688   9.2690   9.9823   9.9824
    10.7254  10.7255  11.3492  11.3492

     occupation numbers 
     1.0000   1.0000   1.0000   1.0000   1.0000   1.0000   1.0000   1.0000
     1.0000   1.0000   1.0000   1.0000   1.0000   1.0000   1.0000   1.0000
     1.0000   1.0000   1.0000   1.0000   1.0000   1.0000   1.0000   1.0000
     1.0000   1.0000   1.0000   1.0000   0.0000   0.0000   0.0000   0.0000
     0.0000   0.0000   0.0000   0.0000

          k =-0.0000-0.3536 0.6187 (  3003 PWs)   bands (ev):

   -15.2407 -15.2399 -15.2111 -15.2054 -15.1853 -15.1792 -15.1397 -15.1387
   -14.2442 -14.2437 -14.2031 -14.2019 -14.1548 -14.1520 -14.1269 -14.1240
   -14.0385 -14.0377 -13.9940 -13.9937  -0.8935  -0.8934  -0.0404  -0.0403
     3.7771   3.7772   4.3719   4.3720   9.3224   9.3226  10.1644  10.1645
    10.6113  10.6114  11.2546  11.2548

     occupation numbers 
     1.0000   1.0000   1.0000   1.0000   1.0000   1.0000   1.0000   1.0000
     1.0000   1.0000   1.0000   1.0000   1.0000   1.0000   1.0000   1.0000
     1.0000   1.0000   1.0000   1.0000   1.0000   1.0000   1.0000   1.0000
     1.0000   1.0000   1.0000   1.0000   0.0000   0.0000   0.0000   0.0000
     0.0000   0.0000   0.0000   0.0000

          k =-0.7071 0.2652 0.0000 (  3004 PWs)   bands (ev):

   -15.2395 -15.2386 -15.2137 -15.2091 -15.1813 -15.1763 -15.1413 -15.1401
   -14.2434 -14.2429 -14.2042 -14.2031 -14.1494 -14.1433 -14.1363 -14.1302
   -14.0368 -14.0360 -13.9944 -13.9941  -0.4992  -0.4976  -0.4581  -0.4564
     3.9847   3.9849   4.1500   4.1501   9.1208   9.1212   9.3173   9.3175
    11.4243  11.4244  11.5339  11.5340

     occupation numbers 
     1.0000   1.0000   1.0000   1.0000   1.0000   1.0000   1.0000   1.0000
     1.0000   1.0000   1.0000   1.0000   1.0000   1.0000   1.0000   1.0000
     1.0000   1.0000   1.0000   1.0000   1.0000   1.0000   1.0000   1.0000
     1.0000   1.0000   1.0000   1.0000   0.0000   0.0000   0.0000   0.0000
     0.0000   0.0000   0.0000   0.0000

          k =-0.7071 0.3536 0.0000 (  2996 PWs)   bands (ev):

   -15.2404 -15.2394 -15.2121 -15.2062 -15.1845 -15.1783 -15.1400 -15.1388
   -14.2445 -14.2440 -14.2016 -14.2003 -14.1504 -14.1443 -14.1369 -14.1307
   -14.0385 -14.0376 -13.9928 -13.9925  -0.4943  -0.4926  -0.4494  -0.4477
     3.9175   3.9178   4.0907   4.0908   9.7285   9.7292  10.0545  10.0551
    10.6999  10.7004  10.7219  10.7224

     occupation numbers 
     1.0000   1.0000   1.0000   1.0000   1.0000   1.0000   1.0000   1.0000
     1.0000   1.0000   1.0000   1.0000   1.0000   1.0000   1.0000   1.0000
     1.0000   1.0000   1.0000   1.0000   1.0000   1.0000   1.0000   1.0000
     1.0000   1.0000   1.0000   1.0000   0.0000   0.0000   0.0000   0.0000
     0.0000   0.0000   0.0000   0.0000

     the Fermi energy is     6.7924 ev

!    total energy              =    -874.79400279 Ry
     Harris-Foulkes estimate   =    -874.79400293 Ry
     estimated scf accuracy    <       0.00000091 Ry

     total all-electron energy =    -24705.603886 Ry

     The total energy is the sum of the following terms:

     one-electron contribution =    -153.88364212 Ry
     hartree contribution      =      95.45303960 Ry
     xc contribution           =     -95.06926902 Ry
     ewald contribution        =    -167.52979536 Ry
     one-center paw contrib.   =    -553.76433569 Ry
     smearing contrib. (-TS)   =      -0.00000019 Ry

     convergence has been achieved in   5 iterations

     Writing output data file Sn.save
 
     init_run     :      6.42s CPU      7.07s WALL (       1 calls)
     electrons    :    132.35s CPU    136.72s WALL (       1 calls)

     Called by init_run:
     wfcinit      :      5.73s CPU      6.02s WALL (       1 calls)
     potinit      :      0.22s CPU      0.26s WALL (       1 calls)

     Called by electrons:
     c_bands      :    110.69s CPU    114.27s WALL (       6 calls)
     sum_band     :     20.30s CPU     20.94s WALL (       6 calls)
     v_of_rho     :      0.05s CPU      0.06s WALL (       6 calls)
     v_h          :      0.01s CPU      0.01s WALL (       6 calls)
     v_xc         :      0.05s CPU      0.05s WALL (       6 calls)
     newd         :      0.35s CPU      0.39s WALL (       6 calls)
     PAW_pot      :      1.16s CPU      1.23s WALL (       6 calls)
     mix_rho      :      0.02s CPU      0.03s WALL (       6 calls)

     Called by c_bands:
     init_us_2    :      0.27s CPU      0.33s WALL (    1885 calls)
     cegterg      :    105.15s CPU    108.50s WALL (     870 calls)

     Called by sum_band:
     sum_band:bec :      2.81s CPU      2.84s WALL (     870 calls)
     addusdens    :      0.19s CPU      0.23s WALL (       6 calls)

     Called by *egterg:
     h_psi        :     82.09s CPU     84.29s WALL (    3212 calls)
     s_psi        :      3.14s CPU      3.16s WALL (    3212 calls)
     g_psi        :      0.26s CPU      0.26s WALL (    2197 calls)
     cdiaghg      :     12.25s CPU     12.52s WALL (    2922 calls)
     cegterg:over :      5.25s CPU      5.30s WALL (    2197 calls)
     cegterg:upda :      2.15s CPU      2.16s WALL (    2197 calls)
     cegterg:last :      1.16s CPU      1.17s WALL (     870 calls)

     Called by h_psi:
     h_psi:vloc   :     74.38s CPU     76.48s WALL (    3212 calls)
     h_psi:vnl    :      7.50s CPU      7.59s WALL (    3212 calls)
     add_vuspsi   :      3.47s CPU      3.50s WALL (    3212 calls)

     General routines
     calbec       :      5.39s CPU      5.48s WALL (    4082 calls)
     fft          :      0.13s CPU      0.23s WALL (     116 calls)
     fftw         :     83.36s CPU     85.78s WALL (  399880 calls)
     davcio       :      0.02s CPU      0.25s WALL (     145 calls)
 
     Parallel routines
     fft_scatter  :     47.53s CPU     49.21s WALL (  399996 calls)

     PAW routines
     PAW_pot      :      1.16s CPU      1.23s WALL (       6 calls)
     PAW_symme    :      0.02s CPU      0.02s WALL (      12 calls)
 
     PWSCF        :  2m20.37s CPU     2m26.11s WALL

 
   This run was terminated on:  19:56: 0  15Mar2020            

=------------------------------------------------------------------------------=
   JOB DONE.
=------------------------------------------------------------------------------=
