
     Program PWSCF v.5.4.0 starts on 15Mar2020 at 19:56:53 

     This program is part of the open-source Quantum ESPRESSO suite
     for quantum simulation of materials; please cite
         "P. Giannozzi et al., J. Phys.:Condens. Matter 21 395502 (2009);
          URL http://www.quantum-espresso.org", 
     in publications or presentations arising from this work. More details at
     http://www.quantum-espresso.org/quote

     Parallel version (MPI & OpenMP), running on      16 processor cores
     Number of MPI processes:                16
     Threads/MPI process:                     1
     R & G space division:  proc/nbgrp/npool/nimage =      16
     Waiting for input...
     Reading input from standard input
Warning: card &IONS ignored
Warning: card / ignored
Warning: card &CELL ignored
Warning: card / ignored

     Current dimensions of program PWSCF are:
     Max number of different atomic species (ntypx) = 10
     Max number of k-points (npk) =  40000
     Max angular momentum in pseudopotentials (lmaxx) =  3
               file Sn.pbe-dn-rrkjus_psl.1.0.0.UPF: wavefunction(s)  5S 4D renormalized
     Message from routine setup:
     At least one non s.o. pseudo

     Subspace diagonalization in iterative solution of the eigenvalue problem:
     a serial algorithm will be used

 
     Parallelization info
     --------------------
     sticks:   dense  smooth     PW     G-vecs:    dense   smooth      PW
     Min          68      68     19                 1497     1497     237
     Max          69      69     20                 1499     1499     242
     Sum        1099    1099    313                23973    23973    3839
 

     Title: 
     Sn                                                                         


     bravais-lattice index     =            0
     lattice parameter (alat)  =       8.9127  a.u.
     unit-cell volume          =     500.6268 (a.u.)^3
     number of atoms/cell      =            2
     number of atomic types    =            1
     number of electrons       =        28.00
     number of Kohn-Sham states=           36
     kinetic-energy cutoff     =      50.0000  Ry
     charge density cutoff     =     200.0000  Ry
     convergence threshold     =      1.0E-06
     mixing beta               =       0.7000
     number of iterations used =            8  plain     mixing
     Exchange-correlation      = PBE ( 1  4  3  4 0 0)
     Non magnetic calculation with spin-orbit


     celldm(1)=   8.912709  celldm(2)=   0.000000  celldm(3)=   0.000000
     celldm(4)=   0.000000  celldm(5)=   0.000000  celldm(6)=   0.000000

     crystal axes: (cart. coord. in units of alat)
               a(1) = (   0.000000   0.707107   0.707107 )  
               a(2) = (   0.707107   0.000000   0.707107 )  
               a(3) = (   0.707107   0.707107   0.000000 )  

     reciprocal axes: (cart. coord. in units 2 pi/alat)
               b(1) = ( -0.707107  0.707107  0.707107 )  
               b(2) = (  0.707107 -0.707107  0.707107 )  
               b(3) = (  0.707107  0.707107 -0.707107 )  


     PseudoPot. # 1 for Sn read from file:
     ../PseudopotentialDatabase/Sn.pbe-dn-rrkjus_psl.1.0.0.UPF
     MD5 check sum: 72e22d5a9e1ec4fde6a02e1f963898e9
     Pseudo is Ultrasoft + core correction, Zval = 14.0
     Generated using "atomic" code by A. Dal Corso  v.6.3
     Using radial grid of 1243 points,  6 beta functions with: 
                l(1) =   0
                l(2) =   0
                l(3) =   1
                l(4) =   1
                l(5) =   2
                l(6) =   2
     Q(r) pseudized with 0 coefficients 


     atomic species   valence    mass     pseudopotential
        Sn            14.00   118.71000     Sn( 1.00)

     24 Sym. Ops. (no inversion) found
          (note: 24 additional sym.ops. were found but ignored
           their fractional translations are incommensurate with FFT grid)

                                    s                        frac. trans.

      isym =  1     identity                                     

 cryst.   s( 1) = (     1          0          0      )
                  (     0          1          0      )
                  (     0          0          1      )

 cart.    s( 1) = (  1.0000000  0.0000000  0.0000000 )
                  (  0.0000000  1.0000000  0.0000000 )
                  (  0.0000000  0.0000000  1.0000000 )


      isym =  2     180 deg rotation - cart. axis [0,0,1]        

 cryst.   s( 2) = (     0          1         -1      )
                  (     1          0         -1      )
                  (     0          0         -1      )

 cart.    s( 2) = ( -1.0000000  0.0000000  0.0000000 )
                  (  0.0000000 -1.0000000  0.0000000 )
                  (  0.0000000  0.0000000  1.0000000 )


      isym =  3     180 deg rotation - cart. axis [0,1,0]        

 cryst.   s( 3) = (     0         -1          1      )
                  (     0         -1          0      )
                  (     1         -1          0      )

 cart.    s( 3) = ( -1.0000000  0.0000000  0.0000000 )
                  (  0.0000000  1.0000000  0.0000000 )
                  (  0.0000000  0.0000000 -1.0000000 )


      isym =  4     180 deg rotation - cart. axis [1,0,0]        

 cryst.   s( 4) = (    -1          0          0      )
                  (    -1          0          1      )
                  (    -1          1          0      )

 cart.    s( 4) = (  1.0000000  0.0000000  0.0000000 )
                  (  0.0000000 -1.0000000  0.0000000 )
                  (  0.0000000  0.0000000 -1.0000000 )


      isym =  5     120 deg rotation - cart. axis [-1,-1,-1]     

 cryst.   s( 5) = (     0          0          1      )
                  (     1          0          0      )
                  (     0          1          0      )

 cart.    s( 5) = (  0.0000000  1.0000000  0.0000000 )
                  (  0.0000000  0.0000000  1.0000000 )
                  (  1.0000000  0.0000000  0.0000000 )


      isym =  6     120 deg rotation - cart. axis [-1,1,1]       

 cryst.   s( 6) = (     1         -1          0      )
                  (     0         -1          1      )
                  (     0         -1          0      )

 cart.    s( 6) = (  0.0000000 -1.0000000  0.0000000 )
                  (  0.0000000  0.0000000  1.0000000 )
                  ( -1.0000000  0.0000000  0.0000000 )


      isym =  7     120 deg rotation - cart. axis [1,1,-1]       

 cryst.   s( 7) = (    -1          1          0      )
                  (    -1          0          0      )
                  (    -1          0          1      )

 cart.    s( 7) = (  0.0000000  1.0000000  0.0000000 )
                  (  0.0000000  0.0000000 -1.0000000 )
                  ( -1.0000000  0.0000000  0.0000000 )


      isym =  8     120 deg rotation - cart. axis [1,-1,1]       

 cryst.   s( 8) = (     0          0         -1      )
                  (     0          1         -1      )
                  (     1          0         -1      )

 cart.    s( 8) = (  0.0000000 -1.0000000  0.0000000 )
                  (  0.0000000  0.0000000 -1.0000000 )
                  (  1.0000000  0.0000000  0.0000000 )


      isym =  9     120 deg rotation - cart. axis [1,1,1]        

 cryst.   s( 9) = (     0          1          0      )
                  (     0          0          1      )
                  (     1          0          0      )

 cart.    s( 9) = (  0.0000000  0.0000000  1.0000000 )
                  (  1.0000000  0.0000000  0.0000000 )
                  (  0.0000000  1.0000000  0.0000000 )


      isym = 10     120 deg rotation - cart. axis [-1,1,-1]      

 cryst.   s(10) = (    -1          0          1      )
                  (    -1          1          0      )
                  (    -1          0          0      )

 cart.    s(10) = (  0.0000000  0.0000000  1.0000000 )
                  ( -1.0000000  0.0000000  0.0000000 )
                  (  0.0000000 -1.0000000  0.0000000 )


      isym = 11     120 deg rotation - cart. axis [1,-1,-1]      

 cryst.   s(11) = (     1          0         -1      )
                  (     0          0         -1      )
                  (     0          1         -1      )

 cart.    s(11) = (  0.0000000  0.0000000 -1.0000000 )
                  ( -1.0000000  0.0000000  0.0000000 )
                  (  0.0000000  1.0000000  0.0000000 )


      isym = 12     120 deg rotation - cart. axis [-1,-1,1]      

 cryst.   s(12) = (     0         -1          0      )
                  (     1         -1          0      )
                  (     0         -1          1      )

 cart.    s(12) = (  0.0000000  0.0000000 -1.0000000 )
                  (  1.0000000  0.0000000  0.0000000 )
                  (  0.0000000 -1.0000000  0.0000000 )


      isym = 13     inv. 180 deg rotation - cart. axis [1,1,0]   

 cryst.   s(13) = (     1          0         -1      )
                  (     0          1         -1      )
                  (     0          0         -1      )

 cart.    s(13) = (  0.0000000 -1.0000000  0.0000000 )
                  ( -1.0000000  0.0000000  0.0000000 )
                  (  0.0000000  0.0000000  1.0000000 )


      isym = 14     inv. 180 deg rotation - cart. axis [1,-1,0]  

 cryst.   s(14) = (     0          1          0      )
                  (     1          0          0      )
                  (     0          0          1      )

 cart.    s(14) = (  0.0000000  1.0000000  0.0000000 )
                  (  1.0000000  0.0000000  0.0000000 )
                  (  0.0000000  0.0000000  1.0000000 )


      isym = 15     inv.  90 deg rotation - cart. axis [0,0,-1]  

 cryst.   s(15) = (     0         -1          0      )
                  (     0         -1          1      )
                  (     1         -1          0      )

 cart.    s(15) = (  0.0000000 -1.0000000  0.0000000 )
                  (  1.0000000  0.0000000  0.0000000 )
                  (  0.0000000  0.0000000 -1.0000000 )


      isym = 16     inv.  90 deg rotation - cart. axis [0,0,1]   

 cryst.   s(16) = (    -1          0          1      )
                  (    -1          0          0      )
                  (    -1          1          0      )

 cart.    s(16) = (  0.0000000  1.0000000  0.0000000 )
                  ( -1.0000000  0.0000000  0.0000000 )
                  (  0.0000000  0.0000000 -1.0000000 )


      isym = 17     inv. 180 deg rotation - cart. axis [1,0,1]   

 cryst.   s(17) = (     1         -1          0      )
                  (     0         -1          0      )
                  (     0         -1          1      )

 cart.    s(17) = (  0.0000000  0.0000000 -1.0000000 )
                  (  0.0000000  1.0000000  0.0000000 )
                  ( -1.0000000  0.0000000  0.0000000 )


      isym = 18     inv. 180 deg rotation - cart. axis [-1,0,1]  

 cryst.   s(18) = (     0          0          1      )
                  (     0          1          0      )
                  (     1          0          0      )

 cart.    s(18) = (  0.0000000  0.0000000  1.0000000 )
                  (  0.0000000  1.0000000  0.0000000 )
                  (  1.0000000  0.0000000  0.0000000 )


      isym = 19     inv.  90 deg rotation - cart. axis [0,1,0]   

 cryst.   s(19) = (     0          0         -1      )
                  (     1          0         -1      )
                  (     0          1         -1      )

 cart.    s(19) = (  0.0000000  0.0000000 -1.0000000 )
                  (  0.0000000 -1.0000000  0.0000000 )
                  (  1.0000000  0.0000000  0.0000000 )


      isym = 20     inv.  90 deg rotation - cart. axis [0,-1,0]  

 cryst.   s(20) = (    -1          1          0      )
                  (    -1          0          1      )
                  (    -1          0          0      )

 cart.    s(20) = (  0.0000000  0.0000000  1.0000000 )
                  (  0.0000000 -1.0000000  0.0000000 )
                  ( -1.0000000  0.0000000  0.0000000 )


      isym = 21     inv. 180 deg rotation - cart. axis [0,1,1]   

 cryst.   s(21) = (    -1          0          0      )
                  (    -1          1          0      )
                  (    -1          0          1      )

 cart.    s(21) = (  1.0000000  0.0000000  0.0000000 )
                  (  0.0000000  0.0000000 -1.0000000 )
                  (  0.0000000 -1.0000000  0.0000000 )


      isym = 22     inv. 180 deg rotation - cart. axis [0,1,-1]  

 cryst.   s(22) = (     1          0          0      )
                  (     0          0          1      )
                  (     0          1          0      )

 cart.    s(22) = (  1.0000000  0.0000000  0.0000000 )
                  (  0.0000000  0.0000000  1.0000000 )
                  (  0.0000000  1.0000000  0.0000000 )


      isym = 23     inv.  90 deg rotation - cart. axis [-1,0,0]  

 cryst.   s(23) = (     0          1         -1      )
                  (     0          0         -1      )
                  (     1          0         -1      )

 cart.    s(23) = ( -1.0000000  0.0000000  0.0000000 )
                  (  0.0000000  0.0000000 -1.0000000 )
                  (  0.0000000  1.0000000  0.0000000 )


      isym = 24     inv.  90 deg rotation - cart. axis [1,0,0]   

 cryst.   s(24) = (     0         -1          1      )
                  (     1         -1          0      )
                  (     0         -1          0      )

 cart.    s(24) = ( -1.0000000  0.0000000  0.0000000 )
                  (  0.0000000  0.0000000  1.0000000 )
                  (  0.0000000 -1.0000000  0.0000000 )


   Cartesian axes

     site n.     atom                  positions (alat units)
         1           Sn  tau(   1) = (   0.0000000   0.0000000   0.0000000  )
         2           Sn  tau(   2) = (   0.3535534   0.3535534   0.3535534  )

   Crystallographic axes

     site n.     atom                  positions (cryst. coord.)
         1           Sn  tau(   1) = (  0.0000000  0.0000000  0.0000000  )
         2           Sn  tau(   2) = (  0.2500000  0.2500000  0.2500000  )

     number of k points=   145  gaussian smearing, width (Ry)=  0.0001
                       cart. coord. in units 2pi/alat
        k(    1) = (   0.0000000   0.0000000   0.0000000), wk =   0.0002441
        k(    2) = (   0.0441942   0.0441942  -0.0441942), wk =   0.0019531
        k(    3) = (   0.0883883   0.0883883  -0.0883883), wk =   0.0019531
        k(    4) = (   0.1325825   0.1325825  -0.1325825), wk =   0.0019531
        k(    5) = (   0.1767767   0.1767767  -0.1767767), wk =   0.0019531
        k(    6) = (   0.2209709   0.2209709  -0.2209709), wk =   0.0019531
        k(    7) = (   0.2651650   0.2651650  -0.2651650), wk =   0.0019531
        k(    8) = (   0.3093592   0.3093592  -0.3093592), wk =   0.0019531
        k(    9) = (  -0.3535534  -0.3535534   0.3535534), wk =   0.0009766
        k(   10) = (   0.0883883   0.0000000   0.0000000), wk =   0.0014648
        k(   11) = (   0.1325825   0.0441942  -0.0441942), wk =   0.0058594
        k(   12) = (   0.1767767   0.0883883  -0.0883883), wk =   0.0058594
        k(   13) = (   0.2209709   0.1325825  -0.1325825), wk =   0.0058594
        k(   14) = (   0.2651650   0.1767767  -0.1767767), wk =   0.0058594
        k(   15) = (   0.3093592   0.2209709  -0.2209709), wk =   0.0058594
        k(   16) = (   0.3535534   0.2651650  -0.2651650), wk =   0.0058594
        k(   17) = (  -0.3093592  -0.3977476   0.3977476), wk =   0.0058594
        k(   18) = (  -0.2651650  -0.3535534   0.3535534), wk =   0.0058594
        k(   19) = (  -0.2209709  -0.3093592   0.3093592), wk =   0.0058594
        k(   20) = (  -0.1767767  -0.2651650   0.2651650), wk =   0.0058594
        k(   21) = (  -0.1325825  -0.2209709   0.2209709), wk =   0.0058594
        k(   22) = (  -0.0883883  -0.1767767   0.1767767), wk =   0.0058594
        k(   23) = (  -0.0441942  -0.1325825   0.1325825), wk =   0.0058594
        k(   24) = (   0.0000000  -0.0883883   0.0883883), wk =   0.0029297
        k(   25) = (   0.1767767   0.0000000   0.0000000), wk =   0.0014648
        k(   26) = (   0.2209709   0.0441942  -0.0441942), wk =   0.0058594
        k(   27) = (   0.2651650   0.0883883  -0.0883883), wk =   0.0058594
        k(   28) = (   0.3093592   0.1325825  -0.1325825), wk =   0.0058594
        k(   29) = (   0.3535534   0.1767767  -0.1767767), wk =   0.0058594
        k(   30) = (   0.3977476   0.2209709  -0.2209709), wk =   0.0058594
        k(   31) = (  -0.2651650  -0.4419417   0.4419417), wk =   0.0058594
        k(   32) = (  -0.2209709  -0.3977476   0.3977476), wk =   0.0058594
        k(   33) = (  -0.1767767  -0.3535534   0.3535534), wk =   0.0058594
        k(   34) = (  -0.1325825  -0.3093592   0.3093592), wk =   0.0058594
        k(   35) = (  -0.0883883  -0.2651650   0.2651650), wk =   0.0058594
        k(   36) = (  -0.0441942  -0.2209709   0.2209709), wk =   0.0058594
        k(   37) = (   0.0000000  -0.1767767   0.1767767), wk =   0.0029297
        k(   38) = (   0.2651650   0.0000000   0.0000000), wk =   0.0014648
        k(   39) = (   0.3093592   0.0441942  -0.0441942), wk =   0.0058594
        k(   40) = (   0.3535534   0.0883883  -0.0883883), wk =   0.0058594
        k(   41) = (   0.3977476   0.1325825  -0.1325825), wk =   0.0058594
        k(   42) = (   0.4419417   0.1767767  -0.1767767), wk =   0.0058594
        k(   43) = (  -0.2209709  -0.4861359   0.4861359), wk =   0.0058594
        k(   44) = (  -0.1767767  -0.4419417   0.4419417), wk =   0.0058594
        k(   45) = (  -0.1325825  -0.3977476   0.3977476), wk =   0.0058594
        k(   46) = (  -0.0883883  -0.3535534   0.3535534), wk =   0.0058594
        k(   47) = (  -0.0441942  -0.3093592   0.3093592), wk =   0.0058594
        k(   48) = (   0.0000000  -0.2651650   0.2651650), wk =   0.0029297
        k(   49) = (   0.3535534   0.0000000   0.0000000), wk =   0.0014648
        k(   50) = (   0.3977476   0.0441942  -0.0441942), wk =   0.0058594
        k(   51) = (   0.4419417   0.0883883  -0.0883883), wk =   0.0058594
        k(   52) = (   0.4861359   0.1325825  -0.1325825), wk =   0.0058594
        k(   53) = (  -0.1767767  -0.5303301   0.5303301), wk =   0.0058594
        k(   54) = (  -0.1325825  -0.4861359   0.4861359), wk =   0.0058594
        k(   55) = (  -0.0883883  -0.4419417   0.4419417), wk =   0.0058594
        k(   56) = (  -0.0441942  -0.3977476   0.3977476), wk =   0.0058594
        k(   57) = (   0.0000000  -0.3535534   0.3535534), wk =   0.0029297
        k(   58) = (   0.4419417   0.0000000   0.0000000), wk =   0.0014648
        k(   59) = (   0.4861359   0.0441942  -0.0441942), wk =   0.0058594
        k(   60) = (   0.5303301   0.0883883  -0.0883883), wk =   0.0058594
        k(   61) = (  -0.1325825  -0.5745243   0.5745243), wk =   0.0058594
        k(   62) = (  -0.0883883  -0.5303301   0.5303301), wk =   0.0058594
        k(   63) = (  -0.0441942  -0.4861359   0.4861359), wk =   0.0058594
        k(   64) = (   0.0000000  -0.4419417   0.4419417), wk =   0.0029297
        k(   65) = (   0.5303301   0.0000000   0.0000000), wk =   0.0014648
        k(   66) = (   0.5745243   0.0441942  -0.0441942), wk =   0.0058594
        k(   67) = (  -0.0883883  -0.6187184   0.6187184), wk =   0.0058594
        k(   68) = (  -0.0441942  -0.5745243   0.5745243), wk =   0.0058594
        k(   69) = (   0.0000000  -0.5303301   0.5303301), wk =   0.0029297
        k(   70) = (   0.6187184   0.0000000   0.0000000), wk =   0.0014648
        k(   71) = (  -0.0441942  -0.6629126   0.6629126), wk =   0.0058594
        k(   72) = (   0.0000000  -0.6187184   0.6187184), wk =   0.0029297
        k(   73) = (  -0.7071068   0.0000000   0.0000000), wk =   0.0007324
        k(   74) = (   0.1767767   0.0883883   0.0000000), wk =   0.0058594
        k(   75) = (   0.2209709   0.1325825  -0.0441942), wk =   0.0117188
        k(   76) = (   0.2651650   0.1767767  -0.0883883), wk =   0.0117188
        k(   77) = (   0.3093592   0.2209709  -0.1325825), wk =   0.0117188
        k(   78) = (   0.3535534   0.2651650  -0.1767767), wk =   0.0117188
        k(   79) = (  -0.3093592  -0.3977476   0.4861359), wk =   0.0117188
        k(   80) = (  -0.2651650  -0.3535534   0.4419417), wk =   0.0058594
        k(   81) = (   0.2651650   0.0883883   0.0000000), wk =   0.0058594
        k(   82) = (   0.3093592   0.1325825  -0.0441942), wk =   0.0117188
        k(   83) = (   0.3535534   0.1767767  -0.0883883), wk =   0.0117188
        k(   84) = (   0.3977476   0.2209709  -0.1325825), wk =   0.0117188
        k(   85) = (  -0.2651650  -0.4419417   0.5303301), wk =   0.0117188
        k(   86) = (  -0.2209709  -0.3977476   0.4861359), wk =   0.0117188
        k(   87) = (  -0.1767767  -0.3535534   0.4419417), wk =   0.0117188
        k(   88) = (  -0.1325825  -0.3093592   0.3977476), wk =   0.0117188
        k(   89) = (  -0.0883883  -0.2651650   0.3535534), wk =   0.0117188
        k(   90) = (  -0.0441942  -0.2209709   0.3093592), wk =   0.0117188
        k(   91) = (   0.0000000  -0.1767767   0.2651650), wk =   0.0058594
        k(   92) = (   0.3535534   0.0883883   0.0000000), wk =   0.0058594
        k(   93) = (   0.3977476   0.1325825  -0.0441942), wk =   0.0117188
        k(   94) = (   0.4419417   0.1767767  -0.0883883), wk =   0.0117188
        k(   95) = (  -0.2209709  -0.4861359   0.5745243), wk =   0.0117188
        k(   96) = (  -0.1767767  -0.4419417   0.5303301), wk =   0.0117188
        k(   97) = (  -0.1325825  -0.3977476   0.4861359), wk =   0.0117188
        k(   98) = (  -0.0883883  -0.3535534   0.4419417), wk =   0.0117188
        k(   99) = (  -0.0441942  -0.3093592   0.3977476), wk =   0.0117188
        k(  100) = (   0.0000000  -0.2651650   0.3535534), wk =   0.0058594
        k(  101) = (   0.4419417   0.0883883   0.0000000), wk =   0.0058594
        k(  102) = (   0.4861359   0.1325825  -0.0441942), wk =   0.0117188
        k(  103) = (  -0.1767767  -0.5303301   0.6187184), wk =   0.0117188
        k(  104) = (  -0.1325825  -0.4861359   0.5745243), wk =   0.0117188
        k(  105) = (  -0.0883883  -0.4419417   0.5303301), wk =   0.0117188
        k(  106) = (  -0.0441942  -0.3977476   0.4861359), wk =   0.0117188
        k(  107) = (   0.0000000  -0.3535534   0.4419417), wk =   0.0058594
        k(  108) = (   0.5303301   0.0883883   0.0000000), wk =   0.0058594
        k(  109) = (  -0.1325825  -0.5745243   0.6629126), wk =   0.0117188
        k(  110) = (  -0.0883883  -0.5303301   0.6187184), wk =   0.0117188
        k(  111) = (  -0.0441942  -0.4861359   0.5745243), wk =   0.0117188
        k(  112) = (   0.0000000  -0.4419417   0.5303301), wk =   0.0058594
        k(  113) = (  -0.0883883  -0.6187184   0.7071068), wk =   0.0058594
        k(  114) = (  -0.0441942  -0.5745243   0.6629126), wk =   0.0117188
        k(  115) = (  -0.0000000  -0.5303301   0.6187184), wk =   0.0058594
        k(  116) = (  -0.7071068   0.0883883   0.0000000), wk =   0.0029297
        k(  117) = (   0.3535534   0.1767767   0.0000000), wk =   0.0058594
        k(  118) = (   0.3977476   0.2209709  -0.0441942), wk =   0.0117188
        k(  119) = (  -0.2651650  -0.4419417   0.6187184), wk =   0.0117188
        k(  120) = (  -0.2209709  -0.3977476   0.5745243), wk =   0.0117188
        k(  121) = (  -0.1767767  -0.3535534   0.5303301), wk =   0.0058594
        k(  122) = (   0.4419417   0.1767767   0.0000000), wk =   0.0058594
        k(  123) = (  -0.2209709  -0.4861359   0.6629126), wk =   0.0117188
        k(  124) = (  -0.1767767  -0.4419417   0.6187184), wk =   0.0117188
        k(  125) = (  -0.1325825  -0.3977476   0.5745243), wk =   0.0117188
        k(  126) = (  -0.0883883  -0.3535534   0.5303301), wk =   0.0117188
        k(  127) = (  -0.0441942  -0.3093592   0.4861359), wk =   0.0117188
        k(  128) = (   0.0000000  -0.2651650   0.4419417), wk =   0.0058594
        k(  129) = (  -0.1767767  -0.5303301   0.7071068), wk =   0.0058594
        k(  130) = (  -0.1325825  -0.4861359   0.6629126), wk =   0.0117188
        k(  131) = (  -0.0883883  -0.4419417   0.6187184), wk =   0.0117188
        k(  132) = (  -0.0441942  -0.3977476   0.5745243), wk =   0.0117188
        k(  133) = (   0.0000000  -0.3535534   0.5303301), wk =   0.0058594
        k(  134) = (  -0.0883883  -0.5303301   0.7071068), wk =   0.0058594
        k(  135) = (  -0.0441942  -0.4861359   0.6629126), wk =   0.0117188
        k(  136) = (   0.0000000  -0.4419417   0.6187184), wk =   0.0058594
        k(  137) = (  -0.7071068   0.1767767   0.0000000), wk =   0.0029297
        k(  138) = (  -0.1767767  -0.4419417   0.7071068), wk =   0.0058594
        k(  139) = (  -0.1325825  -0.3977476   0.6629126), wk =   0.0117188
        k(  140) = (  -0.0883883  -0.3535534   0.6187184), wk =   0.0058594
        k(  141) = (  -0.0883883  -0.4419417   0.7071068), wk =   0.0058594
        k(  142) = (  -0.0441942  -0.3977476   0.6629126), wk =   0.0117188
        k(  143) = (  -0.0000000  -0.3535534   0.6187184), wk =   0.0058594
        k(  144) = (  -0.7071068   0.2651650   0.0000000), wk =   0.0029297
        k(  145) = (  -0.7071068   0.3535534   0.0000000), wk =   0.0014648

                       cryst. coord.
        k(    1) = (   0.0000000   0.0000000   0.0000000), wk =   0.0002441
        k(    2) = (   0.0000000   0.0000000   0.0625000), wk =   0.0019531
        k(    3) = (   0.0000000   0.0000000   0.1250000), wk =   0.0019531
        k(    4) = (   0.0000000   0.0000000   0.1875000), wk =   0.0019531
        k(    5) = (   0.0000000   0.0000000   0.2500000), wk =   0.0019531
        k(    6) = (   0.0000000   0.0000000   0.3125000), wk =   0.0019531
        k(    7) = (   0.0000000   0.0000000   0.3750000), wk =   0.0019531
        k(    8) = (   0.0000000   0.0000000   0.4375000), wk =   0.0019531
        k(    9) = (   0.0000000   0.0000000  -0.5000000), wk =   0.0009766
        k(   10) = (   0.0000000   0.0625000   0.0625000), wk =   0.0014648
        k(   11) = (   0.0000000   0.0625000   0.1250000), wk =   0.0058594
        k(   12) = (   0.0000000   0.0625000   0.1875000), wk =   0.0058594
        k(   13) = (   0.0000000   0.0625000   0.2500000), wk =   0.0058594
        k(   14) = (   0.0000000   0.0625000   0.3125000), wk =   0.0058594
        k(   15) = (   0.0000000   0.0625000   0.3750000), wk =   0.0058594
        k(   16) = (   0.0000000   0.0625000   0.4375000), wk =   0.0058594
        k(   17) = (   0.0000000   0.0625000  -0.5000000), wk =   0.0058594
        k(   18) = (   0.0000000   0.0625000  -0.4375000), wk =   0.0058594
        k(   19) = (   0.0000000   0.0625000  -0.3750000), wk =   0.0058594
        k(   20) = (   0.0000000   0.0625000  -0.3125000), wk =   0.0058594
        k(   21) = (   0.0000000   0.0625000  -0.2500000), wk =   0.0058594
        k(   22) = (   0.0000000   0.0625000  -0.1875000), wk =   0.0058594
        k(   23) = (   0.0000000   0.0625000  -0.1250000), wk =   0.0058594
        k(   24) = (   0.0000000   0.0625000  -0.0625000), wk =   0.0029297
        k(   25) = (   0.0000000   0.1250000   0.1250000), wk =   0.0014648
        k(   26) = (   0.0000000   0.1250000   0.1875000), wk =   0.0058594
        k(   27) = (   0.0000000   0.1250000   0.2500000), wk =   0.0058594
        k(   28) = (   0.0000000   0.1250000   0.3125000), wk =   0.0058594
        k(   29) = (   0.0000000   0.1250000   0.3750000), wk =   0.0058594
        k(   30) = (   0.0000000   0.1250000   0.4375000), wk =   0.0058594
        k(   31) = (   0.0000000   0.1250000  -0.5000000), wk =   0.0058594
        k(   32) = (   0.0000000   0.1250000  -0.4375000), wk =   0.0058594
        k(   33) = (   0.0000000   0.1250000  -0.3750000), wk =   0.0058594
        k(   34) = (   0.0000000   0.1250000  -0.3125000), wk =   0.0058594
        k(   35) = (   0.0000000   0.1250000  -0.2500000), wk =   0.0058594
        k(   36) = (   0.0000000   0.1250000  -0.1875000), wk =   0.0058594
        k(   37) = (   0.0000000   0.1250000  -0.1250000), wk =   0.0029297
        k(   38) = (   0.0000000   0.1875000   0.1875000), wk =   0.0014648
        k(   39) = (   0.0000000   0.1875000   0.2500000), wk =   0.0058594
        k(   40) = (   0.0000000   0.1875000   0.3125000), wk =   0.0058594
        k(   41) = (   0.0000000   0.1875000   0.3750000), wk =   0.0058594
        k(   42) = (   0.0000000   0.1875000   0.4375000), wk =   0.0058594
        k(   43) = (   0.0000000   0.1875000  -0.5000000), wk =   0.0058594
        k(   44) = (   0.0000000   0.1875000  -0.4375000), wk =   0.0058594
        k(   45) = (   0.0000000   0.1875000  -0.3750000), wk =   0.0058594
        k(   46) = (   0.0000000   0.1875000  -0.3125000), wk =   0.0058594
        k(   47) = (   0.0000000   0.1875000  -0.2500000), wk =   0.0058594
        k(   48) = (   0.0000000   0.1875000  -0.1875000), wk =   0.0029297
        k(   49) = (   0.0000000   0.2500000   0.2500000), wk =   0.0014648
        k(   50) = (   0.0000000   0.2500000   0.3125000), wk =   0.0058594
        k(   51) = (   0.0000000   0.2500000   0.3750000), wk =   0.0058594
        k(   52) = (   0.0000000   0.2500000   0.4375000), wk =   0.0058594
        k(   53) = (   0.0000000   0.2500000  -0.5000000), wk =   0.0058594
        k(   54) = (   0.0000000   0.2500000  -0.4375000), wk =   0.0058594
        k(   55) = (   0.0000000   0.2500000  -0.3750000), wk =   0.0058594
        k(   56) = (   0.0000000   0.2500000  -0.3125000), wk =   0.0058594
        k(   57) = (   0.0000000   0.2500000  -0.2500000), wk =   0.0029297
        k(   58) = (   0.0000000   0.3125000   0.3125000), wk =   0.0014648
        k(   59) = (   0.0000000   0.3125000   0.3750000), wk =   0.0058594
        k(   60) = (   0.0000000   0.3125000   0.4375000), wk =   0.0058594
        k(   61) = (   0.0000000   0.3125000  -0.5000000), wk =   0.0058594
        k(   62) = (   0.0000000   0.3125000  -0.4375000), wk =   0.0058594
        k(   63) = (   0.0000000   0.3125000  -0.3750000), wk =   0.0058594
        k(   64) = (   0.0000000   0.3125000  -0.3125000), wk =   0.0029297
        k(   65) = (   0.0000000   0.3750000   0.3750000), wk =   0.0014648
        k(   66) = (   0.0000000   0.3750000   0.4375000), wk =   0.0058594
        k(   67) = (   0.0000000   0.3750000  -0.5000000), wk =   0.0058594
        k(   68) = (   0.0000000   0.3750000  -0.4375000), wk =   0.0058594
        k(   69) = (   0.0000000   0.3750000  -0.3750000), wk =   0.0029297
        k(   70) = (   0.0000000   0.4375000   0.4375000), wk =   0.0014648
        k(   71) = (   0.0000000   0.4375000  -0.5000000), wk =   0.0058594
        k(   72) = (   0.0000000   0.4375000  -0.4375000), wk =   0.0029297
        k(   73) = (   0.0000000  -0.5000000  -0.5000000), wk =   0.0007324
        k(   74) = (   0.0625000   0.1250000   0.1875000), wk =   0.0058594
        k(   75) = (   0.0625000   0.1250000   0.2500000), wk =   0.0117188
        k(   76) = (   0.0625000   0.1250000   0.3125000), wk =   0.0117188
        k(   77) = (   0.0625000   0.1250000   0.3750000), wk =   0.0117188
        k(   78) = (   0.0625000   0.1250000   0.4375000), wk =   0.0117188
        k(   79) = (   0.0625000   0.1250000  -0.5000000), wk =   0.0117188
        k(   80) = (   0.0625000   0.1250000  -0.4375000), wk =   0.0058594
        k(   81) = (   0.0625000   0.1875000   0.2500000), wk =   0.0058594
        k(   82) = (   0.0625000   0.1875000   0.3125000), wk =   0.0117188
        k(   83) = (   0.0625000   0.1875000   0.3750000), wk =   0.0117188
        k(   84) = (   0.0625000   0.1875000   0.4375000), wk =   0.0117188
        k(   85) = (   0.0625000   0.1875000  -0.5000000), wk =   0.0117188
        k(   86) = (   0.0625000   0.1875000  -0.4375000), wk =   0.0117188
        k(   87) = (   0.0625000   0.1875000  -0.3750000), wk =   0.0117188
        k(   88) = (   0.0625000   0.1875000  -0.3125000), wk =   0.0117188
        k(   89) = (   0.0625000   0.1875000  -0.2500000), wk =   0.0117188
        k(   90) = (   0.0625000   0.1875000  -0.1875000), wk =   0.0117188
        k(   91) = (   0.0625000   0.1875000  -0.1250000), wk =   0.0058594
        k(   92) = (   0.0625000   0.2500000   0.3125000), wk =   0.0058594
        k(   93) = (   0.0625000   0.2500000   0.3750000), wk =   0.0117188
        k(   94) = (   0.0625000   0.2500000   0.4375000), wk =   0.0117188
        k(   95) = (   0.0625000   0.2500000  -0.5000000), wk =   0.0117188
        k(   96) = (   0.0625000   0.2500000  -0.4375000), wk =   0.0117188
        k(   97) = (   0.0625000   0.2500000  -0.3750000), wk =   0.0117188
        k(   98) = (   0.0625000   0.2500000  -0.3125000), wk =   0.0117188
        k(   99) = (   0.0625000   0.2500000  -0.2500000), wk =   0.0117188
        k(  100) = (   0.0625000   0.2500000  -0.1875000), wk =   0.0058594
        k(  101) = (   0.0625000   0.3125000   0.3750000), wk =   0.0058594
        k(  102) = (   0.0625000   0.3125000   0.4375000), wk =   0.0117188
        k(  103) = (   0.0625000   0.3125000  -0.5000000), wk =   0.0117188
        k(  104) = (   0.0625000   0.3125000  -0.4375000), wk =   0.0117188
        k(  105) = (   0.0625000   0.3125000  -0.3750000), wk =   0.0117188
        k(  106) = (   0.0625000   0.3125000  -0.3125000), wk =   0.0117188
        k(  107) = (   0.0625000   0.3125000  -0.2500000), wk =   0.0058594
        k(  108) = (   0.0625000   0.3750000   0.4375000), wk =   0.0058594
        k(  109) = (   0.0625000   0.3750000  -0.5000000), wk =   0.0117188
        k(  110) = (   0.0625000   0.3750000  -0.4375000), wk =   0.0117188
        k(  111) = (   0.0625000   0.3750000  -0.3750000), wk =   0.0117188
        k(  112) = (   0.0625000   0.3750000  -0.3125000), wk =   0.0058594
        k(  113) = (   0.0625000   0.4375000  -0.5000000), wk =   0.0058594
        k(  114) = (   0.0625000   0.4375000  -0.4375000), wk =   0.0117188
        k(  115) = (   0.0625000   0.4375000  -0.3750000), wk =   0.0058594
        k(  116) = (   0.0625000  -0.5000000  -0.4375000), wk =   0.0029297
        k(  117) = (   0.1250000   0.2500000   0.3750000), wk =   0.0058594
        k(  118) = (   0.1250000   0.2500000   0.4375000), wk =   0.0117188
        k(  119) = (   0.1250000   0.2500000  -0.5000000), wk =   0.0117188
        k(  120) = (   0.1250000   0.2500000  -0.4375000), wk =   0.0117188
        k(  121) = (   0.1250000   0.2500000  -0.3750000), wk =   0.0058594
        k(  122) = (   0.1250000   0.3125000   0.4375000), wk =   0.0058594
        k(  123) = (   0.1250000   0.3125000  -0.5000000), wk =   0.0117188
        k(  124) = (   0.1250000   0.3125000  -0.4375000), wk =   0.0117188
        k(  125) = (   0.1250000   0.3125000  -0.3750000), wk =   0.0117188
        k(  126) = (   0.1250000   0.3125000  -0.3125000), wk =   0.0117188
        k(  127) = (   0.1250000   0.3125000  -0.2500000), wk =   0.0117188
        k(  128) = (   0.1250000   0.3125000  -0.1875000), wk =   0.0058594
        k(  129) = (   0.1250000   0.3750000  -0.5000000), wk =   0.0058594
        k(  130) = (   0.1250000   0.3750000  -0.4375000), wk =   0.0117188
        k(  131) = (   0.1250000   0.3750000  -0.3750000), wk =   0.0117188
        k(  132) = (   0.1250000   0.3750000  -0.3125000), wk =   0.0117188
        k(  133) = (   0.1250000   0.3750000  -0.2500000), wk =   0.0058594
        k(  134) = (   0.1250000   0.4375000  -0.4375000), wk =   0.0058594
        k(  135) = (   0.1250000   0.4375000  -0.3750000), wk =   0.0117188
        k(  136) = (   0.1250000   0.4375000  -0.3125000), wk =   0.0058594
        k(  137) = (   0.1250000  -0.5000000  -0.3750000), wk =   0.0029297
        k(  138) = (   0.1875000   0.3750000  -0.4375000), wk =   0.0058594
        k(  139) = (   0.1875000   0.3750000  -0.3750000), wk =   0.0117188
        k(  140) = (   0.1875000   0.3750000  -0.3125000), wk =   0.0058594
        k(  141) = (   0.1875000   0.4375000  -0.3750000), wk =   0.0058594
        k(  142) = (   0.1875000   0.4375000  -0.3125000), wk =   0.0117188
        k(  143) = (   0.1875000   0.4375000  -0.2500000), wk =   0.0058594
        k(  144) = (   0.1875000  -0.5000000  -0.3125000), wk =   0.0029297
        k(  145) = (   0.2500000  -0.5000000  -0.2500000), wk =   0.0014648

     Dense  grid:    23973 G-vectors     FFT dimensions: (  45,  45,  45)

     Largest allocated arrays     est. size (Mb)     dimensions
        Kohn-Sham Wavefunctions         0.21 Mb     (     382,   36)
        NL pseudopotentials             0.10 Mb     (     191,   36)
        Each V/rho on FFT grid          0.09 Mb     (    6075)
        Each G-vector array             0.01 Mb     (    1498)
        G-vector shells                 0.00 Mb     (     257)
     Largest temporary arrays     est. size (Mb)     dimensions
        Auxiliary wavefunctions         0.84 Mb     (     382,  144)
        Each subspace H/S matrix        0.32 Mb     (     144,  144)
        Each <psi_i|beta_j> matrix      0.04 Mb     (      36,   2,   36)
        Arrays for rho mixing           0.74 Mb     (    6075,    8)

     Check: negative/imaginary core charge=   -0.000006    0.000000

     Initial potential from superposition of free atoms

     starting charge   27.99723, renormalised to   28.00000
     Starting wfc are   36 randomized atomic wfcs

     total cpu time spent up to now is        7.1 secs

     Self-consistent Calculation

     iteration #  1     ecut=    50.00 Ry     beta=0.70
     Davidson diagonalization with overlap
     ethr =  1.00E-02,  avg # of iterations =  3.4

     Threshold (ethr) on eigenvalues was too large:
     Diagonalizing with lowered threshold

     Davidson diagonalization with overlap
     ethr =  6.63E-05,  avg # of iterations =  3.3

     total cpu time spent up to now is       49.2 secs

     total energy              =    -326.04277072 Ry
     Harris-Foulkes estimate   =    -326.04574409 Ry
     estimated scf accuracy    <       0.02243832 Ry

     iteration #  2     ecut=    50.00 Ry     beta=0.70
     Davidson diagonalization with overlap
     ethr =  8.01E-05,  avg # of iterations =  1.0

     total cpu time spent up to now is       64.9 secs

     total energy              =    -326.04345601 Ry
     Harris-Foulkes estimate   =    -326.04350276 Ry
     estimated scf accuracy    <       0.00149178 Ry

     iteration #  3     ecut=    50.00 Ry     beta=0.70
     Davidson diagonalization with overlap
     ethr =  5.33E-06,  avg # of iterations =  2.7

     total cpu time spent up to now is       88.3 secs

     total energy              =    -326.04365411 Ry
     Harris-Foulkes estimate   =    -326.04367595 Ry
     estimated scf accuracy    <       0.00005464 Ry

     iteration #  4     ecut=    50.00 Ry     beta=0.70
     Davidson diagonalization with overlap
     ethr =  1.95E-07,  avg # of iterations =  2.0

     total cpu time spent up to now is      109.6 secs

     total energy              =    -326.04366907 Ry
     Harris-Foulkes estimate   =    -326.04366697 Ry
     estimated scf accuracy    <       0.00000293 Ry

     iteration #  5     ecut=    50.00 Ry     beta=0.70
     Davidson diagonalization with overlap
     ethr =  1.05E-08,  avg # of iterations =  2.0

     total cpu time spent up to now is      127.3 secs

     End of self-consistent calculation

          k = 0.0000 0.0000 0.0000 (  2975 PWs)   bands (ev):

   -14.6399 -14.6399 -14.6399 -14.6399 -14.6399 -14.6399 -14.5918 -14.5918
   -14.5918 -14.5918 -14.3424 -14.3424 -14.3424 -14.3424 -14.3421 -14.3421
   -14.3421 -14.3421 -14.3421 -14.3421  -3.1826  -3.1826   5.7058   5.7058
     6.9864   6.9864   6.9864   6.9864   6.9864   6.9864   9.0515   9.0515
     9.0515   9.0515   9.0515   9.0515

     occupation numbers 
     1.0000   1.0000   1.0000   1.0000   1.0000   1.0000   1.0000   1.0000
     1.0000   1.0000   1.0000   1.0000   1.0000   1.0000   1.0000   1.0000
     1.0000   1.0000   1.0000   1.0000   1.0000   1.0000   1.0000   1.0000
     0.0000   0.0000   0.0000   0.0000   0.0000   0.0000   0.0000   0.0000
     0.0000   0.0000   0.0000   0.0000

          k = 0.0442 0.0442-0.0442 (  2972 PWs)   bands (ev):

   -14.6425 -14.6425 -14.6425 -14.6425 -14.6390 -14.6390 -14.5883 -14.5883
   -14.5883 -14.5883 -14.3529 -14.3529 -14.3529 -14.3529 -14.3431 -14.3431
   -14.3320 -14.3320 -14.3320 -14.3320  -3.1478  -3.1478   5.3111   5.3111
     6.9140   6.9140   6.9140   6.9140   7.1684   7.1684   9.1463   9.1463
     9.1463   9.1463   9.1806   9.1806

     occupation numbers 
     1.0000   1.0000   1.0000   1.0000   1.0000   1.0000   1.0000   1.0000
     1.0000   1.0000   1.0000   1.0000   1.0000   1.0000   1.0000   1.0000
     1.0000   1.0000   1.0000   1.0000   1.0000   1.0000   1.0000   1.0000
     0.0233   0.0233   0.0233   0.0233   0.0000   0.0000   0.0000   0.0000
     0.0000   0.0000   0.0000   0.0000

          k = 0.0884 0.0884-0.0884 (  2981 PWs)   bands (ev):

   -14.6484 -14.6484 -14.6484 -14.6484 -14.6367 -14.6367 -14.5800 -14.5800
   -14.5800 -14.5800 -14.3636 -14.3636 -14.3636 -14.3636 -14.3459 -14.3459
   -14.3229 -14.3229 -14.3229 -14.3229  -3.0444  -3.0444   4.5506   4.5506
     6.7366   6.7366   6.7366   6.7366   7.2983   7.2983   9.3804   9.3804
     9.3804   9.3804   9.6128   9.6128

     occupation numbers 
     1.0000   1.0000   1.0000   1.0000   1.0000   1.0000   1.0000   1.0000
     1.0000   1.0000   1.0000   1.0000   1.0000   1.0000   1.0000   1.0000
     1.0000   1.0000   1.0000   1.0000   1.0000   1.0000   1.0000   1.0000
     1.0000   1.0000   1.0000   1.0000   0.0000   0.0000   0.0000   0.0000
     0.0000   0.0000   0.0000   0.0000

          k = 0.1326 0.1326-0.1326 (  2957 PWs)   bands (ev):

   -14.6547 -14.6547 -14.6547 -14.6547 -14.6330 -14.6330 -14.5699 -14.5699
   -14.5699 -14.5699 -14.3735 -14.3735 -14.3735 -14.3735 -14.3501 -14.3501
   -14.3152 -14.3152 -14.3152 -14.3152  -2.8751  -2.8751   3.7211   3.7211
     6.5218   6.5218   6.5218   6.5218   7.2351   7.2351   9.6558   9.6558
     9.6558   9.6558  10.2928  10.2928

     occupation numbers 
     1.0000   1.0000   1.0000   1.0000   1.0000   1.0000   1.0000   1.0000
     1.0000   1.0000   1.0000   1.0000   1.0000   1.0000   1.0000   1.0000
     1.0000   1.0000   1.0000   1.0000   1.0000   1.0000   1.0000   1.0000
     1.0000   1.0000   1.0000   1.0000   0.0000   0.0000   0.0000   0.0000
     0.0000   0.0000   0.0000   0.0000

          k = 0.1768 0.1768-0.1768 (  2971 PWs)   bands (ev):

   -14.6602 -14.6602 -14.6602 -14.6602 -14.6287 -14.6287 -14.5605 -14.5605
   -14.5605 -14.5605 -14.3820 -14.3820 -14.3820 -14.3820 -14.3553 -14.3553
   -14.3090 -14.3090 -14.3090 -14.3090  -2.6464  -2.6464   2.9096   2.9096
     6.3152   6.3152   6.3152   6.3152   7.0955   7.0955   9.8865   9.8865
     9.8865   9.8865  11.1014  11.1014

     occupation numbers 
     1.0000   1.0000   1.0000   1.0000   1.0000   1.0000   1.0000   1.0000
     1.0000   1.0000   1.0000   1.0000   1.0000   1.0000   1.0000   1.0000
     1.0000   1.0000   1.0000   1.0000   1.0000   1.0000   1.0000   1.0000
     1.0000   1.0000   1.0000   1.0000   0.0000   0.0000   0.0000   0.0000
     0.0000   0.0000   0.0000   0.0000

          k = 0.2210 0.2210-0.2210 (  2980 PWs)   bands (ev):

   -14.6643 -14.6643 -14.6643 -14.6643 -14.6242 -14.6242 -14.5528 -14.5528
   -14.5528 -14.5528 -14.3886 -14.3886 -14.3886 -14.3886 -14.3605 -14.3605
   -14.3045 -14.3045 -14.3045 -14.3045  -2.3714  -2.3714   2.1616   2.1616
     6.1404   6.1404   6.1404   6.1404   6.9538   6.9538  10.0265  10.0265
    10.0265  10.0265  11.9659  11.9659

     occupation numbers 
     1.0000   1.0000   1.0000   1.0000   1.0000   1.0000   1.0000   1.0000
     1.0000   1.0000   1.0000   1.0000   1.0000   1.0000   1.0000   1.0000
     1.0000   1.0000   1.0000   1.0000   1.0000   1.0000   1.0000   1.0000
     1.0000   1.0000   1.0000   1.0000   0.0000   0.0000   0.0000   0.0000
     0.0000   0.0000   0.0000   0.0000

          k = 0.2652 0.2652-0.2652 (  2980 PWs)   bands (ev):

   -14.6670 -14.6670 -14.6670 -14.6670 -14.6204 -14.6204 -14.5474 -14.5474
   -14.5474 -14.5474 -14.3929 -14.3929 -14.3929 -14.3929 -14.3651 -14.3651
   -14.3014 -14.3014 -14.3014 -14.3014  -2.0781  -2.0781   1.5217   1.5217
     6.0096   6.0096   6.0096   6.0096   6.8412   6.8412  10.0837  10.0837
    10.0837  10.0837  12.6275  12.6276

     occupation numbers 
     1.0000   1.0000   1.0000   1.0000   1.0000   1.0000   1.0000   1.0000
     1.0000   1.0000   1.0000   1.0000   1.0000   1.0000   1.0000   1.0000
     1.0000   1.0000   1.0000   1.0000   1.0000   1.0000   1.0000   1.0000
     1.0000   1.0000   1.0000   1.0000   1.0000   1.0000   0.0000   0.0000
     0.0000   0.0000   0.0000   0.0000

          k = 0.3094 0.3094-0.3094 (  2983 PWs)   bands (ev):

   -14.6685 -14.6685 -14.6685 -14.6685 -14.6177 -14.6177 -14.5443 -14.5443
   -14.5443 -14.5443 -14.3953 -14.3953 -14.3953 -14.3953 -14.3683 -14.3683
   -14.2996 -14.2996 -14.2996 -14.2996  -1.8266  -1.8266   1.0591   1.0591
     5.9292   5.9292   5.9292   5.9292   6.7704   6.7704  10.0963  10.0963
    10.0963  10.0963  12.6520  12.6520

     occupation numbers 
     1.0000   1.0000   1.0000   1.0000   1.0000   1.0000   1.0000   1.0000
     1.0000   1.0000   1.0000   1.0000   1.0000   1.0000   1.0000   1.0000
     1.0000   1.0000   1.0000   1.0000   1.0000   1.0000   1.0000   1.0000
     1.0000   1.0000   1.0000   1.0000   1.0000   1.0000   0.0000   0.0000
     0.0000   0.0000   0.0000   0.0000

          k =-0.3536-0.3536 0.3536 (  2998 PWs)   bands (ev):

   -14.6691 -14.6691 -14.6691 -14.6691 -14.6167 -14.6167 -14.5433 -14.5433
   -14.5433 -14.5433 -14.3961 -14.3961 -14.3961 -14.3961 -14.3694 -14.3694
   -14.2991 -14.2991 -14.2991 -14.2991  -1.7203  -1.7203   0.8820   0.8820
     5.9021   5.9021   5.9021   5.9021   6.7464   6.7464  10.0966  10.0966
    10.0966  10.0966  12.6268  12.6268

     occupation numbers 
     1.0000   1.0000   1.0000   1.0000   1.0000   1.0000   1.0000   1.0000
     1.0000   1.0000   1.0000   1.0000   1.0000   1.0000   1.0000   1.0000
     1.0000   1.0000   1.0000   1.0000   1.0000   1.0000   1.0000   1.0000
     1.0000   1.0000   1.0000   1.0000   1.0000   1.0000   0.0000   0.0000
     0.0000   0.0000   0.0000   0.0000

          k = 0.0884 0.0000 0.0000 (  2971 PWs)   bands (ev):

   -14.6421 -14.6421 -14.6417 -14.6417 -14.6417 -14.6417 -14.5893 -14.5893
   -14.5848 -14.5848 -14.3621 -14.3621 -14.3447 -14.3447 -14.3396 -14.3396
   -14.3396 -14.3396 -14.3280 -14.3280  -3.1362  -3.1362   5.2311   5.2311
     6.7813   6.7813   6.7813   6.7813   7.4418   7.4418   8.9066   8.9066
     9.3161   9.3161   9.3161   9.3161

     occupation numbers 
     1.0000   1.0000   1.0000   1.0000   1.0000   1.0000   1.0000   1.0000
     1.0000   1.0000   1.0000   1.0000   1.0000   1.0000   1.0000   1.0000
     1.0000   1.0000   1.0000   1.0000   1.0000   1.0000   1.0000   1.0000
     1.0000   1.0000   1.0000   1.0000   0.0000   0.0000   0.0000   0.0000
     0.0000   0.0000   0.0000   0.0000

          k = 0.1326 0.0442-0.0442 (  2982 PWs)   bands (ev):

   -14.6483 -14.6483 -14.6455 -14.6455 -14.6395 -14.6395 -14.5841 -14.5841
   -14.5762 -14.5762 -14.3735 -14.3735 -14.3536 -14.3536 -14.3398 -14.3398
   -14.3311 -14.3311 -14.3209 -14.3209  -3.0554  -3.0554   4.6672   4.6672
     6.5734   6.5734   6.6047   6.6047   7.6946   7.6946   8.9054   8.9054
     9.5990   9.5990   9.6726   9.6726

     occupation numbers 
     1.0000   1.0000   1.0000   1.0000   1.0000   1.0000   1.0000   1.0000
     1.0000   1.0000   1.0000   1.0000   1.0000   1.0000   1.0000   1.0000
     1.0000   1.0000   1.0000   1.0000   1.0000   1.0000   1.0000   1.0000
     1.0000   1.0000   1.0000   1.0000   0.0000   0.0000   0.0000   0.0000
     0.0000   0.0000   0.0000   0.0000

          k = 0.1768 0.0884-0.0884 (  2973 PWs)   bands (ev):

   -14.6555 -14.6555 -14.6513 -14.6513 -14.6354 -14.6354 -14.5755 -14.5755
   -14.5656 -14.5656 -14.3842 -14.3842 -14.3637 -14.3637 -14.3438 -14.3438
   -14.3223 -14.3223 -14.3131 -14.3131  -2.9076  -2.9076   3.9138   3.9138
     6.3512   6.3512   6.3874   6.3874   7.7130   7.7130   9.1323   9.1323
     9.9047   9.9047  10.2241  10.2241

     occupation numbers 
     1.0000   1.0000   1.0000   1.0000   1.0000   1.0000   1.0000   1.0000
     1.0000   1.0000   1.0000   1.0000   1.0000   1.0000   1.0000   1.0000
     1.0000   1.0000   1.0000   1.0000   1.0000   1.0000   1.0000   1.0000
     1.0000   1.0000   1.0000   1.0000   0.0000   0.0000   0.0000   0.0000
     0.0000   0.0000   0.0000   0.0000

          k = 0.2210 0.1326-0.1326 (  2967 PWs)   bands (ev):

   -14.6621 -14.6621 -14.6570 -14.6570 -14.6301 -14.6301 -14.5661 -14.5661
   -14.5554 -14.5554 -14.3933 -14.3933 -14.3731 -14.3731 -14.3499 -14.3499
   -14.3147 -14.3147 -14.3062 -14.3062  -2.6978  -2.6978   3.1257   3.1257
     6.1469   6.1469   6.1509   6.1509   7.5983   7.5983   9.4448   9.4448
    10.1524  10.1524  10.8687  10.8687

     occupation numbers 
     1.0000   1.0000   1.0000   1.0000   1.0000   1.0000   1.0000   1.0000
     1.0000   1.0000   1.0000   1.0000   1.0000   1.0000   1.0000   1.0000
     1.0000   1.0000   1.0000   1.0000   1.0000   1.0000   1.0000   1.0000
     1.0000   1.0000   1.0000   1.0000   0.0000   0.0000   0.0000   0.0000
     0.0000   0.0000   0.0000   0.0000

          k = 0.2652 0.1768-0.1768 (  2973 PWs)   bands (ev):

   -14.6673 -14.6673 -14.6618 -14.6618 -14.6241 -14.6241 -14.5575 -14.5575
   -14.5473 -14.5473 -14.3997 -14.3997 -14.3813 -14.3813 -14.3571 -14.3571
   -14.3087 -14.3087 -14.3007 -14.3007  -2.4361  -2.4361   2.3720   2.3720
     5.9216   5.9216   5.9917   5.9917   7.4531   7.4531   9.7056   9.7056
    10.2909  10.2909  11.5473  11.5474

     occupation numbers 
     1.0000   1.0000   1.0000   1.0000   1.0000   1.0000   1.0000   1.0000
     1.0000   1.0000   1.0000   1.0000   1.0000   1.0000   1.0000   1.0000
     1.0000   1.0000   1.0000   1.0000   1.0000   1.0000   1.0000   1.0000
     1.0000   1.0000   1.0000   1.0000   0.0000   0.0000   0.0000   0.0000
     0.0000   0.0000   0.0000   0.0000

          k = 0.3094 0.2210-0.2210 (  2980 PWs)   bands (ev):

   -14.6709 -14.6709 -14.6655 -14.6655 -14.6184 -14.6184 -14.5504 -14.5504
   -14.5420 -14.5420 -14.4029 -14.4029 -14.3882 -14.3882 -14.3642 -14.3642
   -14.3040 -14.3040 -14.2969 -14.2969  -2.1440  -2.1440   1.7017   1.7017
     5.7333   5.7333   5.8833   5.8833   7.3237   7.3237   9.8650   9.8650
    10.3229  10.3229  12.2160  12.2160

     occupation numbers 
     1.0000   1.0000   1.0000   1.0000   1.0000   1.0000   1.0000   1.0000
     1.0000   1.0000   1.0000   1.0000   1.0000   1.0000   1.0000   1.0000
     1.0000   1.0000   1.0000   1.0000   1.0000   1.0000   1.0000   1.0000
     1.0000   1.0000   1.0000   1.0000   0.0000   0.0000   0.0000   0.0000
     0.0000   0.0000   0.0000   0.0000

          k = 0.3536 0.2652-0.2652 (  2997 PWs)   bands (ev):

   -14.6730 -14.6730 -14.6681 -14.6681 -14.6139 -14.6139 -14.5450 -14.5450
   -14.5399 -14.5399 -14.4028 -14.4028 -14.3937 -14.3937 -14.3703 -14.3703
   -14.3005 -14.3005 -14.2948 -14.2948  -1.8684  -1.8684   1.1757   1.1757
     5.5928   5.5928   5.8302   5.8302   7.2294   7.2294   9.9521   9.9521
    10.2898  10.2898  12.6475  12.6475

     occupation numbers 
     1.0000   1.0000   1.0000   1.0000   1.0000   1.0000   1.0000   1.0000
     1.0000   1.0000   1.0000   1.0000   1.0000   1.0000   1.0000   1.0000
     1.0000   1.0000   1.0000   1.0000   1.0000   1.0000   1.0000   1.0000
     1.0000   1.0000   1.0000   1.0000   0.0000   0.0000   0.0000   0.0000
     0.0000   0.0000   0.0000   0.0000

          k =-0.3094-0.3977 0.3977 (  2980 PWs)   bands (ev):

   -14.6735 -14.6735 -14.6697 -14.6697 -14.6114 -14.6114 -14.5412 -14.5412
   -14.5405 -14.5405 -14.4001 -14.4001 -14.3978 -14.3978 -14.3741 -14.3741
   -14.2983 -14.2983 -14.2944 -14.2944  -1.7006  -1.7006   0.8929   0.8929
     5.5061   5.5061   5.8339   5.8339   7.1785   7.1785  10.0131  10.0131
    10.2322  10.2322  12.7409  12.7409

     occupation numbers 
     1.0000   1.0000   1.0000   1.0000   1.0000   1.0000   1.0000   1.0000
     1.0000   1.0000   1.0000   1.0000   1.0000   1.0000   1.0000   1.0000
     1.0000   1.0000   1.0000   1.0000   1.0000   1.0000   1.0000   1.0000
     1.0000   1.0000   1.0000   1.0000   0.0000   0.0000   0.0000   0.0000
     0.0000   0.0000   0.0000   0.0000

          k =-0.2652-0.3536 0.3536 (  2981 PWs)   bands (ev):

   -14.6727 -14.6727 -14.6704 -14.6704 -14.6115 -14.6115 -14.5431 -14.5431
   -14.5395 -14.5395 -14.4005 -14.4005 -14.3962 -14.3962 -14.3745 -14.3745
   -14.2972 -14.2972 -14.2957 -14.2957  -1.7375  -1.7375   0.9531   0.9531
     5.4768   5.4768   5.8933   5.8933   7.1742   7.1742  10.0728  10.0728
    10.1698  10.1698  12.7537  12.7537

     occupation numbers 
     1.0000   1.0000   1.0000   1.0000   1.0000   1.0000   1.0000   1.0000
     1.0000   1.0000   1.0000   1.0000   1.0000   1.0000   1.0000   1.0000
     1.0000   1.0000   1.0000   1.0000   1.0000   1.0000   1.0000   1.0000
     1.0000   1.0000   1.0000   1.0000   0.0000   0.0000   0.0000   0.0000
     0.0000   0.0000   0.0000   0.0000

          k =-0.2210-0.3094 0.3094 (  2983 PWs)   bands (ev):

   -14.6704 -14.6704 -14.6699 -14.6699 -14.6141 -14.6141 -14.5473 -14.5473
   -14.5401 -14.5401 -14.4011 -14.4011 -14.3921 -14.3921 -14.3709 -14.3709
   -14.2987 -14.2987 -14.2974 -14.2974  -1.9544  -1.9544   1.3309   1.3309
     5.5073   5.5073   6.0054   6.0054   7.2159   7.2159  10.0990  10.0990
    10.1284  10.1284  12.6405  12.6405

     occupation numbers 
     1.0000   1.0000   1.0000   1.0000   1.0000   1.0000   1.0000   1.0000
     1.0000   1.0000   1.0000   1.0000   1.0000   1.0000   1.0000   1.0000
     1.0000   1.0000   1.0000   1.0000   1.0000   1.0000   1.0000   1.0000
     1.0000   1.0000   1.0000   1.0000   0.0000   0.0000   0.0000   0.0000
     0.0000   0.0000   0.0000   0.0000

          k =-0.1768-0.2652 0.2652 (  2975 PWs)   bands (ev):

   -14.6682 -14.6682 -14.6669 -14.6669 -14.6188 -14.6188 -14.5530 -14.5530
   -14.5439 -14.5439 -14.3988 -14.3988 -14.3877 -14.3877 -14.3642 -14.3642
   -14.3033 -14.3033 -14.2991 -14.2991  -2.2432  -2.2432   1.9137   1.9137
     5.5990   5.5990   6.1643   6.1643   7.2990   7.2990   9.9953   9.9953
    10.1457  10.1457  12.0700  12.0700

     occupation numbers 
     1.0000   1.0000   1.0000   1.0000   1.0000   1.0000   1.0000   1.0000
     1.0000   1.0000   1.0000   1.0000   1.0000   1.0000   1.0000   1.0000
     1.0000   1.0000   1.0000   1.0000   1.0000   1.0000   1.0000   1.0000
     1.0000   1.0000   1.0000   1.0000   0.0000   0.0000   0.0000   0.0000
     0.0000   0.0000   0.0000   0.0000

          k =-0.1326-0.2210 0.2210 (  2974 PWs)   bands (ev):

   -14.6649 -14.6649 -14.6620 -14.6620 -14.6246 -14.6246 -14.5602 -14.5602
   -14.5508 -14.5508 -14.3936 -14.3936 -14.3821 -14.3821 -14.3562 -14.3562
   -14.3095 -14.3095 -14.3025 -14.3025  -2.5286  -2.5286   2.6164   2.6164
     5.7524   5.7524   6.3603   6.3603   7.4117   7.4117   9.8276   9.8276
    10.0574  10.0574  11.3403  11.3403

     occupation numbers 
     1.0000   1.0000   1.0000   1.0000   1.0000   1.0000   1.0000   1.0000
     1.0000   1.0000   1.0000   1.0000   1.0000   1.0000   1.0000   1.0000
     1.0000   1.0000   1.0000   1.0000   1.0000   1.0000   1.0000   1.0000
     1.0000   1.0000   1.0000   1.0000   0.0000   0.0000   0.0000   0.0000
     0.0000   0.0000   0.0000   0.0000

          k =-0.0884-0.1768 0.1768 (  2973 PWs)   bands (ev):

   -14.6601 -14.6601 -14.6559 -14.6559 -14.6306 -14.6306 -14.5687 -14.5687
   -14.5602 -14.5602 -14.3855 -14.3855 -14.3749 -14.3749 -14.3481 -14.3481
   -14.3172 -14.3172 -14.3076 -14.3076  -2.7746  -2.7746   3.3841   3.3841
     5.9671   5.9671   6.5756   6.5756   7.5246   7.5246   9.5917   9.5917
     9.8015   9.8015  10.6860  10.6860

     occupation numbers 
     1.0000   1.0000   1.0000   1.0000   1.0000   1.0000   1.0000   1.0000
     1.0000   1.0000   1.0000   1.0000   1.0000   1.0000   1.0000   1.0000
     1.0000   1.0000   1.0000   1.0000   1.0000   1.0000   1.0000   1.0000
     1.0000   1.0000   1.0000   1.0000   0.0000   0.0000   0.0000   0.0000
     0.0000   0.0000   0.0000   0.0000

          k =-0.0442-0.1326 0.1326 (  2979 PWs)   bands (ev):

   -14.6540 -14.6540 -14.6492 -14.6492 -14.6356 -14.6356 -14.5776 -14.5776
   -14.5710 -14.5710 -14.3755 -14.3755 -14.3664 -14.3664 -14.3412 -14.3412
   -14.3264 -14.3264 -14.3144 -14.3144  -2.9644  -2.9644   4.1631   4.1631
     6.2426   6.2426   6.7778   6.7778   7.5683   7.5683   9.3377   9.3377
     9.4450   9.4450  10.1148  10.1148

     occupation numbers 
     1.0000   1.0000   1.0000   1.0000   1.0000   1.0000   1.0000   1.0000
     1.0000   1.0000   1.0000   1.0000   1.0000   1.0000   1.0000   1.0000
     1.0000   1.0000   1.0000   1.0000   1.0000   1.0000   1.0000   1.0000
     1.0000   1.0000   1.0000   1.0000   0.0000   0.0000   0.0000   0.0000
     0.0000   0.0000   0.0000   0.0000

          k = 0.0000-0.0884 0.0884 (  3004 PWs)   bands (ev):

   -14.6476 -14.6476 -14.6437 -14.6437 -14.6389 -14.6389 -14.5852 -14.5852
   -14.5813 -14.5813 -14.3643 -14.3643 -14.3575 -14.3575 -14.3370 -14.3370
   -14.3353 -14.3353 -14.3227 -14.3227  -3.0901  -3.0901   4.8659   4.8659
     6.5775   6.5775   6.9112   6.9112   7.4286   7.4286   9.1588   9.1588
     9.1976   9.1976   9.5928   9.5928

     occupation numbers 
     1.0000   1.0000   1.0000   1.0000   1.0000   1.0000   1.0000   1.0000
     1.0000   1.0000   1.0000   1.0000   1.0000   1.0000   1.0000   1.0000
     1.0000   1.0000   1.0000   1.0000   1.0000   1.0000   1.0000   1.0000
     1.0000   1.0000   0.8022   0.8022   0.0000   0.0000   0.0000   0.0000
     0.0000   0.0000   0.0000   0.0000

          k = 0.1768 0.0000 0.0000 (  2970 PWs)   bands (ev):

   -14.6468 -14.6468 -14.6468 -14.6468 -14.6452 -14.6452 -14.5821 -14.5821
   -14.5671 -14.5671 -14.3868 -14.3868 -14.3517 -14.3517 -14.3326 -14.3326
   -14.3326 -14.3326 -14.3199 -14.3199  -2.9973  -2.9973   4.4177   4.4177
     6.3511   6.3511   6.3511   6.3511   8.1628   8.1628   8.5860   8.5860
     9.9228   9.9228   9.9228   9.9228

     occupation numbers 
     1.0000   1.0000   1.0000   1.0000   1.0000   1.0000   1.0000   1.0000
     1.0000   1.0000   1.0000   1.0000   1.0000   1.0000   1.0000   1.0000
     1.0000   1.0000   1.0000   1.0000   1.0000   1.0000   1.0000   1.0000
     1.0000   1.0000   1.0000   1.0000   0.0000   0.0000   0.0000   0.0000
     0.0000   0.0000   0.0000   0.0000

          k = 0.2210 0.0442-0.0442 (  2960 PWs)   bands (ev):

   -14.6545 -14.6545 -14.6511 -14.6511 -14.6409 -14.6409 -14.5754 -14.5754
   -14.5559 -14.5559 -14.3996 -14.3996 -14.3593 -14.3593 -14.3331 -14.3331
   -14.3255 -14.3255 -14.3143 -14.3143  -2.8714  -2.8714   3.8746   3.8746
     6.1079   6.1079   6.1239   6.1239   8.3456   8.3456   8.5810   8.5810
    10.2693  10.2693  10.3511  10.3511

     occupation numbers 
     1.0000   1.0000   1.0000   1.0000   1.0000   1.0000   1.0000   1.0000
     1.0000   1.0000   1.0000   1.0000   1.0000   1.0000   1.0000   1.0000
     1.0000   1.0000   1.0000   1.0000   1.0000   1.0000   1.0000   1.0000
     1.0000   1.0000   1.0000   1.0000   0.0000   0.0000   0.0000   0.0000
     0.0000   0.0000   0.0000   0.0000

          k = 0.2652 0.0884-0.0884 (  2968 PWs)   bands (ev):

   -14.6629 -14.6629 -14.6565 -14.6565 -14.6338 -14.6338 -14.5666 -14.5666
   -14.5448 -14.5448 -14.4107 -14.4107 -14.3690 -14.3690 -14.3401 -14.3401
   -14.3175 -14.3175 -14.3058 -14.3058  -2.6814  -2.6814   3.1987   3.1987
     5.8276   5.8276   5.9246   5.9246   8.2721   8.2721   8.8747   8.8747
    10.5585  10.5585  10.7858  10.7858

     occupation numbers 
     1.0000   1.0000   1.0000   1.0000   1.0000   1.0000   1.0000   1.0000
     1.0000   1.0000   1.0000   1.0000   1.0000   1.0000   1.0000   1.0000
     1.0000   1.0000   1.0000   1.0000   1.0000   1.0000   1.0000   1.0000
     1.0000   1.0000   1.0000   1.0000   0.0000   0.0000   0.0000   0.0000
     0.0000   0.0000   0.0000   0.0000

          k = 0.3094 0.1326-0.1326 (  2975 PWs)   bands (ev):

   -14.6702 -14.6702 -14.6615 -14.6615 -14.6252 -14.6252 -14.5574 -14.5574
   -14.5357 -14.5357 -14.4187 -14.4187 -14.3786 -14.3786 -14.3497 -14.3497
   -14.3103 -14.3103 -14.2979 -14.2979  -2.4353  -2.4353   2.4970   2.4970
     5.5444   5.5444   5.7712   5.7712   8.1307   8.1307   9.2586   9.2586
    10.7276  10.7276  11.1081  11.1081

     occupation numbers 
     1.0000   1.0000   1.0000   1.0000   1.0000   1.0000   1.0000   1.0000
     1.0000   1.0000   1.0000   1.0000   1.0000   1.0000   1.0000   1.0000
     1.0000   1.0000   1.0000   1.0000   1.0000   1.0000   1.0000   1.0000
     1.0000   1.0000   1.0000   1.0000   0.0000   0.0000   0.0000   0.0000
     0.0000   0.0000   0.0000   0.0000

          k = 0.3536 0.1768-0.1768 (  2982 PWs)   bands (ev):

   -14.6761 -14.6761 -14.6658 -14.6658 -14.6160 -14.6160 -14.5489 -14.5489
   -14.5300 -14.5300 -14.4225 -14.4225 -14.3876 -14.3876 -14.3605 -14.3605
   -14.3044 -14.3044 -14.2916 -14.2916  -2.1492  -2.1492   1.8360   1.8360
     5.2933   5.2933   5.6729   5.6729   7.9878   7.9878   9.5838   9.5838
    10.7648  10.7648  11.4671  11.4671

     occupation numbers 
     1.0000   1.0000   1.0000   1.0000   1.0000   1.0000   1.0000   1.0000
     1.0000   1.0000   1.0000   1.0000   1.0000   1.0000   1.0000   1.0000
     1.0000   1.0000   1.0000   1.0000   1.0000   1.0000   1.0000   1.0000
     1.0000   1.0000   1.0000   1.0000   0.0000   0.0000   0.0000   0.0000
     0.0000   0.0000   0.0000   0.0000

          k = 0.3977 0.2210-0.2210 (  2991 PWs)   bands (ev):

   -14.6800 -14.6800 -14.6691 -14.6691 -14.6076 -14.6076 -14.5414 -14.5414
   -14.5285 -14.5285 -14.4215 -14.4215 -14.3957 -14.3957 -14.3707 -14.3707
   -14.2996 -14.2996 -14.2874 -14.2874  -1.8589  -1.8589   1.2779   1.2779
     5.0922   5.0922   5.6343   5.6343   7.8716   7.8716   9.7835   9.7835
    10.7095  10.7095  11.9851  11.9851

     occupation numbers 
     1.0000   1.0000   1.0000   1.0000   1.0000   1.0000   1.0000   1.0000
     1.0000   1.0000   1.0000   1.0000   1.0000   1.0000   1.0000   1.0000
     1.0000   1.0000   1.0000   1.0000   1.0000   1.0000   1.0000   1.0000
     1.0000   1.0000   1.0000   1.0000   0.0000   0.0000   0.0000   0.0000
     0.0000   0.0000   0.0000   0.0000

          k =-0.2652-0.4419 0.4419 (  2996 PWs)   bands (ev):

   -14.6820 -14.6820 -14.6716 -14.6716 -14.6015 -14.6015 -14.5353 -14.5353
   -14.5309 -14.5309 -14.4159 -14.4159 -14.4029 -14.4029 -14.3792 -14.3792
   -14.2960 -14.2960 -14.2854 -14.2854  -1.6406  -1.6406   0.9126   0.9126
     4.9501   4.9501   5.6564   5.6564   7.7950   7.7950   9.9030   9.9030
    10.6101  10.6101  12.5535  12.5535

     occupation numbers 
     1.0000   1.0000   1.0000   1.0000   1.0000   1.0000   1.0000   1.0000
     1.0000   1.0000   1.0000   1.0000   1.0000   1.0000   1.0000   1.0000
     1.0000   1.0000   1.0000   1.0000   1.0000   1.0000   1.0000   1.0000
     1.0000   1.0000   1.0000   1.0000   0.0000   0.0000   0.0000   0.0000
     0.0000   0.0000   0.0000   0.0000

          k =-0.2210-0.3977 0.3977 (  2985 PWs)   bands (ev):

   -14.6818 -14.6818 -14.6731 -14.6731 -14.5988 -14.5988 -14.5361 -14.5361
   -14.5310 -14.5310 -14.4085 -14.4085 -14.4068 -14.4068 -14.3847 -14.3847
   -14.2938 -14.2938 -14.2859 -14.2859  -1.6052  -1.6052   0.8574   0.8574
     4.8731   4.8731   5.7373   5.7373   7.7625   7.7625  10.0025  10.0025
    10.4947  10.4947  12.8597  12.8597

     occupation numbers 
     1.0000   1.0000   1.0000   1.0000   1.0000   1.0000   1.0000   1.0000
     1.0000   1.0000   1.0000   1.0000   1.0000   1.0000   1.0000   1.0000
     1.0000   1.0000   1.0000   1.0000   1.0000   1.0000   1.0000   1.0000
     1.0000   1.0000   1.0000   1.0000   0.0000   0.0000   0.0000   0.0000
     0.0000   0.0000   0.0000   0.0000

          k =-0.1768-0.3536 0.3536 (  2990 PWs)   bands (ev):

   -14.6796 -14.6796 -14.6735 -14.6735 -14.6003 -14.6003 -14.5425 -14.5425
   -14.5296 -14.5296 -14.4115 -14.4115 -14.3965 -14.3965 -14.3857 -14.3857
   -14.2930 -14.2930 -14.2891 -14.2891  -1.7772  -1.7772   1.1368   1.1368
     4.8667   4.8667   5.8725   5.8725   7.7732   7.7732  10.1039  10.1039
    10.3661  10.3661  12.6046  12.6046

     occupation numbers 
     1.0000   1.0000   1.0000   1.0000   1.0000   1.0000   1.0000   1.0000
     1.0000   1.0000   1.0000   1.0000   1.0000   1.0000   1.0000   1.0000
     1.0000   1.0000   1.0000   1.0000   1.0000   1.0000   1.0000   1.0000
     1.0000   1.0000   1.0000   1.0000   0.0000   0.0000   0.0000   0.0000
     0.0000   0.0000   0.0000   0.0000

          k =-0.1326-0.3094 0.3094 (  2988 PWs)   bands (ev):

   -14.6754 -14.6754 -14.6725 -14.6725 -14.6059 -14.6059 -14.5494 -14.5494
   -14.5320 -14.5320 -14.4109 -14.4109 -14.3909 -14.3909 -14.3774 -14.3774
   -14.2946 -14.2946 -14.2938 -14.2938  -2.0553  -2.0553   1.6436   1.6436
     4.9373   4.9373   6.0539   6.0539   7.8198   7.8198  10.1843  10.1843
    10.2061  10.2061  11.9519  11.9519

     occupation numbers 
     1.0000   1.0000   1.0000   1.0000   1.0000   1.0000   1.0000   1.0000
     1.0000   1.0000   1.0000   1.0000   1.0000   1.0000   1.0000   1.0000
     1.0000   1.0000   1.0000   1.0000   1.0000   1.0000   1.0000   1.0000
     1.0000   1.0000   1.0000   1.0000   0.0000   0.0000   0.0000   0.0000
     0.0000   0.0000   0.0000   0.0000

          k =-0.0884-0.2652 0.2652 (  2977 PWs)   bands (ev):

   -14.6700 -14.6700 -14.6693 -14.6693 -14.6141 -14.6141 -14.5565 -14.5565
   -14.5384 -14.5384 -14.4061 -14.4061 -14.3871 -14.3871 -14.3643 -14.3643
   -14.3025 -14.3025 -14.2964 -14.2964  -2.3478  -2.3478   2.2717   2.2717
     5.0943   5.0943   6.2677   6.2677   7.8837   7.8837   9.9913   9.9913
    10.1515  10.1515  11.3424  11.3424

     occupation numbers 
     1.0000   1.0000   1.0000   1.0000   1.0000   1.0000   1.0000   1.0000
     1.0000   1.0000   1.0000   1.0000   1.0000   1.0000   1.0000   1.0000
     1.0000   1.0000   1.0000   1.0000   1.0000   1.0000   1.0000   1.0000
     1.0000   1.0000   1.0000   1.0000   0.0000   0.0000   0.0000   0.0000
     0.0000   0.0000   0.0000   0.0000

          k =-0.0442-0.2210 0.2210 (  2980 PWs)   bands (ev):

   -14.6659 -14.6659 -14.6621 -14.6621 -14.6231 -14.6231 -14.5639 -14.5639
   -14.5481 -14.5481 -14.3979 -14.3979 -14.3816 -14.3816 -14.3516 -14.3516
   -14.3123 -14.3123 -14.3007 -14.3007  -2.6088  -2.6088   2.9476   2.9476
     5.3525   5.3525   6.4899   6.4899   7.9205   7.9205   9.7284   9.7285
     9.8916   9.8916  10.9592  10.9592

     occupation numbers 
     1.0000   1.0000   1.0000   1.0000   1.0000   1.0000   1.0000   1.0000
     1.0000   1.0000   1.0000   1.0000   1.0000   1.0000   1.0000   1.0000
     1.0000   1.0000   1.0000   1.0000   1.0000   1.0000   1.0000   1.0000
     1.0000   1.0000   1.0000   1.0000   0.0000   0.0000   0.0000   0.0000
     0.0000   0.0000   0.0000   0.0000

          k = 0.0000-0.1768 0.1768 (  2984 PWs)   bands (ev):

   -14.6603 -14.6603 -14.6545 -14.6545 -14.6310 -14.6310 -14.5714 -14.5714
   -14.5596 -14.5596 -14.3873 -14.3873 -14.3743 -14.3743 -14.3417 -14.3417
   -14.3225 -14.3225 -14.3068 -14.3068  -2.8176  -2.8176   3.6032   3.6032
     5.7329   5.7329   6.6799   6.6799   7.8396   7.8396   9.4785   9.4785
     9.5768   9.5768  10.6184  10.6184

     occupation numbers 
     1.0000   1.0000   1.0000   1.0000   1.0000   1.0000   1.0000   1.0000
     1.0000   1.0000   1.0000   1.0000   1.0000   1.0000   1.0000   1.0000
     1.0000   1.0000   1.0000   1.0000   1.0000   1.0000   1.0000   1.0000
     1.0000   1.0000   1.0000   1.0000   0.0000   0.0000   0.0000   0.0000
     0.0000   0.0000   0.0000   0.0000

          k = 0.2652 0.0000 0.0000 (  2970 PWs)   bands (ev):

   -14.6541 -14.6541 -14.6541 -14.6541 -14.6452 -14.6452 -14.5704 -14.5704
   -14.5436 -14.5436 -14.4152 -14.4152 -14.3629 -14.3629 -14.3224 -14.3224
   -14.3224 -14.3224 -14.3185 -14.3185  -2.7670  -2.7670   3.5625   3.5625
     5.8923   5.8923   5.8923   5.8923   8.2447   8.2447   8.7255   8.7255
    10.6703  10.6703  10.6703  10.6703

     occupation numbers 
     1.0000   1.0000   1.0000   1.0000   1.0000   1.0000   1.0000   1.0000
     1.0000   1.0000   1.0000   1.0000   1.0000   1.0000   1.0000   1.0000
     1.0000   1.0000   1.0000   1.0000   1.0000   1.0000   1.0000   1.0000
     1.0000   1.0000   1.0000   1.0000   0.0000   0.0000   0.0000   0.0000
     0.0000   0.0000   0.0000   0.0000

          k = 0.3094 0.0442-0.0442 (  2970 PWs)   bands (ev):

   -14.6615 -14.6615 -14.6586 -14.6586 -14.6393 -14.6393 -14.5622 -14.5622
   -14.5310 -14.5310 -14.4291 -14.4291 -14.3712 -14.3712 -14.3289 -14.3289
   -14.3158 -14.3158 -14.3092 -14.3092  -2.5974  -2.5974   3.0577   3.0577
     5.6330   5.6330   5.6893   5.6893   8.2297   8.2297   8.8276   8.8276
    10.9987  10.9987  11.0270  11.0270

     occupation numbers 
     1.0000   1.0000   1.0000   1.0000   1.0000   1.0000   1.0000   1.0000
     1.0000   1.0000   1.0000   1.0000   1.0000   1.0000   1.0000   1.0000
     1.0000   1.0000   1.0000   1.0000   1.0000   1.0000   1.0000   1.0000
     1.0000   1.0000   1.0000   1.0000   0.0000   0.0000   0.0000   0.0000
     0.0000   0.0000   0.0000   0.0000

          k = 0.3536 0.0884-0.0884 (  2971 PWs)   bands (ev):

   -14.6704 -14.6704 -14.6633 -14.6633 -14.6289 -14.6289 -14.5528 -14.5528
   -14.5201 -14.5201 -14.4400 -14.4400 -14.3810 -14.3810 -14.3409 -14.3409
   -14.3088 -14.3088 -14.2985 -14.2985  -2.3683  -2.3683   2.4660   2.4660
     5.3133   5.3133   5.5335   5.5335   8.3235   8.3235   8.9728   8.9728
    11.0686  11.0687  11.2625  11.2625

     occupation numbers 
     1.0000   1.0000   1.0000   1.0000   1.0000   1.0000   1.0000   1.0000
     1.0000   1.0000   1.0000   1.0000   1.0000   1.0000   1.0000   1.0000
     1.0000   1.0000   1.0000   1.0000   1.0000   1.0000   1.0000   1.0000
     1.0000   1.0000   1.0000   1.0000   0.0000   0.0000   0.0000   0.0000
     0.0000   0.0000   0.0000   0.0000

          k = 0.3977 0.1326-0.1326 (  2982 PWs)   bands (ev):

   -14.6785 -14.6785 -14.6676 -14.6676 -14.6166 -14.6166 -14.5433 -14.5433
   -14.5127 -14.5127 -14.4464 -14.4464 -14.3912 -14.3912 -14.3546 -14.3546
   -14.3024 -14.3024 -14.2893 -14.2893  -2.0920  -2.0920   1.8641   1.8641
     4.9948   4.9948   5.4348   5.4348   8.2936   8.2936   9.3561   9.3561
    11.0750  11.0750  11.3408  11.3408

     occupation numbers 
     1.0000   1.0000   1.0000   1.0000   1.0000   1.0000   1.0000   1.0000
     1.0000   1.0000   1.0000   1.0000   1.0000   1.0000   1.0000   1.0000
     1.0000   1.0000   1.0000   1.0000   1.0000   1.0000   1.0000   1.0000
     1.0000   1.0000   1.0000   1.0000   0.0000   0.0000   0.0000   0.0000
     0.0000   0.0000   0.0000   0.0000

          k = 0.4419 0.1768-0.1768 (  2990 PWs)   bands (ev):

   -14.6848 -14.6848 -14.6712 -14.6712 -14.6044 -14.6044 -14.5343 -14.5343
   -14.5105 -14.5105 -14.4469 -14.4469 -14.4011 -14.4011 -14.3684 -14.3684
   -14.2971 -14.2971 -14.2822 -14.2822  -1.7951  -1.7951   1.3160   1.3160
     4.7209   4.7209   5.3983   5.3983   8.2163   8.2163   9.7734   9.7734
    11.2528  11.2528  11.2912  11.2912

     occupation numbers 
     1.0000   1.0000   1.0000   1.0000   1.0000   1.0000   1.0000   1.0000
     1.0000   1.0000   1.0000   1.0000   1.0000   1.0000   1.0000   1.0000
     1.0000   1.0000   1.0000   1.0000   1.0000   1.0000   1.0000   1.0000
     1.0000   1.0000   1.0000   1.0000   0.0000   0.0000   0.0000   0.0000
     0.0000   0.0000   0.0000   0.0000

          k =-0.2210-0.4861 0.4861 (  2994 PWs)   bands (ev):

   -14.6889 -14.6889 -14.6740 -14.6740 -14.5941 -14.5941 -14.5262 -14.5262
   -14.5136 -14.5136 -14.4415 -14.4415 -14.4105 -14.4105 -14.3804 -14.3804
   -14.2930 -14.2930 -14.2778 -14.2778  -1.5382  -1.5382   0.9034   0.9034
     4.5126   4.5126   5.4254   5.4254   8.1580   8.1580  10.0313  10.0313
    11.1694  11.1694  11.7321  11.7321

     occupation numbers 
     1.0000   1.0000   1.0000   1.0000   1.0000   1.0000   1.0000   1.0000
     1.0000   1.0000   1.0000   1.0000   1.0000   1.0000   1.0000   1.0000
     1.0000   1.0000   1.0000   1.0000   1.0000   1.0000   1.0000   1.0000
     1.0000   1.0000   1.0000   1.0000   0.0000   0.0000   0.0000   0.0000
     0.0000   0.0000   0.0000   0.0000

          k =-0.1768-0.4419 0.4419 (  2999 PWs)   bands (ev):

   -14.6903 -14.6903 -14.6760 -14.6760 -14.5875 -14.5875 -14.5212 -14.5212
   -14.5200 -14.5200 -14.4308 -14.4308 -14.4183 -14.4183 -14.3888 -14.3888
   -14.2903 -14.2903 -14.2765 -14.2765  -1.4331  -1.4331   0.7487   0.7487
     4.3811   4.3811   5.5141   5.5141   8.1362   8.1362  10.1660  10.1660
    11.0126  11.0126  12.3687  12.3687

     occupation numbers 
     1.0000   1.0000   1.0000   1.0000   1.0000   1.0000   1.0000   1.0000
     1.0000   1.0000   1.0000   1.0000   1.0000   1.0000   1.0000   1.0000
     1.0000   1.0000   1.0000   1.0000   1.0000   1.0000   1.0000   1.0000
     1.0000   1.0000   1.0000   1.0000   0.0000   0.0000   0.0000   0.0000
     0.0000   0.0000   0.0000   0.0000

          k =-0.1326-0.3977 0.3977 (  2996 PWs)   bands (ev):

   -14.6891 -14.6891 -14.6768 -14.6768 -14.5861 -14.5861 -14.5314 -14.5314
   -14.5168 -14.5168 -14.4233 -14.4233 -14.4161 -14.4161 -14.3933 -14.3933
   -14.2890 -14.2890 -14.2783 -14.2783  -1.5525  -1.5525   0.9260   0.9260
     4.3363   4.3363   5.6595   5.6595   8.1502   8.1502  10.2748  10.2748
    10.8291  10.8291  12.4773  12.4773

     occupation numbers 
     1.0000   1.0000   1.0000   1.0000   1.0000   1.0000   1.0000   1.0000
     1.0000   1.0000   1.0000   1.0000   1.0000   1.0000   1.0000   1.0000
     1.0000   1.0000   1.0000   1.0000   1.0000   1.0000   1.0000   1.0000
     1.0000   1.0000   1.0000   1.0000   0.0000   0.0000   0.0000   0.0000
     0.0000   0.0000   0.0000   0.0000

          k =-0.0884-0.3536 0.3536 (  2993 PWs)   bands (ev):

   -14.6851 -14.6851 -14.6763 -14.6763 -14.5904 -14.5904 -14.5417 -14.5417
   -14.5184 -14.5184 -14.4235 -14.4235 -14.3988 -14.3988 -14.3941 -14.3941
   -14.2893 -14.2893 -14.2835 -14.2835  -1.8144  -1.8144   1.3451   1.3451
     4.3907   4.3907   5.8523   5.8523   8.1862   8.1862  10.3842  10.3842
    10.6038  10.6038  11.8082  11.8082

     occupation numbers 
     1.0000   1.0000   1.0000   1.0000   1.0000   1.0000   1.0000   1.0000
     1.0000   1.0000   1.0000   1.0000   1.0000   1.0000   1.0000   1.0000
     1.0000   1.0000   1.0000   1.0000   1.0000   1.0000   1.0000   1.0000
     1.0000   1.0000   1.0000   1.0000   0.0000   0.0000   0.0000   0.0000
     0.0000   0.0000   0.0000   0.0000

          k =-0.0442-0.3094 0.3094 (  2987 PWs)   bands (ev):

   -14.6787 -14.6787 -14.6743 -14.6743 -14.5999 -14.5999 -14.5504 -14.5504
   -14.5252 -14.5252 -14.4185 -14.4185 -14.3921 -14.3921 -14.3808 -14.3808
   -14.2916 -14.2916 -14.2914 -14.2914  -2.1103  -2.1103   1.8773   1.8773
     4.5627   4.5627   6.0762   6.0762   8.2109   8.2109  10.3210  10.3210
    10.4153  10.4153  11.1948  11.1948

     occupation numbers 
     1.0000   1.0000   1.0000   1.0000   1.0000   1.0000   1.0000   1.0000
     1.0000   1.0000   1.0000   1.0000   1.0000   1.0000   1.0000   1.0000
     1.0000   1.0000   1.0000   1.0000   1.0000   1.0000   1.0000   1.0000
     1.0000   1.0000   1.0000   1.0000   0.0000   0.0000   0.0000   0.0000
     0.0000   0.0000   0.0000   0.0000

          k = 0.0000-0.2652 0.2652 (  2970 PWs)   bands (ev):

   -14.6708 -14.6708 -14.6706 -14.6706 -14.6118 -14.6118 -14.5576 -14.5576
   -14.5358 -14.5358 -14.4094 -14.4094 -14.3877 -14.3877 -14.3641 -14.3641
   -14.3019 -14.3019 -14.2952 -14.2952  -2.3835  -2.3835   2.4327   2.4327
     4.8771   4.8771   6.3037   6.3037   8.1540   8.1540  10.0038  10.0038
    10.1588  10.1588  11.0049  11.0049

     occupation numbers 
     1.0000   1.0000   1.0000   1.0000   1.0000   1.0000   1.0000   1.0000
     1.0000   1.0000   1.0000   1.0000   1.0000   1.0000   1.0000   1.0000
     1.0000   1.0000   1.0000   1.0000   1.0000   1.0000   1.0000   1.0000
     1.0000   1.0000   1.0000   1.0000   0.0000   0.0000   0.0000   0.0000
     0.0000   0.0000   0.0000   0.0000

          k = 0.3536 0.0000 0.0000 (  2978 PWs)   bands (ev):

   -14.6622 -14.6622 -14.6622 -14.6622 -14.6405 -14.6405 -14.5545 -14.5545
   -14.5164 -14.5164 -14.4462 -14.4462 -14.3782 -14.3782 -14.3235 -14.3235
   -14.3109 -14.3109 -14.3109 -14.3109  -2.4475  -2.4475   2.7135   2.7135
     5.4798   5.4798   5.4798   5.4798   7.9594   7.9594   8.8935   8.8935
    11.4768  11.4768  11.4768  11.4768

     occupation numbers 
     1.0000   1.0000   1.0000   1.0000   1.0000   1.0000   1.0000   1.0000
     1.0000   1.0000   1.0000   1.0000   1.0000   1.0000   1.0000   1.0000
     1.0000   1.0000   1.0000   1.0000   1.0000   1.0000   1.0000   1.0000
     1.0000   1.0000   1.0000   1.0000   0.0000   0.0000   0.0000   0.0000
     0.0000   0.0000   0.0000   0.0000

          k = 0.3977 0.0442-0.0442 (  2981 PWs)   bands (ev):

   -14.6690 -14.6690 -14.6664 -14.6664 -14.6324 -14.6324 -14.5451 -14.5451
   -14.5031 -14.5031 -14.4606 -14.4606 -14.3876 -14.3876 -14.3337 -14.3337
   -14.3048 -14.3048 -14.3011 -14.3011  -2.2361  -2.2361   2.2471   2.2471
     5.2290   5.2290   5.3164   5.3164   7.9834   7.9834   8.8591   8.8591
    11.6167  11.6167  11.8185  11.8185

     occupation numbers 
     1.0000   1.0000   1.0000   1.0000   1.0000   1.0000   1.0000   1.0000
     1.0000   1.0000   1.0000   1.0000   1.0000   1.0000   1.0000   1.0000
     1.0000   1.0000   1.0000   1.0000   1.0000   1.0000   1.0000   1.0000
     1.0000   1.0000   1.0000   1.0000   0.0000   0.0000   0.0000   0.0000
     0.0000   0.0000   0.0000   0.0000

          k = 0.4419 0.0884-0.0884 (  2986 PWs)   bands (ev):

   -14.6778 -14.6778 -14.6703 -14.6703 -14.6191 -14.6191 -14.5349 -14.5349
   -14.4931 -14.4931 -14.4704 -14.4704 -14.3981 -14.3981 -14.3489 -14.3489
   -14.2989 -14.2989 -14.2903 -14.2903  -1.9721  -1.9721   1.7342   1.7342
     4.8920   4.8920   5.2104   5.2104   8.1296   8.1296   8.9930   8.9930
    11.4864  11.4864  11.9827  11.9827

     occupation numbers 
     1.0000   1.0000   1.0000   1.0000   1.0000   1.0000   1.0000   1.0000
     1.0000   1.0000   1.0000   1.0000   1.0000   1.0000   1.0000   1.0000
     1.0000   1.0000   1.0000   1.0000   1.0000   1.0000   1.0000   1.0000
     1.0000   1.0000   1.0000   1.0000   0.0000   0.0000   0.0000   0.0000
     0.0000   0.0000   0.0000   0.0000

          k = 0.4861 0.1326-0.1326 (  2990 PWs)   bands (ev):

   -14.6859 -14.6859 -14.6738 -14.6738 -14.6040 -14.6040 -14.5247 -14.5247
   -14.4895 -14.4895 -14.4731 -14.4731 -14.4091 -14.4091 -14.3654 -14.3654
   -14.2938 -14.2938 -14.2809 -14.2809  -1.6751  -1.6751   1.2338   1.2338
     4.5535   4.5535   5.1677   5.1677   8.1721   8.1721   9.4530   9.4530
    11.3607  11.3607  11.9731  11.9731

     occupation numbers 
     1.0000   1.0000   1.0000   1.0000   1.0000   1.0000   1.0000   1.0000
     1.0000   1.0000   1.0000   1.0000   1.0000   1.0000   1.0000   1.0000
     1.0000   1.0000   1.0000   1.0000   1.0000   1.0000   1.0000   1.0000
     1.0000   1.0000   1.0000   1.0000   0.0000   0.0000   0.0000   0.0000
     0.0000   0.0000   0.0000   0.0000

          k =-0.1768-0.5303 0.5303 (  3004 PWs)   bands (ev):

   -14.6921 -14.6921 -14.6765 -14.6765 -14.5903 -14.5903 -14.5152 -14.5152
   -14.4920 -14.4920 -14.4692 -14.4692 -14.4198 -14.4198 -14.3803 -14.3803
   -14.2898 -14.2898 -14.2740 -14.2740  -1.3911  -1.3911   0.8140   0.8140
     4.2707   4.2707   5.1901   5.1901   8.1684   8.1684  10.0732  10.0732
    11.3434  11.3434  11.8487  11.8487

     occupation numbers 
     1.0000   1.0000   1.0000   1.0000   1.0000   1.0000   1.0000   1.0000
     1.0000   1.0000   1.0000   1.0000   1.0000   1.0000   1.0000   1.0000
     1.0000   1.0000   1.0000   1.0000   1.0000   1.0000   1.0000   1.0000
     1.0000   1.0000   1.0000   1.0000   0.0000   0.0000   0.0000   0.0000
[...]

   -14.6927 -14.6927 -14.6822 -14.6822 -14.5779 -14.5779 -14.5156 -14.5156
   -14.4871 -14.4871 -14.4708 -14.4708 -14.4225 -14.4225 -14.3931 -14.3931
   -14.2836 -14.2836 -14.2733 -14.2733  -1.3160  -1.3160   0.7502   0.7502
     4.1571   4.1571   5.0148   5.0148   8.8256   8.8256   9.9113   9.9113
    10.8430  10.8430  12.3835  12.3835

     occupation numbers 
     1.0000   1.0000   1.0000   1.0000   1.0000   1.0000   1.0000   1.0000
     1.0000   1.0000   1.0000   1.0000   1.0000   1.0000   1.0000   1.0000
     1.0000   1.0000   1.0000   1.0000   1.0000   1.0000   1.0000   1.0000
     1.0000   1.0000   1.0000   1.0000   0.0000   0.0000   0.0000   0.0000
     0.0000   0.0000   0.0000   0.0000

          k =-0.1326-0.3977 0.5745 (  2999 PWs)   bands (ev):

   -14.6959 -14.6959 -14.6832 -14.6832 -14.5698 -14.5698 -14.5095 -14.5095
   -14.4889 -14.4889 -14.4665 -14.4665 -14.4321 -14.4321 -14.4006 -14.4006
   -14.2822 -14.2822 -14.2697 -14.2697  -1.1343  -1.1343   0.5165   0.5165
     4.0364   4.0364   4.9976   4.9976   8.8452   8.8452  10.0866  10.0866
    11.3643  11.3643  12.0496  12.0496

     occupation numbers 
     1.0000   1.0000   1.0000   1.0000   1.0000   1.0000   1.0000   1.0000
     1.0000   1.0000   1.0000   1.0000   1.0000   1.0000   1.0000   1.0000
     1.0000   1.0000   1.0000   1.0000   1.0000   1.0000   1.0000   1.0000
     1.0000   1.0000   1.0000   1.0000   0.0000   0.0000   0.0000   0.0000
     0.0000   0.0000   0.0000   0.0000

          k =-0.0884-0.3536 0.5303 (  3004 PWs)   bands (ev):

   -14.6959 -14.6959 -14.6833 -14.6833 -14.5693 -14.5693 -14.5124 -14.5124
   -14.4903 -14.4903 -14.4624 -14.4624 -14.4314 -14.4314 -14.4017 -14.4017
   -14.2821 -14.2821 -14.2700 -14.2700  -1.1888  -1.1888   0.5858   0.5858
     4.0033   4.0033   5.0667   5.0667   8.8905   8.8905  10.0783  10.0783
    11.4281  11.4281  12.0107  12.0107

     occupation numbers 
     1.0000   1.0000   1.0000   1.0000   1.0000   1.0000   1.0000   1.0000
     1.0000   1.0000   1.0000   1.0000   1.0000   1.0000   1.0000   1.0000
     1.0000   1.0000   1.0000   1.0000   1.0000   1.0000   1.0000   1.0000
     1.0000   1.0000   1.0000   1.0000   0.0000   0.0000   0.0000   0.0000
     0.0000   0.0000   0.0000   0.0000

          k =-0.0442-0.3094 0.4861 (  3006 PWs)   bands (ev):

   -14.6925 -14.6925 -14.6823 -14.6823 -14.5762 -14.5762 -14.5229 -14.5229
   -14.4927 -14.4927 -14.4600 -14.4600 -14.4183 -14.4183 -14.3973 -14.3973
   -14.2833 -14.2833 -14.2741 -14.2741  -1.4326  -1.4326   0.9053   0.9053
     4.0746   4.0746   5.2093   5.2093   8.9424   8.9424   9.9626   9.9626
    10.8500  10.8500  12.2374  12.2374

     occupation numbers 
     1.0000   1.0000   1.0000   1.0000   1.0000   1.0000   1.0000   1.0000
     1.0000   1.0000   1.0000   1.0000   1.0000   1.0000   1.0000   1.0000
     1.0000   1.0000   1.0000   1.0000   1.0000   1.0000   1.0000   1.0000
     1.0000   1.0000   1.0000   1.0000   0.0000   0.0000   0.0000   0.0000
     0.0000   0.0000   0.0000   0.0000

          k = 0.0000-0.2652 0.4419 (  3011 PWs)   bands (ev):

   -14.6864 -14.6864 -14.6799 -14.6799 -14.5890 -14.5890 -14.5338 -14.5338
   -14.5002 -14.5002 -14.4539 -14.4539 -14.4035 -14.4035 -14.3866 -14.3866
   -14.2860 -14.2860 -14.2816 -14.2816  -1.7308  -1.7308   1.3246   1.3246
     4.2695   4.2695   5.3997   5.3997   8.9420   8.9420   9.6082   9.6082
    10.6736  10.6736  12.0111  12.0111

     occupation numbers 
     1.0000   1.0000   1.0000   1.0000   1.0000   1.0000   1.0000   1.0000
     1.0000   1.0000   1.0000   1.0000   1.0000   1.0000   1.0000   1.0000
     1.0000   1.0000   1.0000   1.0000   1.0000   1.0000   1.0000   1.0000
     1.0000   1.0000   1.0000   1.0000   0.0000   0.0000   0.0000   0.0000
     0.0000   0.0000   0.0000   0.0000

          k =-0.1768-0.5303 0.7071 (  2992 PWs)   bands (ev):

   -14.6846 -14.6846 -14.6827 -14.6827 -14.5926 -14.5926 -14.5141 -14.5141
   -14.4949 -14.4949 -14.4690 -14.4690 -14.4198 -14.4198 -14.3761 -14.3761
   -14.2832 -14.2832 -14.2819 -14.2819  -1.4393  -1.4393   0.9430   0.9430
     4.4400   4.4400   4.8706   4.8706   8.5869   8.5869   8.9423   8.9423
    11.3617  11.3617  12.9721  12.9721

     occupation numbers 
     1.0000   1.0000   1.0000   1.0000   1.0000   1.0000   1.0000   1.0000
     1.0000   1.0000   1.0000   1.0000   1.0000   1.0000   1.0000   1.0000
     1.0000   1.0000   1.0000   1.0000   1.0000   1.0000   1.0000   1.0000
     1.0000   1.0000   1.0000   1.0000   0.0000   0.0000   0.0000   0.0000
     0.0000   0.0000   0.0000   0.0000

          k =-0.1326-0.4861 0.6629 (  2998 PWs)   bands (ev):

   -14.6914 -14.6914 -14.6851 -14.6851 -14.5753 -14.5753 -14.5040 -14.5040
   -14.4997 -14.4997 -14.4628 -14.4628 -14.4321 -14.4321 -14.3935 -14.3935
   -14.2803 -14.2803 -14.2741 -14.2741  -1.1353  -1.1353   0.5589   0.5589
     4.2102   4.2102   4.7490   4.7490   8.7529   8.7529   9.4171   9.4171
    11.1869  11.1870  12.9252  12.9252

     occupation numbers 
     1.0000   1.0000   1.0000   1.0000   1.0000   1.0000   1.0000   1.0000
     1.0000   1.0000   1.0000   1.0000   1.0000   1.0000   1.0000   1.0000
     1.0000   1.0000   1.0000   1.0000   1.0000   1.0000   1.0000   1.0000
     1.0000   1.0000   1.0000   1.0000   0.0000   0.0000   0.0000   0.0000
     0.0000   0.0000   0.0000   0.0000

          k =-0.0884-0.4419 0.6187 (  3004 PWs)   bands (ev):

   -14.6964 -14.6964 -14.6861 -14.6861 -14.5626 -14.5626 -14.4995 -14.4995
   -14.4920 -14.4920 -14.4649 -14.4649 -14.4434 -14.4434 -14.4053 -14.4053
   -14.2789 -14.2789 -14.2687 -14.2687  -0.8973  -0.8973   0.2832   0.2832
     4.0123   4.0123   4.7396   4.7396   8.8081   8.8081  10.1440  10.1440
    11.0836  11.0836  12.3458  12.3458

     occupation numbers 
     1.0000   1.0000   1.0000   1.0000   1.0000   1.0000   1.0000   1.0000
     1.0000   1.0000   1.0000   1.0000   1.0000   1.0000   1.0000   1.0000
     1.0000   1.0000   1.0000   1.0000   1.0000   1.0000   1.0000   1.0000
     1.0000   1.0000   1.0000   1.0000   0.0000   0.0000   0.0000   0.0000
     0.0000   0.0000   0.0000   0.0000

          k =-0.0442-0.3977 0.5745 (  2994 PWs)   bands (ev):

   -14.6983 -14.6983 -14.6861 -14.6861 -14.5594 -14.5594 -14.4960 -14.4960
   -14.4835 -14.4835 -14.4728 -14.4728 -14.4478 -14.4478 -14.4082 -14.4082
   -14.2788 -14.2788 -14.2668 -14.2668  -0.8994  -0.8994   0.2881   0.2881
     3.8996   3.8996   4.8285   4.8285   8.8852   8.8852  10.6124  10.6124
    11.2996  11.2996  11.6168  11.6168

     occupation numbers 
     1.0000   1.0000   1.0000   1.0000   1.0000   1.0000   1.0000   1.0000
     1.0000   1.0000   1.0000   1.0000   1.0000   1.0000   1.0000   1.0000
     1.0000   1.0000   1.0000   1.0000   1.0000   1.0000   1.0000   1.0000
     1.0000   1.0000   1.0000   1.0000   0.0000   0.0000   0.0000   0.0000
     0.0000   0.0000   0.0000   0.0000

          k = 0.0000-0.3536 0.5303 (  2995 PWs)   bands (ev):

   -14.6969 -14.6969 -14.6849 -14.6849 -14.5646 -14.5646 -14.5081 -14.5081
   -14.4806 -14.4806 -14.4725 -14.4725 -14.4372 -14.4372 -14.4048 -14.4048
   -14.2801 -14.2801 -14.2688 -14.2688  -1.1349  -1.1349   0.5572   0.5572
     3.9120   3.9120   4.9941   4.9941   8.9635   8.9635  10.4706  10.4706
    10.9228  10.9228  12.1019  12.1019

     occupation numbers 
     1.0000   1.0000   1.0000   1.0000   1.0000   1.0000   1.0000   1.0000
     1.0000   1.0000   1.0000   1.0000   1.0000   1.0000   1.0000   1.0000
     1.0000   1.0000   1.0000   1.0000   1.0000   1.0000   1.0000   1.0000
     1.0000   1.0000   1.0000   1.0000   0.0000   0.0000   0.0000   0.0000
     0.0000   0.0000   0.0000   0.0000

          k =-0.0884-0.5303 0.7071 (  2993 PWs)   bands (ev):

   -14.6881 -14.6881 -14.6868 -14.6868 -14.5734 -14.5734 -14.5236 -14.5236
   -14.4911 -14.4911 -14.4427 -14.4427 -14.4423 -14.4423 -14.3945 -14.3945
   -14.2781 -14.2781 -14.2769 -14.2769  -0.9127  -0.9127   0.2914   0.2914
     4.3664   4.3664   4.5805   4.5805   8.5553   8.5553   8.7635   8.7635
    12.0352  12.0352  13.2608  13.2608

     occupation numbers 
     1.0000   1.0000   1.0000   1.0000   1.0000   1.0000   1.0000   1.0000
     1.0000   1.0000   1.0000   1.0000   1.0000   1.0000   1.0000   1.0000
     1.0000   1.0000   1.0000   1.0000   1.0000   1.0000   1.0000   1.0000
     1.0000   1.0000   1.0000   1.0000   0.0000   0.0000   0.0000   0.0000
     0.0000   0.0000   0.0000   0.0000

          k =-0.0442-0.4861 0.6629 (  2992 PWs)   bands (ev):

   -14.6937 -14.6937 -14.6879 -14.6879 -14.5566 -14.5566 -14.5245 -14.5245
   -14.4806 -14.4806 -14.4554 -14.4554 -14.4404 -14.4404 -14.4104 -14.4104
   -14.2767 -14.2767 -14.2710 -14.2710  -0.6290  -0.6290  -0.0087  -0.0087
     4.1564   4.1564   4.5391   4.5391   8.7005   8.7005   9.3648   9.3648
    11.8526  11.8526  12.5628  12.5628

     occupation numbers 
     1.0000   1.0000   1.0000   1.0000   1.0000   1.0000   1.0000   1.0000
     1.0000   1.0000   1.0000   1.0000   1.0000   1.0000   1.0000   1.0000
     1.0000   1.0000   1.0000   1.0000   1.0000   1.0000   1.0000   1.0000
     1.0000   1.0000   1.0000   1.0000   0.0000   0.0000   0.0000   0.0000
     0.0000   0.0000   0.0000   0.0000

          k = 0.0000-0.4419 0.6187 (  2996 PWs)   bands (ev):

   -14.6976 -14.6976 -14.6876 -14.6876 -14.5537 -14.5537 -14.5084 -14.5084
   -14.4796 -14.4796 -14.4596 -14.4596 -14.4537 -14.4537 -14.4128 -14.4128
   -14.2770 -14.2770 -14.2672 -14.2672  -0.6312  -0.6312   0.0027   0.0027
     3.9634   3.9634   4.6438   4.6438   8.7879   8.7879  10.1825  10.1825
    11.6941  11.6942  11.7055  11.7055

     occupation numbers 
     1.0000   1.0000   1.0000   1.0000   1.0000   1.0000   1.0000   1.0000
     1.0000   1.0000   1.0000   1.0000   1.0000   1.0000   1.0000   1.0000
     1.0000   1.0000   1.0000   1.0000   1.0000   1.0000   1.0000   1.0000
     1.0000   1.0000   1.0000   1.0000   0.0000   0.0000   0.0000   0.0000
     0.0000   0.0000   0.0000   0.0000

          k =-0.7071 0.1768 0.0000 (  2986 PWs)   bands (ev):

   -14.6887 -14.6887 -14.6887 -14.6887 -14.5501 -14.5501 -14.5501 -14.5501
   -14.4669 -14.4669 -14.4669 -14.4669 -14.4170 -14.4170 -14.4170 -14.4170
   -14.2757 -14.2757 -14.2757 -14.2757  -0.3316  -0.3316  -0.3316  -0.3316
     4.4121   4.4121   4.4121   4.4121   8.6185   8.6185   8.6186   8.6186
    12.7574  12.7574  12.7574  12.7574

     occupation numbers 
     1.0000   1.0000   1.0000   1.0000   1.0000   1.0000   1.0000   1.0000
     1.0000   1.0000   1.0000   1.0000   1.0000   1.0000   1.0000   1.0000
     1.0000   1.0000   1.0000   1.0000   1.0000   1.0000   1.0000   1.0000
     1.0000   1.0000   1.0000   1.0000   0.0000   0.0000   0.0000   0.0000
     0.0000   0.0000   0.0000   0.0000

          k =-0.1768-0.4419 0.7071 (  3000 PWs)   bands (ev):

   -14.6915 -14.6915 -14.6852 -14.6852 -14.5746 -14.5746 -14.5145 -14.5145
   -14.4813 -14.4813 -14.4772 -14.4772 -14.4237 -14.4237 -14.3959 -14.3959
   -14.2802 -14.2802 -14.2747 -14.2747  -1.3056  -1.3056   0.7701   0.7701
     4.1313   4.1313   4.9068   4.9068   9.3414   9.3414   9.4717   9.4717
    10.6272  10.6272  12.7014  12.7014

     occupation numbers 
     1.0000   1.0000   1.0000   1.0000   1.0000   1.0000   1.0000   1.0000
     1.0000   1.0000   1.0000   1.0000   1.0000   1.0000   1.0000   1.0000
     1.0000   1.0000   1.0000   1.0000   1.0000   1.0000   1.0000   1.0000
     1.0000   1.0000   1.0000   1.0000   0.0000   0.0000   0.0000   0.0000
     0.0000   0.0000   0.0000   0.0000

          k =-0.1326-0.3977 0.6629 (  3005 PWs)   bands (ev):

   -14.6958 -14.6958 -14.6873 -14.6873 -14.5610 -14.5610 -14.5039 -14.5039
   -14.4863 -14.4863 -14.4709 -14.4709 -14.4380 -14.4380 -14.4074 -14.4074
   -14.2778 -14.2778 -14.2696 -14.2696  -1.0220  -1.0220   0.4311   0.4311
     4.0039   4.0039   4.7514   4.7514   9.3667   9.3667   9.9647   9.9647
    10.7386  10.7386  12.2319  12.2319

     occupation numbers 
     1.0000   1.0000   1.0000   1.0000   1.0000   1.0000   1.0000   1.0000
     1.0000   1.0000   1.0000   1.0000   1.0000   1.0000   1.0000   1.0000
     1.0000   1.0000   1.0000   1.0000   1.0000   1.0000   1.0000   1.0000
     1.0000   1.0000   1.0000   1.0000   0.0000   0.0000   0.0000   0.0000
     0.0000   0.0000   0.0000   0.0000

          k =-0.0884-0.3536 0.6187 (  3014 PWs)   bands (ev):

   -14.6974 -14.6974 -14.6879 -14.6879 -14.5557 -14.5557 -14.5000 -14.5000
   -14.4842 -14.4842 -14.4716 -14.4716 -14.4446 -14.4446 -14.4116 -14.4116
   -14.2771 -14.2771 -14.2677 -14.2677  -0.8840  -0.8840   0.2736   0.2736
     3.9635   3.9635   4.6945   4.6945   9.3664   9.3664  10.0888  10.0888
    11.2612  11.2612  11.5520  11.5520

     occupation numbers 
     1.0000   1.0000   1.0000   1.0000   1.0000   1.0000   1.0000   1.0000
     1.0000   1.0000   1.0000   1.0000   1.0000   1.0000   1.0000   1.0000
     1.0000   1.0000   1.0000   1.0000   1.0000   1.0000   1.0000   1.0000
     1.0000   1.0000   1.0000   1.0000   0.0000   0.0000   0.0000   0.0000
     0.0000   0.0000   0.0000   0.0000

          k =-0.0884-0.4419 0.7071 (  2996 PWs)   bands (ev):

   -14.6938 -14.6938 -14.6900 -14.6900 -14.5561 -14.5561 -14.5084 -14.5084
   -14.4926 -14.4926 -14.4535 -14.4535 -14.4461 -14.4461 -14.4110 -14.4110
   -14.2749 -14.2749 -14.2712 -14.2712  -0.8293  -0.8293   0.2212   0.2212
     4.1215   4.1215   4.5130   4.5130   9.4131   9.4131   9.4561   9.4561
    11.0076  11.0076  12.4003  12.4003

     occupation numbers 
     1.0000   1.0000   1.0000   1.0000   1.0000   1.0000   1.0000   1.0000
     1.0000   1.0000   1.0000   1.0000   1.0000   1.0000   1.0000   1.0000
     1.0000   1.0000   1.0000   1.0000   1.0000   1.0000   1.0000   1.0000
     1.0000   1.0000   1.0000   1.0000   0.0000   0.0000   0.0000   0.0000
     0.0000   0.0000   0.0000   0.0000

          k =-0.0442-0.3977 0.6629 (  3005 PWs)   bands (ev):

   -14.6965 -14.6965 -14.6913 -14.6913 -14.5437 -14.5437 -14.5100 -14.5100
   -14.4835 -14.4835 -14.4593 -14.4593 -14.4499 -14.4499 -14.4214 -14.4214
   -14.2735 -14.2735 -14.2683 -14.2683  -0.6094  -0.6094  -0.0082  -0.0082
     4.0400   4.0400   4.4328   4.4328   9.4933   9.4933  10.1644  10.1644
    10.9271  10.9271  11.5427  11.5427

     occupation numbers 
     1.0000   1.0000   1.0000   1.0000   1.0000   1.0000   1.0000   1.0000
     1.0000   1.0000   1.0000   1.0000   1.0000   1.0000   1.0000   1.0000
     1.0000   1.0000   1.0000   1.0000   1.0000   1.0000   1.0000   1.0000
     1.0000   1.0000   1.0000   1.0000   0.0000   0.0000   0.0000   0.0000
     0.0000   0.0000   0.0000   0.0000

          k =-0.0000-0.3536 0.6187 (  3003 PWs)   bands (ev):

   -14.6973 -14.6973 -14.6902 -14.6902 -14.5475 -14.5475 -14.4998 -14.4998
   -14.4898 -14.4898 -14.4586 -14.4586 -14.4541 -14.4541 -14.4180 -14.4180
   -14.2745 -14.2745 -14.2676 -14.2676  -0.7313  -0.7313   0.1218   0.1218
     3.9746   3.9746   4.5368   4.5368   9.5441   9.5441  10.3456  10.3456
    10.8163  10.8163  11.4471  11.4471

     occupation numbers 
     1.0000   1.0000   1.0000   1.0000   1.0000   1.0000   1.0000   1.0000
     1.0000   1.0000   1.0000   1.0000   1.0000   1.0000   1.0000   1.0000
     1.0000   1.0000   1.0000   1.0000   1.0000   1.0000   1.0000   1.0000
     1.0000   1.0000   1.0000   1.0000   0.0000   0.0000   0.0000   0.0000
     0.0000   0.0000   0.0000   0.0000

          k =-0.7071 0.2652 0.0000 (  3004 PWs)   bands (ev):

   -14.6932 -14.6932 -14.6932 -14.6932 -14.5337 -14.5337 -14.5337 -14.5337
   -14.4695 -14.4695 -14.4694 -14.4694 -14.4308 -14.4308 -14.4308 -14.4308
   -14.2715 -14.2715 -14.2715 -14.2715  -0.3158  -0.3158  -0.3158  -0.3158
     4.2481   4.2481   4.2481   4.2481   9.4241   9.4241   9.4242   9.4242
    11.6765  11.6765  11.6765  11.6765

     occupation numbers 
     1.0000   1.0000   1.0000   1.0000   1.0000   1.0000   1.0000   1.0000
     1.0000   1.0000   1.0000   1.0000   1.0000   1.0000   1.0000   1.0000
     1.0000   1.0000   1.0000   1.0000   1.0000   1.0000   1.0000   1.0000
     1.0000   1.0000   1.0000   1.0000   0.0000   0.0000   0.0000   0.0000
     0.0000   0.0000   0.0000   0.0000

          k =-0.7071 0.3536 0.0000 (  2996 PWs)   bands (ev):

   -14.6948 -14.6948 -14.6948 -14.6948 -14.5254 -14.5254 -14.5254 -14.5254
   -14.4718 -14.4718 -14.4717 -14.4717 -14.4368 -14.4368 -14.4368 -14.4368
   -14.2698 -14.2698 -14.2698 -14.2698  -0.3091  -0.3091  -0.3091  -0.3091
     4.1859   4.1859   4.1859   4.1859  10.0898  10.0898  10.0898  10.0898
    10.9142  10.9142  10.9142  10.9142

     occupation numbers 
     1.0000   1.0000   1.0000   1.0000   1.0000   1.0000   1.0000   1.0000
     1.0000   1.0000   1.0000   1.0000   1.0000   1.0000   1.0000   1.0000
     1.0000   1.0000   1.0000   1.0000   1.0000   1.0000   1.0000   1.0000
     1.0000   1.0000   1.0000   1.0000   0.0000   0.0000   0.0000   0.0000
     0.0000   0.0000   0.0000   0.0000

     the Fermi energy is     6.9120 ev

!    total energy              =    -326.04366964 Ry
     Harris-Foulkes estimate   =    -326.04366949 Ry
     estimated scf accuracy    <       0.00000012 Ry

     The total energy is the sum of the following terms:

     one-electron contribution =    -157.87778167 Ry
     hartree contribution      =      95.58603391 Ry
     xc contribution           =     -96.22212637 Ry
     ewald contribution        =    -167.52979536 Ry
     smearing contrib. (-TS)   =      -0.00000015 Ry

     convergence has been achieved in   5 iterations

     Writing output data file Sn.save
 
     init_run     :      5.64s CPU      6.27s WALL (       1 calls)
     electrons    :    116.10s CPU    120.30s WALL (       1 calls)

     Called by init_run:
     wfcinit      :      5.42s CPU      5.70s WALL (       1 calls)
     potinit      :      0.02s CPU      0.04s WALL (       1 calls)

     Called by electrons:
     c_bands      :     99.51s CPU    103.17s WALL (       6 calls)
     sum_band     :     16.45s CPU     16.93s WALL (       6 calls)
     v_of_rho     :      0.05s CPU      0.06s WALL (       6 calls)
     v_h          :      0.00s CPU      0.00s WALL (       6 calls)
     v_xc         :      0.05s CPU      0.05s WALL (       6 calls)
     newd         :      0.05s CPU      0.09s WALL (       6 calls)
     mix_rho      :      0.02s CPU      0.03s WALL (       6 calls)

     Called by c_bands:
     init_us_2    :      0.18s CPU      0.23s WALL (    1885 calls)
     cegterg      :     97.75s CPU    101.16s WALL (     870 calls)

     Called by sum_band:
     sum_band:bec :      0.11s CPU      0.11s WALL (     870 calls)
     addusdens    :      0.06s CPU      0.07s WALL (       6 calls)

     Called by *egterg:
     h_psi        :     77.45s CPU     79.59s WALL (    3097 calls)
     s_psi        :      1.34s CPU      1.36s WALL (    3097 calls)
     g_psi        :      0.25s CPU      0.25s WALL (    2082 calls)
     cdiaghg      :     11.38s CPU     11.65s WALL (    2807 calls)
     cegterg:over :      4.96s CPU      5.00s WALL (    2082 calls)
     cegterg:upda :      2.03s CPU      2.04s WALL (    2082 calls)
     cegterg:last :      1.13s CPU      1.14s WALL (     870 calls)

     Called by h_psi:
     h_psi:vloc   :     73.29s CPU     75.32s WALL (    3097 calls)
     h_psi:vnl    :      3.96s CPU      4.03s WALL (    3097 calls)
     add_vuspsi   :      1.46s CPU      1.47s WALL (    3097 calls)

     General routines
     calbec       :      3.28s CPU      3.36s WALL (    3967 calls)
     fft          :      0.08s CPU      0.14s WALL (     116 calls)
     fftw         :     82.12s CPU     84.38s WALL (  393004 calls)
     davcio       :      0.02s CPU      0.36s WALL (     145 calls)
 
     Parallel routines
     fft_scatter  :     46.90s CPU     48.45s WALL (  393120 calls)
 
     PWSCF        :  2m 2.62s CPU     2m 8.31s WALL

 
   This run was terminated on:  19:59: 2  15Mar2020            

=------------------------------------------------------------------------------=
   JOB DONE.
=------------------------------------------------------------------------------=
