
     Program PWSCF v.5.4.0 starts on  9Mar2020 at  5:19:25 

     This program is part of the open-source Quantum ESPRESSO suite
     for quantum simulation of materials; please cite
         "P. Giannozzi et al., J. Phys.:Condens. Matter 21 395502 (2009);
          URL http://www.quantum-espresso.org", 
     in publications or presentations arising from this work. More details at
     http://www.quantum-espresso.org/quote

     Parallel version (MPI & OpenMP), running on      16 processor cores
     Number of MPI processes:                16
     Threads/MPI process:                     1
     R & G space division:  proc/nbgrp/npool/nimage =      16
     Waiting for input...
     Reading input from standard input
Warning: card &IONS ignored
Warning: card / ignored
Warning: card &CELL ignored
Warning: card / ignored

     Current dimensions of program PWSCF are:
     Max number of different atomic species (ntypx) = 10
     Max number of k-points (npk) =  40000
     Max angular momentum in pseudopotentials (lmaxx) =  3
               file Sn.rel-pbe-dn-kjpaw_psl.1.0.0.UPF: wavefunction(s)  5S 5P 5P 4D 4D renormalized

     Subspace diagonalization in iterative solution of the eigenvalue problem:
     a serial algorithm will be used

 
     Parallelization info
     --------------------
     sticks:   dense  smooth     PW     G-vecs:    dense   smooth      PW
     Min          98      98     28                 2586     2586     401
     Max          99      99     29                 2588     2588     404
     Sum        1573    1573    451                41391    41391    6423
 

     Title: 
     Sn                                                                         


     bravais-lattice index     =            0
     lattice parameter (alat)  =       8.6855  a.u.
     unit-cell volume          =     463.3153 (a.u.)^3
     number of atoms/cell      =            2
     number of atomic types    =            1
     number of electrons       =        28.00
     number of Kohn-Sham states=           36
     kinetic-energy cutoff     =      76.0000  Ry
     charge density cutoff     =     304.0000  Ry
     convergence threshold     =      1.0E-06
     mixing beta               =       0.7000
     number of iterations used =            8  plain     mixing
     Exchange-correlation      =  SLA  PW   PBX  PBC ( 1  4  3  4 0 0)
     Non magnetic calculation with spin-orbit


     celldm(1)=   8.685548  celldm(2)=   0.000000  celldm(3)=   0.000000
     celldm(4)=   0.000000  celldm(5)=   0.000000  celldm(6)=   0.000000

     crystal axes: (cart. coord. in units of alat)
               a(1) = (   0.000000   0.707107   0.707107 )  
               a(2) = (   0.707107   0.000000   0.707107 )  
               a(3) = (   0.707107   0.707107   0.000000 )  

     reciprocal axes: (cart. coord. in units 2 pi/alat)
               b(1) = ( -0.707107  0.707107  0.707107 )  
               b(2) = (  0.707107 -0.707107  0.707107 )  
               b(3) = (  0.707107  0.707107 -0.707107 )  


     PseudoPot. # 1 for Sn read from file:
     ../PseudopotentialDatabase/Sn.rel-pbe-dn-kjpaw_psl.1.0.0.UPF
     MD5 check sum: 6bcaba2b82cf8d008985ef5bb9854e68
     Pseudo is Projector augmented-wave + core cor, Zval = 14.0
     Generated using "atomic" code by A. Dal Corso  v.6.3
     Shape of augmentation charge: PSQ
     Using radial grid of 1243 points, 10 beta functions with: 
                l(1) =   0
                l(2) =   0
                l(3) =   1
                l(4) =   1
                l(5) =   1
                l(6) =   1
                l(7) =   2
                l(8) =   2
                l(9) =   2
               l(10) =   2
     Q(r) pseudized with 0 coefficients 


     atomic species   valence    mass     pseudopotential
        Sn            14.00   118.71000     Sn( 1.00)

     24 Sym. Ops. (no inversion) found
          (note: 24 additional sym.ops. were found but ignored
           their fractional translations are incommensurate with FFT grid)

                                    s                        frac. trans.

      isym =  1     identity                                     

 cryst.   s( 1) = (     1          0          0      )
                  (     0          1          0      )
                  (     0          0          1      )

 cart.    s( 1) = (  1.0000000  0.0000000  0.0000000 )
                  (  0.0000000  1.0000000  0.0000000 )
                  (  0.0000000  0.0000000  1.0000000 )


      isym =  2     180 deg rotation - cart. axis [0,0,1]        

 cryst.   s( 2) = (     0          1         -1      )
                  (     1          0         -1      )
                  (     0          0         -1      )

 cart.    s( 2) = ( -1.0000000  0.0000000  0.0000000 )
                  (  0.0000000 -1.0000000  0.0000000 )
                  (  0.0000000  0.0000000  1.0000000 )


      isym =  3     180 deg rotation - cart. axis [0,1,0]        

 cryst.   s( 3) = (     0         -1          1      )
                  (     0         -1          0      )
                  (     1         -1          0      )

 cart.    s( 3) = ( -1.0000000  0.0000000  0.0000000 )
                  (  0.0000000  1.0000000  0.0000000 )
                  (  0.0000000  0.0000000 -1.0000000 )


      isym =  4     180 deg rotation - cart. axis [1,0,0]        

 cryst.   s( 4) = (    -1          0          0      )
                  (    -1          0          1      )
                  (    -1          1          0      )

 cart.    s( 4) = (  1.0000000  0.0000000  0.0000000 )
                  (  0.0000000 -1.0000000  0.0000000 )
                  (  0.0000000  0.0000000 -1.0000000 )


      isym =  5     120 deg rotation - cart. axis [-1,-1,-1]     

 cryst.   s( 5) = (     0          0          1      )
                  (     1          0          0      )
                  (     0          1          0      )

 cart.    s( 5) = (  0.0000000  1.0000000  0.0000000 )
                  (  0.0000000  0.0000000  1.0000000 )
                  (  1.0000000  0.0000000  0.0000000 )


      isym =  6     120 deg rotation - cart. axis [-1,1,1]       

 cryst.   s( 6) = (     1         -1          0      )
                  (     0         -1          1      )
                  (     0         -1          0      )

 cart.    s( 6) = (  0.0000000 -1.0000000  0.0000000 )
                  (  0.0000000  0.0000000  1.0000000 )
                  ( -1.0000000  0.0000000  0.0000000 )


      isym =  7     120 deg rotation - cart. axis [1,1,-1]       

 cryst.   s( 7) = (    -1          1          0      )
                  (    -1          0          0      )
                  (    -1          0          1      )

 cart.    s( 7) = (  0.0000000  1.0000000  0.0000000 )
                  (  0.0000000  0.0000000 -1.0000000 )
                  ( -1.0000000  0.0000000  0.0000000 )


      isym =  8     120 deg rotation - cart. axis [1,-1,1]       

 cryst.   s( 8) = (     0          0         -1      )
                  (     0          1         -1      )
                  (     1          0         -1      )

 cart.    s( 8) = (  0.0000000 -1.0000000  0.0000000 )
                  (  0.0000000  0.0000000 -1.0000000 )
                  (  1.0000000  0.0000000  0.0000000 )


      isym =  9     120 deg rotation - cart. axis [1,1,1]        

 cryst.   s( 9) = (     0          1          0      )
                  (     0          0          1      )
                  (     1          0          0      )

 cart.    s( 9) = (  0.0000000  0.0000000  1.0000000 )
                  (  1.0000000  0.0000000  0.0000000 )
                  (  0.0000000  1.0000000  0.0000000 )


      isym = 10     120 deg rotation - cart. axis [-1,1,-1]      

 cryst.   s(10) = (    -1          0          1      )
                  (    -1          1          0      )
                  (    -1          0          0      )

 cart.    s(10) = (  0.0000000  0.0000000  1.0000000 )
                  ( -1.0000000  0.0000000  0.0000000 )
                  (  0.0000000 -1.0000000  0.0000000 )


      isym = 11     120 deg rotation - cart. axis [1,-1,-1]      

 cryst.   s(11) = (     1          0         -1      )
                  (     0          0         -1      )
                  (     0          1         -1      )

 cart.    s(11) = (  0.0000000  0.0000000 -1.0000000 )
                  ( -1.0000000  0.0000000  0.0000000 )
                  (  0.0000000  1.0000000  0.0000000 )


      isym = 12     120 deg rotation - cart. axis [-1,-1,1]      

 cryst.   s(12) = (     0         -1          0      )
                  (     1         -1          0      )
                  (     0         -1          1      )

 cart.    s(12) = (  0.0000000  0.0000000 -1.0000000 )
                  (  1.0000000  0.0000000  0.0000000 )
                  (  0.0000000 -1.0000000  0.0000000 )


      isym = 13     inv. 180 deg rotation - cart. axis [1,1,0]   

 cryst.   s(13) = (     1          0         -1      )
                  (     0          1         -1      )
                  (     0          0         -1      )

 cart.    s(13) = (  0.0000000 -1.0000000  0.0000000 )
                  ( -1.0000000  0.0000000  0.0000000 )
                  (  0.0000000  0.0000000  1.0000000 )


      isym = 14     inv. 180 deg rotation - cart. axis [1,-1,0]  

 cryst.   s(14) = (     0          1          0      )
                  (     1          0          0      )
                  (     0          0          1      )

 cart.    s(14) = (  0.0000000  1.0000000  0.0000000 )
                  (  1.0000000  0.0000000  0.0000000 )
                  (  0.0000000  0.0000000  1.0000000 )


      isym = 15     inv.  90 deg rotation - cart. axis [0,0,-1]  

 cryst.   s(15) = (     0         -1          0      )
                  (     0         -1          1      )
                  (     1         -1          0      )

 cart.    s(15) = (  0.0000000 -1.0000000  0.0000000 )
                  (  1.0000000  0.0000000  0.0000000 )
                  (  0.0000000  0.0000000 -1.0000000 )


      isym = 16     inv.  90 deg rotation - cart. axis [0,0,1]   

 cryst.   s(16) = (    -1          0          1      )
                  (    -1          0          0      )
                  (    -1          1          0      )

 cart.    s(16) = (  0.0000000  1.0000000  0.0000000 )
                  ( -1.0000000  0.0000000  0.0000000 )
                  (  0.0000000  0.0000000 -1.0000000 )


      isym = 17     inv. 180 deg rotation - cart. axis [1,0,1]   

 cryst.   s(17) = (     1         -1          0      )
                  (     0         -1          0      )
                  (     0         -1          1      )

 cart.    s(17) = (  0.0000000  0.0000000 -1.0000000 )
                  (  0.0000000  1.0000000  0.0000000 )
                  ( -1.0000000  0.0000000  0.0000000 )


      isym = 18     inv. 180 deg rotation - cart. axis [-1,0,1]  

 cryst.   s(18) = (     0          0          1      )
                  (     0          1          0      )
                  (     1          0          0      )

 cart.    s(18) = (  0.0000000  0.0000000  1.0000000 )
                  (  0.0000000  1.0000000  0.0000000 )
                  (  1.0000000  0.0000000  0.0000000 )


      isym = 19     inv.  90 deg rotation - cart. axis [0,1,0]   

 cryst.   s(19) = (     0          0         -1      )
                  (     1          0         -1      )
                  (     0          1         -1      )

 cart.    s(19) = (  0.0000000  0.0000000 -1.0000000 )
                  (  0.0000000 -1.0000000  0.0000000 )
                  (  1.0000000  0.0000000  0.0000000 )


      isym = 20     inv.  90 deg rotation - cart. axis [0,-1,0]  

 cryst.   s(20) = (    -1          1          0      )
                  (    -1          0          1      )
                  (    -1          0          0      )

 cart.    s(20) = (  0.0000000  0.0000000  1.0000000 )
                  (  0.0000000 -1.0000000  0.0000000 )
                  ( -1.0000000  0.0000000  0.0000000 )


      isym = 21     inv. 180 deg rotation - cart. axis [0,1,1]   

 cryst.   s(21) = (    -1          0          0      )
                  (    -1          1          0      )
                  (    -1          0          1      )

 cart.    s(21) = (  1.0000000  0.0000000  0.0000000 )
                  (  0.0000000  0.0000000 -1.0000000 )
                  (  0.0000000 -1.0000000  0.0000000 )


      isym = 22     inv. 180 deg rotation - cart. axis [0,1,-1]  

 cryst.   s(22) = (     1          0          0      )
                  (     0          0          1      )
                  (     0          1          0      )

 cart.    s(22) = (  1.0000000  0.0000000  0.0000000 )
                  (  0.0000000  0.0000000  1.0000000 )
                  (  0.0000000  1.0000000  0.0000000 )


      isym = 23     inv.  90 deg rotation - cart. axis [-1,0,0]  

 cryst.   s(23) = (     0          1         -1      )
                  (     0          0         -1      )
                  (     1          0         -1      )

 cart.    s(23) = ( -1.0000000  0.0000000  0.0000000 )
                  (  0.0000000  0.0000000 -1.0000000 )
                  (  0.0000000  1.0000000  0.0000000 )


      isym = 24     inv.  90 deg rotation - cart. axis [1,0,0]   

 cryst.   s(24) = (     0         -1          1      )
                  (     1         -1          0      )
                  (     0         -1          0      )

 cart.    s(24) = ( -1.0000000  0.0000000  0.0000000 )
                  (  0.0000000  0.0000000  1.0000000 )
                  (  0.0000000 -1.0000000  0.0000000 )


   Cartesian axes

     site n.     atom                  positions (alat units)
         1           Sn  tau(   1) = (   0.0000000   0.0000000   0.0000000  )
         2           Sn  tau(   2) = (   0.3535534   0.3535534   0.3535534  )

   Crystallographic axes

     site n.     atom                  positions (cryst. coord.)
         1           Sn  tau(   1) = (  0.0000000  0.0000000  0.0000000  )
         2           Sn  tau(   2) = (  0.2500000  0.2500000  0.2500000  )

     number of k points=   145  gaussian smearing, width (Ry)=  0.0001
                       cart. coord. in units 2pi/alat
        k(    1) = (   0.0000000   0.0000000   0.0000000), wk =   0.0002441
        k(    2) = (   0.0441942   0.0441942  -0.0441942), wk =   0.0019531
        k(    3) = (   0.0883883   0.0883883  -0.0883883), wk =   0.0019531
        k(    4) = (   0.1325825   0.1325825  -0.1325825), wk =   0.0019531
        k(    5) = (   0.1767767   0.1767767  -0.1767767), wk =   0.0019531
        k(    6) = (   0.2209709   0.2209709  -0.2209709), wk =   0.0019531
        k(    7) = (   0.2651650   0.2651650  -0.2651650), wk =   0.0019531
        k(    8) = (   0.3093592   0.3093592  -0.3093592), wk =   0.0019531
        k(    9) = (  -0.3535534  -0.3535534   0.3535534), wk =   0.0009766
        k(   10) = (   0.0883883   0.0000000   0.0000000), wk =   0.0014648
        k(   11) = (   0.1325825   0.0441942  -0.0441942), wk =   0.0058594
        k(   12) = (   0.1767767   0.0883883  -0.0883883), wk =   0.0058594
        k(   13) = (   0.2209709   0.1325825  -0.1325825), wk =   0.0058594
        k(   14) = (   0.2651650   0.1767767  -0.1767767), wk =   0.0058594
        k(   15) = (   0.3093592   0.2209709  -0.2209709), wk =   0.0058594
        k(   16) = (   0.3535534   0.2651650  -0.2651650), wk =   0.0058594
        k(   17) = (  -0.3093592  -0.3977476   0.3977476), wk =   0.0058594
        k(   18) = (  -0.2651650  -0.3535534   0.3535534), wk =   0.0058594
        k(   19) = (  -0.2209709  -0.3093592   0.3093592), wk =   0.0058594
        k(   20) = (  -0.1767767  -0.2651650   0.2651650), wk =   0.0058594
        k(   21) = (  -0.1325825  -0.2209709   0.2209709), wk =   0.0058594
        k(   22) = (  -0.0883883  -0.1767767   0.1767767), wk =   0.0058594
        k(   23) = (  -0.0441942  -0.1325825   0.1325825), wk =   0.0058594
        k(   24) = (   0.0000000  -0.0883883   0.0883883), wk =   0.0029297
        k(   25) = (   0.1767767   0.0000000   0.0000000), wk =   0.0014648
        k(   26) = (   0.2209709   0.0441942  -0.0441942), wk =   0.0058594
        k(   27) = (   0.2651650   0.0883883  -0.0883883), wk =   0.0058594
        k(   28) = (   0.3093592   0.1325825  -0.1325825), wk =   0.0058594
        k(   29) = (   0.3535534   0.1767767  -0.1767767), wk =   0.0058594
        k(   30) = (   0.3977476   0.2209709  -0.2209709), wk =   0.0058594
        k(   31) = (  -0.2651650  -0.4419417   0.4419417), wk =   0.0058594
        k(   32) = (  -0.2209709  -0.3977476   0.3977476), wk =   0.0058594
        k(   33) = (  -0.1767767  -0.3535534   0.3535534), wk =   0.0058594
        k(   34) = (  -0.1325825  -0.3093592   0.3093592), wk =   0.0058594
        k(   35) = (  -0.0883883  -0.2651650   0.2651650), wk =   0.0058594
        k(   36) = (  -0.0441942  -0.2209709   0.2209709), wk =   0.0058594
        k(   37) = (   0.0000000  -0.1767767   0.1767767), wk =   0.0029297
        k(   38) = (   0.2651650   0.0000000   0.0000000), wk =   0.0014648
        k(   39) = (   0.3093592   0.0441942  -0.0441942), wk =   0.0058594
        k(   40) = (   0.3535534   0.0883883  -0.0883883), wk =   0.0058594
        k(   41) = (   0.3977476   0.1325825  -0.1325825), wk =   0.0058594
        k(   42) = (   0.4419417   0.1767767  -0.1767767), wk =   0.0058594
        k(   43) = (  -0.2209709  -0.4861359   0.4861359), wk =   0.0058594
        k(   44) = (  -0.1767767  -0.4419417   0.4419417), wk =   0.0058594
        k(   45) = (  -0.1325825  -0.3977476   0.3977476), wk =   0.0058594
        k(   46) = (  -0.0883883  -0.3535534   0.3535534), wk =   0.0058594
        k(   47) = (  -0.0441942  -0.3093592   0.3093592), wk =   0.0058594
        k(   48) = (   0.0000000  -0.2651650   0.2651650), wk =   0.0029297
        k(   49) = (   0.3535534   0.0000000   0.0000000), wk =   0.0014648
        k(   50) = (   0.3977476   0.0441942  -0.0441942), wk =   0.0058594
        k(   51) = (   0.4419417   0.0883883  -0.0883883), wk =   0.0058594
        k(   52) = (   0.4861359   0.1325825  -0.1325825), wk =   0.0058594
        k(   53) = (  -0.1767767  -0.5303301   0.5303301), wk =   0.0058594
        k(   54) = (  -0.1325825  -0.4861359   0.4861359), wk =   0.0058594
        k(   55) = (  -0.0883883  -0.4419417   0.4419417), wk =   0.0058594
        k(   56) = (  -0.0441942  -0.3977476   0.3977476), wk =   0.0058594
        k(   57) = (   0.0000000  -0.3535534   0.3535534), wk =   0.0029297
        k(   58) = (   0.4419417   0.0000000   0.0000000), wk =   0.0014648
        k(   59) = (   0.4861359   0.0441942  -0.0441942), wk =   0.0058594
        k(   60) = (   0.5303301   0.0883883  -0.0883883), wk =   0.0058594
        k(   61) = (  -0.1325825  -0.5745243   0.5745243), wk =   0.0058594
        k(   62) = (  -0.0883883  -0.5303301   0.5303301), wk =   0.0058594
        k(   63) = (  -0.0441942  -0.4861359   0.4861359), wk =   0.0058594
        k(   64) = (   0.0000000  -0.4419417   0.4419417), wk =   0.0029297
        k(   65) = (   0.5303301   0.0000000   0.0000000), wk =   0.0014648
        k(   66) = (   0.5745243   0.0441942  -0.0441942), wk =   0.0058594
        k(   67) = (  -0.0883883  -0.6187184   0.6187184), wk =   0.0058594
        k(   68) = (  -0.0441942  -0.5745243   0.5745243), wk =   0.0058594
        k(   69) = (   0.0000000  -0.5303301   0.5303301), wk =   0.0029297
        k(   70) = (   0.6187184   0.0000000   0.0000000), wk =   0.0014648
        k(   71) = (  -0.0441942  -0.6629126   0.6629126), wk =   0.0058594
        k(   72) = (   0.0000000  -0.6187184   0.6187184), wk =   0.0029297
        k(   73) = (  -0.7071068   0.0000000   0.0000000), wk =   0.0007324
        k(   74) = (   0.1767767   0.0883883   0.0000000), wk =   0.0058594
        k(   75) = (   0.2209709   0.1325825  -0.0441942), wk =   0.0117188
        k(   76) = (   0.2651650   0.1767767  -0.0883883), wk =   0.0117188
        k(   77) = (   0.3093592   0.2209709  -0.1325825), wk =   0.0117188
        k(   78) = (   0.3535534   0.2651650  -0.1767767), wk =   0.0117188
        k(   79) = (  -0.3093592  -0.3977476   0.4861359), wk =   0.0117188
        k(   80) = (  -0.2651650  -0.3535534   0.4419417), wk =   0.0058594
        k(   81) = (   0.2651650   0.0883883   0.0000000), wk =   0.0058594
        k(   82) = (   0.3093592   0.1325825  -0.0441942), wk =   0.0117188
        k(   83) = (   0.3535534   0.1767767  -0.0883883), wk =   0.0117188
        k(   84) = (   0.3977476   0.2209709  -0.1325825), wk =   0.0117188
        k(   85) = (  -0.2651650  -0.4419417   0.5303301), wk =   0.0117188
        k(   86) = (  -0.2209709  -0.3977476   0.4861359), wk =   0.0117188
        k(   87) = (  -0.1767767  -0.3535534   0.4419417), wk =   0.0117188
        k(   88) = (  -0.1325825  -0.3093592   0.3977476), wk =   0.0117188
        k(   89) = (  -0.0883883  -0.2651650   0.3535534), wk =   0.0117188
        k(   90) = (  -0.0441942  -0.2209709   0.3093592), wk =   0.0117188
        k(   91) = (   0.0000000  -0.1767767   0.2651650), wk =   0.0058594
        k(   92) = (   0.3535534   0.0883883   0.0000000), wk =   0.0058594
        k(   93) = (   0.3977476   0.1325825  -0.0441942), wk =   0.0117188
        k(   94) = (   0.4419417   0.1767767  -0.0883883), wk =   0.0117188
        k(   95) = (  -0.2209709  -0.4861359   0.5745243), wk =   0.0117188
        k(   96) = (  -0.1767767  -0.4419417   0.5303301), wk =   0.0117188
        k(   97) = (  -0.1325825  -0.3977476   0.4861359), wk =   0.0117188
        k(   98) = (  -0.0883883  -0.3535534   0.4419417), wk =   0.0117188
        k(   99) = (  -0.0441942  -0.3093592   0.3977476), wk =   0.0117188
        k(  100) = (   0.0000000  -0.2651650   0.3535534), wk =   0.0058594
        k(  101) = (   0.4419417   0.0883883   0.0000000), wk =   0.0058594
        k(  102) = (   0.4861359   0.1325825  -0.0441942), wk =   0.0117188
        k(  103) = (  -0.1767767  -0.5303301   0.6187184), wk =   0.0117188
        k(  104) = (  -0.1325825  -0.4861359   0.5745243), wk =   0.0117188
        k(  105) = (  -0.0883883  -0.4419417   0.5303301), wk =   0.0117188
        k(  106) = (  -0.0441942  -0.3977476   0.4861359), wk =   0.0117188
        k(  107) = (   0.0000000  -0.3535534   0.4419417), wk =   0.0058594
        k(  108) = (   0.5303301   0.0883883   0.0000000), wk =   0.0058594
        k(  109) = (  -0.1325825  -0.5745243   0.6629126), wk =   0.0117188
        k(  110) = (  -0.0883883  -0.5303301   0.6187184), wk =   0.0117188
        k(  111) = (  -0.0441942  -0.4861359   0.5745243), wk =   0.0117188
        k(  112) = (   0.0000000  -0.4419417   0.5303301), wk =   0.0058594
        k(  113) = (  -0.0883883  -0.6187184   0.7071068), wk =   0.0058594
        k(  114) = (  -0.0441942  -0.5745243   0.6629126), wk =   0.0117188
        k(  115) = (  -0.0000000  -0.5303301   0.6187184), wk =   0.0058594
        k(  116) = (  -0.7071068   0.0883883   0.0000000), wk =   0.0029297
        k(  117) = (   0.3535534   0.1767767   0.0000000), wk =   0.0058594
        k(  118) = (   0.3977476   0.2209709  -0.0441942), wk =   0.0117188
        k(  119) = (  -0.2651650  -0.4419417   0.6187184), wk =   0.0117188
        k(  120) = (  -0.2209709  -0.3977476   0.5745243), wk =   0.0117188
        k(  121) = (  -0.1767767  -0.3535534   0.5303301), wk =   0.0058594
        k(  122) = (   0.4419417   0.1767767   0.0000000), wk =   0.0058594
        k(  123) = (  -0.2209709  -0.4861359   0.6629126), wk =   0.0117188
        k(  124) = (  -0.1767767  -0.4419417   0.6187184), wk =   0.0117188
        k(  125) = (  -0.1325825  -0.3977476   0.5745243), wk =   0.0117188
        k(  126) = (  -0.0883883  -0.3535534   0.5303301), wk =   0.0117188
        k(  127) = (  -0.0441942  -0.3093592   0.4861359), wk =   0.0117188
        k(  128) = (   0.0000000  -0.2651650   0.4419417), wk =   0.0058594
        k(  129) = (  -0.1767767  -0.5303301   0.7071068), wk =   0.0058594
        k(  130) = (  -0.1325825  -0.4861359   0.6629126), wk =   0.0117188
        k(  131) = (  -0.0883883  -0.4419417   0.6187184), wk =   0.0117188
        k(  132) = (  -0.0441942  -0.3977476   0.5745243), wk =   0.0117188
        k(  133) = (   0.0000000  -0.3535534   0.5303301), wk =   0.0058594
        k(  134) = (  -0.0883883  -0.5303301   0.7071068), wk =   0.0058594
        k(  135) = (  -0.0441942  -0.4861359   0.6629126), wk =   0.0117188
        k(  136) = (   0.0000000  -0.4419417   0.6187184), wk =   0.0058594
        k(  137) = (  -0.7071068   0.1767767   0.0000000), wk =   0.0029297
        k(  138) = (  -0.1767767  -0.4419417   0.7071068), wk =   0.0058594
        k(  139) = (  -0.1325825  -0.3977476   0.6629126), wk =   0.0117188
        k(  140) = (  -0.0883883  -0.3535534   0.6187184), wk =   0.0058594
        k(  141) = (  -0.0883883  -0.4419417   0.7071068), wk =   0.0058594
        k(  142) = (  -0.0441942  -0.3977476   0.6629126), wk =   0.0117188
        k(  143) = (  -0.0000000  -0.3535534   0.6187184), wk =   0.0058594
        k(  144) = (  -0.7071068   0.2651650   0.0000000), wk =   0.0029297
        k(  145) = (  -0.7071068   0.3535534   0.0000000), wk =   0.0014648

                       cryst. coord.
        k(    1) = (   0.0000000   0.0000000   0.0000000), wk =   0.0002441
        k(    2) = (   0.0000000   0.0000000   0.0625000), wk =   0.0019531
        k(    3) = (   0.0000000   0.0000000   0.1250000), wk =   0.0019531
        k(    4) = (   0.0000000   0.0000000   0.1875000), wk =   0.0019531
        k(    5) = (   0.0000000   0.0000000   0.2500000), wk =   0.0019531
        k(    6) = (   0.0000000   0.0000000   0.3125000), wk =   0.0019531
        k(    7) = (   0.0000000   0.0000000   0.3750000), wk =   0.0019531
        k(    8) = (   0.0000000   0.0000000   0.4375000), wk =   0.0019531
        k(    9) = (   0.0000000   0.0000000  -0.5000000), wk =   0.0009766
        k(   10) = (   0.0000000   0.0625000   0.0625000), wk =   0.0014648
        k(   11) = (   0.0000000   0.0625000   0.1250000), wk =   0.0058594
        k(   12) = (   0.0000000   0.0625000   0.1875000), wk =   0.0058594
        k(   13) = (   0.0000000   0.0625000   0.2500000), wk =   0.0058594
        k(   14) = (   0.0000000   0.0625000   0.3125000), wk =   0.0058594
        k(   15) = (   0.0000000   0.0625000   0.3750000), wk =   0.0058594
        k(   16) = (   0.0000000   0.0625000   0.4375000), wk =   0.0058594
        k(   17) = (   0.0000000   0.0625000  -0.5000000), wk =   0.0058594
        k(   18) = (   0.0000000   0.0625000  -0.4375000), wk =   0.0058594
        k(   19) = (   0.0000000   0.0625000  -0.3750000), wk =   0.0058594
        k(   20) = (   0.0000000   0.0625000  -0.3125000), wk =   0.0058594
        k(   21) = (   0.0000000   0.0625000  -0.2500000), wk =   0.0058594
        k(   22) = (   0.0000000   0.0625000  -0.1875000), wk =   0.0058594
        k(   23) = (   0.0000000   0.0625000  -0.1250000), wk =   0.0058594
        k(   24) = (   0.0000000   0.0625000  -0.0625000), wk =   0.0029297
        k(   25) = (   0.0000000   0.1250000   0.1250000), wk =   0.0014648
        k(   26) = (   0.0000000   0.1250000   0.1875000), wk =   0.0058594
        k(   27) = (   0.0000000   0.1250000   0.2500000), wk =   0.0058594
        k(   28) = (   0.0000000   0.1250000   0.3125000), wk =   0.0058594
        k(   29) = (   0.0000000   0.1250000   0.3750000), wk =   0.0058594
        k(   30) = (   0.0000000   0.1250000   0.4375000), wk =   0.0058594
        k(   31) = (   0.0000000   0.1250000  -0.5000000), wk =   0.0058594
        k(   32) = (   0.0000000   0.1250000  -0.4375000), wk =   0.0058594
        k(   33) = (   0.0000000   0.1250000  -0.3750000), wk =   0.0058594
        k(   34) = (   0.0000000   0.1250000  -0.3125000), wk =   0.0058594
        k(   35) = (   0.0000000   0.1250000  -0.2500000), wk =   0.0058594
        k(   36) = (   0.0000000   0.1250000  -0.1875000), wk =   0.0058594
        k(   37) = (   0.0000000   0.1250000  -0.1250000), wk =   0.0029297
        k(   38) = (   0.0000000   0.1875000   0.1875000), wk =   0.0014648
        k(   39) = (   0.0000000   0.1875000   0.2500000), wk =   0.0058594
        k(   40) = (   0.0000000   0.1875000   0.3125000), wk =   0.0058594
        k(   41) = (   0.0000000   0.1875000   0.3750000), wk =   0.0058594
        k(   42) = (   0.0000000   0.1875000   0.4375000), wk =   0.0058594
        k(   43) = (   0.0000000   0.1875000  -0.5000000), wk =   0.0058594
        k(   44) = (   0.0000000   0.1875000  -0.4375000), wk =   0.0058594
        k(   45) = (   0.0000000   0.1875000  -0.3750000), wk =   0.0058594
        k(   46) = (   0.0000000   0.1875000  -0.3125000), wk =   0.0058594
        k(   47) = (   0.0000000   0.1875000  -0.2500000), wk =   0.0058594
        k(   48) = (   0.0000000   0.1875000  -0.1875000), wk =   0.0029297
        k(   49) = (   0.0000000   0.2500000   0.2500000), wk =   0.0014648
        k(   50) = (   0.0000000   0.2500000   0.3125000), wk =   0.0058594
        k(   51) = (   0.0000000   0.2500000   0.3750000), wk =   0.0058594
        k(   52) = (   0.0000000   0.2500000   0.4375000), wk =   0.0058594
        k(   53) = (   0.0000000   0.2500000  -0.5000000), wk =   0.0058594
        k(   54) = (   0.0000000   0.2500000  -0.4375000), wk =   0.0058594
        k(   55) = (   0.0000000   0.2500000  -0.3750000), wk =   0.0058594
        k(   56) = (   0.0000000   0.2500000  -0.3125000), wk =   0.0058594
        k(   57) = (   0.0000000   0.2500000  -0.2500000), wk =   0.0029297
        k(   58) = (   0.0000000   0.3125000   0.3125000), wk =   0.0014648
        k(   59) = (   0.0000000   0.3125000   0.3750000), wk =   0.0058594
        k(   60) = (   0.0000000   0.3125000   0.4375000), wk =   0.0058594
        k(   61) = (   0.0000000   0.3125000  -0.5000000), wk =   0.0058594
        k(   62) = (   0.0000000   0.3125000  -0.4375000), wk =   0.0058594
        k(   63) = (   0.0000000   0.3125000  -0.3750000), wk =   0.0058594
        k(   64) = (   0.0000000   0.3125000  -0.3125000), wk =   0.0029297
        k(   65) = (   0.0000000   0.3750000   0.3750000), wk =   0.0014648
        k(   66) = (   0.0000000   0.3750000   0.4375000), wk =   0.0058594
        k(   67) = (   0.0000000   0.3750000  -0.5000000), wk =   0.0058594
        k(   68) = (   0.0000000   0.3750000  -0.4375000), wk =   0.0058594
        k(   69) = (   0.0000000   0.3750000  -0.3750000), wk =   0.0029297
        k(   70) = (   0.0000000   0.4375000   0.4375000), wk =   0.0014648
        k(   71) = (   0.0000000   0.4375000  -0.5000000), wk =   0.0058594
        k(   72) = (   0.0000000   0.4375000  -0.4375000), wk =   0.0029297
        k(   73) = (   0.0000000  -0.5000000  -0.5000000), wk =   0.0007324
        k(   74) = (   0.0625000   0.1250000   0.1875000), wk =   0.0058594
        k(   75) = (   0.0625000   0.1250000   0.2500000), wk =   0.0117188
        k(   76) = (   0.0625000   0.1250000   0.3125000), wk =   0.0117188
        k(   77) = (   0.0625000   0.1250000   0.3750000), wk =   0.0117188
        k(   78) = (   0.0625000   0.1250000   0.4375000), wk =   0.0117188
        k(   79) = (   0.0625000   0.1250000  -0.5000000), wk =   0.0117188
        k(   80) = (   0.0625000   0.1250000  -0.4375000), wk =   0.0058594
        k(   81) = (   0.0625000   0.1875000   0.2500000), wk =   0.0058594
        k(   82) = (   0.0625000   0.1875000   0.3125000), wk =   0.0117188
        k(   83) = (   0.0625000   0.1875000   0.3750000), wk =   0.0117188
        k(   84) = (   0.0625000   0.1875000   0.4375000), wk =   0.0117188
        k(   85) = (   0.0625000   0.1875000  -0.5000000), wk =   0.0117188
        k(   86) = (   0.0625000   0.1875000  -0.4375000), wk =   0.0117188
        k(   87) = (   0.0625000   0.1875000  -0.3750000), wk =   0.0117188
        k(   88) = (   0.0625000   0.1875000  -0.3125000), wk =   0.0117188
        k(   89) = (   0.0625000   0.1875000  -0.2500000), wk =   0.0117188
        k(   90) = (   0.0625000   0.1875000  -0.1875000), wk =   0.0117188
        k(   91) = (   0.0625000   0.1875000  -0.1250000), wk =   0.0058594
        k(   92) = (   0.0625000   0.2500000   0.3125000), wk =   0.0058594
        k(   93) = (   0.0625000   0.2500000   0.3750000), wk =   0.0117188
        k(   94) = (   0.0625000   0.2500000   0.4375000), wk =   0.0117188
        k(   95) = (   0.0625000   0.2500000  -0.5000000), wk =   0.0117188
        k(   96) = (   0.0625000   0.2500000  -0.4375000), wk =   0.0117188
        k(   97) = (   0.0625000   0.2500000  -0.3750000), wk =   0.0117188
        k(   98) = (   0.0625000   0.2500000  -0.3125000), wk =   0.0117188
        k(   99) = (   0.0625000   0.2500000  -0.2500000), wk =   0.0117188
        k(  100) = (   0.0625000   0.2500000  -0.1875000), wk =   0.0058594
        k(  101) = (   0.0625000   0.3125000   0.3750000), wk =   0.0058594
        k(  102) = (   0.0625000   0.3125000   0.4375000), wk =   0.0117188
        k(  103) = (   0.0625000   0.3125000  -0.5000000), wk =   0.0117188
        k(  104) = (   0.0625000   0.3125000  -0.4375000), wk =   0.0117188
        k(  105) = (   0.0625000   0.3125000  -0.3750000), wk =   0.0117188
        k(  106) = (   0.0625000   0.3125000  -0.3125000), wk =   0.0117188
        k(  107) = (   0.0625000   0.3125000  -0.2500000), wk =   0.0058594
        k(  108) = (   0.0625000   0.3750000   0.4375000), wk =   0.0058594
        k(  109) = (   0.0625000   0.3750000  -0.5000000), wk =   0.0117188
        k(  110) = (   0.0625000   0.3750000  -0.4375000), wk =   0.0117188
        k(  111) = (   0.0625000   0.3750000  -0.3750000), wk =   0.0117188
        k(  112) = (   0.0625000   0.3750000  -0.3125000), wk =   0.0058594
        k(  113) = (   0.0625000   0.4375000  -0.5000000), wk =   0.0058594
        k(  114) = (   0.0625000   0.4375000  -0.4375000), wk =   0.0117188
        k(  115) = (   0.0625000   0.4375000  -0.3750000), wk =   0.0058594
        k(  116) = (   0.0625000  -0.5000000  -0.4375000), wk =   0.0029297
        k(  117) = (   0.1250000   0.2500000   0.3750000), wk =   0.0058594
        k(  118) = (   0.1250000   0.2500000   0.4375000), wk =   0.0117188
        k(  119) = (   0.1250000   0.2500000  -0.5000000), wk =   0.0117188
        k(  120) = (   0.1250000   0.2500000  -0.4375000), wk =   0.0117188
        k(  121) = (   0.1250000   0.2500000  -0.3750000), wk =   0.0058594
        k(  122) = (   0.1250000   0.3125000   0.4375000), wk =   0.0058594
        k(  123) = (   0.1250000   0.3125000  -0.5000000), wk =   0.0117188
        k(  124) = (   0.1250000   0.3125000  -0.4375000), wk =   0.0117188
        k(  125) = (   0.1250000   0.3125000  -0.3750000), wk =   0.0117188
        k(  126) = (   0.1250000   0.3125000  -0.3125000), wk =   0.0117188
        k(  127) = (   0.1250000   0.3125000  -0.2500000), wk =   0.0117188
        k(  128) = (   0.1250000   0.3125000  -0.1875000), wk =   0.0058594
        k(  129) = (   0.1250000   0.3750000  -0.5000000), wk =   0.0058594
        k(  130) = (   0.1250000   0.3750000  -0.4375000), wk =   0.0117188
        k(  131) = (   0.1250000   0.3750000  -0.3750000), wk =   0.0117188
        k(  132) = (   0.1250000   0.3750000  -0.3125000), wk =   0.0117188
        k(  133) = (   0.1250000   0.3750000  -0.2500000), wk =   0.0058594
        k(  134) = (   0.1250000   0.4375000  -0.4375000), wk =   0.0058594
        k(  135) = (   0.1250000   0.4375000  -0.3750000), wk =   0.0117188
        k(  136) = (   0.1250000   0.4375000  -0.3125000), wk =   0.0058594
        k(  137) = (   0.1250000  -0.5000000  -0.3750000), wk =   0.0029297
        k(  138) = (   0.1875000   0.3750000  -0.4375000), wk =   0.0058594
        k(  139) = (   0.1875000   0.3750000  -0.3750000), wk =   0.0117188
        k(  140) = (   0.1875000   0.3750000  -0.3125000), wk =   0.0058594
        k(  141) = (   0.1875000   0.4375000  -0.3750000), wk =   0.0058594
        k(  142) = (   0.1875000   0.4375000  -0.3125000), wk =   0.0117188
        k(  143) = (   0.1875000   0.4375000  -0.2500000), wk =   0.0058594
        k(  144) = (   0.1875000  -0.5000000  -0.3125000), wk =   0.0029297
        k(  145) = (   0.2500000  -0.5000000  -0.2500000), wk =   0.0014648

     Dense  grid:    41391 G-vectors     FFT dimensions: (  50,  50,  50)

     Largest allocated arrays     est. size (Mb)     dimensions
        Kohn-Sham Wavefunctions         0.37 Mb     (     666,   36)
        NL pseudopotentials             0.35 Mb     (     333,   68)
        Each V/rho on FFT grid          0.15 Mb     (   10000)
        Each G-vector array             0.02 Mb     (    2586)
        G-vector shells                 0.00 Mb     (     375)
     Largest temporary arrays     est. size (Mb)     dimensions
        Auxiliary wavefunctions         1.46 Mb     (     666,  144)
        Each subspace H/S matrix        0.32 Mb     (     144,  144)
        Each <psi_i|beta_j> matrix      0.07 Mb     (      68,   2,   36)
        Arrays for rho mixing           1.22 Mb     (   10000,    8)

     Initial potential from superposition of free atoms

     starting charge   27.99781, renormalised to   28.00000
     Starting wfc are   36 randomized atomic wfcs
     Checking if some PAW data can be deallocated... 

     total cpu time spent up to now is        7.4 secs

     Self-consistent Calculation

     iteration #  1     ecut=    76.00 Ry     beta=0.70
     Davidson diagonalization with overlap
     ethr =  1.00E-02,  avg # of iterations =  3.5

     Threshold (ethr) on eigenvalues was too large:
     Diagonalizing with lowered threshold

     Davidson diagonalization with overlap
     ethr =  6.26E-05,  avg # of iterations =  3.5

     total cpu time spent up to now is       50.9 secs

     total energy              =    -885.87565650 Ry
     Harris-Foulkes estimate   =    -885.87842962 Ry
     estimated scf accuracy    <       0.02084699 Ry

     iteration #  2     ecut=    76.00 Ry     beta=0.70
     Davidson diagonalization with overlap
     ethr =  7.45E-05,  avg # of iterations =  1.0

     total cpu time spent up to now is       67.7 secs

     total energy              =    -885.87668850 Ry
     Harris-Foulkes estimate   =    -885.87680394 Ry
     estimated scf accuracy    <       0.00185471 Ry

     iteration #  3     ecut=    76.00 Ry     beta=0.70
     Davidson diagonalization with overlap
     ethr =  6.62E-06,  avg # of iterations =  2.3

     total cpu time spent up to now is       90.3 secs

     total energy              =    -885.87700226 Ry
     Harris-Foulkes estimate   =    -885.87705792 Ry
     estimated scf accuracy    <       0.00010274 Ry

     iteration #  4     ecut=    76.00 Ry     beta=0.70
     Davidson diagonalization with overlap
     ethr =  3.67E-07,  avg # of iterations =  2.1

     total cpu time spent up to now is      112.6 secs

     total energy              =    -885.87703676 Ry
     Harris-Foulkes estimate   =    -885.87703787 Ry
     estimated scf accuracy    <       0.00000863 Ry

     iteration #  5     ecut=    76.00 Ry     beta=0.70
     Davidson diagonalization with overlap
     ethr =  3.08E-08,  avg # of iterations =  2.0

     total cpu time spent up to now is      132.3 secs

     total energy              =    -885.87703899 Ry
     Harris-Foulkes estimate   =    -885.87703887 Ry
     estimated scf accuracy    <       0.00000113 Ry

     iteration #  6     ecut=    76.00 Ry     beta=0.70
     Davidson diagonalization with overlap
     ethr =  4.04E-09,  avg # of iterations =  2.0

     total cpu time spent up to now is      153.0 secs

     End of self-consistent calculation

          k = 0.0000 0.0000 0.0000 (  5065 PWs)   bands (ev):

   -14.3199 -14.3199 -14.3199 -14.3199 -14.2239 -14.2239 -14.2239 -14.2239
   -13.4145 -13.4145 -13.2049 -13.2049 -13.2049 -13.2049 -13.1531 -13.1531
   -13.1531 -13.1531 -13.0367 -13.0367  -2.7205  -2.7205   7.1915   7.1915
     7.4739   7.4739   8.1512   8.1512   8.1512   8.1512   9.6900   9.6900
    10.1638  10.1638  10.1638  10.1638

     occupation numbers 
     1.0000   1.0000   1.0000   1.0000   1.0000   1.0000   1.0000   1.0000
     1.0000   1.0000   1.0000   1.0000   1.0000   1.0000   1.0000   1.0000
     1.0000   1.0000   1.0000   1.0000   1.0000   1.0000   1.0000   1.0000
     1.0000   1.0000   0.0000   0.0000   0.0000   0.0000   0.0000   0.0000
     0.0000   0.0000   0.0000   0.0000

          k = 0.0442 0.0442-0.0442 (  5107 PWs)   bands (ev):

   -14.3204 -14.3204 -14.3190 -14.3190 -14.2249 -14.2249 -14.2232 -14.2232
   -13.4122 -13.4122 -13.2106 -13.2106 -13.2082 -13.2082 -13.1496 -13.1496
   -13.1485 -13.1485 -13.0378 -13.0378  -2.6828  -2.6828   6.5712   6.5712
     7.5635   7.5635   8.0658   8.0658   8.3267   8.3267   9.8710   9.8710
    10.2669  10.2669  10.2722  10.2722

     occupation numbers 
     1.0000   1.0000   1.0000   1.0000   1.0000   1.0000   1.0000   1.0000
     1.0000   1.0000   1.0000   1.0000   1.0000   1.0000   1.0000   1.0000
     1.0000   1.0000   1.0000   1.0000   1.0000   1.0000   1.0000   1.0000
     1.0000   1.0000   0.0000   0.0000   0.0000   0.0000   0.0000   0.0000
     0.0000   0.0000   0.0000   0.0000

          k = 0.0884 0.0884-0.0884 (  5131 PWs)   bands (ev):

   -14.3218 -14.3218 -14.3163 -14.3163 -14.2276 -14.2276 -14.2213 -14.2213
   -13.4055 -13.4055 -13.2236 -13.2236 -13.2158 -13.2158 -13.1413 -13.1413
   -13.1384 -13.1384 -13.0410 -13.0410  -2.5705  -2.5705   5.6588   5.6588
     7.4061   7.4061   7.8615   7.8615   8.4311   8.4311  10.2174  10.2174
    10.5331  10.5331  10.7189  10.7189

     occupation numbers 
     1.0000   1.0000   1.0000   1.0000   1.0000   1.0000   1.0000   1.0000
     1.0000   1.0000   1.0000   1.0000   1.0000   1.0000   1.0000   1.0000
     1.0000   1.0000   1.0000   1.0000   1.0000   1.0000   1.0000   1.0000
     1.0000   1.0000   1.0000   1.0000   0.0000   0.0000   0.0000   0.0000
     0.0000   0.0000   0.0000   0.0000

          k = 0.1326 0.1326-0.1326 (  5150 PWs)   bands (ev):

   -14.3236 -14.3236 -14.3119 -14.3119 -14.2320 -14.2320 -14.2187 -14.2186
   -13.3952 -13.3952 -13.2394 -13.2394 -13.2247 -13.2247 -13.1313 -13.1313
   -13.1271 -13.1271 -13.0461 -13.0461  -2.3865  -2.3865   4.7190   4.7190
     7.1776   7.1776   7.6197   7.6197   8.3440   8.3440  10.5160  10.5160
    10.8270  10.8270  11.4890  11.4891

     occupation numbers 
     1.0000   1.0000   1.0000   1.0000   1.0000   1.0000   1.0000   1.0000
     1.0000   1.0000   1.0000   1.0000   1.0000   1.0000   1.0000   1.0000
     1.0000   1.0000   1.0000   1.0000   1.0000   1.0000   1.0000   1.0000
     1.0000   1.0000   1.0000   1.0000   0.0000   0.0000   0.0000   0.0000
     0.0000   0.0000   0.0000   0.0000

          k = 0.1768 0.1768-0.1768 (  5183 PWs)   bands (ev):

   -14.3256 -14.3256 -14.3061 -14.3061 -14.2377 -14.2377 -14.2157 -14.2157
   -13.3820 -13.3820 -13.2559 -13.2559 -13.2332 -13.2332 -13.1215 -13.1215
   -13.1165 -13.1165 -13.0525 -13.0525  -2.1370  -2.1370   3.8158   3.8158
     6.9543   6.9543   7.3906   7.3906   8.1922   8.1922  10.7560  10.7560
    11.0541  11.0541  12.3672  12.3673

     occupation numbers 
     1.0000   1.0000   1.0000   1.0000   1.0000   1.0000   1.0000   1.0000
     1.0000   1.0000   1.0000   1.0000   1.0000   1.0000   1.0000   1.0000
     1.0000   1.0000   1.0000   1.0000   1.0000   1.0000   1.0000   1.0000
     1.0000   1.0000   1.0000   1.0000   0.0000   0.0000   0.0000   0.0000
     0.0000   0.0000   0.0000   0.0000

          k = 0.2210 0.2210-0.2210 (  5192 PWs)   bands (ev):

   -14.3274 -14.3274 -14.2993 -14.2993 -14.2443 -14.2443 -14.2129 -14.2129
   -13.3673 -13.3673 -13.2720 -13.2720 -13.2404 -13.2403 -13.1130 -13.1130
   -13.1070 -13.1070 -13.0598 -13.0598  -1.8353  -1.8353   2.9888   2.9888
     6.7652   6.7652   7.1985   7.1985   8.0446   8.0446  10.9010  10.9010
    11.1695  11.1695  13.2608  13.2609

     occupation numbers 
     1.0000   1.0000   1.0000   1.0000   1.0000   1.0000   1.0000   1.0000
     1.0000   1.0000   1.0000   1.0000   1.0000   1.0000   1.0000   1.0000
     1.0000   1.0000   1.0000   1.0000   1.0000   1.0000   1.0000   1.0000
     1.0000   1.0000   1.0000   1.0000   0.0000   0.0000   0.0000   0.0000
     0.0000   0.0000   0.0000   0.0000

          k = 0.2652 0.2652-0.2652 (  5195 PWs)   bands (ev):

   -14.3288 -14.3287 -14.2921 -14.2921 -14.2514 -14.2514 -14.2107 -14.2107
   -13.3521 -13.3521 -13.2873 -13.2873 -13.2457 -13.2457 -13.1065 -13.1065
   -13.0985 -13.0985 -13.0675 -13.0675  -1.5107  -1.5107   2.2812   2.2812
     6.6239   6.6239   7.0557   7.0557   7.9291   7.9291  10.9593  10.9593
    11.1967  11.1967  13.6550  13.6550

     occupation numbers 
     1.0000   1.0000   1.0000   1.0000   1.0000   1.0000   1.0000   1.0000
     1.0000   1.0000   1.0000   1.0000   1.0000   1.0000   1.0000   1.0000
     1.0000   1.0000   1.0000   1.0000   1.0000   1.0000   1.0000   1.0000
     1.0000   1.0000   1.0000   1.0000   0.0000   0.0000   0.0000   0.0000
     0.0000   0.0000   0.0000   0.0000

          k = 0.3094 0.3094-0.3094 (  5192 PWs)   bands (ev):

   -14.3296 -14.3296 -14.2855 -14.2855 -14.2579 -14.2579 -14.2093 -14.2093
   -13.3378 -13.3378 -13.3013 -13.3013 -13.2491 -13.2490 -13.1024 -13.1024
   -13.0910 -13.0910 -13.0750 -13.0750  -1.2284  -1.2284   1.7663   1.7663
     6.5370   6.5370   6.9681   6.9681   7.8570   7.8570  10.9711  10.9711
    11.1878  11.1878  13.5824  13.5824

     occupation numbers 
     1.0000   1.0000   1.0000   1.0000   1.0000   1.0000   1.0000   1.0000
     1.0000   1.0000   1.0000   1.0000   1.0000   1.0000   1.0000   1.0000
     1.0000   1.0000   1.0000   1.0000   1.0000   1.0000   1.0000   1.0000
     1.0000   1.0000   1.0000   1.0000   1.0000   1.0000   0.0000   0.0000
     0.0000   0.0000   0.0000   0.0000

          k =-0.3536-0.3536 0.3536 (  5168 PWs)   bands (ev):

   -14.3299 -14.3299 -14.2823 -14.2823 -14.2610 -14.2610 -14.2088 -14.2088
   -13.3294 -13.3294 -13.3094 -13.3094 -13.2502 -13.2502 -13.1010 -13.1010
   -13.0859 -13.0859 -13.0801 -13.0801  -1.1074  -1.1074   1.5673   1.5673
     6.5077   6.5077   6.9386   6.9386   7.8326   7.8326  10.9710  10.9710
    11.1806  11.1806  13.5464  13.5464

     occupation numbers 
     1.0000   1.0000   1.0000   1.0000   1.0000   1.0000   1.0000   1.0000
     1.0000   1.0000   1.0000   1.0000   1.0000   1.0000   1.0000   1.0000
     1.0000   1.0000   1.0000   1.0000   1.0000   1.0000   1.0000   1.0000
     1.0000   1.0000   1.0000   1.0000   1.0000   1.0000   0.0000   0.0000
     0.0000   0.0000   0.0000   0.0000

          k = 0.0884 0.0000 0.0000 (  5101 PWs)   bands (ev):

   -14.3202 -14.3202 -14.3191 -14.3191 -14.2249 -14.2249 -14.2232 -14.2232
   -13.4114 -13.4114 -13.2137 -13.2137 -13.2076 -13.2076 -13.1493 -13.1493
   -13.1465 -13.1465 -13.0382 -13.0382  -2.6702  -2.6702   6.4896   6.4896
     7.4688   7.4688   7.8597   7.8597   8.6357   8.6357   9.7637   9.7637
    10.2872  10.2872  10.4244  10.4244

     occupation numbers 
     1.0000   1.0000   1.0000   1.0000   1.0000   1.0000   1.0000   1.0000
     1.0000   1.0000   1.0000   1.0000   1.0000   1.0000   1.0000   1.0000
     1.0000   1.0000   1.0000   1.0000   1.0000   1.0000   1.0000   1.0000
     1.0000   1.0000   1.0000   1.0000   0.0000   0.0000   0.0000   0.0000
     0.0000   0.0000   0.0000   0.0000

          k = 0.1326 0.0442-0.0442 (  5123 PWs)   bands (ev):

   -14.3211 -14.3211 -14.3171 -14.3171 -14.2270 -14.2270 -14.2218 -14.2218
   -13.4062 -13.4062 -13.2243 -13.2243 -13.2128 -13.2127 -13.1436 -13.1435
   -13.1384 -13.1384 -13.0405 -13.0405  -2.5826  -2.5826   5.8159   5.8159
     7.2924   7.2924   7.6375   7.6375   8.8806   8.8806   9.8343   9.8343
    10.6157  10.6157  10.7769  10.7769

     occupation numbers 
     1.0000   1.0000   1.0000   1.0000   1.0000   1.0000   1.0000   1.0000
     1.0000   1.0000   1.0000   1.0000   1.0000   1.0000   1.0000   1.0000
     1.0000   1.0000   1.0000   1.0000   1.0000   1.0000   1.0000   1.0000
     1.0000   1.0000   1.0000   1.0000   0.0000   0.0000   0.0000   0.0000
     0.0000   0.0000   0.0000   0.0000

          k = 0.1768 0.0884-0.0884 (  5158 PWs)   bands (ev):

   -14.3229 -14.3228 -14.3133 -14.3133 -14.2309 -14.2309 -14.2193 -14.2193
   -13.3971 -13.3971 -13.2384 -13.2384 -13.2208 -13.2208 -13.1361 -13.1361
   -13.1270 -13.1270 -13.0447 -13.0447  -2.4220  -2.4220   4.9516   4.9516
     7.0578   7.0578   7.4075   7.4075   8.8544   8.8544  10.1003  10.1003
    10.9660  10.9660  11.3823  11.3823

     occupation numbers 
     1.0000   1.0000   1.0000   1.0000   1.0000   1.0000   1.0000   1.0000
     1.0000   1.0000   1.0000   1.0000   1.0000   1.0000   1.0000   1.0000
     1.0000   1.0000   1.0000   1.0000   1.0000   1.0000   1.0000   1.0000
     1.0000   1.0000   1.0000   1.0000   0.0000   0.0000   0.0000   0.0000
     0.0000   0.0000   0.0000   0.0000

          k = 0.2210 0.1326-0.1326 (  5176 PWs)   bands (ev):

   -14.3249 -14.3248 -14.3079 -14.3079 -14.2362 -14.2362 -14.2163 -14.2163
   -13.3849 -13.3849 -13.2537 -13.2537 -13.2293 -13.2293 -13.1287 -13.1287
   -13.1153 -13.1153 -13.0502 -13.0502  -2.1934  -2.1934   4.0678   4.0678
     6.8221   6.8221   7.1722   7.1722   8.7126   8.7126  10.4220  10.4220
    11.2267  11.2267  12.0736  12.0736

     occupation numbers 
     1.0000   1.0000   1.0000   1.0000   1.0000   1.0000   1.0000   1.0000
     1.0000   1.0000   1.0000   1.0000   1.0000   1.0000   1.0000   1.0000
     1.0000   1.0000   1.0000   1.0000   1.0000   1.0000   1.0000   1.0000
     1.0000   1.0000   1.0000   1.0000   0.0000   0.0000   0.0000   0.0000
     0.0000   0.0000   0.0000   0.0000

          k = 0.2652 0.1768-0.1768 (  5178 PWs)   bands (ev):

   -14.3268 -14.3267 -14.3015 -14.3015 -14.2425 -14.2425 -14.2134 -14.2134
   -13.3708 -13.3707 -13.2689 -13.2689 -13.2370 -13.2370 -13.1223 -13.1223
   -13.1047 -13.1046 -13.0564 -13.0564  -1.9070  -1.9070   3.2310   3.2310
     6.6142   6.6142   6.9683   6.9683   8.5527   8.5527  10.6769  10.6769
    11.3563  11.3563  12.7576  12.7576

     occupation numbers 
     1.0000   1.0000   1.0000   1.0000   1.0000   1.0000   1.0000   1.0000
     1.0000   1.0000   1.0000   1.0000   1.0000   1.0000   1.0000   1.0000
     1.0000   1.0000   1.0000   1.0000   1.0000   1.0000   1.0000   1.0000
     1.0000   1.0000   1.0000   1.0000   0.0000   0.0000   0.0000   0.0000
     0.0000   0.0000   0.0000   0.0000

          k = 0.3094 0.2210-0.2210 (  5180 PWs)   bands (ev):

   -14.3283 -14.3283 -14.2944 -14.2944 -14.2495 -14.2494 -14.2109 -14.2109
   -13.3559 -13.3559 -13.2834 -13.2834 -13.2432 -13.2432 -13.1172 -13.1172
   -13.0959 -13.0959 -13.0625 -13.0625  -1.5849  -1.5849   2.4888   2.4888
     6.4446   6.4446   6.8196   6.8196   8.4153   8.4153  10.8232  10.8232
    11.3684  11.3684  13.3761  13.3761

     occupation numbers 
     1.0000   1.0000   1.0000   1.0000   1.0000   1.0000   1.0000   1.0000
     1.0000   1.0000   1.0000   1.0000   1.0000   1.0000   1.0000   1.0000
     1.0000   1.0000   1.0000   1.0000   1.0000   1.0000   1.0000   1.0000
     1.0000   1.0000   1.0000   1.0000   0.0000   0.0000   0.0000   0.0000
     0.0000   0.0000   0.0000   0.0000

          k = 0.3536 0.2652-0.2652 (  5174 PWs)   bands (ev):

   -14.3294 -14.3294 -14.2876 -14.2875 -14.2563 -14.2562 -14.2091 -14.2091
   -13.3417 -13.3417 -13.2967 -13.2967 -13.2474 -13.2474 -13.1138 -13.1138
   -13.0895 -13.0895 -13.0676 -13.0676  -1.2773  -1.2773   1.9041   1.9041
     6.3190   6.3190   6.7368   6.7368   8.3170   8.3170  10.8974  10.8974
    11.3183  11.3183  13.6702  13.6702

     occupation numbers 
     1.0000   1.0000   1.0000   1.0000   1.0000   1.0000   1.0000   1.0000
     1.0000   1.0000   1.0000   1.0000   1.0000   1.0000   1.0000   1.0000
     1.0000   1.0000   1.0000   1.0000   1.0000   1.0000   1.0000   1.0000
     1.0000   1.0000   1.0000   1.0000   0.0000   0.0000   0.0000   0.0000
     0.0000   0.0000   0.0000   0.0000

          k =-0.3094-0.3977 0.3977 (  5183 PWs)   bands (ev):

   -14.3299 -14.3299 -14.2828 -14.2827 -14.2610 -14.2609 -14.2083 -14.2083
   -13.3311 -13.3311 -13.3067 -13.3067 -13.2494 -13.2494 -13.1123 -13.1123
   -13.0859 -13.0859 -13.0707 -13.0707  -1.0870  -1.0870   1.5869   1.5869
     6.2431   6.2431   6.7225   6.7225   8.2649   8.2649  10.9476  10.9476
    11.2558  11.2558  13.7113  13.7113

     occupation numbers 
     1.0000   1.0000   1.0000   1.0000   1.0000   1.0000   1.0000   1.0000
     1.0000   1.0000   1.0000   1.0000   1.0000   1.0000   1.0000   1.0000
     1.0000   1.0000   1.0000   1.0000   1.0000   1.0000   1.0000   1.0000
     1.0000   1.0000   1.0000   1.0000   0.0000   0.0000   0.0000   0.0000
     0.0000   0.0000   0.0000   0.0000

          k =-0.2652-0.3536 0.3536 (  5185 PWs)   bands (ev):

   -14.3298 -14.3298 -14.2838 -14.2837 -14.2600 -14.2599 -14.2084 -14.2084
   -13.3338 -13.3338 -13.3041 -13.3041 -13.2490 -13.2489 -13.1129 -13.1129
   -13.0861 -13.0861 -13.0702 -13.0702  -1.1292  -1.1292   1.6547   1.6547
     6.2218   6.2218   6.7746   6.7746   8.2617   8.2617  10.9908  10.9908
    11.2116  11.2116  13.7297  13.7297

     occupation numbers 
     1.0000   1.0000   1.0000   1.0000   1.0000   1.0000   1.0000   1.0000
     1.0000   1.0000   1.0000   1.0000   1.0000   1.0000   1.0000   1.0000
     1.0000   1.0000   1.0000   1.0000   1.0000   1.0000   1.0000   1.0000
     1.0000   1.0000   1.0000   1.0000   0.0000   0.0000   0.0000   0.0000
     0.0000   0.0000   0.0000   0.0000

          k =-0.2210-0.3094 0.3094 (  5190 PWs)   bands (ev):

   -14.3291 -14.3291 -14.2896 -14.2896 -14.2543 -14.2542 -14.2095 -14.2095
   -13.3463 -13.3463 -13.2924 -13.2924 -13.2461 -13.2461 -13.1156 -13.1156
   -13.0903 -13.0903 -13.0664 -13.0664  -1.3737  -1.3737   2.0771   2.0771
     6.2595   6.2595   6.8882   6.8882   8.3067   8.3067  10.9992  10.9992
    11.2064  11.2064  13.7057  13.7057

     occupation numbers 
     1.0000   1.0000   1.0000   1.0000   1.0000   1.0000   1.0000   1.0000
     1.0000   1.0000   1.0000   1.0000   1.0000   1.0000   1.0000   1.0000
     1.0000   1.0000   1.0000   1.0000   1.0000   1.0000   1.0000   1.0000
     1.0000   1.0000   1.0000   1.0000   0.0000   0.0000   0.0000   0.0000
     0.0000   0.0000   0.0000   0.0000

          k =-0.1768-0.2652 0.2652 (  5191 PWs)   bands (ev):

   -14.3279 -14.3279 -14.2966 -14.2966 -14.2474 -14.2473 -14.2115 -14.2115
   -13.3609 -13.3609 -13.2786 -13.2786 -13.2411 -13.2411 -13.1199 -13.1199
   -13.0973 -13.0973 -13.0608 -13.0608  -1.6946  -1.6946   2.7236   2.7236
     6.3587   6.3587   7.0561   7.0561   8.3959   8.3959  10.9334  10.9334
    11.2172  11.2172  13.2967  13.2967

     occupation numbers 
     1.0000   1.0000   1.0000   1.0000   1.0000   1.0000   1.0000   1.0000
     1.0000   1.0000   1.0000   1.0000   1.0000   1.0000   1.0000   1.0000
     1.0000   1.0000   1.0000   1.0000   1.0000   1.0000   1.0000   1.0000
     1.0000   1.0000   1.0000   1.0000   0.0000   0.0000   0.0000   0.0000
     0.0000   0.0000   0.0000   0.0000

          k =-0.1326-0.2210 0.2210 (  5190 PWs)   bands (ev):

   -14.3263 -14.3263 -14.3035 -14.3035 -14.2406 -14.2405 -14.2142 -14.2141
   -13.3757 -13.3757 -13.2639 -13.2638 -13.2344 -13.2343 -13.1257 -13.1257
   -13.1066 -13.1066 -13.0545 -13.0545  -2.0084  -2.0084   3.5018   3.5018
     6.5206   6.5206   7.2674   7.2674   8.5186   8.5186  10.7787  10.7787
    11.1470  11.1470  12.5729  12.5729

     occupation numbers 
     1.0000   1.0000   1.0000   1.0000   1.0000   1.0000   1.0000   1.0000
     1.0000   1.0000   1.0000   1.0000   1.0000   1.0000   1.0000   1.0000
     1.0000   1.0000   1.0000   1.0000   1.0000   1.0000   1.0000   1.0000
     1.0000   1.0000   1.0000   1.0000   0.0000   0.0000   0.0000   0.0000
     0.0000   0.0000   0.0000   0.0000

          k =-0.0884-0.1768 0.1768 (  5167 PWs)   bands (ev):

   -14.3244 -14.3243 -14.3096 -14.3096 -14.2345 -14.2345 -14.2172 -14.2171
   -13.3893 -13.3893 -13.2485 -13.2485 -13.2264 -13.2264 -13.1325 -13.1325
   -13.1178 -13.1177 -13.0484 -13.0484  -2.2771  -2.2771   4.3559   4.3559
     6.7446   6.7446   7.5035   7.5035   8.6484   8.6484  10.5384  10.5384
    10.9029  10.9029  11.8814  11.8814

     occupation numbers 
     1.0000   1.0000   1.0000   1.0000   1.0000   1.0000   1.0000   1.0000
     1.0000   1.0000   1.0000   1.0000   1.0000   1.0000   1.0000   1.0000
     1.0000   1.0000   1.0000   1.0000   1.0000   1.0000   1.0000   1.0000
     1.0000   1.0000   1.0000   1.0000   0.0000   0.0000   0.0000   0.0000
     0.0000   0.0000   0.0000   0.0000

          k =-0.0442-0.1326 0.1326 (  5142 PWs)   bands (ev):

   -14.3225 -14.3225 -14.3144 -14.3144 -14.2296 -14.2296 -14.2200 -14.2200
   -13.4005 -13.4005 -13.2332 -13.2332 -13.2183 -13.2182 -13.1397 -13.1397
   -13.1298 -13.1298 -13.0432 -13.0432  -2.4837  -2.4837   5.2323   5.2323
     7.0283   7.0283   7.7318   7.7318   8.7191   8.7191  10.2606  10.2606
    10.5343  10.5343  11.2528  11.2528

     occupation numbers 
     1.0000   1.0000   1.0000   1.0000   1.0000   1.0000   1.0000   1.0000
     1.0000   1.0000   1.0000   1.0000   1.0000   1.0000   1.0000   1.0000
     1.0000   1.0000   1.0000   1.0000   1.0000   1.0000   1.0000   1.0000
     1.0000   1.0000   1.0000   1.0000   0.0000   0.0000   0.0000   0.0000
     0.0000   0.0000   0.0000   0.0000

          k = 0.0000-0.0884 0.0884 (  5110 PWs)   bands (ev):

   -14.3210 -14.3210 -14.3176 -14.3176 -14.2263 -14.2263 -14.2222 -14.2222
   -13.4084 -13.4084 -13.2194 -13.2194 -13.2115 -13.2114 -13.1461 -13.1461
   -13.1412 -13.1411 -13.0396 -13.0396  -2.6202  -2.6202   6.0384   6.0384
     7.3557   7.3557   7.9089   7.9089   8.6021   8.6021  10.0105  10.0105
    10.2853  10.2853  10.6747  10.6747

     occupation numbers 
     1.0000   1.0000   1.0000   1.0000   1.0000   1.0000   1.0000   1.0000
     1.0000   1.0000   1.0000   1.0000   1.0000   1.0000   1.0000   1.0000
     1.0000   1.0000   1.0000   1.0000   1.0000   1.0000   1.0000   1.0000
     1.0000   1.0000   0.7502   0.7498   0.0000   0.0000   0.0000   0.0000
     0.0000   0.0000   0.0000   0.0000

          k = 0.1768 0.0000 0.0000 (  5117 PWs)   bands (ev):

   -14.3207 -14.3207 -14.3169 -14.3169 -14.2277 -14.2277 -14.2215 -14.2215
   -13.4025 -13.4025 -13.2320 -13.2320 -13.2140 -13.2140 -13.1394 -13.1394
   -13.1353 -13.1353 -13.0418 -13.0418  -2.5195  -2.5195   5.5591   5.5591
     7.0704   7.0704   7.3168   7.3168   9.4159   9.4159   9.4902   9.4902
    10.9480  10.9480  11.0402  11.0402

     occupation numbers 
     1.0000   1.0000   1.0000   1.0000   1.0000   1.0000   1.0000   1.0000
     1.0000   1.0000   1.0000   1.0000   1.0000   1.0000   1.0000   1.0000
     1.0000   1.0000   1.0000   1.0000   1.0000   1.0000   1.0000   1.0000
     1.0000   1.0000   1.0000   1.0000   0.0000   0.0000   0.0000   0.0000
     0.0000   0.0000   0.0000   0.0000

          k = 0.2210 0.0442-0.0442 (  5163 PWs)   bands (ev):

   -14.3218 -14.3217 -14.3141 -14.3141 -14.2305 -14.2305 -14.2197 -14.2197
   -13.3948 -13.3948 -13.2435 -13.2435 -13.2193 -13.2193 -13.1348 -13.1348
   -13.1266 -13.1266 -13.0447 -13.0447  -2.3829  -2.3829   4.9457   4.9457
     6.8234   6.8234   7.0597   7.0597   9.4133   9.4133   9.6636   9.6637
    11.3453  11.3453  11.4837  11.4837

     occupation numbers 
     1.0000   1.0000   1.0000   1.0000   1.0000   1.0000   1.0000   1.0000
     1.0000   1.0000   1.0000   1.0000   1.0000   1.0000   1.0000   1.0000
     1.0000   1.0000   1.0000   1.0000   1.0000   1.0000   1.0000   1.0000
     1.0000   1.0000   1.0000   1.0000   0.0000   0.0000   0.0000   0.0000
     0.0000   0.0000   0.0000   0.0000

          k = 0.2652 0.0884-0.0884 (  5177 PWs)   bands (ev):

   -14.3237 -14.3237 -14.3094 -14.3094 -14.2352 -14.2352 -14.2169 -14.2169
   -13.3838 -13.3838 -13.2566 -13.2566 -13.2261 -13.2261 -13.1320 -13.1320
   -13.1147 -13.1147 -13.0485 -13.0485  -2.1762  -2.1762   4.1831   4.1831
     6.5535   6.5535   6.8232   6.8232   9.3652   9.3653   9.9176   9.9176
    11.6515  11.6515  11.9073  11.9073

     occupation numbers 
     1.0000   1.0000   1.0000   1.0000   1.0000   1.0000   1.0000   1.0000
     1.0000   1.0000   1.0000   1.0000   1.0000   1.0000   1.0000   1.0000
     1.0000   1.0000   1.0000   1.0000   1.0000   1.0000   1.0000   1.0000
     1.0000   1.0000   1.0000   1.0000   0.0000   0.0000   0.0000   0.0000
     0.0000   0.0000   0.0000   0.0000

          k = 0.3094 0.1326-0.1326 (  5172 PWs)   bands (ev):

   -14.3257 -14.3257 -14.3035 -14.3035 -14.2411 -14.2411 -14.2138 -14.2137
   -13.3707 -13.3707 -13.2698 -13.2698 -13.2331 -13.2330 -13.1302 -13.1302
   -13.1035 -13.1034 -13.0525 -13.0525  -1.9073  -1.9073   3.3982   3.3982
     6.2850   6.2850   6.6303   6.6303   9.2291   9.2291  10.2855  10.2855
    11.8153  11.8153  12.1835  12.1836

     occupation numbers 
     1.0000   1.0000   1.0000   1.0000   1.0000   1.0000   1.0000   1.0000
     1.0000   1.0000   1.0000   1.0000   1.0000   1.0000   1.0000   1.0000
     1.0000   1.0000   1.0000   1.0000   1.0000   1.0000   1.0000   1.0000
     1.0000   1.0000   1.0000   1.0000   0.0000   0.0000   0.0000   0.0000
     0.0000   0.0000   0.0000   0.0000

          k = 0.3536 0.1768-0.1768 (  5200 PWs)   bands (ev):

   -14.3275 -14.3275 -14.2969 -14.2969 -14.2478 -14.2477 -14.2109 -14.2108
   -13.3569 -13.3569 -13.2821 -13.2821 -13.2394 -13.2394 -13.1293 -13.1293
   -13.0946 -13.0946 -13.0557 -13.0557  -1.5930  -1.5930   2.6626   2.6626
     6.0396   6.0396   6.5058   6.5058   9.0828   9.0828  10.5928  10.5928
    11.8332  11.8332  12.5378  12.5378

     occupation numbers 
     1.0000   1.0000   1.0000   1.0000   1.0000   1.0000   1.0000   1.0000
     1.0000   1.0000   1.0000   1.0000   1.0000   1.0000   1.0000   1.0000
     1.0000   1.0000   1.0000   1.0000   1.0000   1.0000   1.0000   1.0000
     1.0000   1.0000   1.0000   1.0000   0.0000   0.0000   0.0000   0.0000
     0.0000   0.0000   0.0000   0.0000

          k = 0.3977 0.2210-0.2210 (  5184 PWs)   bands (ev):

   -14.3288 -14.3288 -14.2902 -14.2902 -14.2545 -14.2544 -14.2086 -14.2085
   -13.3437 -13.3437 -13.2929 -13.2929 -13.2443 -13.2443 -13.1294 -13.1293
   -13.0890 -13.0889 -13.0573 -13.0573  -1.2709  -1.2709   2.0412   2.0412
     5.8369   5.8369   6.4537   6.4537   8.9641   8.9641  10.7679  10.7679
    11.7567  11.7567  13.0839  13.0839

     occupation numbers 
     1.0000   1.0000   1.0000   1.0000   1.0000   1.0000   1.0000   1.0000
     1.0000   1.0000   1.0000   1.0000   1.0000   1.0000   1.0000   1.0000
     1.0000   1.0000   1.0000   1.0000   1.0000   1.0000   1.0000   1.0000
     1.0000   1.0000   1.0000   1.0000   0.0000   0.0000   0.0000   0.0000
     0.0000   0.0000   0.0000   0.0000

          k =-0.2652-0.4419 0.4419 (  5188 PWs)   bands (ev):

   -14.3296 -14.3296 -14.2847 -14.2846 -14.2601 -14.2600 -14.2071 -14.2071
   -13.3338 -13.3338 -13.3011 -13.3011 -13.2472 -13.2472 -13.1300 -13.1300
   -13.0861 -13.0861 -13.0577 -13.0577  -1.0249  -1.0249   1.6314   1.6314
     5.6900   5.6900   6.4722   6.4722   8.8879   8.8879  10.8705  10.8705
    11.6412  11.6413  13.6696  13.6696

     occupation numbers 
     1.0000   1.0000   1.0000   1.0000   1.0000   1.0000   1.0000   1.0000
     1.0000   1.0000   1.0000   1.0000   1.0000   1.0000   1.0000   1.0000
     1.0000   1.0000   1.0000   1.0000   1.0000   1.0000   1.0000   1.0000
     1.0000   1.0000   1.0000   1.0000   0.0000   0.0000   0.0000   0.0000
     0.0000   0.0000   0.0000   0.0000

          k =-0.2210-0.3977 0.3977 (  5194 PWs)   bands (ev):

   -14.3299 -14.3299 -14.2832 -14.2831 -14.2618 -14.2616 -14.2067 -14.2067
   -13.3322 -13.3322 -13.3025 -13.3025 -13.2473 -13.2473 -13.1309 -13.1309
   -13.0850 -13.0850 -13.0579 -13.0578  -0.9845  -0.9845   1.5689   1.5689
     5.6074   5.6074   6.5574   6.5574   8.8588   8.8589  10.9639  10.9639
    11.5183  11.5183  13.9769  13.9769

     occupation numbers 
     1.0000   1.0000   1.0000   1.0000   1.0000   1.0000   1.0000   1.0000
     1.0000   1.0000   1.0000   1.0000   1.0000   1.0000   1.0000   1.0000
     1.0000   1.0000   1.0000   1.0000   1.0000   1.0000   1.0000   1.0000
     1.0000   1.0000   1.0000   1.0000   0.0000   0.0000   0.0000   0.0000
     0.0000   0.0000   0.0000   0.0000

          k =-0.1768-0.3536 0.3536 (  5182 PWs)   bands (ev):

   -14.3295 -14.3295 -14.2871 -14.2870 -14.2579 -14.2578 -14.2074 -14.2074
   -13.3403 -13.3403 -13.2959 -13.2959 -13.2447 -13.2447 -13.1319 -13.1319
   -13.0855 -13.0855 -13.0581 -13.0581  -1.1789  -1.1789   1.8830   1.8830
     5.5963   5.5963   6.7036   6.7036   8.8759   8.8759  11.0665  11.0665
    11.3949  11.3949  13.7881  13.7881

     occupation numbers 
     1.0000   1.0000   1.0000   1.0000   1.0000   1.0000   1.0000   1.0000
     1.0000   1.0000   1.0000   1.0000   1.0000   1.0000   1.0000   1.0000
     1.0000   1.0000   1.0000   1.0000   1.0000   1.0000   1.0000   1.0000
     1.0000   1.0000   1.0000   1.0000   0.0000   0.0000   0.0000   0.0000
     0.0000   0.0000   0.0000   0.0000

          k =-0.1326-0.3094 0.3094 (  5186 PWs)   bands (ev):

   -14.3286 -14.3286 -14.2934 -14.2933 -14.2516 -14.2516 -14.2091 -14.2091
   -13.3528 -13.3528 -13.2858 -13.2858 -13.2399 -13.2399 -13.1330 -13.1330
   -13.0886 -13.0886 -13.0574 -13.0574  -1.4888  -1.4888   2.4483   2.4483
     5.6641   5.6641   6.9014   6.9014   8.9321   8.9321  11.1222  11.1222
    11.2855  11.2855  13.1460  13.1460

     occupation numbers 
     1.0000   1.0000   1.0000   1.0000   1.0000   1.0000   1.0000   1.0000
     1.0000   1.0000   1.0000   1.0000   1.0000   1.0000   1.0000   1.0000
     1.0000   1.0000   1.0000   1.0000   1.0000   1.0000   1.0000   1.0000
     1.0000   1.0000   1.0000   1.0000   0.0000   0.0000   0.0000   0.0000
     0.0000   0.0000   0.0000   0.0000

          k =-0.0884-0.2652 0.2652 (  5179 PWs)   bands (ev):

   -14.3272 -14.3272 -14.2999 -14.2999 -14.2450 -14.2449 -14.2116 -14.2116
   -13.3666 -13.3666 -13.2740 -13.2739 -13.2339 -13.2339 -13.1345 -13.1345
   -13.0955 -13.0955 -13.0548 -13.0548  -1.8110  -1.8110   3.1465   3.1465
     5.8216   5.8216   7.1359   7.1359   9.0094   9.0094  10.9710  10.9710
    11.2295  11.2295  12.4995  12.4995

     occupation numbers 
     1.0000   1.0000   1.0000   1.0000   1.0000   1.0000   1.0000   1.0000
     1.0000   1.0000   1.0000   1.0000   1.0000   1.0000   1.0000   1.0000
     1.0000   1.0000   1.0000   1.0000   1.0000   1.0000   1.0000   1.0000
     1.0000   1.0000   1.0000   1.0000   0.0000   0.0000   0.0000   0.0000
     0.0000   0.0000   0.0000   0.0000

          k =-0.0442-0.2210 0.2210 (  5186 PWs)   bands (ev):

   -14.3255 -14.3255 -14.3060 -14.3060 -14.2387 -14.2387 -14.2146 -14.2146
   -13.3801 -13.3800 -13.2607 -13.2607 -13.2278 -13.2277 -13.1362 -13.1362
   -13.1056 -13.1056 -13.0510 -13.0509  -2.0966  -2.0966   3.8976   3.8976
     6.0870   6.0870   7.3817   7.3817   9.0640   9.0640  10.7097  10.7097
    10.9827  10.9827  12.1001  12.1001

     occupation numbers 
     1.0000   1.0000   1.0000   1.0000   1.0000   1.0000   1.0000   1.0000
     1.0000   1.0000   1.0000   1.0000   1.0000   1.0000   1.0000   1.0000
     1.0000   1.0000   1.0000   1.0000   1.0000   1.0000   1.0000   1.0000
     1.0000   1.0000   1.0000   1.0000   0.0000   0.0000   0.0000   0.0000
     0.0000   0.0000   0.0000   0.0000

          k = 0.0000-0.1768 0.1768 (  5162 PWs)   bands (ev):

   -14.3238 -14.3238 -14.3110 -14.3110 -14.2334 -14.2334 -14.2176 -14.2176
   -13.3917 -13.3917 -13.2467 -13.2467 -13.2222 -13.2222 -13.1381 -13.1381
   -13.1177 -13.1176 -13.0468 -13.0468  -2.3241  -2.3241   4.6225   4.6225
     6.4893   6.4893   7.5964   7.5964   8.9984   8.9985  10.4406  10.4406
    10.6535  10.6535  11.7752  11.7752

     occupation numbers 
     1.0000   1.0000   1.0000   1.0000   1.0000   1.0000   1.0000   1.0000
     1.0000   1.0000   1.0000   1.0000   1.0000   1.0000   1.0000   1.0000
     1.0000   1.0000   1.0000   1.0000   1.0000   1.0000   1.0000   1.0000
     1.0000   1.0000   1.0000   1.0000   0.0000   0.0000   0.0000   0.0000
     0.0000   0.0000   0.0000   0.0000

          k = 0.2652 0.0000 0.0000 (  5173 PWs)   bands (ev):

   -14.3211 -14.3211 -14.3137 -14.3137 -14.2314 -14.2314 -14.2194 -14.2194
   -13.3885 -13.3885 -13.2521 -13.2521 -13.2219 -13.2219 -13.1284 -13.1284
   -13.1257 -13.1257 -13.0459 -13.0459  -2.2698  -2.2698   4.6193   4.6193
     6.6072   6.6072   6.7744   6.7744   9.1365   9.1365   9.9678   9.9678
    11.7908  11.7908  11.8070  11.8070

     occupation numbers 
     1.0000   1.0000   1.0000   1.0000   1.0000   1.0000   1.0000   1.0000
     1.0000   1.0000   1.0000   1.0000   1.0000   1.0000   1.0000   1.0000
     1.0000   1.0000   1.0000   1.0000   1.0000   1.0000   1.0000   1.0000
     1.0000   1.0000   1.0000   1.0000   0.0000   0.0000   0.0000   0.0000
     0.0000   0.0000   0.0000   0.0000

          k = 0.3094 0.0442-0.0442 (  5180 PWs)   bands (ev):

   -14.3221 -14.3220 -14.3106 -14.3106 -14.2345 -14.2345 -14.2177 -14.2176
   -13.3789 -13.3789 -13.2627 -13.2627 -13.2266 -13.2266 -13.1301 -13.1301
   -13.1147 -13.1147 -13.0479 -13.0479  -2.0854  -2.0854   4.0603   4.0603
     6.3505   6.3505   6.5322   6.5322   9.1250   9.1250  10.0306  10.0306
    12.1009  12.1009  12.1812  12.1812

     occupation numbers 
     1.0000   1.0000   1.0000   1.0000   1.0000   1.0000   1.0000   1.0000
     1.0000   1.0000   1.0000   1.0000   1.0000   1.0000   1.0000   1.0000
     1.0000   1.0000   1.0000   1.0000   1.0000   1.0000   1.0000   1.0000
     1.0000   1.0000   1.0000   1.0000   0.0000   0.0000   0.0000   0.0000
     0.0000   0.0000   0.0000   0.0000

          k = 0.3536 0.0884-0.0884 (  5188 PWs)   bands (ev):

   -14.3239 -14.3239 -14.3056 -14.3056 -14.2394 -14.2394 -14.2148 -14.2148
   -13.3672 -13.3672 -13.2738 -13.2737 -13.2316 -13.2316 -13.1337 -13.1337
   -13.1033 -13.1033 -13.0497 -13.0497  -1.8357  -1.8357   3.4007   3.4007
     6.0352   6.0352   6.3397   6.3397   9.2606   9.2606  10.1301  10.1301
    12.1038  12.1038  12.4150  12.4150

     occupation numbers 
     1.0000   1.0000   1.0000   1.0000   1.0000   1.0000   1.0000   1.0000
     1.0000   1.0000   1.0000   1.0000   1.0000   1.0000   1.0000   1.0000
     1.0000   1.0000   1.0000   1.0000   1.0000   1.0000   1.0000   1.0000
     1.0000   1.0000   1.0000   1.0000   0.0000   0.0000   0.0000   0.0000
     0.0000   0.0000   0.0000   0.0000

          k = 0.3977 0.1326-0.1326 (  5186 PWs)   bands (ev):

   -14.3259 -14.3259 -14.2998 -14.2997 -14.2454 -14.2454 -14.2116 -14.2116
   -13.3547 -13.3547 -13.2837 -13.2836 -13.2364 -13.2364 -13.1382 -13.1382
   -13.0942 -13.0942 -13.0503 -13.0503  -1.5331  -1.5331   2.7302   2.7302
     5.7101   5.7101   6.2212   6.2212   9.2831   9.2831  10.4819  10.4819
    12.0687  12.0687  12.4794  12.4794

     occupation numbers 
     1.0000   1.0000   1.0000   1.0000   1.0000   1.0000   1.0000   1.0000
     1.0000   1.0000   1.0000   1.0000   1.0000   1.0000   1.0000   1.0000
     1.0000   1.0000   1.0000   1.0000   1.0000   1.0000   1.0000   1.0000
     1.0000   1.0000   1.0000   1.0000   0.0000   0.0000   0.0000   0.0000
     0.0000   0.0000   0.0000   0.0000

          k = 0.4419 0.1768-0.1768 (  5171 PWs)   bands (ev):

   -14.3276 -14.3276 -14.2938 -14.2937 -14.2517 -14.2516 -14.2087 -14.2087
   -13.3433 -13.3432 -13.2913 -13.2913 -13.2407 -13.2407 -13.1429 -13.1429
   -13.0886 -13.0886 -13.0493 -13.0493  -1.2054  -1.2054   2.1192   2.1192
     5.4250   5.4250   6.1766   6.1766   9.2300   9.2300  10.8883  10.8883
    12.2216  12.2216  12.4357  12.4357

     occupation numbers 
     1.0000   1.0000   1.0000   1.0000   1.0000   1.0000   1.0000   1.0000
     1.0000   1.0000   1.0000   1.0000   1.0000   1.0000   1.0000   1.0000
     1.0000   1.0000   1.0000   1.0000   1.0000   1.0000   1.0000   1.0000
     1.0000   1.0000   1.0000   1.0000   0.0000   0.0000   0.0000   0.0000
     0.0000   0.0000   0.0000   0.0000

          k =-0.2210-0.4861 0.4861 (  5179 PWs)   bands (ev):

   -14.3288 -14.3288 -14.2884 -14.2882 -14.2575 -14.2573 -14.2065 -14.2065
   -13.3352 -13.3352 -13.2959 -13.2959 -13.2437 -13.2437 -13.1469 -13.1469
   -13.0859 -13.0859 -13.0476 -13.0476  -0.9181  -0.9181   1.6568   1.6568
     5.2044   5.2044   6.2039   6.2039   9.1875   9.1875  11.1097  11.1097
    12.2340  12.2340  12.8230  12.8230

     occupation numbers 
     1.0000   1.0000   1.0000   1.0000   1.0000   1.0000   1.0000   1.0000
     1.0000   1.0000   1.0000   1.0000   1.0000   1.0000   1.0000   1.0000
     1.0000   1.0000   1.0000   1.0000   1.0000   1.0000   1.0000   1.0000
     1.0000   1.0000   1.0000   1.0000   0.0000   0.0000   0.0000   0.0000
     0.0000   0.0000   0.0000   0.0000

          k =-0.1768-0.4419 0.4419 (  5177 PWs)   bands (ev):

   -14.3295 -14.3295 -14.2851 -14.2848 -14.2611 -14.2608 -14.2053 -14.2053
   -13.3328 -13.3327 -13.2971 -13.2971 -13.2443 -13.2443 -13.1495 -13.1494
   -13.0847 -13.0847 -13.0467 -13.0467  -0.7985  -0.7985   1.4815   1.4815
     5.0616   5.0616   6.3000   6.3000   9.1823   9.1823  11.2109  11.2109
    12.0723  12.0723  13.5404  13.5404

     occupation numbers 
     1.0000   1.0000   1.0000   1.0000   1.0000   1.0000   1.0000   1.0000
     1.0000   1.0000   1.0000   1.0000   1.0000   1.0000   1.0000   1.0000
     1.0000   1.0000   1.0000   1.0000   1.0000   1.0000   1.0000   1.0000
     1.0000   1.0000   1.0000   1.0000   0.0000   0.0000   0.0000   0.0000
     0.0000   0.0000   0.0000   0.0000

          k =-0.1326-0.3977 0.3977 (  5178 PWs)   bands (ev):

   -14.3297 -14.3297 -14.2858 -14.2856 -14.2605 -14.2602 -14.2052 -14.2052
   -13.3363 -13.3363 -13.2953 -13.2953 -13.2419 -13.2419 -13.1500 -13.1500
   -13.0842 -13.0842 -13.0477 -13.0477  -0.9329  -0.9329   1.6811   1.6811
     5.0075   5.0075   6.4591   6.4591   9.2158   9.2158  11.3030  11.3030
    11.8844  11.8844  13.7320  13.7320

     occupation numbers 
     1.0000   1.0000   1.0000   1.0000   1.0000   1.0000   1.0000   1.0000
     1.0000   1.0000   1.0000   1.0000   1.0000   1.0000   1.0000   1.0000
     1.0000   1.0000   1.0000   1.0000   1.0000   1.0000   1.0000   1.0000
     1.0000   1.0000   1.0000   1.0000   0.0000   0.0000   0.0000   0.0000
     0.0000   0.0000   0.0000   0.0000

          k =-0.0884-0.3536 0.3536 (  5184 PWs)   bands (ev):

   -14.3292 -14.3292 -14.2900 -14.2899 -14.2562 -14.2560 -14.2064 -14.2064
   -13.3448 -13.3448 -13.2906 -13.2906 -13.2378 -13.2378 -13.1485 -13.1484
   -13.0847 -13.0847 -13.0500 -13.0500  -1.2250  -1.2250   2.1498   2.1498
     5.0568   5.0568   6.6708   6.6708   9.2746   9.2746  11.4112  11.4112
    11.6602  11.6602  13.0096  13.0096

     occupation numbers 
     1.0000   1.0000   1.0000   1.0000   1.0000   1.0000   1.0000   1.0000
     1.0000   1.0000   1.0000   1.0000   1.0000   1.0000   1.0000   1.0000
     1.0000   1.0000   1.0000   1.0000   1.0000   1.0000   1.0000   1.0000
     1.0000   1.0000   1.0000   1.0000   0.0000   0.0000   0.0000   0.0000
     0.0000   0.0000   0.0000   0.0000

          k =-0.0442-0.3094 0.3094 (  5189 PWs)   bands (ev):

   -14.3282 -14.3282 -14.2956 -14.2955 -14.2503 -14.2502 -14.2086 -14.2086
   -13.3562 -13.3562 -13.2830 -13.2830 -13.2335 -13.2335 -13.1451 -13.1451
   -13.0878 -13.0878 -13.0523 -13.0523  -1.5514  -1.5514   2.7400   2.7400
     5.2321   5.2321   6.9177   6.9177   9.3246   9.3247  11.3492  11.3492
    11.4974  11.4974  12.3193  12.3193

     occupation numbers 
     1.0000   1.0000   1.0000   1.0000   1.0000   1.0000   1.0000   1.0000
     1.0000   1.0000   1.0000   1.0000   1.0000   1.0000   1.0000   1.0000
     1.0000   1.0000   1.0000   1.0000   1.0000   1.0000   1.0000   1.0000
     1.0000   1.0000   1.0000   1.0000   0.0000   0.0000   0.0000   0.0000
     0.0000   0.0000   0.0000   0.0000

          k = 0.0000-0.2652 0.2652 (  5180 PWs)   bands (ev):

   -14.3269 -14.3269 -14.3011 -14.3011 -14.2442 -14.2442 -14.2115 -14.2115
   -13.3686 -13.3686 -13.2727 -13.2727 -13.2300 -13.2300 -13.1407 -13.1407
   -13.0949 -13.0949 -13.0526 -13.0526  -1.8507  -1.8507   3.3477   3.3477
     5.5669   5.5669   7.1704   7.1704   9.2914   9.2914  11.0223  11.0223
    11.2564  11.2564  12.0914  12.0914

     occupation numbers 
     1.0000   1.0000   1.0000   1.0000   1.0000   1.0000   1.0000   1.0000
     1.0000   1.0000   1.0000   1.0000   1.0000   1.0000   1.0000   1.0000
     1.0000   1.0000   1.0000   1.0000   1.0000   1.0000   1.0000   1.0000
     1.0000   1.0000   1.0000   1.0000   0.0000   0.0000   0.0000   0.0000
     0.0000   0.0000   0.0000   0.0000

          k = 0.3536 0.0000 0.0000 (  5201 PWs)   bands (ev):

   -14.3210 -14.3210 -14.3103 -14.3103 -14.2349 -14.2349 -14.2179 -14.2179
   -13.3708 -13.3708 -13.2709 -13.2709 -13.2294 -13.2294 -13.1303 -13.1303
   -13.1101 -13.1101 -13.0481 -13.0481  -1.9229  -1.9229   3.6939   3.6939
     6.1824   6.1824   6.2987   6.2987   8.8362   8.8362  10.0226  10.0226
    12.6254  12.6254  12.6876  12.6876

     occupation numbers 
     1.0000   1.0000   1.0000   1.0000   1.0000   1.0000   1.0000   1.0000
     1.0000   1.0000   1.0000   1.0000   1.0000   1.0000   1.0000   1.0000
     1.0000   1.0000   1.0000   1.0000   1.0000   1.0000   1.0000   1.0000
     1.0000   1.0000   1.0000   1.0000   0.0000   0.0000   0.0000   0.0000
     0.0000   0.0000   0.0000   0.0000

          k = 0.3977 0.0442-0.0442 (  5174 PWs)   bands (ev):

   -14.3217 -14.3217 -14.3075 -14.3075 -14.2376 -14.2376 -14.2165 -14.2165
   -13.3605 -13.3605 -13.2797 -13.2797 -13.2326 -13.2326 -13.1361 -13.1361
   -13.1007 -13.1007 -13.0484 -13.0484  -1.6929  -1.6929   3.1823   3.1823
     5.9355   5.9355   6.0959   6.0959   8.8645   8.8645   9.9398   9.9398
    12.7591  12.7591  13.0248  13.0248

     occupation numbers 
     1.0000   1.0000   1.0000   1.0000   1.0000   1.0000   1.0000   1.0000
     1.0000   1.0000   1.0000   1.0000   1.0000   1.0000   1.0000   1.0000
     1.0000   1.0000   1.0000   1.0000   1.0000   1.0000   1.0000   1.0000
     1.0000   1.0000   1.0000   1.0000   0.0000   0.0000   0.0000   0.0000
     0.0000   0.0000   0.0000   0.0000

          k = 0.4419 0.0884-0.0884 (  5176 PWs)   bands (ev):

   -14.3235 -14.3234 -14.3030 -14.3029 -14.2422 -14.2421 -14.2137 -14.2137
   -13.3496 -13.3496 -13.2875 -13.2875 -13.2353 -13.2353 -13.1445 -13.1444
   -13.0920 -13.0920 -13.0477 -13.0477  -1.4047  -1.4047   2.6167   2.6167
     5.5847   5.5847   5.9673   5.9673   9.0335   9.0335  10.0589  10.0589
    12.6025  12.6025  13.1790  13.1790

     occupation numbers 
     1.0000   1.0000   1.0000   1.0000   1.0000   1.0000   1.0000   1.0000
     1.0000   1.0000   1.0000   1.0000   1.0000   1.0000   1.0000   1.0000
     1.0000   1.0000   1.0000   1.0000   1.0000   1.0000   1.0000   1.0000
     1.0000   1.0000   1.0000   1.0000   0.0000   0.0000   0.0000   0.0000
     0.0000   0.0000   0.0000   0.0000

          k = 0.4861 0.1326-0.1326 (  5187 PWs)   bands (ev):

   -14.3254 -14.3254 -14.2979 -14.2979 -14.2477 -14.2476 -14.2104 -14.2104
   -13.3403 -13.3403 -13.2923 -13.2923 -13.2376 -13.2375 -13.1535 -13.1535
   -13.0866 -13.0866 -13.0451 -13.0451  -1.0784  -1.0784   2.0632   2.0632
     5.2235   5.2235   5.9169   5.9169   9.1027   9.1027  10.5360  10.5360
    12.4490  12.4490  13.1470  13.1470

     occupation numbers 
     1.0000   1.0000   1.0000   1.0000   1.0000   1.0000   1.0000   1.0000
     1.0000   1.0000   1.0000   1.0000   1.0000   1.0000   1.0000   1.0000
     1.0000   1.0000   1.0000   1.0000   1.0000   1.0000   1.0000   1.0000
     1.0000   1.0000   1.0000   1.0000   0.0000   0.0000   0.0000   0.0000
     0.0000   0.0000   0.0000   0.0000

          k =-0.1768-0.5303 0.5303 (  5187 PWs)   bands (ev):

   -14.3272 -14.3271 -14.2931 -14.2930 -14.2531 -14.2530 -14.2073 -14.2073
   -13.3348 -13.3348 -13.2931 -13.2931 -13.2393 -13.2392 -13.1614 -13.1614
   -13.0844 -13.0844 -13.0416 -13.0416  -0.7630  -0.7630   1.5960   1.5960
[...]

     occupation numbers 
     1.0000   1.0000   1.0000   1.0000   1.0000   1.0000   1.0000   1.0000
     1.0000   1.0000   1.0000   1.0000   1.0000   1.0000   1.0000   1.0000
     1.0000   1.0000   1.0000   1.0000   1.0000   1.0000   1.0000   1.0000
     1.0000   1.0000   1.0000   1.0000   0.0000   0.0000   0.0000   0.0000
     0.0000   0.0000   0.0000   0.0000

          k =-0.1326-0.3977 0.5745 (  5195 PWs)   bands (ev):

   -14.3284 -14.3284 -14.2900 -14.2897 -14.2573 -14.2571 -14.2045 -14.2045
   -13.3343 -13.3342 -13.2886 -13.2885 -13.2377 -13.2376 -13.1732 -13.1732
   -13.0846 -13.0846 -13.0359 -13.0359  -0.4774  -0.4774   1.2755   1.2755
     4.6581   4.6581   5.7212   5.7212   9.9007   9.9007  11.1268  11.1268
    12.4520  12.4520  13.2776  13.2776

     occupation numbers 
     1.0000   1.0000   1.0000   1.0000   1.0000   1.0000   1.0000   1.0000
     1.0000   1.0000   1.0000   1.0000   1.0000   1.0000   1.0000   1.0000
     1.0000   1.0000   1.0000   1.0000   1.0000   1.0000   1.0000   1.0000
     1.0000   1.0000   1.0000   1.0000   0.0000   0.0000   0.0000   0.0000
     0.0000   0.0000   0.0000   0.0000

          k =-0.0884-0.3536 0.5303 (  5200 PWs)   bands (ev):

   -14.3287 -14.3287 -14.2893 -14.2891 -14.2581 -14.2578 -14.2042 -14.2041
   -13.3349 -13.3349 -13.2887 -13.2887 -13.2371 -13.2370 -13.1728 -13.1728
   -13.0846 -13.0846 -13.0363 -13.0362  -0.5379  -0.5379   1.3522   1.3522
     4.6201   4.6201   5.7976   5.7976   9.9719   9.9719  11.0859  11.0859
    12.5389  12.5389  13.2458  13.2458

     occupation numbers 
     1.0000   1.0000   1.0000   1.0000   1.0000   1.0000   1.0000   1.0000
     1.0000   1.0000   1.0000   1.0000   1.0000   1.0000   1.0000   1.0000
     1.0000   1.0000   1.0000   1.0000   1.0000   1.0000   1.0000   1.0000
     1.0000   1.0000   1.0000   1.0000   0.0000   0.0000   0.0000   0.0000
     0.0000   0.0000   0.0000   0.0000

          k =-0.0442-0.3094 0.4861 (  5195 PWs)   bands (ev):

   -14.3285 -14.3285 -14.2906 -14.2904 -14.2565 -14.2563 -14.2051 -14.2050
   -13.3375 -13.3375 -13.2904 -13.2904 -13.2359 -13.2358 -13.1670 -13.1670
   -13.0849 -13.0849 -13.0393 -13.0393  -0.8087  -0.8087   1.7056   1.7056
     4.6940   4.6940   5.9560   5.9560  10.0514  10.0514  10.9889  10.9889
    11.8708  11.8708  13.4960  13.4960

     occupation numbers 
     1.0000   1.0000   1.0000   1.0000   1.0000   1.0000   1.0000   1.0000
     1.0000   1.0000   1.0000   1.0000   1.0000   1.0000   1.0000   1.0000
     1.0000   1.0000   1.0000   1.0000   1.0000   1.0000   1.0000   1.0000
     1.0000   1.0000   1.0000   1.0000   0.0000   0.0000   0.0000   0.0000
     0.0000   0.0000   0.0000   0.0000

          k = 0.0000-0.2652 0.4419 (  5181 PWs)   bands (ev):

   -14.3279 -14.3279 -14.2936 -14.2934 -14.2530 -14.2529 -14.2070 -14.2069
   -13.3433 -13.3433 -13.2899 -13.2899 -13.2351 -13.2350 -13.1573 -13.1573
   -13.0862 -13.0862 -13.0442 -13.0441  -1.1372  -1.1372   2.1623   2.1623
     4.9051   4.9051   6.1684   6.1684  10.0747  10.0747  10.6497  10.6497
    11.6267  11.6267  13.2435  13.2435

     occupation numbers 
     1.0000   1.0000   1.0000   1.0000   1.0000   1.0000   1.0000   1.0000
     1.0000   1.0000   1.0000   1.0000   1.0000   1.0000   1.0000   1.0000
     1.0000   1.0000   1.0000   1.0000   1.0000   1.0000   1.0000   1.0000
     1.0000   1.0000   1.0000   1.0000   0.0000   0.0000   0.0000   0.0000
     0.0000   0.0000   0.0000   0.0000

          k =-0.1768-0.5303 0.7071 (  5178 PWs)   bands (ev):

   -14.3244 -14.3244 -14.2991 -14.2990 -14.2468 -14.2466 -14.2106 -14.2106
   -13.3357 -13.3357 -13.2936 -13.2936 -13.2343 -13.2343 -13.1661 -13.1661
   -13.0833 -13.0832 -13.0414 -13.0414  -0.8228  -0.8228   1.7637   1.7637
     5.0879   5.0879   5.5859   5.5859   9.5084   9.5084   9.9842   9.9842
    12.4670  12.4670  14.2814  14.2814

     occupation numbers 
     1.0000   1.0000   1.0000   1.0000   1.0000   1.0000   1.0000   1.0000
     1.0000   1.0000   1.0000   1.0000   1.0000   1.0000   1.0000   1.0000
     1.0000   1.0000   1.0000   1.0000   1.0000   1.0000   1.0000   1.0000
     1.0000   1.0000   1.0000   1.0000   0.0000   0.0000   0.0000   0.0000
     0.0000   0.0000   0.0000   0.0000

          k =-0.1326-0.4861 0.6629 (  5191 PWs)   bands (ev):

   -14.3256 -14.3256 -14.2965 -14.2963 -14.2502 -14.2500 -14.2080 -14.2079
   -13.3337 -13.3337 -13.2905 -13.2905 -13.2326 -13.2325 -13.1779 -13.1779
   -13.0827 -13.0826 -13.0366 -13.0365  -0.4886  -0.4886   1.3461   1.3461
     4.8356   4.8356   5.4495   5.4495   9.7162   9.7162  10.4723  10.4723
    12.2644  12.2644  14.2291  14.2291

     occupation numbers 
     1.0000   1.0000   1.0000   1.0000   1.0000   1.0000   1.0000   1.0000
     1.0000   1.0000   1.0000   1.0000   1.0000   1.0000   1.0000   1.0000
     1.0000   1.0000   1.0000   1.0000   1.0000   1.0000   1.0000   1.0000
     1.0000   1.0000   1.0000   1.0000   0.0000   0.0000   0.0000   0.0000
     0.0000   0.0000   0.0000   0.0000

          k =-0.0884-0.4419 0.6187 (  5191 PWs)   bands (ev):

   -14.3268 -14.3268 -14.2940 -14.2938 -14.2533 -14.2531 -14.2056 -14.2056
   -13.3341 -13.3340 -13.2861 -13.2860 -13.2312 -13.2311 -13.1862 -13.1861
   -13.0833 -13.0833 -13.0329 -13.0329  -0.2238  -0.2238   1.0427   1.0427
     4.6183   4.6183   5.4374   5.4374   9.7978   9.7978  11.2589  11.2589
    12.1267  12.1267  13.5724  13.5724

     occupation numbers 
     1.0000   1.0000   1.0000   1.0000   1.0000   1.0000   1.0000   1.0000
     1.0000   1.0000   1.0000   1.0000   1.0000   1.0000   1.0000   1.0000
     1.0000   1.0000   1.0000   1.0000   1.0000   1.0000   1.0000   1.0000
     1.0000   1.0000   1.0000   1.0000   0.0000   0.0000   0.0000   0.0000
     0.0000   0.0000   0.0000   0.0000

          k =-0.0442-0.3977 0.5745 (  5189 PWs)   bands (ev):

   -14.3278 -14.3278 -14.2919 -14.2916 -14.2558 -14.2556 -14.2042 -14.2042
   -13.3348 -13.3348 -13.2845 -13.2844 -13.2315 -13.2314 -13.1872 -13.1870
   -13.0840 -13.0840 -13.0319 -13.0319  -0.2233  -0.2233   1.0454   1.0454
     4.4942   4.4942   5.5348   5.5348   9.9026   9.9026  11.7386  11.7386
    12.3961  12.3961  12.7461  12.7461

     occupation numbers 
     1.0000   1.0000   1.0000   1.0000   1.0000   1.0000   1.0000   1.0000
     1.0000   1.0000   1.0000   1.0000   1.0000   1.0000   1.0000   1.0000
     1.0000   1.0000   1.0000   1.0000   1.0000   1.0000   1.0000   1.0000
     1.0000   1.0000   1.0000   1.0000   0.0000   0.0000   0.0000   0.0000
     0.0000   0.0000   0.0000   0.0000

          k = 0.0000-0.3536 0.5303 (  5188 PWs)   bands (ev):

   -14.3284 -14.3283 -14.2906 -14.2903 -14.2571 -14.2568 -14.2040 -14.2040
   -13.3356 -13.3356 -13.2869 -13.2868 -13.2334 -13.2333 -13.1799 -13.1798
   -13.0844 -13.0844 -13.0342 -13.0342  -0.4821  -0.4821   1.3365   1.3365
     4.5091   4.5092   5.7173   5.7173  10.0208  10.0208  11.5638  11.5638
    11.9710  11.9710  13.3198  13.3198

     occupation numbers 
     1.0000   1.0000   1.0000   1.0000   1.0000   1.0000   1.0000   1.0000
     1.0000   1.0000   1.0000   1.0000   1.0000   1.0000   1.0000   1.0000
     1.0000   1.0000   1.0000   1.0000   1.0000   1.0000   1.0000   1.0000
     1.0000   1.0000   1.0000   1.0000   0.0000   0.0000   0.0000   0.0000
     0.0000   0.0000   0.0000   0.0000

          k =-0.0884-0.5303 0.7071 (  5202 PWs)   bands (ev):

   -14.3232 -14.3232 -14.3002 -14.3000 -14.2457 -14.2456 -14.2110 -14.2110
   -13.3308 -13.3308 -13.2933 -13.2933 -13.2265 -13.2264 -13.1863 -13.1862
   -13.0786 -13.0786 -13.0377 -13.0377  -0.2493  -0.2492   1.0599   1.0599
     4.9983   4.9983   5.2733   5.2733   9.4731   9.4731   9.7544   9.7544
    13.2114  13.2114  14.5875  14.5875

     occupation numbers 
     1.0000   1.0000   1.0000   1.0000   1.0000   1.0000   1.0000   1.0000
     1.0000   1.0000   1.0000   1.0000   1.0000   1.0000   1.0000   1.0000
     1.0000   1.0000   1.0000   1.0000   1.0000   1.0000   1.0000   1.0000
     1.0000   1.0000   1.0000   1.0000   0.0000   0.0000   0.0000   0.0000
     0.0000   0.0000   0.0000   0.0000

          k =-0.0442-0.4861 0.6629 (  5187 PWs)   bands (ev):

   -14.3247 -14.3247 -14.2978 -14.2976 -14.2490 -14.2488 -14.2081 -14.2081
   -13.3325 -13.3325 -13.2877 -13.2877 -13.2229 -13.2227 -13.1962 -13.1960
   -13.0806 -13.0805 -13.0333 -13.0332   0.0633   0.0633   0.7341   0.7341
     4.7690   4.7690   5.2222   5.2222   9.6548   9.6548  10.3844  10.3844
    13.0040  13.0040  13.8006  13.8006

     occupation numbers 
     1.0000   1.0000   1.0000   1.0000   1.0000   1.0000   1.0000   1.0000
     1.0000   1.0000   1.0000   1.0000   1.0000   1.0000   1.0000   1.0000
     1.0000   1.0000   1.0000   1.0000   1.0000   1.0000   1.0000   1.0000
     1.0000   1.0000   1.0000   1.0000   0.0000   0.0000   0.0000   0.0000
     0.0000   0.0000   0.0000   0.0000

          k = 0.0000-0.4419 0.6187 (  5174 PWs)   bands (ev):

   -14.3264 -14.3263 -14.2950 -14.2947 -14.2526 -14.2523 -14.2056 -14.2056
   -13.3341 -13.3341 -13.2840 -13.2839 -13.2251 -13.2249 -13.1966 -13.1964
   -13.0827 -13.0826 -13.0310 -13.0310   0.0669   0.0669   0.7422   0.7422
     4.5593   4.5593   5.3330   5.3330   9.7672   9.7672  11.2715  11.2715
    12.7805  12.7805  12.8977  12.8977

     occupation numbers 
     1.0000   1.0000   1.0000   1.0000   1.0000   1.0000   1.0000   1.0000
     1.0000   1.0000   1.0000   1.0000   1.0000   1.0000   1.0000   1.0000
     1.0000   1.0000   1.0000   1.0000   1.0000   1.0000   1.0000   1.0000
     1.0000   1.0000   1.0000   1.0000   0.0000   0.0000   0.0000   0.0000
     0.0000   0.0000   0.0000   0.0000

          k =-0.7071 0.1768 0.0000 (  5190 PWs)   bands (ev):

   -14.3226 -14.3226 -14.3008 -14.3007 -14.2450 -14.2448 -14.2113 -14.2113
   -13.3300 -13.3300 -13.2924 -13.2924 -13.2160 -13.2157 -13.2013 -13.2010
   -13.0769 -13.0768 -13.0363 -13.0363   0.3655   0.3656   0.4012   0.4013
     4.9971   4.9971   5.1390   5.1390   9.4997   9.4998   9.6303   9.6303
    13.9205  13.9205  14.0894  14.0894

     occupation numbers 
     1.0000   1.0000   1.0000   1.0000   1.0000   1.0000   1.0000   1.0000
     1.0000   1.0000   1.0000   1.0000   1.0000   1.0000   1.0000   1.0000
     1.0000   1.0000   1.0000   1.0000   1.0000   1.0000   1.0000   1.0000
     1.0000   1.0000   1.0000   1.0000   0.0000   0.0000   0.0000   0.0000
     0.0000   0.0000   0.0000   0.0000

          k =-0.1768-0.4419 0.7071 (  5193 PWs)   bands (ev):

   -14.3271 -14.3271 -14.2938 -14.2936 -14.2533 -14.2531 -14.2062 -14.2062
   -13.3360 -13.3360 -13.2897 -13.2896 -13.2345 -13.2344 -13.1727 -13.1726
   -13.0847 -13.0846 -13.0370 -13.0370  -0.6728  -0.6728   1.5719   1.5719
     4.7504   4.7504   5.6216   5.6216  10.3693  10.3693  10.6046  10.6046
    11.5798  11.5798  14.0021  14.0021

     occupation numbers 
     1.0000   1.0000   1.0000   1.0000   1.0000   1.0000   1.0000   1.0000
     1.0000   1.0000   1.0000   1.0000   1.0000   1.0000   1.0000   1.0000
     1.0000   1.0000   1.0000   1.0000   1.0000   1.0000   1.0000   1.0000
     1.0000   1.0000   1.0000   1.0000   0.0000   0.0000   0.0000   0.0000
     0.0000   0.0000   0.0000   0.0000

          k =-0.1326-0.3977 0.6629 (  5191 PWs)   bands (ev):

   -14.3276 -14.3275 -14.2926 -14.2924 -14.2550 -14.2547 -14.2047 -14.2047
   -13.3350 -13.3350 -13.2857 -13.2856 -13.2329 -13.2328 -13.1830 -13.1829
   -13.0845 -13.0845 -13.0329 -13.0329  -0.3601  -0.3601   1.2037   1.2037
     4.6094   4.6094   5.4492   5.4492  10.4635  10.4635  11.0373  11.0373
    11.7283  11.7283  13.4466  13.4467

     occupation numbers 
     1.0000   1.0000   1.0000   1.0000   1.0000   1.0000   1.0000   1.0000
     1.0000   1.0000   1.0000   1.0000   1.0000   1.0000   1.0000   1.0000
     1.0000   1.0000   1.0000   1.0000   1.0000   1.0000   1.0000   1.0000
     1.0000   1.0000   1.0000   1.0000   0.0000   0.0000   0.0000   0.0000
     0.0000   0.0000   0.0000   0.0000

          k =-0.0884-0.3536 0.6187 (  5176 PWs)   bands (ev):

   -14.3277 -14.3277 -14.2923 -14.2920 -14.2555 -14.2553 -14.2042 -14.2042
   -13.3350 -13.3349 -13.2837 -13.2836 -13.2322 -13.2321 -13.1871 -13.1870
   -13.0846 -13.0845 -13.0314 -13.0313  -0.2068  -0.2068   1.0304   1.0304
     4.5649   4.5649   5.3863   5.3863  10.4725  10.4725  11.1054  11.1054
    12.3725  12.3725  12.6683  12.6683

     occupation numbers 
     1.0000   1.0000   1.0000   1.0000   1.0000   1.0000   1.0000   1.0000
     1.0000   1.0000   1.0000   1.0000   1.0000   1.0000   1.0000   1.0000
     1.0000   1.0000   1.0000   1.0000   1.0000   1.0000   1.0000   1.0000
     1.0000   1.0000   1.0000   1.0000   0.0000   0.0000   0.0000   0.0000
     0.0000   0.0000   0.0000   0.0000

          k =-0.0884-0.4419 0.7071 (  5197 PWs)   bands (ev):

   -14.3261 -14.3261 -14.2957 -14.2954 -14.2518 -14.2515 -14.2062 -14.2062
   -13.3342 -13.3341 -13.2854 -13.2853 -13.2282 -13.2281 -13.1907 -13.1906
   -13.0832 -13.0831 -13.0320 -13.0320  -0.1537  -0.1537   0.9843   0.9843
     4.7301   4.7301   5.1918   5.1918  10.3647  10.3648  10.5870  10.5870
    12.0559  12.0559  13.6189  13.6189

     occupation numbers 
     1.0000   1.0000   1.0000   1.0000   1.0000   1.0000   1.0000   1.0000
     1.0000   1.0000   1.0000   1.0000   1.0000   1.0000   1.0000   1.0000
     1.0000   1.0000   1.0000   1.0000   1.0000   1.0000   1.0000   1.0000
     1.0000   1.0000   1.0000   1.0000   0.0000   0.0000   0.0000   0.0000
     0.0000   0.0000   0.0000   0.0000

          k =-0.0442-0.3977 0.6629 (  5182 PWs)   bands (ev):

   -14.3267 -14.3266 -14.2947 -14.2945 -14.2532 -14.2529 -14.2049 -14.2048
   -13.3350 -13.3350 -13.2815 -13.2815 -13.2253 -13.2252 -13.1982 -13.1981
   -13.0840 -13.0840 -13.0294 -13.0293   0.0884   0.0884   0.7358   0.7358
     4.6369   4.6369   5.1041   5.1041  10.5400  10.5400  11.3033  11.3033
    11.9421  11.9421  12.6603  12.6603

     occupation numbers 
     1.0000   1.0000   1.0000   1.0000   1.0000   1.0000   1.0000   1.0000
     1.0000   1.0000   1.0000   1.0000   1.0000   1.0000   1.0000   1.0000
     1.0000   1.0000   1.0000   1.0000   1.0000   1.0000   1.0000   1.0000
     1.0000   1.0000   1.0000   1.0000   0.0000   0.0000   0.0000   0.0000
     0.0000   0.0000   0.0000   0.0000

          k =-0.0000-0.3536 0.6187 (  5172 PWs)   bands (ev):

   -14.3272 -14.3272 -14.2936 -14.2934 -14.2544 -14.2541 -14.2043 -14.2043
   -13.3353 -13.3353 -13.2817 -13.2816 -13.2279 -13.2277 -13.1947 -13.1945
   -13.0845 -13.0844 -13.0296 -13.0296  -0.0431  -0.0431   0.8746   0.8746
     4.5696   4.5696   5.2147   5.2147  10.6315  10.6315  11.4766  11.4766
    11.8297  11.8297  12.5399  12.5399

     occupation numbers 
     1.0000   1.0000   1.0000   1.0000   1.0000   1.0000   1.0000   1.0000
     1.0000   1.0000   1.0000   1.0000   1.0000   1.0000   1.0000   1.0000
     1.0000   1.0000   1.0000   1.0000   1.0000   1.0000   1.0000   1.0000
     1.0000   1.0000   1.0000   1.0000   0.0000   0.0000   0.0000   0.0000
     0.0000   0.0000   0.0000   0.0000

          k =-0.7071 0.2652 0.0000 (  5188 PWs)   bands (ev):

   -14.3256 -14.3256 -14.2967 -14.2964 -14.2509 -14.2506 -14.2063 -14.2063
   -13.3341 -13.3341 -13.2833 -13.2832 -13.2201 -13.2198 -13.2031 -13.2028
   -13.0825 -13.0825 -13.0302 -13.0302   0.3806   0.3806   0.4283   0.4284
     4.7991   4.7991   4.9684   4.9684  10.3615  10.3615  10.5390  10.5390
    12.7518  12.7519  12.8714  12.8715

     occupation numbers 
     1.0000   1.0000   1.0000   1.0000   1.0000   1.0000   1.0000   1.0000
     1.0000   1.0000   1.0000   1.0000   1.0000   1.0000   1.0000   1.0000
     1.0000   1.0000   1.0000   1.0000   1.0000   1.0000   1.0000   1.0000
     1.0000   1.0000   1.0000   1.0000   0.0000   0.0000   0.0000   0.0000
     0.0000   0.0000   0.0000   0.0000

          k =-0.7071 0.3536 0.0000 (  5180 PWs)   bands (ev):

   -14.3266 -14.3266 -14.2951 -14.2948 -14.2531 -14.2528 -14.2046 -14.2045
   -13.3354 -13.3354 -13.2796 -13.2795 -13.2216 -13.2213 -13.2044 -13.2041
   -13.0844 -13.0844 -13.0281 -13.0280   0.3873   0.3873   0.4394   0.4395
     4.7248   4.7249   4.9025   4.9025  11.0907  11.0908  11.4084  11.4084
    11.8938  11.8938  11.9167  11.9167

     occupation numbers 
     1.0000   1.0000   1.0000   1.0000   1.0000   1.0000   1.0000   1.0000
     1.0000   1.0000   1.0000   1.0000   1.0000   1.0000   1.0000   1.0000
     1.0000   1.0000   1.0000   1.0000   1.0000   1.0000   1.0000   1.0000
     1.0000   1.0000   1.0000   1.0000   0.0000   0.0000   0.0000   0.0000
     0.0000   0.0000   0.0000   0.0000

     the Fermi energy is     7.9095 ev

!    total energy              =    -885.87703923 Ry
     Harris-Foulkes estimate   =    -885.87703924 Ry
     estimated scf accuracy    <       0.00000002 Ry

     total all-electron energy =    -24716.576789 Ry

     The total energy is the sum of the following terms:

     one-electron contribution =    -146.82569558 Ry
     hartree contribution      =      92.93784076 Ry
     xc contribution           =     -96.20136481 Ry
     ewald contribution        =    -171.91134383 Ry
     one-center paw contrib.   =    -563.87647565 Ry
     smearing contrib. (-TS)   =      -0.00000013 Ry

     convergence has been achieved in   6 iterations

     Writing output data file Sn.save
 
     init_run     :      5.47s CPU      6.21s WALL (       1 calls)
     electrons    :    130.11s CPU    145.70s WALL (       1 calls)

     Called by init_run:
     wfcinit      :      5.07s CPU      5.69s WALL (       1 calls)
     potinit      :      0.13s CPU      0.15s WALL (       1 calls)

     Called by electrons:
     c_bands      :    109.32s CPU    122.67s WALL (       7 calls)
     sum_band     :     19.68s CPU     21.74s WALL (       7 calls)
     v_of_rho     :      0.05s CPU      0.06s WALL (       7 calls)
     v_h          :      0.00s CPU      0.00s WALL (       7 calls)
     v_xc         :      0.05s CPU      0.05s WALL (       7 calls)
     newd         :      0.41s CPU      0.45s WALL (       7 calls)
     PAW_pot      :      0.79s CPU      0.87s WALL (       7 calls)
     mix_rho      :      0.02s CPU      0.03s WALL (       7 calls)

     Called by c_bands:
     init_us_2    :      0.41s CPU      0.47s WALL (    2175 calls)
     cegterg      :    101.66s CPU    114.85s WALL (    1015 calls)

     Called by sum_band:
     sum_band:bec :      2.24s CPU      2.31s WALL (    1015 calls)
     addusdens    :      0.21s CPU      0.26s WALL (       7 calls)

     Called by *egterg:
     h_psi        :     83.55s CPU     93.94s WALL (    3531 calls)
     s_psi        :      2.89s CPU      2.92s WALL (    3531 calls)
     g_psi        :      0.26s CPU      0.26s WALL (    2371 calls)
     cdiaghg      :      8.58s CPU      8.76s WALL (    3241 calls)
     cegterg:over :      4.27s CPU      4.29s WALL (    2371 calls)
     cegterg:upda :      2.10s CPU      2.12s WALL (    2371 calls)
     cegterg:last :      1.06s CPU      1.07s WALL (    1015 calls)

     Called by h_psi:
     h_psi:vloc   :     76.90s CPU     87.03s WALL (    3531 calls)
     h_psi:vnl    :      6.41s CPU      6.65s WALL (    3531 calls)
     add_vuspsi   :      3.15s CPU      3.21s WALL (    3531 calls)

     General routines
     calbec       :      4.35s CPU      4.58s WALL (    4546 calls)
     fft          :      0.06s CPU      0.07s WALL (     135 calls)
     fftw         :     85.79s CPU     97.08s WALL (  462484 calls)
     davcio       :      0.05s CPU      0.31s WALL (     145 calls)
 
     Parallel routines
     fft_scatter  :     40.62s CPU     45.92s WALL (  462619 calls)

     PAW routines
     PAW_pot      :      0.79s CPU      0.87s WALL (       7 calls)
     PAW_symme    :      0.02s CPU      0.02s WALL (      14 calls)
 
     PWSCF        :  2m16.73s CPU     2m33.64s WALL

 
   This run was terminated on:   5:21:59   9Mar2020            

=------------------------------------------------------------------------------=
   JOB DONE.
=------------------------------------------------------------------------------=
