
     Program PWSCF v.5.4.0 starts on  5Mar2020 at 19:25:27 

     This program is part of the open-source Quantum ESPRESSO suite
     for quantum simulation of materials; please cite
         "P. Giannozzi et al., J. Phys.:Condens. Matter 21 395502 (2009);
          URL http://www.quantum-espresso.org", 
     in publications or presentations arising from this work. More details at
     http://www.quantum-espresso.org/quote

     Parallel version (MPI & OpenMP), running on      16 processor cores
     Number of MPI processes:                16
     Threads/MPI process:                     1
     R & G space division:  proc/nbgrp/npool/nimage =      16
     Waiting for input...
     Reading input from standard input
Warning: card &IONS ignored
Warning: card / ignored
Warning: card &CELL ignored
Warning: card / ignored

     Current dimensions of program PWSCF are:
     Max number of different atomic species (ntypx) = 10
     Max number of k-points (npk) =  40000
     Max angular momentum in pseudopotentials (lmaxx) =  3

     Atomic positions and unit cell read from directory:
     ./Sn.save/
 

     Subspace diagonalization in iterative solution of the eigenvalue problem:
     a serial algorithm will be used

 
     Parallelization info
     --------------------
     sticks:   dense  smooth     PW     G-vecs:    dense   smooth      PW
     Min         108     108     31                 2989     2989     451
     Max         109     109     32                 2993     2993     454
     Sum        1735    1735    499                47855    47855    7239
 


     bravais-lattice index     =            0
     lattice parameter (alat)  =       8.8887  a.u.
     unit-cell volume          =     496.5847 (a.u.)^3
     number of atoms/cell      =            2
     number of atomic types    =            1
     number of electrons       =        28.00
     number of Kohn-Sham states=           18
     kinetic-energy cutoff     =      80.0000  Ry
     charge density cutoff     =     320.0000  Ry
     Exchange-correlation      = PBE ( 1  4  3  4 0 0)

     celldm(1)=   8.888656  celldm(2)=   0.000000  celldm(3)=   0.000000
     celldm(4)=   0.000000  celldm(5)=   0.000000  celldm(6)=   0.000000

     crystal axes: (cart. coord. in units of alat)
               a(1) = (   0.000000   0.707107   0.707107 )  
               a(2) = (   0.707107   0.000000   0.707107 )  
               a(3) = (   0.707107   0.707107   0.000000 )  

     reciprocal axes: (cart. coord. in units 2 pi/alat)
               b(1) = ( -0.707107  0.707107  0.707107 )  
               b(2) = (  0.707107 -0.707107  0.707107 )  
               b(3) = (  0.707107  0.707107 -0.707107 )  


     PseudoPot. # 1 for Sn read from file:
     ../PseudopotentialDatabase/Sn_ONCV_PBE-1.2.upf
     MD5 check sum: 6680f7ee4d83b53e0fcd4167fcb72813
     Pseudo is Norm-conserving, Zval = 14.0
     Generated using ONCVPSP code by D. R. Hamann
     Using radial grid of  602 points,  6 beta functions with: 
                l(1) =   0
                l(2) =   0
                l(3) =   1
                l(4) =   1
                l(5) =   2
                l(6) =   2

     atomic species   valence    mass     pseudopotential
        Sn            14.00   118.71000     Sn( 1.00)

     24 Sym. Ops. (no inversion) found
          (note: 24 additional sym.ops. were found but ignored
           their fractional translations are incommensurate with FFT grid)

                                    s                        frac. trans.

      isym =  1     identity                                     

 cryst.   s( 1) = (     1          0          0      )
                  (     0          1          0      )
                  (     0          0          1      )

 cart.    s( 1) = (  1.0000000  0.0000000  0.0000000 )
                  (  0.0000000  1.0000000  0.0000000 )
                  (  0.0000000  0.0000000  1.0000000 )


      isym =  2     180 deg rotation - cart. axis [0,0,1]        

 cryst.   s( 2) = (     0          1         -1      )
                  (     1          0         -1      )
                  (     0          0         -1      )

 cart.    s( 2) = ( -1.0000000  0.0000000  0.0000000 )
                  (  0.0000000 -1.0000000  0.0000000 )
                  (  0.0000000  0.0000000  1.0000000 )


      isym =  3     180 deg rotation - cart. axis [0,1,0]        

 cryst.   s( 3) = (     0         -1          1      )
                  (     0         -1          0      )
                  (     1         -1          0      )

 cart.    s( 3) = ( -1.0000000  0.0000000  0.0000000 )
                  (  0.0000000  1.0000000  0.0000000 )
                  (  0.0000000  0.0000000 -1.0000000 )


      isym =  4     180 deg rotation - cart. axis [1,0,0]        

 cryst.   s( 4) = (    -1          0          0      )
                  (    -1          0          1      )
                  (    -1          1          0      )

 cart.    s( 4) = (  1.0000000  0.0000000  0.0000000 )
                  (  0.0000000 -1.0000000  0.0000000 )
                  (  0.0000000  0.0000000 -1.0000000 )


      isym =  5     120 deg rotation - cart. axis [-1,-1,-1]     

 cryst.   s( 5) = (     0          0          1      )
                  (     1          0          0      )
                  (     0          1          0      )

 cart.    s( 5) = (  0.0000000  1.0000000  0.0000000 )
                  (  0.0000000  0.0000000  1.0000000 )
                  (  1.0000000  0.0000000  0.0000000 )


      isym =  6     120 deg rotation - cart. axis [-1,1,1]       

 cryst.   s( 6) = (     1         -1          0      )
                  (     0         -1          1      )
                  (     0         -1          0      )

 cart.    s( 6) = (  0.0000000 -1.0000000  0.0000000 )
                  (  0.0000000  0.0000000  1.0000000 )
                  ( -1.0000000  0.0000000  0.0000000 )


      isym =  7     120 deg rotation - cart. axis [1,1,-1]       

 cryst.   s( 7) = (    -1          1          0      )
                  (    -1          0          0      )
                  (    -1          0          1      )

 cart.    s( 7) = (  0.0000000  1.0000000  0.0000000 )
                  (  0.0000000  0.0000000 -1.0000000 )
                  ( -1.0000000  0.0000000  0.0000000 )


      isym =  8     120 deg rotation - cart. axis [1,-1,1]       

 cryst.   s( 8) = (     0          0         -1      )
                  (     0          1         -1      )
                  (     1          0         -1      )

 cart.    s( 8) = (  0.0000000 -1.0000000  0.0000000 )
                  (  0.0000000  0.0000000 -1.0000000 )
                  (  1.0000000  0.0000000  0.0000000 )


      isym =  9     120 deg rotation - cart. axis [1,1,1]        

 cryst.   s( 9) = (     0          1          0      )
                  (     0          0          1      )
                  (     1          0          0      )

 cart.    s( 9) = (  0.0000000  0.0000000  1.0000000 )
                  (  1.0000000  0.0000000  0.0000000 )
                  (  0.0000000  1.0000000  0.0000000 )


      isym = 10     120 deg rotation - cart. axis [-1,1,-1]      

 cryst.   s(10) = (    -1          0          1      )
                  (    -1          1          0      )
                  (    -1          0          0      )

 cart.    s(10) = (  0.0000000  0.0000000  1.0000000 )
                  ( -1.0000000  0.0000000  0.0000000 )
                  (  0.0000000 -1.0000000  0.0000000 )


      isym = 11     120 deg rotation - cart. axis [1,-1,-1]      

 cryst.   s(11) = (     1          0         -1      )
                  (     0          0         -1      )
                  (     0          1         -1      )

 cart.    s(11) = (  0.0000000  0.0000000 -1.0000000 )
                  ( -1.0000000  0.0000000  0.0000000 )
                  (  0.0000000  1.0000000  0.0000000 )


      isym = 12     120 deg rotation - cart. axis [-1,-1,1]      

 cryst.   s(12) = (     0         -1          0      )
                  (     1         -1          0      )
                  (     0         -1          1      )

 cart.    s(12) = (  0.0000000  0.0000000 -1.0000000 )
                  (  1.0000000  0.0000000  0.0000000 )
                  (  0.0000000 -1.0000000  0.0000000 )


      isym = 13     inv. 180 deg rotation - cart. axis [1,1,0]   

 cryst.   s(13) = (     1          0         -1      )
                  (     0          1         -1      )
                  (     0          0         -1      )

 cart.    s(13) = (  0.0000000 -1.0000000  0.0000000 )
                  ( -1.0000000  0.0000000  0.0000000 )
                  (  0.0000000  0.0000000  1.0000000 )


      isym = 14     inv. 180 deg rotation - cart. axis [1,-1,0]  

 cryst.   s(14) = (     0          1          0      )
                  (     1          0          0      )
                  (     0          0          1      )

 cart.    s(14) = (  0.0000000  1.0000000  0.0000000 )
                  (  1.0000000  0.0000000  0.0000000 )
                  (  0.0000000  0.0000000  1.0000000 )


      isym = 15     inv.  90 deg rotation - cart. axis [0,0,-1]  

 cryst.   s(15) = (     0         -1          0      )
                  (     0         -1          1      )
                  (     1         -1          0      )

 cart.    s(15) = (  0.0000000 -1.0000000  0.0000000 )
                  (  1.0000000  0.0000000  0.0000000 )
                  (  0.0000000  0.0000000 -1.0000000 )


      isym = 16     inv.  90 deg rotation - cart. axis [0,0,1]   

 cryst.   s(16) = (    -1          0          1      )
                  (    -1          0          0      )
                  (    -1          1          0      )

 cart.    s(16) = (  0.0000000  1.0000000  0.0000000 )
                  ( -1.0000000  0.0000000  0.0000000 )
                  (  0.0000000  0.0000000 -1.0000000 )


      isym = 17     inv. 180 deg rotation - cart. axis [1,0,1]   

 cryst.   s(17) = (     1         -1          0      )
                  (     0         -1          0      )
                  (     0         -1          1      )

 cart.    s(17) = (  0.0000000  0.0000000 -1.0000000 )
                  (  0.0000000  1.0000000  0.0000000 )
                  ( -1.0000000  0.0000000  0.0000000 )


      isym = 18     inv. 180 deg rotation - cart. axis [-1,0,1]  

 cryst.   s(18) = (     0          0          1      )
                  (     0          1          0      )
                  (     1          0          0      )

 cart.    s(18) = (  0.0000000  0.0000000  1.0000000 )
                  (  0.0000000  1.0000000  0.0000000 )
                  (  1.0000000  0.0000000  0.0000000 )


      isym = 19     inv.  90 deg rotation - cart. axis [0,1,0]   

 cryst.   s(19) = (     0          0         -1      )
                  (     1          0         -1      )
                  (     0          1         -1      )

 cart.    s(19) = (  0.0000000  0.0000000 -1.0000000 )
                  (  0.0000000 -1.0000000  0.0000000 )
                  (  1.0000000  0.0000000  0.0000000 )


      isym = 20     inv.  90 deg rotation - cart. axis [0,-1,0]  

 cryst.   s(20) = (    -1          1          0      )
                  (    -1          0          1      )
                  (    -1          0          0      )

 cart.    s(20) = (  0.0000000  0.0000000  1.0000000 )
                  (  0.0000000 -1.0000000  0.0000000 )
                  ( -1.0000000  0.0000000  0.0000000 )


      isym = 21     inv. 180 deg rotation - cart. axis [0,1,1]   

 cryst.   s(21) = (    -1          0          0      )
                  (    -1          1          0      )
                  (    -1          0          1      )

 cart.    s(21) = (  1.0000000  0.0000000  0.0000000 )
                  (  0.0000000  0.0000000 -1.0000000 )
                  (  0.0000000 -1.0000000  0.0000000 )


      isym = 22     inv. 180 deg rotation - cart. axis [0,1,-1]  

 cryst.   s(22) = (     1          0          0      )
                  (     0          0          1      )
                  (     0          1          0      )

 cart.    s(22) = (  1.0000000  0.0000000  0.0000000 )
                  (  0.0000000  0.0000000  1.0000000 )
                  (  0.0000000  1.0000000  0.0000000 )


      isym = 23     inv.  90 deg rotation - cart. axis [-1,0,0]  

 cryst.   s(23) = (     0          1         -1      )
                  (     0          0         -1      )
                  (     1          0         -1      )

 cart.    s(23) = ( -1.0000000  0.0000000  0.0000000 )
                  (  0.0000000  0.0000000 -1.0000000 )
                  (  0.0000000  1.0000000  0.0000000 )


      isym = 24     inv.  90 deg rotation - cart. axis [1,0,0]   

 cryst.   s(24) = (     0         -1          1      )
                  (     1         -1          0      )
                  (     0         -1          0      )

 cart.    s(24) = ( -1.0000000  0.0000000  0.0000000 )
                  (  0.0000000  0.0000000  1.0000000 )
                  (  0.0000000 -1.0000000  0.0000000 )


   Cartesian axes

     site n.     atom                  positions (alat units)
         1           Sn  tau(   1) = (   0.0000000   0.0000000   0.0000000  )
         2           Sn  tau(   2) = (   0.3535534   0.3535534   0.3535534  )

   Crystallographic axes

     site n.     atom                  positions (cryst. coord.)
         1           Sn  tau(   1) = (  0.0000000  0.0000000  0.0000000  )
         2           Sn  tau(   2) = (  0.2500000  0.2500000  0.2500000  )

     number of k points=    90  gaussian smearing, width (Ry)=  0.0001
                       cart. coord. in units 2pi/alat
        k(    1) = (   0.0000000   0.0000000   0.0000000), wk =   0.0222222
        k(    2) = (   0.0000000   0.0392837   0.0000000), wk =   0.0222222
        k(    3) = (   0.0000000   0.0785674   0.0000000), wk =   0.0222222
        k(    4) = (   0.0000000   0.1178511   0.0000000), wk =   0.0222222
        k(    5) = (   0.0000000   0.1571348   0.0000000), wk =   0.0222222
        k(    6) = (   0.0000000   0.1964186   0.0000000), wk =   0.0222222
        k(    7) = (   0.0000000   0.2357023   0.0000000), wk =   0.0222222
        k(    8) = (   0.0000000   0.2749860   0.0000000), wk =   0.0222222
        k(    9) = (   0.0000000   0.3142697   0.0000000), wk =   0.0222222
        k(   10) = (   0.0000000   0.3535534   0.0000000), wk =   0.0222222
        k(   11) = (   0.0000000   0.3928371   0.0000000), wk =   0.0222222
        k(   12) = (   0.0000000   0.4321208   0.0000000), wk =   0.0222222
        k(   13) = (   0.0000000   0.4714045   0.0000000), wk =   0.0222222
        k(   14) = (   0.0000000   0.5106882   0.0000000), wk =   0.0222222
        k(   15) = (   0.0000000   0.5499719   0.0000000), wk =   0.0222222
        k(   16) = (   0.0000000   0.5892557   0.0000000), wk =   0.0222222
        k(   17) = (   0.0000000   0.6285394   0.0000000), wk =   0.0222222
        k(   18) = (   0.0000000   0.6678231   0.0000000), wk =   0.0222222
        k(   19) = (   0.0000000   0.7071068   0.0000000), wk =   0.0222222
        k(   20) = (   0.0392837   0.7071068   0.0000000), wk =   0.0222222
        k(   21) = (   0.0785674   0.7071068   0.0000000), wk =   0.0222222
        k(   22) = (   0.1178511   0.7071068  -0.0000000), wk =   0.0222222
        k(   23) = (   0.1571348   0.7071068  -0.0000000), wk =   0.0222222
        k(   24) = (   0.1964186   0.7071068   0.0000000), wk =   0.0222222
        k(   25) = (   0.2357023   0.7071068   0.0000000), wk =   0.0222222
        k(   26) = (   0.2749860   0.7071068   0.0000000), wk =   0.0222222
        k(   27) = (   0.3142697   0.7071068   0.0000000), wk =   0.0222222
        k(   28) = (   0.3535534   0.7071068   0.0000000), wk =   0.0222222
        k(   29) = (   0.3535534   0.6799104   0.0271964), wk =   0.0222222
        k(   30) = (   0.3535534   0.6527140   0.0543928), wk =   0.0222222
        k(   31) = (   0.3535534   0.6255175   0.0815892), wk =   0.0222222
        k(   32) = (   0.3535534   0.5983211   0.1087857), wk =   0.0222222
        k(   33) = (   0.3535534   0.5711247   0.1359821), wk =   0.0222222
        k(   34) = (   0.3535534   0.5439283   0.1631785), wk =   0.0222222
        k(   35) = (   0.3535534   0.5167319   0.1903749), wk =   0.0222222
        k(   36) = (   0.3535534   0.4895355   0.2175713), wk =   0.0222222
        k(   37) = (   0.3535534   0.4623390   0.2447677), wk =   0.0222222
        k(   38) = (   0.3535534   0.4351426   0.2719641), wk =   0.0222222
        k(   39) = (   0.3535534   0.4079462   0.2991606), wk =   0.0222222
        k(   40) = (   0.3535534   0.3807498   0.3263570), wk =   0.0222222
        k(   41) = (   0.3535534   0.3535534   0.3535534), wk =   0.0222222
        k(   42) = (   0.3314563   0.3314563   0.3314563), wk =   0.0222222
        k(   43) = (   0.3093592   0.3093592   0.3093592), wk =   0.0222222
        k(   44) = (   0.2872621   0.2872621   0.2872621), wk =   0.0222222
        k(   45) = (   0.2651650   0.2651650   0.2651650), wk =   0.0222222
        k(   46) = (   0.2430680   0.2430680   0.2430680), wk =   0.0222222
        k(   47) = (   0.2209709   0.2209709   0.2209709), wk =   0.0222222
        k(   48) = (   0.1988738   0.1988738   0.1988738), wk =   0.0222222
        k(   49) = (   0.1767767   0.1767767   0.1767767), wk =   0.0222222
        k(   50) = (   0.1546796   0.1546796   0.1546796), wk =   0.0222222
        k(   51) = (   0.1325825   0.1325825   0.1325825), wk =   0.0222222
        k(   52) = (   0.1104854   0.1104854   0.1104854), wk =   0.0222222
        k(   53) = (   0.0883883   0.0883883   0.0883883), wk =   0.0222222
        k(   54) = (   0.0662913   0.0662913   0.0662913), wk =   0.0222222
        k(   55) = (   0.0441942   0.0441942   0.0441942), wk =   0.0222222
        k(   56) = (   0.0220971   0.0220971   0.0220971), wk =   0.0222222
        k(   57) = (   0.0000000   0.0000000   0.0000000), wk =   0.0222222
        k(   58) = (   0.0252538   0.0252538  -0.0000000), wk =   0.0222222
        k(   59) = (   0.0505076   0.0505076   0.0000000), wk =   0.0222222
        k(   60) = (   0.0757614   0.0757614   0.0000000), wk =   0.0222222
        k(   61) = (   0.1010153   0.1010153   0.0000000), wk =   0.0222222
        k(   62) = (   0.1262691   0.1262691  -0.0000000), wk =   0.0222222
        k(   63) = (   0.1515229   0.1515229   0.0000000), wk =   0.0222222
        k(   64) = (   0.1767767   0.1767767   0.0000000), wk =   0.0222222
        k(   65) = (   0.2020305   0.2020305  -0.0000000), wk =   0.0222222
        k(   66) = (   0.2272843   0.2272843   0.0000000), wk =   0.0222222
        k(   67) = (   0.2525381   0.2525381   0.0000000), wk =   0.0222222
        k(   68) = (   0.2777919   0.2777919   0.0000000), wk =   0.0222222
        k(   69) = (   0.3030458   0.3030458  -0.0000000), wk =   0.0222222
        k(   70) = (   0.3282996   0.3282996   0.0000000), wk =   0.0222222
        k(   71) = (   0.3535534   0.3535534   0.0000000), wk =   0.0222222
        k(   72) = (   0.3788072   0.3788072  -0.0000000), wk =   0.0222222
        k(   73) = (   0.4040610   0.4040610   0.0000000), wk =   0.0222222
        k(   74) = (   0.4293148   0.4293148   0.0000000), wk =   0.0222222
        k(   75) = (   0.4545686   0.4545686   0.0000000), wk =   0.0222222
        k(   76) = (   0.4798225   0.4798225  -0.0000000), wk =   0.0222222
        k(   77) = (   0.5050763   0.5050763   0.0000000), wk =   0.0222222
        k(   78) = (   0.5303301   0.5303301   0.0000000), wk =   0.0222222
        k(   79) = (   0.5155987   0.5155987   0.0294628), wk =   0.0222222
        k(   80) = (   0.5008673   0.5008673   0.0589256), wk =   0.0222222
        k(   81) = (   0.4861359   0.4861359   0.0883883), wk =   0.0222222
        k(   82) = (   0.4714045   0.4714045   0.1178511), wk =   0.0222222
        k(   83) = (   0.4566731   0.4566731   0.1473139), wk =   0.0222222
        k(   84) = (   0.4419417   0.4419417   0.1767767), wk =   0.0222222
        k(   85) = (   0.4272103   0.4272103   0.2062395), wk =   0.0222222
        k(   86) = (   0.4124790   0.4124790   0.2357023), wk =   0.0222222
        k(   87) = (   0.3977476   0.3977476   0.2651650), wk =   0.0222222
        k(   88) = (   0.3830162   0.3830162   0.2946278), wk =   0.0222222
        k(   89) = (   0.3682848   0.3682848   0.3240906), wk =   0.0222222
        k(   90) = (   0.3535534   0.3535534   0.3535534), wk =   0.0222222

                       cryst. coord.
        k(    1) = (   0.0000000   0.0000000   0.0000000), wk =   0.0222222
        k(    2) = (   0.0277778   0.0000000   0.0277778), wk =   0.0222222
        k(    3) = (   0.0555556   0.0000000   0.0555556), wk =   0.0222222
        k(    4) = (   0.0833333   0.0000000   0.0833333), wk =   0.0222222
        k(    5) = (   0.1111111   0.0000000   0.1111111), wk =   0.0222222
        k(    6) = (   0.1388889   0.0000000   0.1388889), wk =   0.0222222
        k(    7) = (   0.1666667   0.0000000   0.1666667), wk =   0.0222222
        k(    8) = (   0.1944444   0.0000000   0.1944444), wk =   0.0222222
        k(    9) = (   0.2222222   0.0000000   0.2222222), wk =   0.0222222
        k(   10) = (   0.2500000   0.0000000   0.2500000), wk =   0.0222222
        k(   11) = (   0.2777778   0.0000000   0.2777778), wk =   0.0222222
        k(   12) = (   0.3055556   0.0000000   0.3055556), wk =   0.0222222
        k(   13) = (   0.3333333   0.0000000   0.3333333), wk =   0.0222222
        k(   14) = (   0.3611111   0.0000000   0.3611111), wk =   0.0222222
        k(   15) = (   0.3888889   0.0000000   0.3888889), wk =   0.0222222
        k(   16) = (   0.4166667   0.0000000   0.4166667), wk =   0.0222222
        k(   17) = (   0.4444444   0.0000000   0.4444444), wk =   0.0222222
        k(   18) = (   0.4722222   0.0000000   0.4722222), wk =   0.0222222
        k(   19) = (   0.5000000   0.0000000   0.5000000), wk =   0.0222222
        k(   20) = (   0.5000000   0.0277778   0.5277778), wk =   0.0222222
        k(   21) = (   0.5000000   0.0555556   0.5555556), wk =   0.0222222
        k(   22) = (   0.5000000   0.0833333   0.5833333), wk =   0.0222222
        k(   23) = (   0.5000000   0.1111111   0.6111111), wk =   0.0222222
        k(   24) = (   0.5000000   0.1388889   0.6388889), wk =   0.0222222
        k(   25) = (   0.5000000   0.1666667   0.6666667), wk =   0.0222222
        k(   26) = (   0.5000000   0.1944444   0.6944444), wk =   0.0222222
        k(   27) = (   0.5000000   0.2222222   0.7222222), wk =   0.0222222
        k(   28) = (   0.5000000   0.2500000   0.7500000), wk =   0.0222222
        k(   29) = (   0.5000000   0.2692308   0.7307692), wk =   0.0222222
        k(   30) = (   0.5000000   0.2884615   0.7115385), wk =   0.0222222
        k(   31) = (   0.5000000   0.3076923   0.6923077), wk =   0.0222222
        k(   32) = (   0.5000000   0.3269231   0.6730769), wk =   0.0222222
        k(   33) = (   0.5000000   0.3461538   0.6538462), wk =   0.0222222
        k(   34) = (   0.5000000   0.3653846   0.6346154), wk =   0.0222222
        k(   35) = (   0.5000000   0.3846154   0.6153846), wk =   0.0222222
        k(   36) = (   0.5000000   0.4038462   0.5961538), wk =   0.0222222
        k(   37) = (   0.5000000   0.4230769   0.5769231), wk =   0.0222222
        k(   38) = (   0.5000000   0.4423077   0.5576923), wk =   0.0222222
        k(   39) = (   0.5000000   0.4615385   0.5384615), wk =   0.0222222
        k(   40) = (   0.5000000   0.4807692   0.5192308), wk =   0.0222222
        k(   41) = (   0.5000000   0.5000000   0.5000000), wk =   0.0222222
        k(   42) = (   0.4687500   0.4687500   0.4687500), wk =   0.0222222
        k(   43) = (   0.4375000   0.4375000   0.4375000), wk =   0.0222222
        k(   44) = (   0.4062500   0.4062500   0.4062500), wk =   0.0222222
        k(   45) = (   0.3750000   0.3750000   0.3750000), wk =   0.0222222
        k(   46) = (   0.3437500   0.3437500   0.3437500), wk =   0.0222222
        k(   47) = (   0.3125000   0.3125000   0.3125000), wk =   0.0222222
        k(   48) = (   0.2812500   0.2812500   0.2812500), wk =   0.0222222
        k(   49) = (   0.2500000   0.2500000   0.2500000), wk =   0.0222222
        k(   50) = (   0.2187500   0.2187500   0.2187500), wk =   0.0222222
        k(   51) = (   0.1875000   0.1875000   0.1875000), wk =   0.0222222
        k(   52) = (   0.1562500   0.1562500   0.1562500), wk =   0.0222222
        k(   53) = (   0.1250000   0.1250000   0.1250000), wk =   0.0222222
        k(   54) = (   0.0937500   0.0937500   0.0937500), wk =   0.0222222
        k(   55) = (   0.0625000   0.0625000   0.0625000), wk =   0.0222222
        k(   56) = (   0.0312500   0.0312500   0.0312500), wk =   0.0222222
        k(   57) = (   0.0000000   0.0000000   0.0000000), wk =   0.0222222
        k(   58) = (   0.0178571   0.0178571   0.0357143), wk =   0.0222222
        k(   59) = (   0.0357143   0.0357143   0.0714286), wk =   0.0222222
        k(   60) = (   0.0535714   0.0535714   0.1071429), wk =   0.0222222
        k(   61) = (   0.0714286   0.0714286   0.1428571), wk =   0.0222222
        k(   62) = (   0.0892857   0.0892857   0.1785714), wk =   0.0222222
        k(   63) = (   0.1071429   0.1071429   0.2142857), wk =   0.0222222
        k(   64) = (   0.1250000   0.1250000   0.2500000), wk =   0.0222222
        k(   65) = (   0.1428571   0.1428571   0.2857143), wk =   0.0222222
        k(   66) = (   0.1607143   0.1607143   0.3214286), wk =   0.0222222
        k(   67) = (   0.1785714   0.1785714   0.3571429), wk =   0.0222222
        k(   68) = (   0.1964286   0.1964286   0.3928571), wk =   0.0222222
        k(   69) = (   0.2142857   0.2142857   0.4285714), wk =   0.0222222
        k(   70) = (   0.2321429   0.2321429   0.4642857), wk =   0.0222222
        k(   71) = (   0.2500000   0.2500000   0.5000000), wk =   0.0222222
        k(   72) = (   0.2678571   0.2678571   0.5357143), wk =   0.0222222
        k(   73) = (   0.2857143   0.2857143   0.5714286), wk =   0.0222222
        k(   74) = (   0.3035714   0.3035714   0.6071429), wk =   0.0222222
        k(   75) = (   0.3214286   0.3214286   0.6428571), wk =   0.0222222
        k(   76) = (   0.3392857   0.3392857   0.6785714), wk =   0.0222222
        k(   77) = (   0.3571429   0.3571429   0.7142857), wk =   0.0222222
        k(   78) = (   0.3750000   0.3750000   0.7500000), wk =   0.0222222
        k(   79) = (   0.3854167   0.3854167   0.7291667), wk =   0.0222222
        k(   80) = (   0.3958333   0.3958333   0.7083333), wk =   0.0222222
        k(   81) = (   0.4062500   0.4062500   0.6875000), wk =   0.0222222
        k(   82) = (   0.4166667   0.4166667   0.6666667), wk =   0.0222222
        k(   83) = (   0.4270833   0.4270833   0.6458333), wk =   0.0222222
        k(   84) = (   0.4375000   0.4375000   0.6250000), wk =   0.0222222
        k(   85) = (   0.4479167   0.4479167   0.6041667), wk =   0.0222222
        k(   86) = (   0.4583333   0.4583333   0.5833333), wk =   0.0222222
        k(   87) = (   0.4687500   0.4687500   0.5625000), wk =   0.0222222
        k(   88) = (   0.4791667   0.4791667   0.5416667), wk =   0.0222222
        k(   89) = (   0.4895833   0.4895833   0.5208333), wk =   0.0222222
        k(   90) = (   0.5000000   0.5000000   0.5000000), wk =   0.0222222

     Dense  grid:    47855 G-vectors     FFT dimensions: (  54,  54,  54)

     Largest allocated arrays     est. size (Mb)     dimensions
        Kohn-Sham Wavefunctions         0.11 Mb     (     389,   18)
        NL pseudopotentials             0.21 Mb     (     389,   36)
        Each V/rho on FFT grid          0.18 Mb     (   11664)
        Each G-vector array             0.02 Mb     (    2990)
        G-vector shells                 0.00 Mb     (     418)
     Largest temporary arrays     est. size (Mb)     dimensions
        Auxiliary wavefunctions         0.43 Mb     (     389,   72)
        Each subspace H/S matrix        0.08 Mb     (      72,   72)
        Each <psi_i|beta_j> matrix      0.01 Mb     (      36,   18)

     The potential is recalculated from file :
     ./Sn.save/charge-density.dat

     Starting wfc are random

     Band Structure Calculation
     Davidson diagonalization with overlap

     Computing kpt #:     1
     total cpu time spent up to now is        1.1 secs

     Computing kpt #:     2
     total cpu time spent up to now is        1.4 secs

     Computing kpt #:     3
     total cpu time spent up to now is        1.6 secs

     Computing kpt #:     4
     total cpu time spent up to now is        1.9 secs

     Computing kpt #:     5
     total cpu time spent up to now is        2.2 secs

     Computing kpt #:     6
     total cpu time spent up to now is        2.5 secs

     Computing kpt #:     7
     total cpu time spent up to now is        2.8 secs

     Computing kpt #:     8
     total cpu time spent up to now is        3.1 secs

     Computing kpt #:     9
     total cpu time spent up to now is        3.4 secs

     Computing kpt #:    10
     total cpu time spent up to now is        3.7 secs

     Computing kpt #:    11
     total cpu time spent up to now is        4.0 secs

     Computing kpt #:    12
     total cpu time spent up to now is        4.3 secs

     Computing kpt #:    13
     total cpu time spent up to now is        4.6 secs

     Computing kpt #:    14
     total cpu time spent up to now is        4.9 secs

     Computing kpt #:    15
     total cpu time spent up to now is        5.2 secs

     Computing kpt #:    16
     total cpu time spent up to now is        5.5 secs

     Computing kpt #:    17
     total cpu time spent up to now is        5.8 secs

     Computing kpt #:    18
     total cpu time spent up to now is        6.1 secs

     Computing kpt #:    19
     total cpu time spent up to now is        6.4 secs

     Computing kpt #:    20
     total cpu time spent up to now is        6.7 secs

     Computing kpt #:    21
     total cpu time spent up to now is        7.0 secs

     Computing kpt #:    22
     total cpu time spent up to now is        7.3 secs

     Computing kpt #:    23
     total cpu time spent up to now is        7.5 secs

     Computing kpt #:    24
     total cpu time spent up to now is        7.8 secs

     Computing kpt #:    25
     total cpu time spent up to now is        8.1 secs

     Computing kpt #:    26
     total cpu time spent up to now is        8.4 secs

     Computing kpt #:    27
     total cpu time spent up to now is        8.7 secs

     Computing kpt #:    28
     total cpu time spent up to now is        8.9 secs

     Computing kpt #:    29
     total cpu time spent up to now is        9.2 secs

     Computing kpt #:    30
     total cpu time spent up to now is        9.5 secs

     Computing kpt #:    31
     total cpu time spent up to now is        9.8 secs

     Computing kpt #:    32
     total cpu time spent up to now is       10.1 secs

     Computing kpt #:    33
     total cpu time spent up to now is       10.4 secs

     Computing kpt #:    34
     total cpu time spent up to now is       10.7 secs

     Computing kpt #:    35
     total cpu time spent up to now is       11.0 secs

     Computing kpt #:    36
     total cpu time spent up to now is       11.3 secs

     Computing kpt #:    37
     total cpu time spent up to now is       11.6 secs

     Computing kpt #:    38
     total cpu time spent up to now is       11.8 secs

     Computing kpt #:    39
     total cpu time spent up to now is       12.2 secs

     Computing kpt #:    40
     total cpu time spent up to now is       12.4 secs

     Computing kpt #:    41
     total cpu time spent up to now is       12.7 secs

     Computing kpt #:    42
     total cpu time spent up to now is       13.0 secs

     Computing kpt #:    43
     total cpu time spent up to now is       13.3 secs

     Computing kpt #:    44
     total cpu time spent up to now is       13.6 secs

     Computing kpt #:    45
     total cpu time spent up to now is       13.9 secs

     Computing kpt #:    46
     total cpu time spent up to now is       14.2 secs

     Computing kpt #:    47
     total cpu time spent up to now is       14.5 secs

     Computing kpt #:    48
     total cpu time spent up to now is       14.8 secs

     Computing kpt #:    49
     total cpu time spent up to now is       15.1 secs

     Computing kpt #:    50
     total cpu time spent up to now is       15.3 secs

     Computing kpt #:    51
     total cpu time spent up to now is       15.6 secs

     Computing kpt #:    52
     total cpu time spent up to now is       15.9 secs

     Computing kpt #:    53
     total cpu time spent up to now is       16.2 secs

     Computing kpt #:    54
     total cpu time spent up to now is       16.5 secs

     Computing kpt #:    55
     total cpu time spent up to now is       16.8 secs

     Computing kpt #:    56
     total cpu time spent up to now is       17.1 secs

     Computing kpt #:    57
     total cpu time spent up to now is       17.3 secs

     Computing kpt #:    58
     total cpu time spent up to now is       17.6 secs

     Computing kpt #:    59
     total cpu time spent up to now is       17.9 secs

     Computing kpt #:    60
     total cpu time spent up to now is       18.2 secs

     Computing kpt #:    61
     total cpu time spent up to now is       18.5 secs

     Computing kpt #:    62
     total cpu time spent up to now is       18.8 secs

     Computing kpt #:    63
     total cpu time spent up to now is       19.1 secs

     Computing kpt #:    64
     total cpu time spent up to now is       19.3 secs

     Computing kpt #:    65
     total cpu time spent up to now is       19.6 secs

     Computing kpt #:    66
     total cpu time spent up to now is       19.9 secs

     Computing kpt #:    67
     total cpu time spent up to now is       20.2 secs

     Computing kpt #:    68
     total cpu time spent up to now is       20.5 secs

     Computing kpt #:    69
     total cpu time spent up to now is       20.8 secs

     Computing kpt #:    70
     total cpu time spent up to now is       21.1 secs

     Computing kpt #:    71
     total cpu time spent up to now is       21.4 secs

     Computing kpt #:    72
     total cpu time spent up to now is       21.7 secs

     Computing kpt #:    73
     total cpu time spent up to now is       22.0 secs

     Computing kpt #:    74
     total cpu time spent up to now is       22.3 secs

     Computing kpt #:    75
     total cpu time spent up to now is       22.6 secs

     Computing kpt #:    76
     total cpu time spent up to now is       22.9 secs

     Computing kpt #:    77
     total cpu time spent up to now is       23.2 secs

     Computing kpt #:    78
     total cpu time spent up to now is       23.5 secs

     Computing kpt #:    79
     total cpu time spent up to now is       23.8 secs

     Computing kpt #:    80
     total cpu time spent up to now is       24.1 secs

     Computing kpt #:    81
     total cpu time spent up to now is       24.4 secs

     Computing kpt #:    82
     total cpu time spent up to now is       24.6 secs

     Computing kpt #:    83
     total cpu time spent up to now is       24.9 secs

     Computing kpt #:    84
     total cpu time spent up to now is       25.2 secs

     Computing kpt #:    85
     total cpu time spent up to now is       25.5 secs

     Computing kpt #:    86
     total cpu time spent up to now is       25.9 secs

     Computing kpt #:    87
     total cpu time spent up to now is       26.2 secs

     Computing kpt #:    88
     total cpu time spent up to now is       26.5 secs

     Computing kpt #:    89
     total cpu time spent up to now is       26.7 secs

     Computing kpt #:    90
     total cpu time spent up to now is       27.0 secs

     ethr =  3.57E-09,  avg # of iterations = 16.5

     total cpu time spent up to now is       27.0 secs

     End of band structure calculation

          k = 0.0000 0.0000 0.0000 (  5985 PWs)   bands (ev):

   -13.2243 -13.2243 -13.2243 -13.1697 -13.1697 -12.9204 -12.9204 -12.9204
   -12.9157 -12.9157  -1.7441   7.2456   8.4724   8.4724   8.4724  10.5479
    10.5479  10.5479

          k = 0.0000 0.0393 0.0000 (  5977 PWs)   bands (ev):

   -13.2247 -13.2246 -13.2246 -13.1692 -13.1683 -12.9268 -12.9199 -12.9199
   -12.9161 -12.9105  -1.7349   7.1217   8.4272   8.4272   8.5929  10.5166
    10.6050  10.6050

          k = 0.0000 0.0786 0.0000 (  5990 PWs)   bands (ev):

   -13.2258 -13.2258 -13.2258 -13.1677 -13.1643 -12.9360 -12.9184 -12.9184
   -12.9175 -12.9046  -1.7071   6.8366   8.3049   8.3049   8.8667  10.4296
    10.7628  10.7628

          k = 0.0000 0.1179 0.0000 (  6014 PWs)   bands (ev):

   -13.2276 -13.2276 -13.2271 -13.1653 -13.1581 -12.9464 -12.9199 -12.9159
   -12.9159 -12.8999  -1.6609   6.4883   8.1329   8.1329   9.1918  10.3032
    10.9940  10.9940

          k = 0.0000 0.1571 0.0000 (  6010 PWs)   bands (ev):

   -13.2300 -13.2300 -13.2283 -13.1619 -13.1502 -12.9577 -12.9231 -12.9126
   -12.9126 -12.8965  -1.5964   6.1159   7.9351   7.9351   9.5216  10.1547
    11.2740  11.2740

          k = 0.0000 0.1964 0.0000 (  6022 PWs)   bands (ev):

   -13.2329 -13.2329 -13.2290 -13.1575 -13.1409 -12.9698 -12.9273 -12.9086
   -12.9086 -12.8943  -1.5135   5.7341   7.7278   7.7278   9.8298   9.9980
    11.5862  11.5862

          k = 0.0000 0.2357 0.0000 (  6022 PWs)   bands (ev):

   -13.2362 -13.2362 -13.2289 -13.1523 -13.1305 -12.9827 -12.9323 -12.9041
   -12.9041 -12.8935  -1.4125   5.3493   7.5210   7.5210   9.8429  10.0930
    11.9201  11.9201

          k = 0.0000 0.2750 0.0000 (  6018 PWs)   bands (ev):

   -13.2397 -13.2397 -13.2280 -13.1462 -13.1192 -12.9961 -12.9381 -12.8991
   -12.8991 -12.8939  -1.2936   4.9647   7.3207   7.3207   9.6961  10.2871
    12.2690  12.2690

          k = 0.0000 0.3143 0.0000 (  6014 PWs)   bands (ev):

   -13.2434 -13.2434 -13.2261 -13.1393 -13.1073 -13.0100 -12.9447 -12.8957
   -12.8939 -12.8939  -1.1569   4.5822   7.1310   7.1310   9.5621  10.3927
    12.6282  12.6282

          k = 0.0000 0.3536 0.0000 (  5982 PWs)   bands (ev):

   -13.2471 -13.2471 -13.2232 -13.1317 -13.0947 -13.0244 -12.9521 -12.8988
   -12.8887 -12.8887  -1.0028   4.2033   6.9546   6.9546   9.4438  10.4055
    12.9942  12.9942

          k = 0.0000 0.3928 0.0000 (  5998 PWs)   bands (ev):

   -13.2507 -13.2507 -13.2192 -13.1234 -13.0817 -13.0389 -12.9601 -12.9031
   -12.8835 -12.8835  -0.8314   3.8291   6.7933   6.7933   9.3433  10.3404
    13.3642  13.3642

          k = 0.0000 0.4321 0.0000 (  6014 PWs)   bands (ev):

   -13.2541 -13.2541 -13.2142 -13.1145 -13.0684 -13.0536 -12.9688 -12.9086
   -12.8786 -12.8786  -0.6431   3.4604   6.6487   6.6487   9.2622  10.2227
    13.7354  13.7354

          k = 0.0000 0.4714 0.0000 (  6014 PWs)   bands (ev):

   -13.2572 -13.2572 -13.2081 -13.1050 -13.0684 -13.0549 -12.9780 -12.9153
   -12.8740 -12.8740  -0.4383   3.0981   6.5216   6.5216   9.2014  10.0767
    14.1046  14.1046

          k = 0.0000 0.5107 0.0000 (  6006 PWs)   bands (ev):

   -13.2599 -13.2599 -13.2009 -13.0951 -13.0830 -13.0412 -12.9877 -12.9231
   -12.8699 -12.8699  -0.2175   2.7432   6.4129   6.4129   9.1617   9.9206
    14.4670  14.4670

          k = 0.0000 0.5500 0.0000 (  6002 PWs)   bands (ev):

   -13.2623 -13.2623 -13.1927 -13.0974 -13.0847 -13.0276 -12.9979 -12.9319
   -12.8665 -12.8665   0.0190   2.3965   6.3232   6.3232   9.1436   9.7666
    14.8155  14.8155

          k = 0.0000 0.5893 0.0000 (  5994 PWs)   bands (ev):

   -13.2642 -13.2642 -13.1836 -13.1115 -13.0741 -13.0141 -13.0083 -12.9416
   -12.8637 -12.8637   0.2704   2.0589   6.2530   6.2530   9.1475   9.6226
    15.1375  15.1375

          k = 0.0000 0.6285 0.0000 (  5986 PWs)   bands (ev):

   -13.2655 -13.2655 -13.1735 -13.1252 -13.0632 -13.0191 -13.0008 -12.9521
   -12.8616 -12.8616   0.5364   1.7312   6.2027   6.2027   9.1735   9.4936
    15.4116  15.4116

          k = 0.0000 0.6678 0.0000 (  5978 PWs)   bands (ev):

   -13.2664 -13.2664 -13.1625 -13.1383 -13.0522 -13.0301 -12.9879 -12.9634
   -12.8604 -12.8604   0.8162   1.4143   6.1723   6.1723   9.2216   9.3825
    15.6039  15.6039

          k = 0.0000 0.7071 0.0000 (  5962 PWs)   bands (ev):

   -13.2667 -13.2667 -13.1507 -13.1507 -13.0412 -13.0410 -12.9754 -12.9753
   -12.8600 -12.8600   1.1090   1.1091   6.1622   6.1622   9.2915   9.2915
    15.6747  15.6747

          k = 0.0393 0.7071 0.0000 (  5990 PWs)   bands (ev):

   -13.2671 -13.2671 -13.1496 -13.1496 -13.0412 -13.0411 -12.9765 -12.9764
   -12.8595 -12.8595   1.1104   1.1104   6.1427   6.1427   9.3375   9.3375
    15.5872  15.5872

          k = 0.0786 0.7071 0.0000 (  5994 PWs)   bands (ev):

   -13.2685 -13.2685 -13.1462 -13.1462 -13.0414 -13.0413 -12.9797 -12.9796
   -12.8581 -12.8581   1.1142   1.1143   6.0887   6.0887   9.4709   9.4709
    15.3382  15.3382

          k = 0.1179 0.7071-0.0000 (  5986 PWs)   bands (ev):

   -13.2705 -13.2705 -13.1410 -13.1410 -13.0418 -13.0416 -12.9846 -12.9846
   -12.8561 -12.8561   1.1202   1.1202   6.0109   6.0109   9.6809   9.6809
    14.9673  14.9673

          k = 0.1571 0.7071-0.0000 (  5988 PWs)   bands (ev):

   -13.2728 -13.2728 -13.1344 -13.1344 -13.0423 -13.0422 -12.9907 -12.9906
   -12.8538 -12.8538   1.1275   1.1275   5.9225   5.9225   9.9539   9.9539
    14.5224  14.5224

          k = 0.1964 0.7071 0.0000 (  5998 PWs)   bands (ev):

   -13.2750 -13.2750 -13.1269 -13.1269 -13.0432 -13.0431 -12.9973 -12.9973
   -12.8515 -12.8515   1.1354   1.1354   5.8352   5.8352  10.2770  10.2770
    14.0414  14.0414

          k = 0.2357 0.7071 0.0000 (  6004 PWs)   bands (ev):

   -13.2771 -13.2771 -13.1193 -13.1193 -13.0444 -13.0443 -13.0037 -13.0037
   -12.8494 -12.8494   1.1429   1.1429   5.7585   5.7585  10.6381  10.6382
    13.5500  13.5500

          k = 0.2750 0.7071 0.0000 (  5998 PWs)   bands (ev):

   -13.2787 -13.2787 -13.1125 -13.1125 -13.0460 -13.0459 -13.0090 -13.0089
   -12.8478 -12.8478   1.1491   1.1491   5.6991   5.6991  11.0227  11.0227
    13.0694  13.0694

          k = 0.3143 0.7071 0.0000 (  5996 PWs)   bands (ev):

   -13.2797 -13.2797 -13.1075 -13.1075 -13.0475 -13.0474 -13.0125 -13.0124
   -12.8468 -12.8468   1.1531   1.1532   5.6618   5.6618  11.3975  11.3976
    12.6361  12.6361

          k = 0.3536 0.7071 0.0000 (  6008 PWs)   bands (ev):

   -13.2800 -13.2800 -13.1057 -13.1057 -13.0482 -13.0480 -13.0137 -13.0136
   -12.8464 -12.8464   1.1545   1.1546   5.6490   5.6490  11.6082  11.6082
    12.4058  12.4058

          k = 0.3536 0.6799 0.0272 (  5994 PWs)   bands (ev):

   -13.2814 -13.2781 -13.1161 -13.0945 -13.0560 -13.0404 -13.0229 -13.0049
   -12.8483 -12.8451   0.9685   1.3421   5.5389   5.7862  11.3993  11.7361
    12.3447  12.5769

          k = 0.3536 0.6527 0.0544 (  5990 PWs)   bands (ev):

   -13.2823 -13.2760 -13.1259 -13.0832 -13.0632 -13.0371 -13.0284 -12.9970
   -12.8505 -12.8443   0.7879   1.5258   5.4626   5.9443  11.1699  11.7139
    12.4678  12.7886

          k = 0.3536 0.6255 0.0816 (  5994 PWs)   bands (ev):

   -13.2826 -13.2735 -13.1348 -13.0766 -13.0649 -13.0461 -13.0223 -12.9900
   -12.8531 -12.8442   0.6163   1.6999   5.4270   6.1174  10.9373  11.6139
    12.7058  13.0064

          k = 0.3536 0.5983 0.1088 (  5998 PWs)   bands (ev):

   -13.2822 -13.2709 -13.1432 -13.0816 -13.0571 -13.0543 -13.0146 -12.9839
   -12.8559 -12.8450   0.4560   1.8580   5.4387   6.2994  10.7045  11.5085
    12.9881  13.1879

          k = 0.3536 0.5711 0.1360 (  5988 PWs)   bands (ev):

   -13.2810 -13.2683 -13.1510 -13.0884 -13.0683 -13.0411 -13.0070 -12.9786
   -12.8589 -12.8465   0.3091   1.9946   5.5035   6.4844  10.4695  11.4222
    13.2468  13.2896

          k = 0.3536 0.5439 0.1632 (  5978 PWs)   bands (ev):

   -13.2790 -13.2656 -13.1585 -13.0951 -13.0793 -13.0275 -12.9998 -12.9740
   -12.8619 -12.8490   0.1770   2.1061   5.6243   6.6660  10.2272  11.3643
    13.0912  13.5973

          k = 0.3536 0.5167 0.1904 (  5988 PWs)   bands (ev):

   -13.2761 -13.2629 -13.1659 -13.1013 -13.0897 -13.0141 -12.9929 -12.9700
   -12.8650 -12.8524   0.0608   2.1916   5.8009   6.8381   9.9706  11.3390
    12.7837  13.8956

          k = 0.3536 0.4895 0.2176 (  5992 PWs)   bands (ev):

   -13.2724 -13.2605 -13.1732 -13.1068 -13.0989 -13.0012 -12.9868 -12.9665
   -12.8679 -12.8566  -0.0386   2.2532   6.0292   6.9942   9.6924  11.3471
    12.4461  14.1565

          k = 0.3536 0.4623 0.2448 (  6014 PWs)   bands (ev):

   -13.2680 -13.2583 -13.1806 -13.1116 -13.1067 -12.9897 -12.9813 -12.9629
   -12.8706 -12.8614  -0.1207   2.2947   6.3017   7.1289   9.3877  11.3857
    12.1427  14.3268

          k = 0.3536 0.4351 0.2720 (  6022 PWs)   bands (ev):

   -13.2633 -13.2564 -13.1878 -13.1154 -13.1128 -12.9805 -12.9768 -12.9589
   -12.8730 -12.8665  -0.1849   2.3211   6.6077   7.2375   9.0583  11.4466
    11.9004  14.3522

          k = 0.3536 0.4079 0.2992 (  6014 PWs)   bands (ev):

   -13.2587 -13.2550 -13.1942 -13.1183 -13.1172 -12.9745 -12.9734 -12.9543
   -12.8748 -12.8714  -0.2310   2.3365   6.9301   7.3169   8.7178  11.5152
    11.7279  14.2648

          k = 0.3536 0.3807 0.3264 (  6010 PWs)   bands (ev):

   -13.2552 -13.2541 -13.1989 -13.1201 -13.1198 -12.9715 -12.9713 -12.9501
   -12.8760 -12.8750  -0.2588   2.3443   7.2301   7.3651   8.4055  11.5706
    11.6258  14.1641

          k = 0.3536 0.3536 0.3536 (  5996 PWs)   bands (ev):

   -13.2538 -13.2538 -13.2007 -13.1207 -13.1207 -12.9706 -12.9706 -12.9484
   -12.8764 -12.8764  -0.2680   2.3467   7.3812   7.3812   8.2500  11.5921
    11.5921  14.1225

          k = 0.3315 0.3315 0.3315 (  6026 PWs)   bands (ev):

   -13.2537 -13.2537 -13.2009 -13.1209 -13.1209 -12.9704 -12.9704 -12.9482
   -12.8765 -12.8765  -0.2964   2.3930   7.3880   7.3880   8.2561  11.5923
    11.5923  14.1298

          k = 0.3094 0.3094 0.3094 (  6023 PWs)   bands (ev):

   -13.2533 -13.2533 -13.2016 -13.1217 -13.1217 -12.9699 -12.9699 -12.9473
   -12.8769 -12.8769  -0.3755   2.5258   7.4085   7.4085   8.2742  11.5923
    11.5923  14.1494

          k = 0.2873 0.2873 0.2873 (  6017 PWs)   bands (ev):

   -13.2526 -13.2526 -13.2028 -13.1230 -13.1230 -12.9690 -12.9690 -12.9459
   -12.8776 -12.8776  -0.4916   2.7309   7.4423   7.4423   8.3042  11.5899
    11.5899  14.1702

          k = 0.2652 0.2652 0.2652 (  6026 PWs)   bands (ev):

   -13.2517 -13.2517 -13.2044 -13.1249 -13.1249 -12.9677 -12.9677 -12.9441
   -12.8785 -12.8785  -0.6296   2.9930   7.4893   7.4893   8.3455  11.5814
    11.5814  14.1406

          k = 0.2431 0.2431 0.2431 (  6020 PWs)   bands (ev):

   -13.2504 -13.2504 -13.2062 -13.1274 -13.1274 -12.9659 -12.9659 -12.9419
   -12.8798 -12.8798  -0.7773   3.2990   7.5491   7.5491   8.3975  11.5620
    11.5620  13.9015

          k = 0.2210 0.2210 0.2210 (  6015 PWs)   bands (ev):

   -13.2488 -13.2488 -13.2083 -13.1304 -13.1304 -12.9635 -12.9635 -12.9394
   -12.8814 -12.8814  -0.9258   3.6392   7.6208   7.6208   8.4589  11.5262
    11.5262  13.4942

          k = 0.1989 0.1989 0.1989 (  6009 PWs)   bands (ev):

   -13.2468 -13.2468 -13.2106 -13.1341 -13.1341 -12.9607 -12.9607 -12.9367
   -12.8833 -12.8833  -1.0691   4.0064   7.7038   7.7038   8.5280  11.4690
    11.4690  13.0564

          k = 0.1768 0.1768 0.1768 (  6018 PWs)   bands (ev):

   -13.2445 -13.2445 -13.2129 -13.1383 -13.1383 -12.9572 -12.9572 -12.9340
   -12.8857 -12.8857  -1.2033   4.3949   7.7967   7.7967   8.6019  11.3875
    11.3875  12.6227

          k = 0.1547 0.1547 0.1547 (  6018 PWs)   bands (ev):

   -13.2419 -13.2419 -13.2152 -13.1430 -13.1430 -12.9533 -12.9533 -12.9313
   -12.8884 -12.8884  -1.3255   4.7996   7.8977   7.8977   8.6760  11.2819
    11.2819  12.2034

          k = 0.1326 0.1326 0.1326 (  6012 PWs)   bands (ev):

   -13.2389 -13.2389 -13.2173 -13.1480 -13.1480 -12.9490 -12.9490 -12.9287
   -12.8916 -12.8916  -1.4340   5.2157   8.0046   8.0046   8.7430  11.1565
    11.1565  11.8057

          k = 0.1105 0.1105 0.1105 (  5997 PWs)   bands (ev):

   -13.2357 -13.2357 -13.2193 -13.1530 -13.1530 -12.9443 -12.9443 -12.9264
   -12.8951 -12.8951  -1.5273   5.6373   8.1139   8.1139   8.7919  11.0189
    11.0189  11.4387

          k = 0.0884 0.0884 0.0884 (  6000 PWs)   bands (ev):

   -13.2325 -13.2325 -13.2210 -13.1580 -13.1580 -12.9393 -12.9393 -12.9243
   -12.8990 -12.8990  -1.6047   6.0570   8.2207   8.2207   8.8063  10.8794
    10.8794  11.1166

          k = 0.0663 0.0663 0.0663 (  6003 PWs)   bands (ev):

   -13.2294 -13.2294 -13.2224 -13.1625 -13.1625 -12.9341 -12.9341 -12.9227
   -12.9033 -12.9033  -1.6654   6.4630   8.3187   8.3187   8.7678  10.7499
    10.7499  10.8578

          k = 0.0442 0.0442 0.0442 (  5985 PWs)   bands (ev):

   -13.2268 -13.2268 -13.2234 -13.1663 -13.1663 -12.9289 -12.9289 -12.9215
   -12.9078 -12.9078  -1.7090   6.8343   8.3994   8.3994   8.6687  10.6435
    10.6435  10.6781

          k = 0.0221 0.0221 0.0221 (  5973 PWs)   bands (ev):

   -13.2249 -13.2249 -13.2241 -13.1688 -13.1688 -12.9238 -12.9238 -12.9207
   -12.9124 -12.9124  -1.7353   7.1254   8.4533   8.4533   8.5396  10.5728
    10.5728  10.5787

          k = 0.0000 0.0000 0.0000 (  5985 PWs)   bands (ev):

   -13.2243 -13.2243 -13.2243 -13.1697 -13.1697 -12.9204 -12.9204 -12.9204
   -12.9157 -12.9157  -1.7441   7.2456   8.4724   8.4724   8.4724  10.5479
    10.5479  10.5479

          k = 0.0253 0.0253-0.0000 (  5973 PWs)   bands (ev):

   -13.2250 -13.2246 -13.2242 -13.1691 -13.1687 -12.9246 -12.9226 -12.9200
   -12.9142 -12.9117  -1.7365   7.1405   8.4345   8.4663   8.5426  10.5567
    10.5608  10.5959

          k = 0.0505 0.0505 0.0000 (  5991 PWs)   bands (ev):

   -13.2270 -13.2255 -13.2240 -13.1674 -13.1660 -12.9307 -12.9266 -12.9187
   -12.9122 -12.9063  -1.7136   6.8838   8.3258   8.4480   8.6962  10.5832
    10.5982  10.7370

          k = 0.0758 0.0758 0.0000 (  6017 PWs)   bands (ev):

   -13.2299 -13.2271 -13.2235 -13.1647 -13.1618 -12.9370 -12.9313 -12.9166
   -12.9110 -12.9010  -1.6755   6.5557   8.1596   8.4171   8.8604  10.6273
    10.6573  10.9598

          k = 0.1010 0.1010 0.0000 (  6015 PWs)   bands (ev):

   -13.2333 -13.2293 -13.2225 -13.1613 -13.1566 -12.9435 -12.9362 -12.9137
   -12.9108 -12.8959  -1.6224   6.1978   7.9516   8.3735   9.0076  10.6889
    10.7357  11.2424

          k = 0.1263 0.1263-0.0000 (  6003 PWs)   bands (ev):

   -13.2370 -13.2320 -13.2208 -13.1575 -13.1508 -12.9500 -12.9412 -12.9118
   -12.9100 -12.8912  -1.5546   5.8297   7.7163   8.3169   9.1354  10.7680
    10.8318  11.5549

          k = 0.1515 0.1515 0.0000 (  5997 PWs)   bands (ev):

   -13.2407 -13.2353 -13.2183 -13.1534 -13.1444 -12.9566 -12.9461 -12.9141
   -12.9056 -12.8868  -1.4723   5.4615   7.4656   8.2471   9.2491  10.8643
    10.9451  11.8628

          k = 0.1768 0.1768 0.0000 (  6015 PWs)   bands (ev):

   -13.2443 -13.2392 -13.2149 -13.1492 -13.1377 -12.9632 -12.9508 -12.9176
   -12.9005 -12.8828  -1.3760   5.0988   7.2085   8.1644   9.3535  10.9778
    11.0753  12.1306

          k = 0.2020 0.2020-0.0000 (  6007 PWs)   bands (ev):

   -13.2477 -13.2434 -13.2105 -13.1451 -13.1309 -12.9696 -12.9553 -12.9224
   -12.8949 -12.8791  -1.2663   4.7455   6.9520   8.0693   9.4516  11.1083
    11.2223  12.3291

          k = 0.2273 0.2273 0.0000 (  6001 PWs)   bands (ev):

   -13.2508 -13.2481 -13.2052 -13.1411 -13.1239 -12.9760 -12.9593 -12.9286
   -12.8889 -12.8758  -1.1438   4.4039   6.7015   7.9630   9.5438  11.2555
    11.3859  12.4477

          k = 0.2525 0.2525 0.0000 (  6009 PWs)   bands (ev):

   -13.2537 -13.2529 -13.1990 -13.1372 -13.1170 -12.9822 -12.9630 -12.9361
   -12.8826 -12.8728  -1.0094   4.0758   6.4613   7.8467   9.6286  11.4191
    11.5657  12.5004

          k = 0.2778 0.2778 0.0000 (  6021 PWs)   bands (ev):

   -13.2579 -13.2562 -13.1920 -13.1332 -13.1101 -12.9882 -12.9663 -12.9449
   -12.8763 -12.8702  -0.8642   3.7624   6.2348   7.7224   9.7030  11.5989
    11.7612  12.5149

          k = 0.3030 0.3030-0.0000 (  6013 PWs)   bands (ev):

   -13.2629 -13.2584 -13.1845 -13.1291 -13.1033 -12.9940 -12.9693 -12.9546
   -12.8700 -12.8679  -0.7095   3.4646   6.0251   7.5921   9.7632  11.7945
    11.9713  12.5193

          k = 0.3283 0.3283 0.0000 (  6007 PWs)   bands (ev):

   -13.2677 -13.2603 -13.1770 -13.1243 -13.0967 -12.9996 -12.9730 -12.9644
   -12.8660 -12.8640  -0.5471   3.1831   5.8351   7.4580   9.8051  12.0053
    12.1940  12.5355

          k = 0.3536 0.3536 0.0000 (  5995 PWs)   bands (ev):

   -13.2722 -13.2619 -13.1698 -13.1186 -13.0903 -13.0048 -12.9812 -12.9703
   -12.8644 -12.8585  -0.3788   2.9185   5.6675   7.3223   9.8257  12.2310
    12.4261  12.5785

          k = 0.3788 0.3788-0.0000 (  5989 PWs)   bands (ev):

   -13.2761 -13.2632 -13.1637 -13.1113 -13.0841 -13.0098 -12.9936 -12.9726
   -12.8631 -12.8535  -0.2070   2.6711   5.5251   7.1872   9.8241  12.4708
    12.6569  12.6599

          k = 0.4041 0.4041 0.0000 (  5993 PWs)   bands (ev):

   -13.2795 -13.2643 -13.1588 -13.1023 -13.0783 -13.0144 -13.0074 -12.9740
   -12.8620 -12.8493  -0.0346   2.4414   5.4106   7.0546   9.8019  12.7241
    12.7741  12.8770

          k = 0.4293 0.4293 0.0000 (  5983 PWs)   bands (ev):

   -13.2821 -13.2651 -13.1553 -13.0916 -13.0727 -13.0220 -13.0187 -12.9748
   -12.8612 -12.8460   0.1353   2.2295   5.3269   6.9265   9.7628  12.9295
    12.9898  13.0221

          k = 0.4546 0.4546 0.0000 (  5967 PWs)   bands (ev):

   -13.2839 -13.2657 -13.1530 -13.0795 -13.0676 -13.0371 -13.0226 -12.9754
   -12.8606 -12.8437   0.2993   2.0356   5.2767   6.8045   9.7114  12.9595
    13.1202  13.2667

          k = 0.4798 0.4798-0.0000 (  5960 PWs)   bands (ev):

   -13.2848 -13.2662 -13.1516 -13.0665 -13.0628 -13.0525 -13.0261 -12.9757
   -12.8602 -12.8424   0.4537   1.8599   5.2623   6.6901   9.6525  12.6225
    13.3423  13.5534

          k = 0.5051 0.5051 0.0000 (  5988 PWs)   bands (ev):

   -13.2847 -13.2665 -13.1507 -13.0679 -13.0584 -13.0529 -13.0293 -12.9759
   -12.8599 -12.8422   0.5953   1.7026   5.2854   6.5846   9.5906  12.1517
    13.5916  13.8477

          k = 0.5303 0.5303 0.0000 (  5990 PWs)   bands (ev):

   -13.2837 -13.2666 -13.1503 -13.0831 -13.0545 -13.0391 -13.0321 -12.9759
   -12.8598 -12.8430   0.7213   1.5636   5.3460   6.4892   9.5292  11.6480
    13.8639  14.1467

          k = 0.5156 0.5156 0.0295 (  5978 PWs)   bands (ev):

   -13.2842 -13.2664 -13.1513 -13.0734 -13.0590 -13.0478 -13.0282 -12.9752
   -12.8601 -12.8426   0.6236   1.6693   5.3182   6.5483   9.5687  11.9419
    13.6282  13.9404

          k = 0.5009 0.5009 0.0589 (  5985 PWs)   bands (ev):

   -13.2840 -13.2658 -13.1536 -13.0662 -13.0650 -13.0548 -13.0217 -12.9737
   -12.8608 -12.8431   0.4963   1.8029   5.3305   6.6198   9.6145  12.2079
    13.3304  13.6829

          k = 0.4861 0.4861 0.0884 (  5981 PWs)   bands (ev):

   -13.2830 -13.2649 -13.1567 -13.0740 -13.0709 -13.0467 -13.0145 -12.9718
   -12.8619 -12.8444   0.3645   1.9346   5.3881   6.7020   9.6599  12.3298
    13.1596  13.3949

          k = 0.4714 0.4714 0.1179 (  5981 PWs)   bands (ev):

   -13.2812 -13.2638 -13.1605 -13.0819 -13.0808 -13.0341 -13.0073 -12.9698
   -12.8634 -12.8465   0.2386   2.0504   5.4939   6.7929   9.6932  12.1721
    13.0954  13.2900

          k = 0.4567 0.4567 0.1473 (  5989 PWs)   bands (ev):

   -13.2787 -13.2623 -13.1651 -13.0903 -13.0896 -13.0211 -13.0001 -12.9678
   -12.8653 -12.8495   0.1235   2.1446   5.6484   6.8900   9.6951  11.9036
    12.7993  13.5757

          k = 0.4419 0.4419 0.1768 (  5983 PWs)   bands (ev):

   -13.2754 -13.2608 -13.1703 -13.0988 -13.0969 -13.0085 -12.9934 -12.9659
   -12.8673 -12.8532   0.0215   2.2163   5.8491   6.9899   9.6386  11.6677
    12.5178  13.8875

          k = 0.4272 0.4272 0.2062 (  5998 PWs)   bands (ev):

   -13.2715 -13.2591 -13.1762 -13.1059 -13.1035 -12.9966 -12.9871 -12.9638
   -12.8694 -12.8576  -0.0660   2.2676   6.0904   7.0886   9.4991  11.5180
    12.2601  14.1618

          k = 0.4125 0.4125 0.2357 (  6009 PWs)   bands (ev):

   -13.2671 -13.2575 -13.1826 -13.1115 -13.1093 -12.9863 -12.9816 -12.9613
   -12.8715 -12.8625  -0.1383   2.3024   6.3650   7.1813   9.2741  11.4632
    12.0343  14.3277

          k = 0.3977 0.3977 0.2652 (  6011 PWs)   bands (ev):

   -13.2625 -13.2560 -13.1891 -13.1157 -13.1141 -12.9784 -12.9770 -12.9579
   -12.8735 -12.8674  -0.1948   2.3246   6.6629   7.2625   8.9874  11.4785
    11.8479  14.3386

          k = 0.3830 0.3830 0.2946 (  6012 PWs)   bands (ev):

   -13.2582 -13.2548 -13.1949 -13.1185 -13.1177 -12.9736 -12.9735 -12.9537
   -12.8750 -12.8719  -0.2354   2.3378   6.9686   7.3262   8.6753  11.5268
    11.7083  14.2510

          k = 0.3683 0.3683 0.3241 (  6009 PWs)   bands (ev):

   -13.2550 -13.2541 -13.1991 -13.1201 -13.1199 -12.9714 -12.9713 -12.9499
   -12.8760 -12.8752  -0.2599   2.3446   7.2458   7.3671   8.3892  11.5733
    11.6215  14.1593

          k = 0.3536 0.3536 0.3536 (  5996 PWs)   bands (ev):

   -13.2538 -13.2538 -13.2007 -13.1207 -13.1207 -12.9706 -12.9706 -12.9484
   -12.8764 -12.8764  -0.2680   2.3467   7.3812   7.3812   8.2500  11.5921
    11.5921  14.1225

     Writing output data file Sn.save
 
     init_run     :      0.21s CPU      0.29s WALL (       1 calls)
     electrons    :     24.13s CPU     26.23s WALL (       1 calls)

     Called by init_run:
     wfcinit      :      0.00s CPU      0.00s WALL (       1 calls)
     potinit      :      0.03s CPU      0.03s WALL (       1 calls)

     Called by electrons:
     c_bands      :     24.13s CPU     26.22s WALL (       1 calls)
     v_of_rho     :      0.01s CPU      0.01s WALL (       1 calls)
     v_h          :      0.00s CPU      0.00s WALL (       1 calls)
     v_xc         :      0.01s CPU      0.01s WALL (       1 calls)

     Called by c_bands:
     init_us_2    :      0.01s CPU      0.02s WALL (      90 calls)
     cegterg      :     22.42s CPU     24.24s WALL (      91 calls)

     Called by sum_band:

     Called by *egterg:
     h_psi        :     18.40s CPU     20.25s WALL (    1668 calls)
     g_psi        :      0.06s CPU      0.06s WALL (    1487 calls)
     cdiaghg      :      2.50s CPU      2.52s WALL (    1577 calls)
     cegterg:over :      1.32s CPU      1.36s WALL (    1487 calls)
     cegterg:upda :      0.68s CPU      0.69s WALL (    1487 calls)
     cegterg:last :      0.39s CPU      0.39s WALL (     385 calls)

     Called by h_psi:
     h_psi:vloc   :     17.32s CPU     19.10s WALL (    1668 calls)
     h_psi:vnl    :      1.04s CPU      1.11s WALL (    1668 calls)
     add_vuspsi   :      0.40s CPU      0.42s WALL (    1668 calls)

     General routines
     calbec       :      0.63s CPU      0.68s WALL (    1668 calls)
     fft          :      0.01s CPU      0.01s WALL (      10 calls)
     fftw         :     16.09s CPU     17.76s WALL (   45192 calls)
     davcio       :      0.02s CPU      0.06s WALL (      90 calls)
 
     Parallel routines
     fft_scatter  :      6.81s CPU      7.52s WALL (   45202 calls)
 
     PWSCF        :    24.93s CPU        27.19s WALL

 
   This run was terminated on:  19:25:54   5Mar2020            

=------------------------------------------------------------------------------=
   JOB DONE.
=------------------------------------------------------------------------------=
