
     Program PWSCF v.5.4.0 starts on 19Mar2020 at 19:49:16 

     This program is part of the open-source Quantum ESPRESSO suite
     for quantum simulation of materials; please cite
         "P. Giannozzi et al., J. Phys.:Condens. Matter 21 395502 (2009);
          URL http://www.quantum-espresso.org", 
     in publications or presentations arising from this work. More details at
     http://www.quantum-espresso.org/quote

     Parallel version (MPI & OpenMP), running on      64 processor cores
     Number of MPI processes:                64
     Threads/MPI process:                     1
     R & G space division:  proc/nbgrp/npool/nimage =      64
     Waiting for input...
     Reading input from standard input
Warning: card &IONS ignored
Warning: card / ignored
Warning: card &CELL ignored
Warning: card / ignored

     Current dimensions of program PWSCF are:
     Max number of different atomic species (ntypx) = 10
     Max number of k-points (npk) =  40000
     Max angular momentum in pseudopotentials (lmaxx) =  3

     Atomic positions and unit cell read from directory:
     ./Sn.save/
 
     Message from routine setup:
     At least one non s.o. pseudo

     Subspace diagonalization in iterative solution of the eigenvalue problem:
     a serial algorithm will be used

 
     Parallelization info
     --------------------
     sticks:   dense  smooth     PW     G-vecs:    dense   smooth      PW
     Min          50      50     13                 1919     1919     271
     Max          51      51     14                 1928     1928     279
     Sum        3259    3259    889               123189   123189   17573
 


     bravais-lattice index     =            0
     lattice parameter (alat)  =       8.8927  a.u.
     unit-cell volume          =     497.2569 (a.u.)^3
     number of atoms/cell      =            2
     number of atomic types    =            1
     number of electrons       =        28.00
     number of Kohn-Sham states=           40
     kinetic-energy cutoff     =     150.0000  Ry
     charge density cutoff     =     600.0000  Ry
     Exchange-correlation      = PBE ( 1  4  3  4 0 0)
     Non magnetic calculation with spin-orbit


     celldm(1)=   8.892665  celldm(2)=   0.000000  celldm(3)=   0.000000
     celldm(4)=   0.000000  celldm(5)=   0.000000  celldm(6)=   0.000000

     crystal axes: (cart. coord. in units of alat)
               a(1) = (   0.000000   0.707107   0.707107 )  
               a(2) = (   0.707107   0.000000   0.707107 )  
               a(3) = (   0.707107   0.707107   0.000000 )  

     reciprocal axes: (cart. coord. in units 2 pi/alat)
               b(1) = ( -0.707107  0.707107  0.707107 )  
               b(2) = (  0.707107 -0.707107  0.707107 )  
               b(3) = (  0.707107  0.707107 -0.707107 )  


     PseudoPot. # 1 for Sn read from file:
     ../PseudopotentialDatabase/Sn_ONCV_PBE-1.0.upf
     MD5 check sum: 4ecdb67ea6112684f1b2ae1cab9d4ca6
     Pseudo is Norm-conserving, Zval = 14.0
     Generated using ONCVPSP code by D. R. Hamann
     Using radial grid of  602 points,  6 beta functions with: 
                l(1) =   0
                l(2) =   0
                l(3) =   1
                l(4) =   1
                l(5) =   2
                l(6) =   2

     atomic species   valence    mass     pseudopotential
        Sn            14.00   118.71000     Sn( 1.00)

     48 Sym. Ops., with inversion, found (24 have fractional translation)


                                    s                        frac. trans.

      isym =  1     identity                                     

 cryst.   s( 1) = (     1          0          0      )
                  (     0          1          0      )
                  (     0          0          1      )

 cart.    s( 1) = (  1.0000000  0.0000000  0.0000000 )
                  (  0.0000000  1.0000000  0.0000000 )
                  (  0.0000000  0.0000000  1.0000000 )


      isym =  2     180 deg rotation - cart. axis [0,0,1]        

 cryst.   s( 2) = (     0          1         -1      )
                  (     1          0         -1      )
                  (     0          0         -1      )

 cart.    s( 2) = ( -1.0000000  0.0000000  0.0000000 )
                  (  0.0000000 -1.0000000  0.0000000 )
                  (  0.0000000  0.0000000  1.0000000 )


      isym =  3     180 deg rotation - cart. axis [0,1,0]        

 cryst.   s( 3) = (     0         -1          1      )
                  (     0         -1          0      )
                  (     1         -1          0      )

 cart.    s( 3) = ( -1.0000000  0.0000000  0.0000000 )
                  (  0.0000000  1.0000000  0.0000000 )
                  (  0.0000000  0.0000000 -1.0000000 )


      isym =  4     180 deg rotation - cart. axis [1,0,0]        

 cryst.   s( 4) = (    -1          0          0      )
                  (    -1          0          1      )
                  (    -1          1          0      )

 cart.    s( 4) = (  1.0000000  0.0000000  0.0000000 )
                  (  0.0000000 -1.0000000  0.0000000 )
                  (  0.0000000  0.0000000 -1.0000000 )


      isym =  5     180 deg rotation - cart. axis [1,1,0]        

 cryst.   s( 5) = (    -1          0          1      )    f =( -0.2500000 )
                  (     0         -1          1      )       ( -0.2500000 )
                  (     0          0          1      )       ( -0.2500000 )

 cart.    s( 5) = (  0.0000000  1.0000000  0.0000000 )    f =( -0.3535534 )
                  (  1.0000000  0.0000000  0.0000000 )       ( -0.3535534 )
                  (  0.0000000  0.0000000 -1.0000000 )       ( -0.3535534 )


      isym =  6     180 deg rotation - cart. axis [1,-1,0]       

 cryst.   s( 6) = (     0         -1          0      )    f =( -0.2500000 )
                  (    -1          0          0      )       ( -0.2500000 )
                  (     0          0         -1      )       ( -0.2500000 )

 cart.    s( 6) = (  0.0000000 -1.0000000  0.0000000 )    f =( -0.3535534 )
                  ( -1.0000000  0.0000000  0.0000000 )       ( -0.3535534 )
                  (  0.0000000  0.0000000 -1.0000000 )       ( -0.3535534 )


      isym =  7      90 deg rotation - cart. axis [0,0,-1]       

 cryst.   s( 7) = (     0          1          0      )    f =( -0.2500000 )
                  (     0          1         -1      )       ( -0.2500000 )
                  (    -1          1          0      )       ( -0.2500000 )

 cart.    s( 7) = (  0.0000000  1.0000000  0.0000000 )    f =( -0.3535534 )
                  ( -1.0000000  0.0000000  0.0000000 )       ( -0.3535534 )
                  (  0.0000000  0.0000000  1.0000000 )       ( -0.3535534 )


      isym =  8      90 deg rotation - cart. axis [0,0,1]        

 cryst.   s( 8) = (     1          0         -1      )    f =( -0.2500000 )
                  (     1          0          0      )       ( -0.2500000 )
                  (     1         -1          0      )       ( -0.2500000 )

 cart.    s( 8) = (  0.0000000 -1.0000000  0.0000000 )    f =( -0.3535534 )
                  (  1.0000000  0.0000000  0.0000000 )       ( -0.3535534 )
                  (  0.0000000  0.0000000  1.0000000 )       ( -0.3535534 )


      isym =  9     180 deg rotation - cart. axis [1,0,1]        

 cryst.   s( 9) = (    -1          1          0      )    f =( -0.2500000 )
                  (     0          1          0      )       ( -0.2500000 )
                  (     0          1         -1      )       ( -0.2500000 )

 cart.    s( 9) = (  0.0000000  0.0000000  1.0000000 )    f =( -0.3535534 )
                  (  0.0000000 -1.0000000  0.0000000 )       ( -0.3535534 )
                  (  1.0000000  0.0000000  0.0000000 )       ( -0.3535534 )


      isym = 10     180 deg rotation - cart. axis [-1,0,1]       

 cryst.   s(10) = (     0          0         -1      )    f =( -0.2500000 )
                  (     0         -1          0      )       ( -0.2500000 )
                  (    -1          0          0      )       ( -0.2500000 )

 cart.    s(10) = (  0.0000000  0.0000000 -1.0000000 )    f =( -0.3535534 )
                  (  0.0000000 -1.0000000  0.0000000 )       ( -0.3535534 )
                  ( -1.0000000  0.0000000  0.0000000 )       ( -0.3535534 )


      isym = 11      90 deg rotation - cart. axis [0,1,0]        

 cryst.   s(11) = (     0          0          1      )    f =( -0.2500000 )
                  (    -1          0          1      )       ( -0.2500000 )
                  (     0         -1          1      )       ( -0.2500000 )

 cart.    s(11) = (  0.0000000  0.0000000  1.0000000 )    f =( -0.3535534 )
                  (  0.0000000  1.0000000  0.0000000 )       ( -0.3535534 )
                  ( -1.0000000  0.0000000  0.0000000 )       ( -0.3535534 )


      isym = 12      90 deg rotation - cart. axis [0,-1,0]       

 cryst.   s(12) = (     1         -1          0      )    f =( -0.2500000 )
                  (     1          0         -1      )       ( -0.2500000 )
                  (     1          0          0      )       ( -0.2500000 )

 cart.    s(12) = (  0.0000000  0.0000000 -1.0000000 )    f =( -0.3535534 )
                  (  0.0000000  1.0000000  0.0000000 )       ( -0.3535534 )
                  (  1.0000000  0.0000000  0.0000000 )       ( -0.3535534 )


      isym = 13     180 deg rotation - cart. axis [0,1,1]        

 cryst.   s(13) = (     1          0          0      )    f =( -0.2500000 )
                  (     1         -1          0      )       ( -0.2500000 )
                  (     1          0         -1      )       ( -0.2500000 )

 cart.    s(13) = ( -1.0000000  0.0000000  0.0000000 )    f =( -0.3535534 )
                  (  0.0000000  0.0000000  1.0000000 )       ( -0.3535534 )
                  (  0.0000000  1.0000000  0.0000000 )       ( -0.3535534 )


      isym = 14     180 deg rotation - cart. axis [0,1,-1]       

 cryst.   s(14) = (    -1          0          0      )    f =( -0.2500000 )
                  (     0          0         -1      )       ( -0.2500000 )
                  (     0         -1          0      )       ( -0.2500000 )

 cart.    s(14) = ( -1.0000000  0.0000000  0.0000000 )    f =( -0.3535534 )
                  (  0.0000000  0.0000000 -1.0000000 )       ( -0.3535534 )
                  (  0.0000000 -1.0000000  0.0000000 )       ( -0.3535534 )


      isym = 15      90 deg rotation - cart. axis [-1,0,0]       

 cryst.   s(15) = (     0         -1          1      )    f =( -0.2500000 )
                  (     0          0          1      )       ( -0.2500000 )
                  (    -1          0          1      )       ( -0.2500000 )

 cart.    s(15) = (  1.0000000  0.0000000  0.0000000 )    f =( -0.3535534 )
                  (  0.0000000  0.0000000  1.0000000 )       ( -0.3535534 )
                  (  0.0000000 -1.0000000  0.0000000 )       ( -0.3535534 )


      isym = 16      90 deg rotation - cart. axis [1,0,0]        

 cryst.   s(16) = (     0          1         -1      )    f =( -0.2500000 )
                  (    -1          1          0      )       ( -0.2500000 )
                  (     0          1          0      )       ( -0.2500000 )

 cart.    s(16) = (  1.0000000  0.0000000  0.0000000 )    f =( -0.3535534 )
                  (  0.0000000  0.0000000 -1.0000000 )       ( -0.3535534 )
                  (  0.0000000  1.0000000  0.0000000 )       ( -0.3535534 )


      isym = 17     120 deg rotation - cart. axis [-1,-1,-1]     

 cryst.   s(17) = (     0          0          1      )
                  (     1          0          0      )
                  (     0          1          0      )

 cart.    s(17) = (  0.0000000  1.0000000  0.0000000 )
                  (  0.0000000  0.0000000  1.0000000 )
                  (  1.0000000  0.0000000  0.0000000 )


      isym = 18     120 deg rotation - cart. axis [-1,1,1]       

 cryst.   s(18) = (     1         -1          0      )
                  (     0         -1          1      )
                  (     0         -1          0      )

 cart.    s(18) = (  0.0000000 -1.0000000  0.0000000 )
                  (  0.0000000  0.0000000  1.0000000 )
                  ( -1.0000000  0.0000000  0.0000000 )


      isym = 19     120 deg rotation - cart. axis [1,1,-1]       

 cryst.   s(19) = (    -1          1          0      )
                  (    -1          0          0      )
                  (    -1          0          1      )

 cart.    s(19) = (  0.0000000  1.0000000  0.0000000 )
                  (  0.0000000  0.0000000 -1.0000000 )
                  ( -1.0000000  0.0000000  0.0000000 )


      isym = 20     120 deg rotation - cart. axis [1,-1,1]       

 cryst.   s(20) = (     0          0         -1      )
                  (     0          1         -1      )
                  (     1          0         -1      )

 cart.    s(20) = (  0.0000000 -1.0000000  0.0000000 )
                  (  0.0000000  0.0000000 -1.0000000 )
                  (  1.0000000  0.0000000  0.0000000 )


      isym = 21     120 deg rotation - cart. axis [1,1,1]        

 cryst.   s(21) = (     0          1          0      )
                  (     0          0          1      )
                  (     1          0          0      )

 cart.    s(21) = (  0.0000000  0.0000000  1.0000000 )
                  (  1.0000000  0.0000000  0.0000000 )
                  (  0.0000000  1.0000000  0.0000000 )


      isym = 22     120 deg rotation - cart. axis [-1,1,-1]      

 cryst.   s(22) = (    -1          0          1      )
                  (    -1          1          0      )
                  (    -1          0          0      )

 cart.    s(22) = (  0.0000000  0.0000000  1.0000000 )
                  ( -1.0000000  0.0000000  0.0000000 )
                  (  0.0000000 -1.0000000  0.0000000 )


      isym = 23     120 deg rotation - cart. axis [1,-1,-1]      

 cryst.   s(23) = (     1          0         -1      )
                  (     0          0         -1      )
                  (     0          1         -1      )

 cart.    s(23) = (  0.0000000  0.0000000 -1.0000000 )
                  ( -1.0000000  0.0000000  0.0000000 )
                  (  0.0000000  1.0000000  0.0000000 )


      isym = 24     120 deg rotation - cart. axis [-1,-1,1]      

 cryst.   s(24) = (     0         -1          0      )
                  (     1         -1          0      )
                  (     0         -1          1      )

 cart.    s(24) = (  0.0000000  0.0000000 -1.0000000 )
                  (  1.0000000  0.0000000  0.0000000 )
                  (  0.0000000 -1.0000000  0.0000000 )


      isym = 25     inversion                                    

 cryst.   s(25) = (    -1          0          0      )    f =( -0.2500000 )
                  (     0         -1          0      )       ( -0.2500000 )
                  (     0          0         -1      )       ( -0.2500000 )

 cart.    s(25) = ( -1.0000000  0.0000000  0.0000000 )    f =( -0.3535534 )
                  (  0.0000000 -1.0000000  0.0000000 )       ( -0.3535534 )
                  (  0.0000000  0.0000000 -1.0000000 )       ( -0.3535534 )


      isym = 26     inv. 180 deg rotation - cart. axis [0,0,1]   

 cryst.   s(26) = (     0         -1          1      )    f =( -0.2500000 )
                  (    -1          0          1      )       ( -0.2500000 )
                  (     0          0          1      )       ( -0.2500000 )

 cart.    s(26) = (  1.0000000  0.0000000  0.0000000 )    f =( -0.3535534 )
                  (  0.0000000  1.0000000  0.0000000 )       ( -0.3535534 )
                  (  0.0000000  0.0000000 -1.0000000 )       ( -0.3535534 )


      isym = 27     inv. 180 deg rotation - cart. axis [0,1,0]   

 cryst.   s(27) = (     0          1         -1      )    f =( -0.2500000 )
                  (     0          1          0      )       ( -0.2500000 )
                  (    -1          1          0      )       ( -0.2500000 )

 cart.    s(27) = (  1.0000000  0.0000000  0.0000000 )    f =( -0.3535534 )
                  (  0.0000000 -1.0000000  0.0000000 )       ( -0.3535534 )
                  (  0.0000000  0.0000000  1.0000000 )       ( -0.3535534 )


      isym = 28     inv. 180 deg rotation - cart. axis [1,0,0]   

 cryst.   s(28) = (     1          0          0      )    f =( -0.2500000 )
                  (     1          0         -1      )       ( -0.2500000 )
                  (     1         -1          0      )       ( -0.2500000 )

 cart.    s(28) = ( -1.0000000  0.0000000  0.0000000 )    f =( -0.3535534 )
                  (  0.0000000  1.0000000  0.0000000 )       ( -0.3535534 )
                  (  0.0000000  0.0000000  1.0000000 )       ( -0.3535534 )


      isym = 29     inv. 180 deg rotation - cart. axis [1,1,0]   

 cryst.   s(29) = (     1          0         -1      )
                  (     0          1         -1      )
                  (     0          0         -1      )

 cart.    s(29) = (  0.0000000 -1.0000000  0.0000000 )
                  ( -1.0000000  0.0000000  0.0000000 )
                  (  0.0000000  0.0000000  1.0000000 )


      isym = 30     inv. 180 deg rotation - cart. axis [1,-1,0]  

 cryst.   s(30) = (     0          1          0      )
                  (     1          0          0      )
                  (     0          0          1      )

 cart.    s(30) = (  0.0000000  1.0000000  0.0000000 )
                  (  1.0000000  0.0000000  0.0000000 )
                  (  0.0000000  0.0000000  1.0000000 )


      isym = 31     inv.  90 deg rotation - cart. axis [0,0,-1]  

 cryst.   s(31) = (     0         -1          0      )
                  (     0         -1          1      )
                  (     1         -1          0      )

 cart.    s(31) = (  0.0000000 -1.0000000  0.0000000 )
                  (  1.0000000  0.0000000  0.0000000 )
                  (  0.0000000  0.0000000 -1.0000000 )


      isym = 32     inv.  90 deg rotation - cart. axis [0,0,1]   

 cryst.   s(32) = (    -1          0          1      )
                  (    -1          0          0      )
                  (    -1          1          0      )

 cart.    s(32) = (  0.0000000  1.0000000  0.0000000 )
                  ( -1.0000000  0.0000000  0.0000000 )
                  (  0.0000000  0.0000000 -1.0000000 )


      isym = 33     inv. 180 deg rotation - cart. axis [1,0,1]   

 cryst.   s(33) = (     1         -1          0      )
                  (     0         -1          0      )
                  (     0         -1          1      )

 cart.    s(33) = (  0.0000000  0.0000000 -1.0000000 )
                  (  0.0000000  1.0000000  0.0000000 )
                  ( -1.0000000  0.0000000  0.0000000 )


      isym = 34     inv. 180 deg rotation - cart. axis [-1,0,1]  

 cryst.   s(34) = (     0          0          1      )
                  (     0          1          0      )
                  (     1          0          0      )

 cart.    s(34) = (  0.0000000  0.0000000  1.0000000 )
                  (  0.0000000  1.0000000  0.0000000 )
                  (  1.0000000  0.0000000  0.0000000 )


      isym = 35     inv.  90 deg rotation - cart. axis [0,1,0]   

 cryst.   s(35) = (     0          0         -1      )
                  (     1          0         -1      )
                  (     0          1         -1      )

 cart.    s(35) = (  0.0000000  0.0000000 -1.0000000 )
                  (  0.0000000 -1.0000000  0.0000000 )
                  (  1.0000000  0.0000000  0.0000000 )


      isym = 36     inv.  90 deg rotation - cart. axis [0,-1,0]  

 cryst.   s(36) = (    -1          1          0      )
                  (    -1          0          1      )
                  (    -1          0          0      )

 cart.    s(36) = (  0.0000000  0.0000000  1.0000000 )
                  (  0.0000000 -1.0000000  0.0000000 )
                  ( -1.0000000  0.0000000  0.0000000 )


      isym = 37     inv. 180 deg rotation - cart. axis [0,1,1]   

 cryst.   s(37) = (    -1          0          0      )
                  (    -1          1          0      )
                  (    -1          0          1      )

 cart.    s(37) = (  1.0000000  0.0000000  0.0000000 )
                  (  0.0000000  0.0000000 -1.0000000 )
                  (  0.0000000 -1.0000000  0.0000000 )


      isym = 38     inv. 180 deg rotation - cart. axis [0,1,-1]  

 cryst.   s(38) = (     1          0          0      )
                  (     0          0          1      )
                  (     0          1          0      )

 cart.    s(38) = (  1.0000000  0.0000000  0.0000000 )
                  (  0.0000000  0.0000000  1.0000000 )
                  (  0.0000000  1.0000000  0.0000000 )


      isym = 39     inv.  90 deg rotation - cart. axis [-1,0,0]  

 cryst.   s(39) = (     0          1         -1      )
                  (     0          0         -1      )
                  (     1          0         -1      )

 cart.    s(39) = ( -1.0000000  0.0000000  0.0000000 )
                  (  0.0000000  0.0000000 -1.0000000 )
                  (  0.0000000  1.0000000  0.0000000 )


      isym = 40     inv.  90 deg rotation - cart. axis [1,0,0]   

 cryst.   s(40) = (     0         -1          1      )
                  (     1         -1          0      )
                  (     0         -1          0      )

 cart.    s(40) = ( -1.0000000  0.0000000  0.0000000 )
                  (  0.0000000  0.0000000  1.0000000 )
                  (  0.0000000 -1.0000000  0.0000000 )


      isym = 41     inv. 120 deg rotation - cart. axis [-1,-1,-1]

 cryst.   s(41) = (     0          0         -1      )    f =( -0.2500000 )
                  (    -1          0          0      )       ( -0.2500000 )
                  (     0         -1          0      )       ( -0.2500000 )

 cart.    s(41) = (  0.0000000 -1.0000000  0.0000000 )    f =( -0.3535534 )
                  (  0.0000000  0.0000000 -1.0000000 )       ( -0.3535534 )
                  ( -1.0000000  0.0000000  0.0000000 )       ( -0.3535534 )


      isym = 42     inv. 120 deg rotation - cart. axis [-1,1,1]  

 cryst.   s(42) = (    -1          1          0      )    f =( -0.2500000 )
                  (     0          1         -1      )       ( -0.2500000 )
                  (     0          1          0      )       ( -0.2500000 )

 cart.    s(42) = (  0.0000000  1.0000000  0.0000000 )    f =( -0.3535534 )
                  (  0.0000000  0.0000000 -1.0000000 )       ( -0.3535534 )
                  (  1.0000000  0.0000000  0.0000000 )       ( -0.3535534 )


      isym = 43     inv. 120 deg rotation - cart. axis [1,1,-1]  

 cryst.   s(43) = (     1         -1          0      )    f =( -0.2500000 )
                  (     1          0          0      )       ( -0.2500000 )
                  (     1          0         -1      )       ( -0.2500000 )

 cart.    s(43) = (  0.0000000 -1.0000000  0.0000000 )    f =( -0.3535534 )
                  (  0.0000000  0.0000000  1.0000000 )       ( -0.3535534 )
                  (  1.0000000  0.0000000  0.0000000 )       ( -0.3535534 )


      isym = 44     inv. 120 deg rotation - cart. axis [1,-1,1]  

 cryst.   s(44) = (     0          0          1      )    f =( -0.2500000 )
                  (     0         -1          1      )       ( -0.2500000 )
                  (    -1          0          1      )       ( -0.2500000 )

 cart.    s(44) = (  0.0000000  1.0000000  0.0000000 )    f =( -0.3535534 )
                  (  0.0000000  0.0000000  1.0000000 )       ( -0.3535534 )
                  ( -1.0000000  0.0000000  0.0000000 )       ( -0.3535534 )


      isym = 45     inv. 120 deg rotation - cart. axis [1,1,1]   

 cryst.   s(45) = (     0         -1          0      )    f =( -0.2500000 )
                  (     0          0         -1      )       ( -0.2500000 )
                  (    -1          0          0      )       ( -0.2500000 )

 cart.    s(45) = (  0.0000000  0.0000000 -1.0000000 )    f =( -0.3535534 )
                  ( -1.0000000  0.0000000  0.0000000 )       ( -0.3535534 )
                  (  0.0000000 -1.0000000  0.0000000 )       ( -0.3535534 )


      isym = 46     inv. 120 deg rotation - cart. axis [-1,1,-1] 

 cryst.   s(46) = (     1          0         -1      )    f =( -0.2500000 )
                  (     1         -1          0      )       ( -0.2500000 )
                  (     1          0          0      )       ( -0.2500000 )

 cart.    s(46) = (  0.0000000  0.0000000 -1.0000000 )    f =( -0.3535534 )
                  (  1.0000000  0.0000000  0.0000000 )       ( -0.3535534 )
                  (  0.0000000  1.0000000  0.0000000 )       ( -0.3535534 )


      isym = 47     inv. 120 deg rotation - cart. axis [1,-1,-1] 

 cryst.   s(47) = (    -1          0          1      )    f =( -0.2500000 )
                  (     0          0          1      )       ( -0.2500000 )
                  (     0         -1          1      )       ( -0.2500000 )

 cart.    s(47) = (  0.0000000  0.0000000  1.0000000 )    f =( -0.3535534 )
                  (  1.0000000  0.0000000  0.0000000 )       ( -0.3535534 )
                  (  0.0000000 -1.0000000  0.0000000 )       ( -0.3535534 )


      isym = 48     inv. 120 deg rotation - cart. axis [-1,-1,1] 

 cryst.   s(48) = (     0          1          0      )    f =( -0.2500000 )
                  (    -1          1          0      )       ( -0.2500000 )
                  (     0          1         -1      )       ( -0.2500000 )

 cart.    s(48) = (  0.0000000  0.0000000  1.0000000 )    f =( -0.3535534 )
                  ( -1.0000000  0.0000000  0.0000000 )       ( -0.3535534 )
                  (  0.0000000  1.0000000  0.0000000 )       ( -0.3535534 )


   Cartesian axes

     site n.     atom                  positions (alat units)
         1           Sn  tau(   1) = (   0.0000000   0.0000000   0.0000000  )
         2           Sn  tau(   2) = (   0.3535534   0.3535534   0.3535534  )

   Crystallographic axes

     site n.     atom                  positions (cryst. coord.)
         1           Sn  tau(   1) = (  0.0000000  0.0000000  0.0000000  )
         2           Sn  tau(   2) = (  0.2500000  0.2500000  0.2500000  )

     number of k points=   134  gaussian smearing, width (Ry)=  0.0001
                       cart. coord. in units 2pi/alat
        k(    1) = (   0.0000000   0.0000000   0.0000000), wk =   0.0074627
        k(    2) = (   0.0000000   0.0261891   0.0000000), wk =   0.0074627
        k(    3) = (   0.0000000   0.0523783   0.0000000), wk =   0.0074627
        k(    4) = (   0.0000000   0.0785674   0.0000000), wk =   0.0074627
        k(    5) = (   0.0000000   0.1047566   0.0000000), wk =   0.0074627
        k(    6) = (   0.0000000   0.1309457   0.0000000), wk =   0.0074627
        k(    7) = (   0.0000000   0.1571348   0.0000000), wk =   0.0074627
        k(    8) = (   0.0000000   0.1833240   0.0000000), wk =   0.0074627
        k(    9) = (   0.0000000   0.2095131   0.0000000), wk =   0.0074627
        k(   10) = (   0.0000000   0.2357023   0.0000000), wk =   0.0074627
        k(   11) = (   0.0000000   0.2618914   0.0000000), wk =   0.0074627
        k(   12) = (   0.0000000   0.2880805   0.0000000), wk =   0.0074627
        k(   13) = (   0.0000000   0.3142697   0.0000000), wk =   0.0074627
        k(   14) = (   0.0000000   0.3404588   0.0000000), wk =   0.0074627
        k(   15) = (   0.0000000   0.3666480   0.0000000), wk =   0.0074627
        k(   16) = (   0.0000000   0.3928371   0.0000000), wk =   0.0074627
        k(   17) = (   0.0000000   0.4190262   0.0000000), wk =   0.0074627
        k(   18) = (   0.0000000   0.4452154   0.0000000), wk =   0.0074627
        k(   19) = (   0.0000000   0.4714045   0.0000000), wk =   0.0074627
        k(   20) = (   0.0000000   0.4975937   0.0000000), wk =   0.0074627
        k(   21) = (   0.0000000   0.5237828   0.0000000), wk =   0.0074627
        k(   22) = (   0.0000000   0.5499719   0.0000000), wk =   0.0074627
        k(   23) = (   0.0000000   0.5761611   0.0000000), wk =   0.0074627
        k(   24) = (   0.0000000   0.6023502   0.0000000), wk =   0.0074627
        k(   25) = (   0.0000000   0.6285394   0.0000000), wk =   0.0074627
        k(   26) = (   0.0000000   0.6547285   0.0000000), wk =   0.0074627
        k(   27) = (   0.0000000   0.6809176   0.0000000), wk =   0.0074627
        k(   28) = (   0.0000000   0.7071068   0.0000000), wk =   0.0074627
        k(   29) = (   0.0271964   0.7071068   0.0000000), wk =   0.0074627
        k(   30) = (   0.0543928   0.7071068   0.0000000), wk =   0.0074627
        k(   31) = (   0.0815892   0.7071068  -0.0000000), wk =   0.0074627
        k(   32) = (   0.1087857   0.7071068   0.0000000), wk =   0.0074627
        k(   33) = (   0.1359821   0.7071068   0.0000000), wk =   0.0074627
        k(   34) = (   0.1631785   0.7071068   0.0000000), wk =   0.0074627
        k(   35) = (   0.1903749   0.7071068   0.0000000), wk =   0.0074627
        k(   36) = (   0.2175713   0.7071068   0.0000000), wk =   0.0074627
        k(   37) = (   0.2447677   0.7071068   0.0000000), wk =   0.0074627
        k(   38) = (   0.2719641   0.7071068   0.0000000), wk =   0.0074627
        k(   39) = (   0.2991606   0.7071068   0.0000000), wk =   0.0074627
        k(   40) = (   0.3263570   0.7071068   0.0000000), wk =   0.0074627
        k(   41) = (   0.3535534   0.7071068   0.0000000), wk =   0.0074627
        k(   42) = (   0.3535534   0.6884987   0.0186081), wk =   0.0074627
        k(   43) = (   0.3535534   0.6698906   0.0372161), wk =   0.0074627
        k(   44) = (   0.3535534   0.6512826   0.0558242), wk =   0.0074627
        k(   45) = (   0.3535534   0.6326745   0.0744323), wk =   0.0074627
        k(   46) = (   0.3535534   0.6140664   0.0930404), wk =   0.0074627
        k(   47) = (   0.3535534   0.5954583   0.1116484), wk =   0.0074627
        k(   48) = (   0.3535534   0.5768503   0.1302565), wk =   0.0074627
        k(   49) = (   0.3535534   0.5582422   0.1488646), wk =   0.0074627
        k(   50) = (   0.3535534   0.5396341   0.1674727), wk =   0.0074627
        k(   51) = (   0.3535534   0.5210260   0.1860807), wk =   0.0074627
        k(   52) = (   0.3535534   0.5024180   0.2046888), wk =   0.0074627
        k(   53) = (   0.3535534   0.4838099   0.2232969), wk =   0.0074627
        k(   54) = (   0.3535534   0.4652018   0.2419050), wk =   0.0074627
        k(   55) = (   0.3535534   0.4465938   0.2605130), wk =   0.0074627
        k(   56) = (   0.3535534   0.4279857   0.2791211), wk =   0.0074627
        k(   57) = (   0.3535534   0.4093776   0.2977292), wk =   0.0074627
        k(   58) = (   0.3535534   0.3907695   0.3163372), wk =   0.0074627
        k(   59) = (   0.3535534   0.3721615   0.3349453), wk =   0.0074627
        k(   60) = (   0.3535534   0.3535534   0.3535534), wk =   0.0074627
        k(   61) = (   0.3394113   0.3394113   0.3394113), wk =   0.0074627
        k(   62) = (   0.3252691   0.3252691   0.3252691), wk =   0.0074627
        k(   63) = (   0.3111270   0.3111270   0.3111270), wk =   0.0074627
        k(   64) = (   0.2969848   0.2969848   0.2969848), wk =   0.0074627
        k(   65) = (   0.2828427   0.2828427   0.2828427), wk =   0.0074627
        k(   66) = (   0.2687006   0.2687006   0.2687006), wk =   0.0074627
        k(   67) = (   0.2545584   0.2545584   0.2545584), wk =   0.0074627
        k(   68) = (   0.2404163   0.2404163   0.2404163), wk =   0.0074627
        k(   69) = (   0.2262742   0.2262742   0.2262742), wk =   0.0074627
        k(   70) = (   0.2121320   0.2121320   0.2121320), wk =   0.0074627
        k(   71) = (   0.1979899   0.1979899   0.1979899), wk =   0.0074627
        k(   72) = (   0.1838478   0.1838478   0.1838478), wk =   0.0074627
        k(   73) = (   0.1697056   0.1697056   0.1697056), wk =   0.0074627
        k(   74) = (   0.1555635   0.1555635   0.1555635), wk =   0.0074627
        k(   75) = (   0.1414214   0.1414214   0.1414214), wk =   0.0074627
        k(   76) = (   0.1272792   0.1272792   0.1272792), wk =   0.0074627
        k(   77) = (   0.1131371   0.1131371   0.1131371), wk =   0.0074627
        k(   78) = (   0.0989949   0.0989949   0.0989949), wk =   0.0074627
        k(   79) = (   0.0848528   0.0848528   0.0848528), wk =   0.0074627
        k(   80) = (   0.0707107   0.0707107   0.0707107), wk =   0.0074627
        k(   81) = (   0.0565685   0.0565685   0.0565685), wk =   0.0074627
        k(   82) = (   0.0424264   0.0424264   0.0424264), wk =   0.0074627
        k(   83) = (   0.0282843   0.0282843   0.0282843), wk =   0.0074627
        k(   84) = (   0.0141421   0.0141421   0.0141421), wk =   0.0074627
        k(   85) = (   0.0000000   0.0000000   0.0000000), wk =   0.0074627
        k(   86) = (   0.0171074   0.0171074   0.0000000), wk =   0.0074627
        k(   87) = (   0.0342148   0.0342148   0.0000000), wk =   0.0074627
        k(   88) = (   0.0513223   0.0513223   0.0000000), wk =   0.0074627
        k(   89) = (   0.0684297   0.0684297  -0.0000000), wk =   0.0074627
        k(   90) = (   0.0855371   0.0855371   0.0000000), wk =   0.0074627
        k(   91) = (   0.1026445   0.1026445   0.0000000), wk =   0.0074627
        k(   92) = (   0.1197520   0.1197520   0.0000000), wk =   0.0074627
        k(   93) = (   0.1368594   0.1368594   0.0000000), wk =   0.0074627
        k(   94) = (   0.1539668   0.1539668   0.0000000), wk =   0.0074627
        k(   95) = (   0.1710742   0.1710742  -0.0000000), wk =   0.0074627
        k(   96) = (   0.1881816   0.1881816   0.0000000), wk =   0.0074627
        k(   97) = (   0.2052891   0.2052891   0.0000000), wk =   0.0074627
        k(   98) = (   0.2223965   0.2223965   0.0000000), wk =   0.0074627
        k(   99) = (   0.2395039   0.2395039   0.0000000), wk =   0.0074627
        k(  100) = (   0.2566113   0.2566113   0.0000000), wk =   0.0074627
        k(  101) = (   0.2737188   0.2737188  -0.0000000), wk =   0.0074627
        k(  102) = (   0.2908262   0.2908262  -0.0000000), wk =   0.0074627
        k(  103) = (   0.3079336   0.3079336   0.0000000), wk =   0.0074627
        k(  104) = (   0.3250410   0.3250410   0.0000000), wk =   0.0074627
        k(  105) = (   0.3421484   0.3421484   0.0000000), wk =   0.0074627
        k(  106) = (   0.3592559   0.3592559   0.0000000), wk =   0.0074627
        k(  107) = (   0.3763633   0.3763633  -0.0000000), wk =   0.0074627
        k(  108) = (   0.3934707   0.3934707  -0.0000000), wk =   0.0074627
        k(  109) = (   0.4105781   0.4105781   0.0000000), wk =   0.0074627
        k(  110) = (   0.4276856   0.4276856   0.0000000), wk =   0.0074627
        k(  111) = (   0.4447930   0.4447930   0.0000000), wk =   0.0074627
        k(  112) = (   0.4619004   0.4619004   0.0000000), wk =   0.0074627
        k(  113) = (   0.4790078   0.4790078  -0.0000000), wk =   0.0074627
        k(  114) = (   0.4961152   0.4961152  -0.0000000), wk =   0.0074627
        k(  115) = (   0.5132227   0.5132227   0.0000000), wk =   0.0074627
        k(  116) = (   0.5303301   0.5303301   0.0000000), wk =   0.0074627
        k(  117) = (   0.5205092   0.5205092   0.0196419), wk =   0.0074627
        k(  118) = (   0.5106882   0.5106882   0.0392837), wk =   0.0074627
        k(  119) = (   0.5008673   0.5008673   0.0589256), wk =   0.0074627
        k(  120) = (   0.4910464   0.4910464   0.0785674), wk =   0.0074627
        k(  121) = (   0.4812254   0.4812254   0.0982093), wk =   0.0074627
        k(  122) = (   0.4714045   0.4714045   0.1178511), wk =   0.0074627
        k(  123) = (   0.4615836   0.4615836   0.1374930), wk =   0.0074627
        k(  124) = (   0.4517627   0.4517627   0.1571348), wk =   0.0074627
        k(  125) = (   0.4419417   0.4419417   0.1767767), wk =   0.0074627
        k(  126) = (   0.4321208   0.4321208   0.1964186), wk =   0.0074627
        k(  127) = (   0.4222999   0.4222999   0.2160604), wk =   0.0074627
        k(  128) = (   0.4124790   0.4124790   0.2357023), wk =   0.0074627
        k(  129) = (   0.4026580   0.4026580   0.2553441), wk =   0.0074627
        k(  130) = (   0.3928371   0.3928371   0.2749860), wk =   0.0074627
        k(  131) = (   0.3830162   0.3830162   0.2946278), wk =   0.0074627
        k(  132) = (   0.3731952   0.3731952   0.3142697), wk =   0.0074627
        k(  133) = (   0.3633743   0.3633743   0.3339115), wk =   0.0074627
        k(  134) = (   0.3535534   0.3535534   0.3535534), wk =   0.0074627

                       cryst. coord.
        k(    1) = (   0.0000000   0.0000000   0.0000000), wk =   0.0074627
        k(    2) = (   0.0185185   0.0000000   0.0185185), wk =   0.0074627
        k(    3) = (   0.0370370   0.0000000   0.0370370), wk =   0.0074627
        k(    4) = (   0.0555556   0.0000000   0.0555556), wk =   0.0074627
        k(    5) = (   0.0740741   0.0000000   0.0740741), wk =   0.0074627
        k(    6) = (   0.0925926   0.0000000   0.0925926), wk =   0.0074627
        k(    7) = (   0.1111111   0.0000000   0.1111111), wk =   0.0074627
        k(    8) = (   0.1296296   0.0000000   0.1296296), wk =   0.0074627
        k(    9) = (   0.1481481   0.0000000   0.1481481), wk =   0.0074627
        k(   10) = (   0.1666667   0.0000000   0.1666667), wk =   0.0074627
        k(   11) = (   0.1851852   0.0000000   0.1851852), wk =   0.0074627
        k(   12) = (   0.2037037   0.0000000   0.2037037), wk =   0.0074627
        k(   13) = (   0.2222222   0.0000000   0.2222222), wk =   0.0074627
        k(   14) = (   0.2407407   0.0000000   0.2407407), wk =   0.0074627
        k(   15) = (   0.2592593   0.0000000   0.2592593), wk =   0.0074627
        k(   16) = (   0.2777778   0.0000000   0.2777778), wk =   0.0074627
        k(   17) = (   0.2962963   0.0000000   0.2962963), wk =   0.0074627
        k(   18) = (   0.3148148   0.0000000   0.3148148), wk =   0.0074627
        k(   19) = (   0.3333333   0.0000000   0.3333333), wk =   0.0074627
        k(   20) = (   0.3518519   0.0000000   0.3518519), wk =   0.0074627
        k(   21) = (   0.3703704   0.0000000   0.3703704), wk =   0.0074627
        k(   22) = (   0.3888889   0.0000000   0.3888889), wk =   0.0074627
        k(   23) = (   0.4074074   0.0000000   0.4074074), wk =   0.0074627
        k(   24) = (   0.4259259   0.0000000   0.4259259), wk =   0.0074627
        k(   25) = (   0.4444444   0.0000000   0.4444444), wk =   0.0074627
        k(   26) = (   0.4629630   0.0000000   0.4629630), wk =   0.0074627
        k(   27) = (   0.4814815   0.0000000   0.4814815), wk =   0.0074627
        k(   28) = (   0.5000000   0.0000000   0.5000000), wk =   0.0074627
        k(   29) = (   0.5000000   0.0192308   0.5192308), wk =   0.0074627
        k(   30) = (   0.5000000   0.0384615   0.5384615), wk =   0.0074627
        k(   31) = (   0.5000000   0.0576923   0.5576923), wk =   0.0074627
        k(   32) = (   0.5000000   0.0769231   0.5769231), wk =   0.0074627
        k(   33) = (   0.5000000   0.0961538   0.5961538), wk =   0.0074627
        k(   34) = (   0.5000000   0.1153846   0.6153846), wk =   0.0074627
        k(   35) = (   0.5000000   0.1346154   0.6346154), wk =   0.0074627
        k(   36) = (   0.5000000   0.1538462   0.6538462), wk =   0.0074627
        k(   37) = (   0.5000000   0.1730769   0.6730769), wk =   0.0074627
        k(   38) = (   0.5000000   0.1923077   0.6923077), wk =   0.0074627
        k(   39) = (   0.5000000   0.2115385   0.7115385), wk =   0.0074627
        k(   40) = (   0.5000000   0.2307692   0.7307692), wk =   0.0074627
        k(   41) = (   0.5000000   0.2500000   0.7500000), wk =   0.0074627
        k(   42) = (   0.5000000   0.2631579   0.7368421), wk =   0.0074627
        k(   43) = (   0.5000000   0.2763158   0.7236842), wk =   0.0074627
        k(   44) = (   0.5000000   0.2894737   0.7105263), wk =   0.0074627
        k(   45) = (   0.5000000   0.3026316   0.6973684), wk =   0.0074627
        k(   46) = (   0.5000000   0.3157895   0.6842105), wk =   0.0074627
        k(   47) = (   0.5000000   0.3289474   0.6710526), wk =   0.0074627
        k(   48) = (   0.5000000   0.3421053   0.6578947), wk =   0.0074627
        k(   49) = (   0.5000000   0.3552632   0.6447368), wk =   0.0074627
        k(   50) = (   0.5000000   0.3684211   0.6315789), wk =   0.0074627
        k(   51) = (   0.5000000   0.3815789   0.6184211), wk =   0.0074627
        k(   52) = (   0.5000000   0.3947368   0.6052632), wk =   0.0074627
        k(   53) = (   0.5000000   0.4078947   0.5921053), wk =   0.0074627
        k(   54) = (   0.5000000   0.4210526   0.5789474), wk =   0.0074627
        k(   55) = (   0.5000000   0.4342105   0.5657895), wk =   0.0074627
        k(   56) = (   0.5000000   0.4473684   0.5526316), wk =   0.0074627
        k(   57) = (   0.5000000   0.4605263   0.5394737), wk =   0.0074627
        k(   58) = (   0.5000000   0.4736842   0.5263158), wk =   0.0074627
        k(   59) = (   0.5000000   0.4868421   0.5131579), wk =   0.0074627
        k(   60) = (   0.5000000   0.5000000   0.5000000), wk =   0.0074627
        k(   61) = (   0.4800000   0.4800000   0.4800000), wk =   0.0074627
        k(   62) = (   0.4600000   0.4600000   0.4600000), wk =   0.0074627
        k(   63) = (   0.4400000   0.4400000   0.4400000), wk =   0.0074627
        k(   64) = (   0.4200000   0.4200000   0.4200000), wk =   0.0074627
        k(   65) = (   0.4000000   0.4000000   0.4000000), wk =   0.0074627
        k(   66) = (   0.3800000   0.3800000   0.3800000), wk =   0.0074627
        k(   67) = (   0.3600000   0.3600000   0.3600000), wk =   0.0074627
        k(   68) = (   0.3400000   0.3400000   0.3400000), wk =   0.0074627
        k(   69) = (   0.3200000   0.3200000   0.3200000), wk =   0.0074627
        k(   70) = (   0.3000000   0.3000000   0.3000000), wk =   0.0074627
        k(   71) = (   0.2800000   0.2800000   0.2800000), wk =   0.0074627
        k(   72) = (   0.2600000   0.2600000   0.2600000), wk =   0.0074627
        k(   73) = (   0.2400000   0.2400000   0.2400000), wk =   0.0074627
        k(   74) = (   0.2200000   0.2200000   0.2200000), wk =   0.0074627
        k(   75) = (   0.2000000   0.2000000   0.2000000), wk =   0.0074627
        k(   76) = (   0.1800000   0.1800000   0.1800000), wk =   0.0074627
        k(   77) = (   0.1600000   0.1600000   0.1600000), wk =   0.0074627
        k(   78) = (   0.1400000   0.1400000   0.1400000), wk =   0.0074627
        k(   79) = (   0.1200000   0.1200000   0.1200000), wk =   0.0074627
        k(   80) = (   0.1000000   0.1000000   0.1000000), wk =   0.0074627
        k(   81) = (   0.0800000   0.0800000   0.0800000), wk =   0.0074627
        k(   82) = (   0.0600000   0.0600000   0.0600000), wk =   0.0074627
        k(   83) = (   0.0400000   0.0400000   0.0400000), wk =   0.0074627
        k(   84) = (   0.0200000   0.0200000   0.0200000), wk =   0.0074627
        k(   85) = (   0.0000000   0.0000000   0.0000000), wk =   0.0074627
        k(   86) = (   0.0120968   0.0120968   0.0241935), wk =   0.0074627
        k(   87) = (   0.0241935   0.0241935   0.0483871), wk =   0.0074627
        k(   88) = (   0.0362903   0.0362903   0.0725806), wk =   0.0074627
        k(   89) = (   0.0483871   0.0483871   0.0967742), wk =   0.0074627
        k(   90) = (   0.0604839   0.0604839   0.1209677), wk =   0.0074627
        k(   91) = (   0.0725806   0.0725806   0.1451613), wk =   0.0074627
        k(   92) = (   0.0846774   0.0846774   0.1693548), wk =   0.0074627
        k(   93) = (   0.0967742   0.0967742   0.1935484), wk =   0.0074627
        k(   94) = (   0.1088710   0.1088710   0.2177419), wk =   0.0074627
        k(   95) = (   0.1209677   0.1209677   0.2419355), wk =   0.0074627
        k(   96) = (   0.1330645   0.1330645   0.2661290), wk =   0.0074627
        k(   97) = (   0.1451613   0.1451613   0.2903226), wk =   0.0074627
        k(   98) = (   0.1572581   0.1572581   0.3145161), wk =   0.0074627
        k(   99) = (   0.1693548   0.1693548   0.3387097), wk =   0.0074627
        k(  100) = (   0.1814516   0.1814516   0.3629032), wk =   0.0074627
        k(  101) = (   0.1935484   0.1935484   0.3870968), wk =   0.0074627
        k(  102) = (   0.2056452   0.2056452   0.4112903), wk =   0.0074627
        k(  103) = (   0.2177419   0.2177419   0.4354839), wk =   0.0074627
        k(  104) = (   0.2298387   0.2298387   0.4596774), wk =   0.0074627
        k(  105) = (   0.2419355   0.2419355   0.4838710), wk =   0.0074627
        k(  106) = (   0.2540323   0.2540323   0.5080645), wk =   0.0074627
        k(  107) = (   0.2661290   0.2661290   0.5322581), wk =   0.0074627
        k(  108) = (   0.2782258   0.2782258   0.5564516), wk =   0.0074627
        k(  109) = (   0.2903226   0.2903226   0.5806452), wk =   0.0074627
        k(  110) = (   0.3024194   0.3024194   0.6048387), wk =   0.0074627
        k(  111) = (   0.3145161   0.3145161   0.6290323), wk =   0.0074627
        k(  112) = (   0.3266129   0.3266129   0.6532258), wk =   0.0074627
        k(  113) = (   0.3387097   0.3387097   0.6774194), wk =   0.0074627
        k(  114) = (   0.3508065   0.3508065   0.7016129), wk =   0.0074627
        k(  115) = (   0.3629032   0.3629032   0.7258065), wk =   0.0074627
        k(  116) = (   0.3750000   0.3750000   0.7500000), wk =   0.0074627
        k(  117) = (   0.3819444   0.3819444   0.7361111), wk =   0.0074627
        k(  118) = (   0.3888889   0.3888889   0.7222222), wk =   0.0074627
        k(  119) = (   0.3958333   0.3958333   0.7083333), wk =   0.0074627
        k(  120) = (   0.4027778   0.4027778   0.6944444), wk =   0.0074627
        k(  121) = (   0.4097222   0.4097222   0.6805556), wk =   0.0074627
        k(  122) = (   0.4166667   0.4166667   0.6666667), wk =   0.0074627
        k(  123) = (   0.4236111   0.4236111   0.6527778), wk =   0.0074627
        k(  124) = (   0.4305556   0.4305556   0.6388889), wk =   0.0074627
        k(  125) = (   0.4375000   0.4375000   0.6250000), wk =   0.0074627
        k(  126) = (   0.4444444   0.4444444   0.6111111), wk =   0.0074627
        k(  127) = (   0.4513889   0.4513889   0.5972222), wk =   0.0074627
        k(  128) = (   0.4583333   0.4583333   0.5833333), wk =   0.0074627
        k(  129) = (   0.4652778   0.4652778   0.5694444), wk =   0.0074627
        k(  130) = (   0.4722222   0.4722222   0.5555556), wk =   0.0074627
        k(  131) = (   0.4791667   0.4791667   0.5416667), wk =   0.0074627
        k(  132) = (   0.4861111   0.4861111   0.5277778), wk =   0.0074627
        k(  133) = (   0.4930556   0.4930556   0.5138889), wk =   0.0074627
        k(  134) = (   0.5000000   0.5000000   0.5000000), wk =   0.0074627

     Dense  grid:   123189 G-vectors     FFT dimensions: (  72,  72,  72)

     Largest allocated arrays     est. size (Mb)     dimensions
        Kohn-Sham Wavefunctions         0.30 Mb     (     492,   40)
        NL pseudopotentials             0.14 Mb     (     246,   36)
        Each V/rho on FFT grid          0.16 Mb     (   10368)
        Each G-vector array             0.01 Mb     (    1928)
        G-vector shells                 0.01 Mb     (     668)
     Largest temporary arrays     est. size (Mb)     dimensions
        Auxiliary wavefunctions         1.20 Mb     (     492,  160)
        Each subspace H/S matrix        0.39 Mb     (     160,  160)
        Each <psi_i|beta_j> matrix      0.04 Mb     (      36,   2,   40)

     The potential is recalculated from file :
     ./Sn.save/charge-density.dat

     Starting wfc are random

     Band Structure Calculation
     Davidson diagonalization with overlap

     Computing kpt #:     1
     total cpu time spent up to now is        8.5 secs

     Computing kpt #:     2
     total cpu time spent up to now is       11.8 secs

     Computing kpt #:     3
     total cpu time spent up to now is       14.4 secs

     Computing kpt #:     4
     total cpu time spent up to now is       17.0 secs

     Computing kpt #:     5
     total cpu time spent up to now is       19.6 secs

     Computing kpt #:     6
     total cpu time spent up to now is       22.2 secs

     Computing kpt #:     7
     total cpu time spent up to now is       24.8 secs

     Computing kpt #:     8
     total cpu time spent up to now is       27.4 secs

     Computing kpt #:     9
     total cpu time spent up to now is       30.0 secs

     Computing kpt #:    10
     total cpu time spent up to now is       32.6 secs

     Computing kpt #:    11
     total cpu time spent up to now is       35.2 secs

     Computing kpt #:    12
     total cpu time spent up to now is       37.8 secs

     Computing kpt #:    13
     total cpu time spent up to now is       40.5 secs

     Computing kpt #:    14
     total cpu time spent up to now is       43.1 secs

     Computing kpt #:    15
     total cpu time spent up to now is       45.7 secs

     Computing kpt #:    16
     total cpu time spent up to now is       48.3 secs

     Computing kpt #:    17
     total cpu time spent up to now is       51.0 secs

     Computing kpt #:    18
     total cpu time spent up to now is       53.6 secs

     Computing kpt #:    19
     total cpu time spent up to now is       56.2 secs

     Computing kpt #:    20
     total cpu time spent up to now is       58.9 secs

     Computing kpt #:    21
     total cpu time spent up to now is       61.6 secs

     Computing kpt #:    22
     total cpu time spent up to now is       64.4 secs

     Computing kpt #:    23
     total cpu time spent up to now is       67.4 secs

     Computing kpt #:    24
     total cpu time spent up to now is       70.1 secs

     Computing kpt #:    25
     total cpu time spent up to now is       73.1 secs

     Computing kpt #:    26
     total cpu time spent up to now is       76.1 secs

     Computing kpt #:    27
     total cpu time spent up to now is       79.1 secs

     Computing kpt #:    28
     total cpu time spent up to now is       82.1 secs

     Computing kpt #:    29
     total cpu time spent up to now is       85.0 secs

     Computing kpt #:    30
     total cpu time spent up to now is       88.0 secs

     Computing kpt #:    31
     total cpu time spent up to now is       91.0 secs

     Computing kpt #:    32
     total cpu time spent up to now is       93.7 secs

     Computing kpt #:    33
     total cpu time spent up to now is       96.3 secs

     Computing kpt #:    34
     total cpu time spent up to now is       99.0 secs

     Computing kpt #:    35
     total cpu time spent up to now is      101.6 secs

     Computing kpt #:    36
     total cpu time spent up to now is      104.2 secs

     Computing kpt #:    37
     total cpu time spent up to now is      106.8 secs

     Computing kpt #:    38
     total cpu time spent up to now is      109.4 secs

     Computing kpt #:    39
     total cpu time spent up to now is      111.9 secs

     Computing kpt #:    40
     total cpu time spent up to now is      114.5 secs

     Computing kpt #:    41
     total cpu time spent up to now is      117.5 secs

     Computing kpt #:    42
     total cpu time spent up to now is      120.2 secs

     Computing kpt #:    43
     total cpu time spent up to now is      122.7 secs

     Computing kpt #:    44
     total cpu time spent up to now is      126.2 secs

     Computing kpt #:    45
     total cpu time spent up to now is      128.8 secs

     Computing kpt #:    46
     total cpu time spent up to now is      131.5 secs

     Computing kpt #:    47
     total cpu time spent up to now is      134.2 secs

     Computing kpt #:    48
     total cpu time spent up to now is      136.9 secs

     Computing kpt #:    49
     total cpu time spent up to now is      139.6 secs

     Computing kpt #:    50
     total cpu time spent up to now is      142.3 secs

     Computing kpt #:    51
     total cpu time spent up to now is      144.9 secs

     Computing kpt #:    52
     total cpu time spent up to now is      147.6 secs

     Computing kpt #:    53
     total cpu time spent up to now is      150.6 secs

     Computing kpt #:    54
     total cpu time spent up to now is      153.3 secs

     Computing kpt #:    55
     total cpu time spent up to now is      156.1 secs

     Computing kpt #:    56
     total cpu time spent up to now is      158.7 secs

     Computing kpt #:    57
     total cpu time spent up to now is      161.5 secs

     Computing kpt #:    58
     total cpu time spent up to now is      164.1 secs

     Computing kpt #:    59
     total cpu time spent up to now is      166.8 secs

     Computing kpt #:    60
     total cpu time spent up to now is      169.4 secs

     Computing kpt #:    61
     total cpu time spent up to now is      172.0 secs

     Computing kpt #:    62
     total cpu time spent up to now is      174.6 secs

     Computing kpt #:    63
     total cpu time spent up to now is      177.2 secs

     Computing kpt #:    64
     total cpu time spent up to now is      179.9 secs

     Computing kpt #:    65
     total cpu time spent up to now is      182.8 secs

     Computing kpt #:    66
     total cpu time spent up to now is      185.8 secs

     Computing kpt #:    67
     total cpu time spent up to now is      188.5 secs

     Computing kpt #:    68
     total cpu time spent up to now is      191.1 secs

     Computing kpt #:    69
     total cpu time spent up to now is      193.7 secs

     Computing kpt #:    70
     total cpu time spent up to now is      196.4 secs

     Computing kpt #:    71
     total cpu time spent up to now is      199.0 secs

     Computing kpt #:    72
     total cpu time spent up to now is      201.6 secs

     Computing kpt #:    73
     total cpu time spent up to now is      204.2 secs

     Computing kpt #:    74
     total cpu time spent up to now is      206.7 secs

     Computing kpt #:    75
     total cpu time spent up to now is      209.3 secs

     Computing kpt #:    76
     total cpu time spent up to now is      211.9 secs

     Computing kpt #:    77
     total cpu time spent up to now is      214.5 secs

     Computing kpt #:    78
     total cpu time spent up to now is      217.1 secs

     Computing kpt #:    79
     total cpu time spent up to now is      219.6 secs

     Computing kpt #:    80
     total cpu time spent up to now is      222.2 secs

     Computing kpt #:    81
     total cpu time spent up to now is      224.7 secs

     Computing kpt #:    82
     total cpu time spent up to now is      227.3 secs

     Computing kpt #:    83
     total cpu time spent up to now is      229.9 secs

     Computing kpt #:    84
     total cpu time spent up to now is      232.4 secs

     Computing kpt #:    85
     total cpu time spent up to now is      234.9 secs

     Computing kpt #:    86
     total cpu time spent up to now is      237.5 secs

     Computing kpt #:    87
     total cpu time spent up to now is      240.1 secs

     Computing kpt #:    88
     total cpu time spent up to now is      242.7 secs

     Computing kpt #:    89
     total cpu time spent up to now is      245.3 secs

     Computing kpt #:    90
     total cpu time spent up to now is      247.9 secs

     Computing kpt #:    91
     total cpu time spent up to now is      250.5 secs

     Computing kpt #:    92
     total cpu time spent up to now is      253.2 secs

     Computing kpt #:    93
     total cpu time spent up to now is      255.7 secs

     Computing kpt #:    94
     total cpu time spent up to now is      258.3 secs

     Computing kpt #:    95
     total cpu time spent up to now is      260.9 secs

     Computing kpt #:    96
     total cpu time spent up to now is      263.5 secs

     Computing kpt #:    97
     total cpu time spent up to now is      266.2 secs

     Computing kpt #:    98
     total cpu time spent up to now is      268.8 secs

     Computing kpt #:    99
     total cpu time spent up to now is      271.4 secs

     Computing kpt #:   100
     total cpu time spent up to now is      274.0 secs

     Computing kpt #:   101
     total cpu time spent up to now is      276.7 secs

     Computing kpt #:   102
     total cpu time spent up to now is      279.3 secs

     Computing kpt #:   103
     total cpu time spent up to now is      281.9 secs

     Computing kpt #:   104
     total cpu time spent up to now is      284.6 secs

     Computing kpt #:   105
     total cpu time spent up to now is      287.2 secs

     Computing kpt #:   106
     total cpu time spent up to now is      289.9 secs

     Computing kpt #:   107
     total cpu time spent up to now is      292.6 secs

     Computing kpt #:   108
     total cpu time spent up to now is      295.3 secs

     Computing kpt #:   109
     total cpu time spent up to now is      298.0 secs

     Computing kpt #:   110
     total cpu time spent up to now is      300.8 secs

     Computing kpt #:   111
     total cpu time spent up to now is      303.9 secs

     Computing kpt #:   112
     total cpu time spent up to now is      306.7 secs

     Computing kpt #:   113
     total cpu time spent up to now is      309.4 secs

     Computing kpt #:   114
     total cpu time spent up to now is      312.1 secs

     Computing kpt #:   115
     total cpu time spent up to now is      315.2 secs

     Computing kpt #:   116
     total cpu time spent up to now is      318.3 secs

     Computing kpt #:   117
     total cpu time spent up to now is      321.0 secs

     Computing kpt #:   118
     total cpu time spent up to now is      323.7 secs

     Computing kpt #:   119
     total cpu time spent up to now is      326.4 secs

     Computing kpt #:   120
     total cpu time spent up to now is      329.2 secs

     Computing kpt #:   121
     total cpu time spent up to now is      331.9 secs

     Computing kpt #:   122
     total cpu time spent up to now is      334.7 secs

     Computing kpt #:   123
     total cpu time spent up to now is      337.4 secs

     Computing kpt #:   124
     total cpu time spent up to now is      340.1 secs

     Computing kpt #:   125
     total cpu time spent up to now is      342.8 secs

     Computing kpt #:   126
     total cpu time spent up to now is      345.5 secs

     Computing kpt #:   127
     total cpu time spent up to now is      348.5 secs

     Computing kpt #:   128
     total cpu time spent up to now is      351.1 secs

     Computing kpt #:   129
     total cpu time spent up to now is      353.8 secs

     Computing kpt #:   130
     total cpu time spent up to now is      356.4 secs

     Computing kpt #:   131
     total cpu time spent up to now is      359.2 secs

     Computing kpt #:   132
     total cpu time spent up to now is      361.8 secs

     Computing kpt #:   133
     total cpu time spent up to now is      364.5 secs

     Computing kpt #:   134
     total cpu time spent up to now is      367.2 secs

     ethr =  3.57E-09,  avg # of iterations = 19.0

     total cpu time spent up to now is      367.2 secs

     End of band structure calculation

          k = 0.0000 0.0000 0.0000 ( 15473 PWs)   bands (ev):

   -14.0378 -14.0378 -14.0378 -14.0378 -14.0378 -14.0378 -13.9883 -13.9883
   -13.9883 -13.9883 -13.7368 -13.7368 -13.7368 -13.7368 -13.7368 -13.7368
   -13.7354 -13.7354 -13.7354 -13.7354  -2.5635  -2.5635   6.4042   6.4042
     7.6450   7.6450   7.6450   7.6450   7.6450   7.6450   9.4290   9.4290
     9.4298   9.4298   9.7118   9.7118   9.7118   9.7118   9.7118   9.7118

          k = 0.0000 0.0262 0.0000 ( 15445 PWs)   bands (ev):

   -14.0381 -14.0381 -14.0380 -14.0380 -14.0380 -14.0380 -13.9880 -13.9880
   -13.9876 -13.9876 -13.7416 -13.7416 -13.7366 -13.7366 -13.7366 -13.7366
   -13.7356 -13.7356 -13.7312 -13.7312  -2.5594  -2.5594   6.3472   6.3472
     7.6246   7.6246   7.6246   7.6246   7.7005   7.7005   9.4290   9.4290
     9.4298   9.4298   9.6978   9.6978   9.7375   9.7375   9.7375   9.7375

          k = 0.0000 0.0524 0.0000 ( 15453 PWs)   bands (ev):

   -14.0387 -14.0387 -14.0385 -14.0385 -14.0385 -14.0385 -13.9874 -13.9874
   -13.9857 -13.9857 -13.7475 -13.7475 -13.7363 -13.7363 -13.7359 -13.7359
   -13.7359 -13.7359 -13.7268 -13.7268  -2.5471  -2.5471   6.1994   6.1994
     7.5663   7.5663   7.5663   7.5663   7.8436   7.8436   9.4290   9.4290
     9.4298   9.4298   9.6573   9.6573   9.8116   9.8116   9.8116   9.8116

          k = 0.0000 0.0786 0.0000 ( 15453 PWs)   bands (ev):

   -14.0397 -14.0397 -14.0393 -14.0393 -14.0393 -14.0393 -13.9863 -13.9863
   -13.9826 -13.9826 -13.7538 -13.7538 -13.7373 -13.7373 -13.7348 -13.7348
   -13.7348 -13.7348 -13.7229 -13.7229  -2.5266  -2.5266   5.9995   5.9995
     7.4774   7.4774   7.4774   7.4774   8.0348   8.0348   9.4289   9.4289
     9.4299   9.4299   9.5941   9.5941   9.9267   9.9267   9.9267   9.9267

          k = 0.0000 0.1048 0.0000 ( 15445 PWs)   bands (ev):

   -14.0407 -14.0407 -14.0404 -14.0404 -14.0404 -14.0404 -13.9848 -13.9848
   -13.9785 -13.9785 -13.7606 -13.7606 -13.7388 -13.7388 -13.7332 -13.7332
   -13.7332 -13.7332 -13.7197 -13.7197  -2.4979  -2.4979   5.7725   5.7725
     7.3666   7.3666   7.3666   7.3666   8.2478   8.2478   9.4285   9.4285
     9.4299   9.4299   9.5138   9.5138  10.0742  10.0742  10.0742  10.0742

          k = 0.0000 0.1309 0.0000 ( 15417 PWs)   bands (ev):

   -14.0419 -14.0419 -14.0419 -14.0419 -14.0418 -14.0418 -13.9828 -13.9828
   -13.9736 -13.9736 -13.7678 -13.7678 -13.7406 -13.7406 -13.7313 -13.7313
   -13.7313 -13.7313 -13.7169 -13.7169  -2.4610  -2.4610   5.5313   5.5313
     7.2413   7.2413   7.2413   7.2413   8.4678   8.4678   9.4150   9.4150
     9.4301   9.4301   9.4343   9.4343  10.2463  10.2463  10.2463  10.2463

          k = 0.0000 0.1571 0.0000 ( 15401 PWs)   bands (ev):

   -14.0435 -14.0435 -14.0435 -14.0435 -14.0427 -14.0427 -13.9805 -13.9805
   -13.9680 -13.9680 -13.7754 -13.7754 -13.7429 -13.7429 -13.7290 -13.7290
   -13.7290 -13.7290 -13.7147 -13.7147  -2.4160  -2.4160   5.2823   5.2823
     7.1076   7.1076   7.1076   7.1076   8.6854   8.6854   9.3190   9.3190
     9.4300   9.4300   9.4302   9.4302  10.4371  10.4371  10.4371  10.4371

          k = 0.0000 0.1833 0.0000 ( 15425 PWs)   bands (ev):

   -14.0454 -14.0454 -14.0454 -14.0454 -14.0433 -14.0433 -13.9777 -13.9777
   -13.9619 -13.9619 -13.7834 -13.7834 -13.7455 -13.7455 -13.7264 -13.7264
   -13.7264 -13.7264 -13.7132 -13.7132  -2.3628  -2.3628   5.0293   5.0293
     6.9699   6.9699   6.9699   6.9699   8.8934   8.8934   9.2154   9.2154
     9.4296   9.4296   9.4306   9.4306  10.6421  10.6421  10.6421  10.6421

          k = 0.0000 0.2095 0.0000 ( 15441 PWs)   bands (ev):

   -14.0475 -14.0475 -14.0475 -14.0475 -14.0437 -14.0437 -13.9745 -13.9745
   -13.9552 -13.9552 -13.7917 -13.7917 -13.7486 -13.7486 -13.7236 -13.7236
   -13.7236 -13.7236 -13.7122 -13.7122  -2.3016  -2.3016   4.7741   4.7741
     6.8311   6.8311   6.8311   6.8311   9.0848   9.0848   9.1111   9.1111
     9.4295   9.4295   9.4312   9.4312  10.8578  10.8578  10.8578  10.8578

          k = 0.0000 0.2357 0.0000 ( 15437 PWs)   bands (ev):

   -14.0497 -14.0497 -14.0497 -14.0497 -14.0437 -14.0437 -13.9709 -13.9709
   -13.9481 -13.9481 -13.8002 -13.8002 -13.7520 -13.7520 -13.7205 -13.7205
   -13.7205 -13.7205 -13.7117 -13.7117  -2.2324  -2.2324   4.5181   4.5181
     6.6937   6.6937   6.6937   6.6937   9.0087   9.0087   9.2517   9.2517
     9.4295   9.4295   9.4329   9.4329  11.0820  11.0820  11.0820  11.0820

          k = 0.0000 0.2619 0.0000 ( 15441 PWs)   bands (ev):

   -14.0520 -14.0520 -14.0520 -14.0520 -14.0433 -14.0433 -13.9670 -13.9670
   -13.9406 -13.9406 -13.8091 -13.8091 -13.7558 -13.7558 -13.7172 -13.7172
   -13.7172 -13.7172 -13.7119 -13.7119  -2.1552  -2.1552   4.2622   4.2622
     6.5593   6.5593   6.5593   6.5593   8.9099   8.9099   9.3806   9.3806
     9.4294   9.4294   9.4419   9.4419  11.3127  11.3127  11.3127  11.3127

          k = 0.0000 0.2881 0.0000 ( 15453 PWs)   bands (ev):

   -14.0544 -14.0544 -14.0544 -14.0544 -14.0425 -14.0425 -13.9627 -13.9627
   -13.9328 -13.9328 -13.8182 -13.8182 -13.7599 -13.7599 -13.7138 -13.7138
   -13.7138 -13.7138 -13.7126 -13.7126  -2.0701  -2.0701   4.0070   4.0070
     6.4291   6.4291   6.4291   6.4291   8.8163   8.8163   9.4213   9.4213
     9.4294   9.4294   9.5024   9.5024  11.5486  11.5486  11.5486  11.5486

          k = 0.0000 0.3143 0.0000 ( 15473 PWs)   bands (ev):

   -14.0569 -14.0569 -14.0569 -14.0569 -14.0412 -14.0412 -13.9581 -13.9581
   -13.9247 -13.9247 -13.8274 -13.8274 -13.7644 -13.7644 -13.7140 -13.7140
   -13.7104 -13.7104 -13.7104 -13.7104  -1.9771  -1.9771   3.7529   3.7529
     6.3041   6.3041   6.3041   6.3041   8.7288   8.7288   9.4250   9.4250
     9.4294   9.4294   9.5587   9.5587  11.7884  11.7884  11.7884  11.7884

          k = 0.0000 0.3405 0.0000 ( 15465 PWs)   bands (ev):

   -14.0593 -14.0593 -14.0593 -14.0593 -14.0395 -14.0395 -13.9531 -13.9531
   -13.9164 -13.9164 -13.8369 -13.8369 -13.7692 -13.7692 -13.7158 -13.7158
   -13.7069 -13.7069 -13.7069 -13.7069  -1.8764  -1.8764   3.5004   3.5004
     6.1850   6.1850   6.1850   6.1850   8.6483   8.6483   9.4258   9.4258
     9.4294   9.4294   9.5765   9.5765  12.0312  12.0312  12.0312  12.0312

          k = 0.0000 0.3666 0.0000 ( 15456 PWs)   bands (ev):

   -14.0618 -14.0618 -14.0618 -14.0618 -14.0373 -14.0373 -13.9478 -13.9478
   -13.9079 -13.9079 -13.8465 -13.8465 -13.7743 -13.7743 -13.7183 -13.7183
   -13.7034 -13.7034 -13.7034 -13.7034  -1.7680  -1.7680   3.2497   3.2497
     6.0723   6.0723   6.0723   6.0723   8.5755   8.5755   9.4256   9.4256
     9.4294   9.4294   9.5576   9.5576  12.2762  12.2762  12.2762  12.2762

          k = 0.0000 0.3928 0.0000 ( 15460 PWs)   bands (ev):

   -14.0641 -14.0641 -14.0641 -14.0641 -14.0346 -14.0346 -13.9422 -13.9422
   -13.8992 -13.8992 -13.8561 -13.8561 -13.7797 -13.7797 -13.7213 -13.7213
   -13.7000 -13.7000 -13.7000 -13.7000  -1.6520  -1.6520   3.0013   3.0013
     5.9667   5.9667   5.9667   5.9667   8.5108   8.5108   9.4239   9.4239
     9.4294   9.4294   9.5091   9.5091  12.5224  12.5224  12.5224  12.5224

          k = 0.0000 0.4190 0.0000 ( 15456 PWs)   bands (ev):

   -14.0664 -14.0664 -14.0664 -14.0664 -14.0314 -14.0314 -13.9363 -13.9363
   -13.8903 -13.8903 -13.8659 -13.8659 -13.7854 -13.7854 -13.7248 -13.7248
   -13.6967 -13.6967 -13.6967 -13.6967  -1.5285  -1.5285   2.7553   2.7553
     5.8684   5.8684   5.8684   5.8684   8.4547   8.4547   9.4099   9.4099
     9.4294   9.4294   9.4496   9.4496  12.7692  12.7692  12.7692  12.7692

          k = 0.0000 0.4452 0.0000 ( 15452 PWs)   bands (ev):

   -14.0686 -14.0686 -14.0686 -14.0686 -14.0278 -14.0278 -13.9302 -13.9302
   -13.8814 -13.8814 -13.8756 -13.8756 -13.7913 -13.7913 -13.7289 -13.7289
   -13.6935 -13.6935 -13.6935 -13.6935  -1.3976  -1.3976   2.5120   2.5120
     5.7778   5.7778   5.7778   5.7778   8.4074   8.4074   9.3369   9.3369
     9.4294   9.4294   9.4332   9.4332  13.0156  13.0156  13.0156  13.0156

          k = 0.0000 0.4714 0.0000 ( 15432 PWs)   bands (ev):

   -14.0706 -14.0706 -14.0706 -14.0706 -14.0237 -14.0237 -13.9239 -13.9239
   -13.8854 -13.8854 -13.8723 -13.8723 -13.7975 -13.7975 -13.7334 -13.7334
   -13.6906 -13.6906 -13.6906 -13.6906  -1.2594  -1.2594   2.2717   2.2717
     5.6952   5.6952   5.6952   5.6952   8.3693   8.3693   9.2402   9.2402
     9.4294   9.4294   9.4310   9.4310  13.2605  13.2605  13.2605  13.2605

          k = 0.0000 0.4976 0.0000 ( 15432 PWs)   bands (ev):

   -14.0725 -14.0725 -14.0725 -14.0725 -14.0191 -14.0191 -13.9174 -13.9174
   -13.8951 -13.8951 -13.8633 -13.8633 -13.8039 -13.8039 -13.7384 -13.7384
   -13.6878 -13.6878 -13.6878 -13.6878  -1.1141  -1.1141   2.0346   2.0346
     5.6207   5.6207   5.6207   5.6207   8.3406   8.3406   9.1377   9.1377
     9.4294   9.4294   9.4303   9.4303  13.5024  13.5024  13.5024  13.5024

          k = 0.0000 0.5238 0.0000 ( 15460 PWs)   bands (ev):

   -14.0742 -14.0742 -14.0742 -14.0742 -14.0141 -14.0141 -13.9106 -13.9106
   -13.9047 -13.9047 -13.8542 -13.8542 -13.8105 -13.8105 -13.7439 -13.7439
   -13.6853 -13.6853 -13.6853 -13.6853  -0.9619  -0.9619   1.8011   1.8011
     5.5546   5.5546   5.5546   5.5546   8.3214   8.3214   9.0342   9.0342
     9.4294   9.4294   9.4300   9.4300  13.7395  13.7395  13.7395  13.7395

          k = 0.0000 0.5500 0.0000 ( 15468 PWs)   bands (ev):

   -14.0757 -14.0757 -14.0757 -14.0757 -14.0086 -14.0086 -13.9142 -13.9142
   -13.9037 -13.9037 -13.8451 -13.8451 -13.8173 -13.8173 -13.7499 -13.7499
   -13.6831 -13.6831 -13.6831 -13.6831  -0.8028  -0.8028   1.5713   1.5713
     5.4970   5.4970   5.4970   5.4970   8.3119   8.3119   8.9329   8.9329
     9.4294   9.4294   9.4298   9.4298  13.9689  13.9689  13.9689  13.9689

          k = 0.0000 0.5762 0.0000 ( 15476 PWs)   bands (ev):

   -14.0770 -14.0770 -14.0770 -14.0770 -14.0026 -14.0026 -13.9235 -13.9235
   -13.8967 -13.8967 -13.8362 -13.8362 -13.8242 -13.8242 -13.7562 -13.7562
   -13.6811 -13.6811 -13.6811 -13.6811  -0.6370  -0.6370   1.3455   1.3455
     5.4480   5.4480   5.4480   5.4480   8.3121   8.3121   8.8359   8.8359
     9.4294   9.4294   9.4297   9.4297  14.1867  14.1867  14.1867  14.1867

          k = 0.0000 0.6024 0.0000 ( 15456 PWs)   bands (ev):

   -14.0781 -14.0781 -14.0781 -14.0781 -13.9963 -13.9963 -13.9327 -13.9327
   -13.8895 -13.8895 -13.8312 -13.8312 -13.8272 -13.8272 -13.7629 -13.7629
   -13.6795 -13.6795 -13.6795 -13.6795  -0.4647  -0.4647   1.1240   1.1240
     5.4079   5.4079   5.4079   5.4079   8.3221   8.3221   8.7449   8.7449
     9.4294   9.4294   9.4296   9.4296  14.3871  14.3871  14.3871  14.3871

          k = 0.0000 0.6285 0.0000 ( 15444 PWs)   bands (ev):

   -14.0790 -14.0790 -14.0790 -14.0790 -13.9895 -13.9895 -13.9417 -13.9417
   -13.8823 -13.8823 -13.8384 -13.8384 -13.8185 -13.8185 -13.7700 -13.7700
   -13.6782 -13.6782 -13.6782 -13.6782  -0.2861  -0.2861   0.9070   0.9070
     5.3765   5.3765   5.3765   5.3765   8.3419   8.3419   8.6610   8.6610
     9.4294   9.4294   9.4295   9.4295  14.5622  14.5622  14.5622  14.5622

          k = 0.0000 0.6547 0.0000 ( 15444 PWs)   bands (ev):

   -14.0796 -14.0796 -14.0796 -14.0796 -13.9824 -13.9824 -13.9504 -13.9504
   -13.8750 -13.8750 -13.8457 -13.8457 -13.8098 -13.8098 -13.7774 -13.7774
   -13.6773 -13.6773 -13.6773 -13.6773  -0.1013  -0.1013   0.6948   0.6948
     5.3541   5.3541   5.3541   5.3541   8.3714   8.3714   8.5851   8.5851
     9.4294   9.4294   9.4295   9.4295  14.7013  14.7013  14.7013  14.7013

          k = 0.0000 0.6809 0.0000 ( 15428 PWs)   bands (ev):

   -14.0800 -14.0800 -14.0800 -14.0800 -13.9749 -13.9749 -13.9589 -13.9589
   -13.8677 -13.8677 -13.8530 -13.8530 -13.8014 -13.8014 -13.7851 -13.7851
   -13.6768 -13.6768 -13.6768 -13.6768   0.0894   0.0894   0.4877   0.4877
     5.3406   5.3406   5.3406   5.3406   8.4107   8.4107   8.5178   8.5178
     9.4294   9.4294   9.4295   9.4295  14.7920  14.7920  14.7920  14.7920

          k = 0.0000 0.7071 0.0000 ( 15364 PWs)   bands (ev):

   -14.0801 -14.0801 -14.0801 -14.0801 -13.9670 -13.9670 -13.9670 -13.9670
   -13.8603 -13.8603 -13.8603 -13.8603 -13.7931 -13.7931 -13.7931 -13.7931
   -13.6766 -13.6766 -13.6766 -13.6766   0.2858   0.2858   0.2858   0.2858
     5.3361   5.3361   5.3361   5.3361   8.4596   8.4596   8.4596   8.4596
     9.4295   9.4295   9.4295   9.4295  14.8237  14.8237  14.8237  14.8237

          k = 0.0272 0.7071 0.0000 ( 15422 PWs)   bands (ev):

   -14.0803 -14.0803 -14.0803 -14.0803 -13.9665 -13.9665 -13.9665 -13.9665
   -13.8603 -13.8603 -13.8603 -13.8603 -13.7937 -13.7937 -13.7937 -13.7937
   -13.6764 -13.6764 -13.6764 -13.6764   0.2864   0.2864   0.2864   0.2864
     5.3267   5.3267   5.3267   5.3267   8.4817   8.4817   8.4817   8.4817
     9.4295   9.4295   9.4295   9.4295  14.7817  14.7817  14.7817  14.7817

          k = 0.0544 0.7071 0.0000 ( 15434 PWs)   bands (ev):

   -14.0810 -14.0810 -14.0810 -14.0810 -13.9648 -13.9648 -13.9648 -13.9648
   -13.8604 -13.8604 -13.8604 -13.8604 -13.7952 -13.7952 -13.7952 -13.7952
   -13.6757 -13.6757 -13.6757 -13.6757   0.2883   0.2883   0.2883   0.2883
     5.2995   5.2995   5.2995   5.2995   8.5468   8.5468   8.5468   8.5468
     9.4295   9.4295   9.4295   9.4295  14.6587  14.6587  14.6587  14.6587

          k = 0.0816 0.7071-0.0000 ( 15444 PWs)   bands (ev):

   -14.0821 -14.0821 -14.0821 -14.0821 -13.9621 -13.9621 -13.9621 -13.9621
   -13.8606 -13.8606 -13.8606 -13.8606 -13.7977 -13.7977 -13.7977 -13.7977
   -13.6746 -13.6746 -13.6746 -13.6746   0.2913   0.2913   0.2913   0.2913
     5.2574   5.2574   5.2574   5.2574   8.6521   8.6521   8.6521   8.6521
     9.4295   9.4295   9.4295   9.4295  14.4643  14.4643  14.4643  14.4643

          k = 0.1088 0.7071 0.0000 ( 15444 PWs)   bands (ev):

   -14.0835 -14.0835 -14.0835 -14.0835 -13.9586 -13.9586 -13.9586 -13.9586
   -13.8608 -13.8608 -13.8608 -13.8608 -13.8010 -13.8010 -13.8010 -13.8010
   -13.6733 -13.6733 -13.6733 -13.6733   0.2954   0.2954   0.2954   0.2954
     5.2044   5.2044   5.2044   5.2044   8.7935   8.7935   8.7935   8.7935
     9.4296   9.4296   9.4296   9.4296  14.2133  14.2133  14.2133  14.2133

          k = 0.1360 0.7071 0.0000 ( 15444 PWs)   bands (ev):

   -14.0850 -14.0850 -14.0850 -14.0850 -13.9543 -13.9543 -13.9543 -13.9543
   -13.8611 -13.8611 -13.8611 -13.8611 -13.8050 -13.8050 -13.8050 -13.8050
   -13.6718 -13.6718 -13.6718 -13.6718   0.3001   0.3001   0.3001   0.3001
     5.1449   5.1449   5.1449   5.1449   8.9664   8.9664   8.9664   8.9664
     9.4297   9.4297   9.4297   9.4297  13.9222  13.9222  13.9222  13.9222

          k = 0.1632 0.7071 0.0000 ( 15436 PWs)   bands (ev):

   -14.0866 -14.0866 -14.0866 -14.0866 -13.9495 -13.9495 -13.9495 -13.9495
   -13.8615 -13.8615 -13.8615 -13.8615 -13.8094 -13.8094 -13.8094 -13.8094
   -13.6702 -13.6702 -13.6702 -13.6702   0.3054   0.3054   0.3054   0.3054
     5.0831   5.0831   5.0831   5.0831   9.1663   9.1663   9.1663   9.1663
     9.4302   9.4302   9.4302   9.4302  13.6051  13.6051  13.6051  13.6051

          k = 0.1904 0.7071 0.0000 ( 15420 PWs)   bands (ev):

   -14.0883 -14.0883 -14.0883 -14.0883 -13.9443 -13.9443 -13.9443 -13.9443
   -13.8620 -13.8620 -13.8620 -13.8620 -13.8140 -13.8140 -13.8140 -13.8140
   -13.6686 -13.6686 -13.6686 -13.6686   0.3109   0.3109   0.3109   0.3109
     5.0227   5.0227   5.0227   5.0227   9.3847   9.3847   9.3847   9.3847
     9.4350   9.4350   9.4350   9.4350  13.2732  13.2732  13.2732  13.2732

          k = 0.2176 0.7071 0.0000 ( 15420 PWs)   bands (ev):

   -14.0898 -14.0898 -14.0898 -14.0898 -13.9390 -13.9390 -13.9390 -13.9390
   -13.8627 -13.8627 -13.8627 -13.8627 -13.8185 -13.8185 -13.8185 -13.8185
   -13.6672 -13.6672 -13.6672 -13.6672   0.3162   0.3162   0.3162   0.3162
     4.9667   4.9667   4.9667   4.9667   9.4279   9.4279   9.4279   9.4279
     9.6341   9.6341   9.6341   9.6341  12.9347  12.9347  12.9347  12.9347

          k = 0.2448 0.7071 0.0000 ( 15420 PWs)   bands (ev):

   -14.0911 -14.0911 -14.0911 -14.0911 -13.9338 -13.9338 -13.9338 -13.9338
   -13.8636 -13.8636 -13.8636 -13.8636 -13.8228 -13.8228 -13.8228 -13.8228
   -13.6659 -13.6659 -13.6659 -13.6659   0.3211   0.3211   0.3211   0.3211
     4.9177   4.9177   4.9177   4.9177   9.4286   9.4286   9.4286   9.4286
     9.8905   9.8905   9.8905   9.8905  12.5967  12.5967  12.5967  12.5967

          k = 0.2720 0.7071 0.0000 ( 15410 PWs)   bands (ev):

   -14.0922 -14.0922 -14.0922 -14.0922 -13.9291 -13.9291 -13.9291 -13.9291
   -13.8646 -13.8646 -13.8646 -13.8646 -13.8265 -13.8265 -13.8265 -13.8265
   -13.6648 -13.6648 -13.6648 -13.6648   0.3253   0.3253   0.3253   0.3253
     4.8778   4.8778   4.8778   4.8778   9.4288   9.4288   9.4288   9.4288
    10.1566  10.1566  10.1566  10.1566  12.2663  12.2663  12.2663  12.2663

          k = 0.2992 0.7071 0.0000 ( 15396 PWs)   bands (ev):

   -14.0930 -14.0930 -14.0930 -14.0930 -13.9253 -13.9253 -13.9253 -13.9253
   -13.8657 -13.8657 -13.8657 -13.8657 -13.8293 -13.8293 -13.8293 -13.8293
   -13.6640 -13.6640 -13.6640 -13.6640   0.3285   0.3285   0.3285   0.3285
     4.8482   4.8482   4.8482   4.8482   9.4289   9.4289   9.4289   9.4289
    10.4215  10.4215  10.4215  10.4215  11.9551  11.9551  11.9551  11.9551

          k = 0.3264 0.7071 0.0000 ( 15404 PWs)   bands (ev):

   -14.0934 -14.0934 -14.0934 -14.0934 -13.9227 -13.9227 -13.9227 -13.9227
   -13.8665 -13.8665 -13.8665 -13.8665 -13.8310 -13.8310 -13.8310 -13.8310
   -13.6635 -13.6635 -13.6635 -13.6635   0.3305   0.3305   0.3305   0.3305
     4.8300   4.8300   4.8300   4.8300   9.4289   9.4289   9.4289   9.4289
    10.6559  10.6559  10.6559  10.6559  11.6927  11.6927  11.6927  11.6927

          k = 0.3536 0.7071 0.0000 ( 15368 PWs)   bands (ev):

   -14.0936 -14.0936 -14.0936 -14.0936 -13.9218 -13.9218 -13.9218 -13.9218
   -13.8668 -13.8668 -13.8668 -13.8668 -13.8316 -13.8316 -13.8316 -13.8316
   -13.6634 -13.6634 -13.6634 -13.6634   0.3311   0.3311   0.3311   0.3311
     4.8239   4.8239   4.8239   4.8239   9.4289   9.4289   9.4289   9.4289
    10.7677  10.7677  10.7677  10.7677  11.5716  11.5716  11.5716  11.5716

          k = 0.3536 0.6885 0.0186 ( 15396 PWs)   bands (ev):

   -14.0946 -14.0946 -14.0924 -14.0924 -13.9289 -13.9289 -13.9144 -13.9144
   -13.8722 -13.8722 -13.8614 -13.8614 -13.8380 -13.8380 -13.8256 -13.8256
   -13.6646 -13.6646 -13.6624 -13.6624   0.2036   0.2036   0.4594   0.4594
     4.7454   4.7454   4.9151   4.9151   9.4289   9.4289   9.4290   9.4290
    10.6290  10.6290  10.8703  10.8703  11.5110  11.5110  11.6817  11.6817

          k = 0.3536 0.6699 0.0372 ( 15392 PWs)   bands (ev):

   -14.0954 -14.0954 -14.0910 -14.0910 -13.9357 -13.9357 -13.9067 -13.9067
   -13.8774 -13.8774 -13.8566 -13.8566 -13.8441 -13.8441 -13.8199 -13.8199
   -13.6660 -13.6660 -13.6616 -13.6616   0.0780   0.0780   0.5867   0.5867
     4.6816   4.6816   5.0170   5.0170   9.4288   9.4288   9.4290   9.4290
    10.4762  10.4762  10.9051  10.9051  11.5336  11.5336  11.8168  11.8168

          k = 0.3536 0.6513 0.0558 ( 15390 PWs)   bands (ev):

   -14.0960 -14.0960 -14.0895 -14.0895 -13.9421 -13.9421 -13.8993 -13.8993
   -13.8820 -13.8820 -13.8556 -13.8556 -13.8468 -13.8468 -13.8145 -13.8145
   -13.6676 -13.6676 -13.6612 -13.6612  -0.0442  -0.0442   0.7114   0.7114
     4.6348   4.6348   5.1276   5.1276   9.4288   9.4288   9.4290   9.4290
    10.3188  10.3188  10.8722  10.8722  11.6404  11.6404  11.9639  11.9639

          k = 0.3536 0.6327 0.0744 ( 15392 PWs)   bands (ev):

   -14.0962 -14.0962 -14.0878 -14.0878 -13.9482 -13.9482 -13.8944 -13.8944
   -13.8837 -13.8837 -13.8614 -13.8614 -13.8430 -13.8430 -13.8097 -13.8097
   -13.6693 -13.6693 -13.6611 -13.6611  -0.1623  -0.1623   0.8313   0.8313
     4.6071   4.6071   5.2451   5.2451   9.4286   9.4286   9.4290   9.4290
    10.1602  10.1602  10.8062  10.8062  11.7976  11.7976  12.1130  12.1130

          k = 0.3536 0.6141 0.0930 ( 15398 PWs)   bands (ev):

   -14.0961 -14.0961 -14.0861 -14.0861 -13.9539 -13.9539 -13.8964 -13.8964
   -13.8781 -13.8781 -13.8687 -13.8687 -13.8379 -13.8379 -13.8052 -13.8052
   -13.6712 -13.6712 -13.6614 -13.6614  -0.2753  -0.2753   0.9446   0.9446
     4.6009   4.6009   5.3675   5.3675   9.4285   9.4285   9.4290   9.4290
    10.0016  10.0016  10.7326  10.7326  11.9805  11.9805  12.2522  12.2522

          k = 0.3536 0.5955 0.1116 ( 15406 PWs)   bands (ev):

   -14.0957 -14.0957 -14.0843 -14.0843 -13.9594 -13.9594 -13.9008 -13.9008
   -13.8764 -13.8764 -13.8698 -13.8698 -13.8327 -13.8327 -13.8011 -13.8011
   -13.6731 -13.6731 -13.6620 -13.6620  -0.3825  -0.3825   1.0492   1.0492
     4.6180   4.6180   5.4929   5.4929   9.4281   9.4281   9.4290   9.4290
     9.8429   9.8429  10.6632  10.6632  12.1775  12.1775  12.3617  12.3617

          k = 0.3536 0.5769 0.1303 ( 15402 PWs)   bands (ev):

   -14.0949 -14.0949 -14.0825 -14.0825 -13.9646 -13.9646 -13.9055 -13.9055
   -13.8841 -13.8841 -13.8609 -13.8609 -13.8275 -13.8275 -13.7974 -13.7974
[...]
   -13.7215 -13.7215 -13.7042 -13.7042  -2.2834  -2.2834   4.5951   4.5951
     6.6135   6.6135   7.4121   7.4121   8.4220   8.4220   9.4290   9.4290
     9.4300   9.4300  10.0378  10.0378  10.1224  10.1224  11.0525  11.0525

          k = 0.1711 0.1711-0.0000 ( 15453 PWs)   bands (ev):

   -14.0576 -14.0576 -14.0518 -14.0518 -14.0298 -14.0298 -13.9686 -13.9686
   -13.9573 -13.9573 -13.7801 -13.7801 -13.7676 -13.7676 -13.7347 -13.7347
   -13.7182 -13.7182 -13.7014 -13.7014  -2.2188  -2.2188   4.3497   4.3497
     6.4395   6.4395   7.3566   7.3566   8.4927   8.4927   9.4290   9.4290
     9.4300   9.4300  10.1138  10.1138  10.2099  10.2099  11.2365  11.2365

          k = 0.1882 0.1882 0.0000 ( 15443 PWs)   bands (ev):

   -14.0600 -14.0600 -14.0546 -14.0546 -14.0271 -14.0271 -13.9658 -13.9658
   -13.9527 -13.9527 -13.7845 -13.7845 -13.7707 -13.7707 -13.7376 -13.7376
   -13.7145 -13.7145 -13.6987 -13.6987  -2.1480  -2.1480   4.1082   4.1082
     6.2652   6.2652   7.2954   7.2954   8.5604   8.5604   9.4290   9.4290
     9.4300   9.4300  10.1976  10.1976  10.3050  10.3050  11.3909  11.3909

          k = 0.2053 0.2053 0.0000 ( 15447 PWs)   bands (ev):

   -14.0623 -14.0623 -14.0576 -14.0576 -14.0239 -14.0239 -13.9630 -13.9630
   -13.9480 -13.9480 -13.7889 -13.7889 -13.7736 -13.7736 -13.7411 -13.7411
   -13.7107 -13.7107 -13.6963 -13.6963  -2.0712  -2.0712   3.8716   3.8716
     6.0924   6.0924   7.2287   7.2287   8.6254   8.6254   9.4290   9.4290
     9.4301   9.4301  10.2891  10.2891  10.4078  10.4078  11.5096  11.5096

          k = 0.2224 0.2224 0.0000 ( 15465 PWs)   bands (ev):

   -14.0644 -14.0644 -14.0607 -14.0607 -14.0203 -14.0203 -13.9603 -13.9603
   -13.9434 -13.9434 -13.7933 -13.7933 -13.7763 -13.7763 -13.7453 -13.7453
   -13.7066 -13.7066 -13.6939 -13.6939  -1.9886  -1.9886   3.6404   3.6404
     5.9227   5.9227   7.1569   7.1569   8.6878   8.6878   9.4290   9.4290
     9.4301   9.4301  10.3882  10.3882  10.5182  10.5182  11.5915  11.5915

          k = 0.2395 0.2395 0.0000 ( 15455 PWs)   bands (ev):

   -14.0664 -14.0664 -14.0639 -14.0639 -14.0163 -14.0163 -13.9577 -13.9577
   -13.9387 -13.9387 -13.7976 -13.7976 -13.7788 -13.7788 -13.7500 -13.7500
   -13.7025 -13.7025 -13.6918 -13.6918  -1.9004  -1.9004   3.4152   3.4152
     5.7573   5.7573   7.0804   7.0804   8.7471   8.7471   9.4290   9.4290
     9.4302   9.4302  10.4949  10.4949  10.6361  10.6361  11.6408  11.6408

          k = 0.2566 0.2566 0.0000 ( 15453 PWs)   bands (ev):

   -14.0682 -14.0682 -14.0673 -14.0673 -14.0119 -14.0119 -13.9551 -13.9551
   -13.9340 -13.9340 -13.8018 -13.8018 -13.7812 -13.7812 -13.7554 -13.7554
   -13.6982 -13.6982 -13.6898 -13.6898  -1.8071  -1.8071   3.1964   3.1964
     5.5974   5.5974   6.9998   6.9998   8.8025   8.8025   9.4290   9.4290
     9.4302   9.4302  10.6091  10.6091  10.7612  10.7612  11.6657  11.6657

          k = 0.2737 0.2737-0.0000 ( 15441 PWs)   bands (ev):

   -14.0707 -14.0707 -14.0699 -14.0699 -14.0072 -14.0072 -13.9524 -13.9524
   -13.9294 -13.9294 -13.8059 -13.8059 -13.7833 -13.7833 -13.7613 -13.7613
   -13.6939 -13.6939 -13.6880 -13.6880  -1.7088  -1.7088   2.9845   2.9845
     5.4441   5.4441   6.9156   6.9156   8.8530   8.8530   9.4290   9.4290
     9.4303   9.4303  10.7306  10.7306  10.8934  10.8934  11.6751  11.6751

          k = 0.2908 0.2908-0.0000 ( 15447 PWs)   bands (ev):

   -14.0741 -14.0741 -14.0714 -14.0714 -14.0022 -14.0022 -13.9497 -13.9497
   -13.9248 -13.9248 -13.8099 -13.8099 -13.7852 -13.7852 -13.7678 -13.7678
   -13.6897 -13.6897 -13.6864 -13.6864  -1.6061  -1.6061   2.7796   2.7796
     5.2984   5.2984   6.8285   6.8285   8.8973   8.8973   9.4291   9.4291
     9.4303   9.4303  10.8593  10.8593  11.0324  11.0324  11.6781  11.6781

          k = 0.3079 0.3079 0.0000 ( 15427 PWs)   bands (ev):

   -14.0774 -14.0774 -14.0728 -14.0728 -13.9971 -13.9971 -13.9468 -13.9468
   -13.9203 -13.9203 -13.8138 -13.8138 -13.7870 -13.7870 -13.7748 -13.7748
   -13.6855 -13.6855 -13.6849 -13.6849  -1.4995  -1.4995   2.5821   2.5821
     5.1610   5.1610   6.7392   6.7392   8.9342   8.9342   9.4291   9.4291
     9.4304   9.4304  10.9952  10.9952  11.1776  11.1776  11.6821  11.6821

          k = 0.3250 0.3250 0.0000 ( 15423 PWs)   bands (ev):

   -14.0806 -14.0806 -14.0741 -14.0741 -13.9920 -13.9920 -13.9436 -13.9436
   -13.9159 -13.9159 -13.8176 -13.8176 -13.7888 -13.7888 -13.7820 -13.7820
   -13.6835 -13.6835 -13.6815 -13.6815  -1.3894  -1.3894   2.3921   2.3921
     5.0329   5.0329   6.6483   6.6483   8.9624   8.9624   9.4291   9.4291
     9.4304   9.4304  11.1380  11.1380  11.3284  11.3284  11.6931  11.6931

          k = 0.3421 0.3421 0.0000 ( 15427 PWs)   bands (ev):

   -14.0837 -14.0837 -14.0752 -14.0752 -13.9871 -13.9871 -13.9400 -13.9400
   -13.9116 -13.9116 -13.8213 -13.8213 -13.7925 -13.7925 -13.7878 -13.7878
   -13.6823 -13.6823 -13.6777 -13.6777  -1.2765  -1.2765   2.2098   2.2098
     4.9148   4.9148   6.5566   6.5566   8.9810   8.9810   9.4291   9.4291
     9.4304   9.4304  11.2877  11.2877  11.4837  11.4837  11.7158  11.7158

          k = 0.3593 0.3593 0.0000 ( 15421 PWs)   bands (ev):

   -14.0867 -14.0867 -14.0762 -14.0762 -13.9826 -13.9826 -13.9357 -13.9357
   -13.9074 -13.9074 -13.8248 -13.8248 -13.8000 -13.8000 -13.7898 -13.7898
   -13.6812 -13.6812 -13.6741 -13.6741  -1.1615  -1.1615   2.0353   2.0353
     4.8078   4.8078   6.4646   6.4646   8.9895   8.9895   9.4291   9.4291
     9.4303   9.4303  11.4439  11.4439  11.6417  11.6417  11.7532  11.7532

          k = 0.3764 0.3764-0.0000 ( 15429 PWs)   bands (ev):

   -14.0893 -14.0893 -14.0770 -14.0770 -13.9787 -13.9787 -13.9306 -13.9306
   -13.9033 -13.9033 -13.8282 -13.8282 -13.8088 -13.8088 -13.7909 -13.7909
   -13.6803 -13.6803 -13.6708 -13.6708  -1.0452  -1.0452   1.8688   1.8688
     4.7125   4.7125   6.3732   6.3732   8.9879   8.9879   9.4291   9.4291
     9.4303   9.4303  11.6066  11.6066  11.7993  11.7993  11.8075  11.8075

          k = 0.3935 0.3935-0.0000 ( 15433 PWs)   bands (ev):

   -14.0917 -14.0917 -14.0777 -14.0777 -13.9753 -13.9753 -13.9247 -13.9247
   -13.8993 -13.8993 -13.8314 -13.8314 -13.8181 -13.8181 -13.7917 -13.7917
   -13.6795 -13.6795 -13.6678 -13.6678  -0.9284  -0.9284   1.7103   1.7103
     4.6300   4.6300   6.2829   6.2829   8.9768   8.9768   9.4291   9.4291
     9.4302   9.4302  11.7754  11.7754  11.8796  11.8796  11.9508  11.9508

          k = 0.4106 0.4106 0.0000 ( 15405 PWs)   bands (ev):

   -14.0938 -14.0938 -14.0783 -14.0783 -13.9727 -13.9727 -13.9179 -13.9179
   -13.8955 -13.8955 -13.8344 -13.8344 -13.8277 -13.8277 -13.7924 -13.7924
   -13.6788 -13.6788 -13.6652 -13.6652  -0.8122  -0.8122   1.5599   1.5599
     4.5610   4.5610   6.1942   6.1942   8.9571   8.9571   9.4291   9.4291
     9.4301   9.4301  11.9502  11.9502  11.9695  11.9695  12.0842  12.0842

          k = 0.4277 0.4277 0.0000 ( 15389 PWs)   bands (ev):

   -14.0956 -14.0956 -14.0788 -14.0788 -13.9706 -13.9706 -13.9104 -13.9104
   -13.8918 -13.8918 -13.8376 -13.8376 -13.8373 -13.8373 -13.7929 -13.7929
   -13.6783 -13.6783 -13.6631 -13.6631  -0.6975  -0.6975   1.4178   1.4178
     4.5065   4.5065   6.1079   6.1079   8.9300   8.9300   9.4291   9.4291
     9.4300   9.4300  12.0767  12.0767  12.1305  12.1305  12.1743  12.1743

          k = 0.4448 0.4448 0.0000 ( 15403 PWs)   bands (ev):

   -14.0969 -14.0969 -14.0792 -14.0792 -13.9691 -13.9691 -13.9022 -13.9022
   -13.8883 -13.8883 -13.8478 -13.8478 -13.8401 -13.8401 -13.7932 -13.7932
   -13.6778 -13.6778 -13.6614 -13.6614  -0.5854  -0.5854   1.2839   1.2839
     4.4672   4.4672   6.0242   6.0242   8.8972   8.8972   9.4291   9.4291
     9.4299   9.4299  12.1742  12.1742  12.2002  12.2002  12.3159  12.3159

          k = 0.4619 0.4619 0.0000 ( 15403 PWs)   bands (ev):

   -14.0979 -14.0979 -14.0796 -14.0796 -13.9680 -13.9680 -13.8935 -13.8935
   -13.8849 -13.8849 -13.8581 -13.8581 -13.8426 -13.8426 -13.7935 -13.7935
   -13.6774 -13.6774 -13.6601 -13.6601  -0.4770  -0.4770   1.1583   1.1583
     4.4440   4.4440   5.9439   5.9439   8.8601   8.8601   9.4291   9.4291
     9.4298   9.4298  12.0409  12.0409  12.3388  12.3388  12.5062  12.5062

          k = 0.4790 0.4790-0.0000 ( 15402 PWs)   bands (ev):

   -14.0984 -14.0984 -14.0798 -14.0798 -13.9673 -13.9673 -13.8845 -13.8845
   -13.8818 -13.8818 -13.8685 -13.8685 -13.8450 -13.8450 -13.7936 -13.7936
   -13.6771 -13.6771 -13.6593 -13.6593  -0.3735  -0.3735   1.0410   1.0410
     4.4375   4.4375   5.8672   5.8672   8.8202   8.8202   9.4291   9.4291
     9.4297   9.4297  11.7934  11.7934  12.4913  12.4913  12.7006  12.7006

          k = 0.4961 0.4961-0.0000 ( 15414 PWs)   bands (ev):

   -14.0984 -14.0984 -14.0800 -14.0800 -13.9667 -13.9667 -13.8789 -13.8789
   -13.8788 -13.8788 -13.8753 -13.8753 -13.8473 -13.8473 -13.7937 -13.7937
   -13.6769 -13.6769 -13.6591 -13.6591  -0.2758  -0.2758   0.9322   0.9322
     4.4482   4.4482   5.7945   5.7945   8.7787   8.7787   9.4291   9.4291
     9.4297   9.4297  11.4848  11.4848  12.6564  12.6564  12.8985  12.8985

          k = 0.5132 0.5132 0.0000 ( 15406 PWs)   bands (ev):

   -14.0981 -14.0981 -14.0801 -14.0801 -13.9664 -13.9664 -13.8893 -13.8893
   -13.8760 -13.8760 -13.8659 -13.8659 -13.8493 -13.8493 -13.7938 -13.7938
   -13.6767 -13.6767 -13.6593 -13.6593  -0.1849  -0.1849   0.8317   0.8317
     4.4762   4.4762   5.7263   5.7263   8.7370   8.7370   9.4290   9.4290
     9.4296   9.4296  11.1509  11.1509  12.8326  12.8326  13.0991  13.0991

          k = 0.5303 0.5303 0.0000 ( 15410 PWs)   bands (ev):

   -14.0973 -14.0973 -14.0802 -14.0802 -13.9663 -13.9663 -13.8995 -13.8995
   -13.8734 -13.8734 -13.8566 -13.8566 -13.8512 -13.8512 -13.7938 -13.7938
   -13.6766 -13.6766 -13.6599 -13.6599  -0.1016  -0.1016   0.7397   0.7397
     4.5213   4.5213   5.6628   5.6628   8.6960   8.6960   9.4290   9.4290
     9.4296   9.4296  10.8101  10.8101  13.0188  13.0188  13.3013  13.3013

          k = 0.5205 0.5205 0.0196 ( 15410 PWs)   bands (ev):

   -14.0977 -14.0977 -14.0801 -14.0801 -13.9667 -13.9667 -13.8932 -13.8932
   -13.8760 -13.8760 -13.8623 -13.8623 -13.8490 -13.8490 -13.7934 -13.7934
   -13.6767 -13.6767 -13.6596 -13.6596  -0.1614  -0.1614   0.8049   0.8049
     4.4986   4.4986   5.7008   5.7008   8.7212   8.7212   9.4290   9.4290
     9.4296   9.4296  11.0059  11.0059  12.8762  12.8762  13.1709  13.1709

          k = 0.5107 0.5107 0.0393 ( 15402 PWs)   bands (ev):

   -14.0978 -14.0978 -14.0798 -14.0798 -13.9678 -13.9678 -13.8865 -13.8865
   -13.8802 -13.8802 -13.8683 -13.8683 -13.8452 -13.8452 -13.7926 -13.7926
   -13.6771 -13.6771 -13.6596 -13.6596  -0.2398  -0.2398   0.8886   0.8886
     4.4928   4.4928   5.7444   5.7444   8.7499   8.7499   9.4290   9.4290
     9.4296   9.4296  11.1968  11.1968  12.6860  12.6860  13.0152  13.0152

          k = 0.5009 0.5009 0.0589 ( 15398 PWs)   bands (ev):

   -14.0976 -14.0976 -14.0794 -14.0794 -13.9693 -13.9693 -13.8850 -13.8850
   -13.8819 -13.8819 -13.8720 -13.8720 -13.8408 -13.8408 -13.7915 -13.7915
   -13.6776 -13.6776 -13.6600 -13.6600  -0.3262  -0.3262   0.9787   0.9787
     4.5058   4.5058   5.7933   5.7933   8.7806   8.7806   9.4291   9.4291
     9.4297   9.4297  11.3669  11.3669  12.4898  12.4898  12.8397  12.8397

          k = 0.4910 0.4910 0.0786 ( 15402 PWs)   bands (ev):

   -14.0970 -14.0970 -14.0789 -14.0789 -13.9712 -13.9712 -13.8902 -13.8902
   -13.8854 -13.8854 -13.8673 -13.8673 -13.8361 -13.8361 -13.7903 -13.7903
   -13.6784 -13.6784 -13.6608 -13.6608  -0.4143  -0.4143   1.0677   1.0677
     4.5388   4.5388   5.8470   5.8470   8.8112   8.8112   9.4291   9.4291
     9.4297   9.4297  11.4764  11.4764  12.3474  12.3474  12.6508  12.6508

          k = 0.4812 0.4812 0.0982 ( 15412 PWs)   bands (ev):

   -14.0961 -14.0961 -14.0782 -14.0782 -13.9734 -13.9734 -13.8955 -13.8955
   -13.8919 -13.8919 -13.8594 -13.8594 -13.8312 -13.8312 -13.7889 -13.7889
   -13.6793 -13.6793 -13.6619 -13.6619  -0.5007  -0.5007   1.1510   1.1510
     4.5929   4.5929   5.9049   5.9049   8.8385   8.8385   9.4291   9.4291
     9.4298   9.4298  11.4626  11.4626  12.3335  12.3335  12.4543  12.4543

          k = 0.4714 0.4714 0.1179 ( 15430 PWs)   bands (ev):

   -14.0948 -14.0948 -14.0774 -14.0774 -13.9758 -13.9758 -13.9007 -13.9007
   -13.8986 -13.8986 -13.8510 -13.8510 -13.8264 -13.8264 -13.7875 -13.7875
   -13.6803 -13.6803 -13.6634 -13.6634  -0.5836  -0.5836   1.2260   1.2260
     4.6687   4.6687   5.9663   5.9663   8.8582   8.8582   9.4291   9.4291
     9.4298   9.4298  11.3314  11.3314  12.2551  12.2551  12.4505  12.4505

          k = 0.4616 0.4616 0.1375 ( 15417 PWs)   bands (ev):

   -14.0932 -14.0932 -14.0765 -14.0765 -13.9786 -13.9786 -13.9058 -13.9058
   -13.9052 -13.9052 -13.8425 -13.8425 -13.8216 -13.8216 -13.7862 -13.7862
   -13.6815 -13.6815 -13.6653 -13.6653  -0.6616  -0.6616   1.2913   1.2913
     4.7662   4.7662   6.0304   6.0304   8.8641   8.8641   9.4291   9.4291
     9.4299   9.4299  11.1546  11.1546  12.0574  12.0574  12.6328  12.6328

          k = 0.4518 0.4518 0.1571 ( 15425 PWs)   bands (ev):

   -14.0913 -14.0913 -14.0755 -14.0755 -13.9816 -13.9816 -13.9113 -13.9113
   -13.9108 -13.9108 -13.8340 -13.8340 -13.8170 -13.8170 -13.7848 -13.7848
   -13.6828 -13.6828 -13.6676 -13.6676  -0.7340  -0.7340   1.3465   1.3465
     4.8847   4.8847   6.0964   6.0964   8.8484   8.8484   9.4291   9.4291
     9.4299   9.4299  10.9797  10.9797  11.8647  11.8647  12.8378  12.8378

          k = 0.4419 0.4419 0.1768 ( 15424 PWs)   bands (ev):

   -14.0890 -14.0890 -14.0744 -14.0744 -13.9850 -13.9850 -13.9170 -13.9170
   -13.9156 -13.9156 -13.8258 -13.8258 -13.8126 -13.8126 -13.7833 -13.7833
   -13.6841 -13.6841 -13.6701 -13.6701  -0.8003  -0.8003   1.3919   1.3919
     5.0230   5.0230   6.1630   6.1630   8.8025   8.8025   9.4291   9.4291
     9.4300   9.4300  10.8309  10.8309  11.6799  11.6799  13.0439  13.0439

          k = 0.4321 0.4321 0.1964 ( 15408 PWs)   bands (ev):

   -14.0864 -14.0864 -14.0733 -14.0733 -13.9888 -13.9888 -13.9220 -13.9220
   -13.9201 -13.9201 -13.8180 -13.8180 -13.8084 -13.8084 -13.7818 -13.7818
   -13.6856 -13.6856 -13.6730 -13.6730  -0.8603  -0.8603   1.4282   1.4282
     5.1795   5.1795   6.2292   6.2292   8.7194   8.7194   9.4291   9.4291
     9.4299   9.4299  10.7211  10.7211  11.5056  11.5056  13.2338  13.2338

          k = 0.4223 0.4223 0.2161 ( 15407 PWs)   bands (ev):

   -14.0837 -14.0837 -14.0722 -14.0722 -13.9927 -13.9927 -13.9264 -13.9264
   -13.9242 -13.9242 -13.8108 -13.8108 -13.8044 -13.8044 -13.7801 -13.7801
   -13.6870 -13.6870 -13.6761 -13.6761  -0.9135  -0.9135   1.4565   1.4565
     5.3520   5.3520   6.2935   6.2935   8.5966   8.5966   9.4291   9.4291
     9.4299   9.4299  10.6546  10.6546  11.3442  11.3442  13.3872  13.3872

          k = 0.4125 0.4125 0.2357 ( 15411 PWs)   bands (ev):

   -14.0807 -14.0807 -14.0711 -14.0711 -13.9969 -13.9969 -13.9300 -13.9300
   -13.9280 -13.9280 -13.8045 -13.8045 -13.8009 -13.8009 -13.7780 -13.7780
   -13.6884 -13.6884 -13.6793 -13.6793  -0.9599  -0.9599   1.4781   1.4781
     5.5380   5.5380   6.3543   6.3543   8.4380   8.4380   9.4291   9.4291
     9.4298   9.4298  10.6283  10.6283  11.1980  11.1980  13.4814  13.4814

          k = 0.4027 0.4027 0.2553 ( 15408 PWs)   bands (ev):

   -14.0776 -14.0776 -14.0701 -14.0701 -14.0012 -14.0012 -13.9330 -13.9330
   -13.9313 -13.9313 -13.7994 -13.7994 -13.7977 -13.7977 -13.7755 -13.7755
   -13.6897 -13.6897 -13.6826 -13.6826  -0.9994  -0.9994   1.4941   1.4941
     5.7345   5.7345   6.4100   6.4100   8.2519   8.2519   9.4291   9.4291
     9.4298   9.4298  10.6331  10.6331  11.0694  11.0694  13.5044  13.5044

          k = 0.3928 0.3928 0.2750 ( 15408 PWs)   bands (ev):

   -14.0746 -14.0746 -14.0692 -14.0692 -14.0053 -14.0053 -13.9354 -13.9354
   -13.9341 -13.9341 -13.7955 -13.7955 -13.7950 -13.7950 -13.7726 -13.7726
   -13.6908 -13.6908 -13.6858 -13.6858  -1.0317  -1.0317   1.5056   1.5056
     5.9374   5.9374   6.4588   6.4588   8.0488   8.0488   9.4291   9.4291
     9.4297   9.4297  10.6580  10.6580  10.9604  10.9604  13.4693  13.4693

          k = 0.3830 0.3830 0.2946 ( 15408 PWs)   bands (ev):

   -14.0718 -14.0718 -14.0685 -14.0685 -14.0090 -14.0090 -13.9371 -13.9371
   -13.9363 -13.9363 -13.7929 -13.7929 -13.7928 -13.7928 -13.7696 -13.7696
   -13.6918 -13.6918 -13.6887 -13.6887  -1.0570  -1.0570   1.5136   1.5136
     6.1408   6.1408   6.4990   6.4990   7.8401   7.8401   9.4291   9.4291
     9.4297   9.4297  10.6920  10.6920  10.8731  10.8731  13.4054  13.4054

          k = 0.3732 0.3732 0.3143 ( 15403 PWs)   bands (ev):

   -14.0695 -14.0695 -14.0679 -14.0679 -14.0120 -14.0120 -13.9384 -13.9384
   -13.9380 -13.9380 -13.7913 -13.7913 -13.7912 -13.7912 -13.7668 -13.7668
   -13.6925 -13.6925 -13.6910 -13.6910  -1.0750  -1.0750   1.5188   1.5188
     6.3332   6.3332   6.5291   6.5291   7.6416   7.6416   9.4291   9.4291
     9.4296   9.4296  10.7251  10.7251  10.8093  10.8093  13.3405  13.3405

          k = 0.3634 0.3634 0.3339 ( 15384 PWs)   bands (ev):

   -14.0680 -14.0680 -14.0675 -14.0675 -14.0140 -14.0140 -13.9391 -13.9391
   -13.9390 -13.9390 -13.7903 -13.7903 -13.7903 -13.7903 -13.7650 -13.7650
   -13.6930 -13.6930 -13.6926 -13.6926  -1.0859  -1.0859   1.5216   1.5216
     6.4886   6.4886   6.5477   6.5477   7.4814   7.4814   9.4291   9.4291
     9.4296   9.4296  10.7487  10.7487  10.7704  10.7704  13.2942  13.2942

          k = 0.3536 0.3536 0.3536 ( 15406 PWs)   bands (ev):

   -14.0674 -14.0674 -14.0674 -14.0674 -14.0147 -14.0147 -13.9393 -13.9393
   -13.9393 -13.9393 -13.7900 -13.7900 -13.7900 -13.7900 -13.7643 -13.7643
   -13.6931 -13.6931 -13.6931 -13.6931  -1.0895  -1.0895   1.5226   1.5226
     6.5540   6.5540   6.5540   6.5540   7.4144   7.4144   9.4291   9.4291
     9.4296   9.4296  10.7573  10.7573  10.7573  10.7573  13.2775  13.2775

     Writing output data file Sn.save
 
     init_run     :      0.73s CPU      1.70s WALL (       1 calls)
     electrons    :    299.30s CPU    361.79s WALL (       1 calls)

     Called by init_run:
     wfcinit      :      0.00s CPU      0.01s WALL (       1 calls)
     potinit      :      0.09s CPU      0.12s WALL (       1 calls)

     Called by electrons:
     c_bands      :    299.30s CPU    361.77s WALL (       1 calls)
     v_of_rho     :      0.02s CPU      0.02s WALL (       1 calls)
     v_h          :      0.00s CPU      0.00s WALL (       1 calls)
     v_xc         :      0.02s CPU      0.02s WALL (       1 calls)

     Called by c_bands:
     init_us_2    :      0.01s CPU      0.02s WALL (     134 calls)
     cegterg      :    281.89s CPU    339.81s WALL (     150 calls)

     Called by sum_band:

     Called by *egterg:
     h_psi        :    258.13s CPU    319.81s WALL (    2830 calls)
     g_psi        :      0.25s CPU      0.26s WALL (    2546 calls)
     cdiaghg      :     15.42s CPU     15.47s WALL (    2680 calls)
     cegterg:over :     16.74s CPU     16.78s WALL (    2546 calls)
     cegterg:upda :      2.90s CPU      2.91s WALL (    2546 calls)
     cegterg:last :      1.94s CPU      1.94s WALL (     686 calls)

     Called by h_psi:
     h_psi:vloc   :    251.55s CPU    313.14s WALL (    2830 calls)
     h_psi:vnl    :      6.41s CPU      6.48s WALL (    2830 calls)
     add_vuspsi   :      0.98s CPU      0.99s WALL (    2830 calls)

     General routines
     calbec       :      5.41s CPU      5.48s WALL (    2830 calls)
     fft          :      0.04s CPU      0.06s WALL (      13 calls)
     fftw         :    247.35s CPU    308.63s WALL (  339460 calls)
     davcio       :      0.05s CPU      0.29s WALL (     134 calls)
 
     Parallel routines
     fft_scatter  :    209.18s CPU    266.37s WALL (  339473 calls)
 
     PWSCF        :  5m 3.98s CPU     6m 7.70s WALL

 
   This run was terminated on:  19:55:24  19Mar2020            

=------------------------------------------------------------------------------=
   JOB DONE.
=------------------------------------------------------------------------------=
