
     Program PWSCF v.5.4.0 starts on 28Feb2020 at  7: 6:20 

     This program is part of the open-source Quantum ESPRESSO suite
     for quantum simulation of materials; please cite
         "P. Giannozzi et al., J. Phys.:Condens. Matter 21 395502 (2009);
          URL http://www.quantum-espresso.org", 
     in publications or presentations arising from this work. More details at
     http://www.quantum-espresso.org/quote

     Parallel version (MPI & OpenMP), running on      16 processor cores
     Number of MPI processes:                16
     Threads/MPI process:                     1
     R & G space division:  proc/nbgrp/npool/nimage =      16
     Waiting for input...
     Reading input from standard input
Warning: card &IONS ignored
Warning: card / ignored
Warning: card &CELL ignored
Warning: card / ignored

     Current dimensions of program PWSCF are:
     Max number of different atomic species (ntypx) = 10
     Max number of k-points (npk) =  40000
     Max angular momentum in pseudopotentials (lmaxx) =  3

     Subspace diagonalization in iterative solution of the eigenvalue problem:
     a serial algorithm will be used

 
     Parallelization info
     --------------------
     sticks:   dense  smooth     PW     G-vecs:    dense   smooth      PW
     Min         104     104     30                 2864     2864     444
     Max         105     105     32                 2868     2868     446
     Sum        1675    1675    499                45863    45863    7119
 

     Title: 
     Sn                                                                         


     bravais-lattice index     =            0
     lattice parameter (alat)  =       8.7657  a.u.
     unit-cell volume          =     476.2644 (a.u.)^3
     number of atoms/cell      =            2
     number of atomic types    =            1
     number of electrons       =        28.00
     number of Kohn-Sham states=           18
     kinetic-energy cutoff     =      80.0000  Ry
     charge density cutoff     =     320.0000  Ry
     convergence threshold     =      1.0E-06
     mixing beta               =       0.7000
     number of iterations used =            8  plain     mixing
     Exchange-correlation      = PBE ( 1  4  3  4 0 0)

     celldm(1)=   8.765722  celldm(2)=   0.000000  celldm(3)=   0.000000
     celldm(4)=   0.000000  celldm(5)=   0.000000  celldm(6)=   0.000000

     crystal axes: (cart. coord. in units of alat)
               a(1) = (   0.000000   0.707107   0.707107 )  
               a(2) = (   0.707107   0.000000   0.707107 )  
               a(3) = (   0.707107   0.707107   0.000000 )  

     reciprocal axes: (cart. coord. in units 2 pi/alat)
               b(1) = ( -0.707107  0.707107  0.707107 )  
               b(2) = (  0.707107 -0.707107  0.707107 )  
               b(3) = (  0.707107  0.707107 -0.707107 )  


     PseudoPot. # 1 for Sn read from file:
     ../PseudopotentialDatabase/Sn_ONCV_PBE-1.1.upf
     MD5 check sum: 7fc728ef37b8342e916bba54f6049344
     Pseudo is Norm-conserving, Zval = 14.0
     Generated using ONCVPSP code by D. R. Hamann
     Using radial grid of  602 points,  6 beta functions with: 
                l(1) =   0
                l(2) =   0
                l(3) =   1
                l(4) =   1
                l(5) =   2
                l(6) =   2

     atomic species   valence    mass     pseudopotential
        Sn            14.00   118.71000     Sn( 1.00)

     24 Sym. Ops. (no inversion) found
          (note: 24 additional sym.ops. were found but ignored
           their fractional translations are incommensurate with FFT grid)

                                    s                        frac. trans.

      isym =  1     identity                                     

 cryst.   s( 1) = (     1          0          0      )
                  (     0          1          0      )
                  (     0          0          1      )

 cart.    s( 1) = (  1.0000000  0.0000000  0.0000000 )
                  (  0.0000000  1.0000000  0.0000000 )
                  (  0.0000000  0.0000000  1.0000000 )


      isym =  2     180 deg rotation - cart. axis [0,0,1]        

 cryst.   s( 2) = (     0          1         -1      )
                  (     1          0         -1      )
                  (     0          0         -1      )

 cart.    s( 2) = ( -1.0000000  0.0000000  0.0000000 )
                  (  0.0000000 -1.0000000  0.0000000 )
                  (  0.0000000  0.0000000  1.0000000 )


      isym =  3     180 deg rotation - cart. axis [0,1,0]        

 cryst.   s( 3) = (     0         -1          1      )
                  (     0         -1          0      )
                  (     1         -1          0      )

 cart.    s( 3) = ( -1.0000000  0.0000000  0.0000000 )
                  (  0.0000000  1.0000000  0.0000000 )
                  (  0.0000000  0.0000000 -1.0000000 )


      isym =  4     180 deg rotation - cart. axis [1,0,0]        

 cryst.   s( 4) = (    -1          0          0      )
                  (    -1          0          1      )
                  (    -1          1          0      )

 cart.    s( 4) = (  1.0000000  0.0000000  0.0000000 )
                  (  0.0000000 -1.0000000  0.0000000 )
                  (  0.0000000  0.0000000 -1.0000000 )


      isym =  5     120 deg rotation - cart. axis [-1,-1,-1]     

 cryst.   s( 5) = (     0          0          1      )
                  (     1          0          0      )
                  (     0          1          0      )

 cart.    s( 5) = (  0.0000000  1.0000000  0.0000000 )
                  (  0.0000000  0.0000000  1.0000000 )
                  (  1.0000000  0.0000000  0.0000000 )


      isym =  6     120 deg rotation - cart. axis [-1,1,1]       

 cryst.   s( 6) = (     1         -1          0      )
                  (     0         -1          1      )
                  (     0         -1          0      )

 cart.    s( 6) = (  0.0000000 -1.0000000  0.0000000 )
                  (  0.0000000  0.0000000  1.0000000 )
                  ( -1.0000000  0.0000000  0.0000000 )


      isym =  7     120 deg rotation - cart. axis [1,1,-1]       

 cryst.   s( 7) = (    -1          1          0      )
                  (    -1          0          0      )
                  (    -1          0          1      )

 cart.    s( 7) = (  0.0000000  1.0000000  0.0000000 )
                  (  0.0000000  0.0000000 -1.0000000 )
                  ( -1.0000000  0.0000000  0.0000000 )


      isym =  8     120 deg rotation - cart. axis [1,-1,1]       

 cryst.   s( 8) = (     0          0         -1      )
                  (     0          1         -1      )
                  (     1          0         -1      )

 cart.    s( 8) = (  0.0000000 -1.0000000  0.0000000 )
                  (  0.0000000  0.0000000 -1.0000000 )
                  (  1.0000000  0.0000000  0.0000000 )


      isym =  9     120 deg rotation - cart. axis [1,1,1]        

 cryst.   s( 9) = (     0          1          0      )
                  (     0          0          1      )
                  (     1          0          0      )

 cart.    s( 9) = (  0.0000000  0.0000000  1.0000000 )
                  (  1.0000000  0.0000000  0.0000000 )
                  (  0.0000000  1.0000000  0.0000000 )


      isym = 10     120 deg rotation - cart. axis [-1,1,-1]      

 cryst.   s(10) = (    -1          0          1      )
                  (    -1          1          0      )
                  (    -1          0          0      )

 cart.    s(10) = (  0.0000000  0.0000000  1.0000000 )
                  ( -1.0000000  0.0000000  0.0000000 )
                  (  0.0000000 -1.0000000  0.0000000 )


      isym = 11     120 deg rotation - cart. axis [1,-1,-1]      

 cryst.   s(11) = (     1          0         -1      )
                  (     0          0         -1      )
                  (     0          1         -1      )

 cart.    s(11) = (  0.0000000  0.0000000 -1.0000000 )
                  ( -1.0000000  0.0000000  0.0000000 )
                  (  0.0000000  1.0000000  0.0000000 )


      isym = 12     120 deg rotation - cart. axis [-1,-1,1]      

 cryst.   s(12) = (     0         -1          0      )
                  (     1         -1          0      )
                  (     0         -1          1      )

 cart.    s(12) = (  0.0000000  0.0000000 -1.0000000 )
                  (  1.0000000  0.0000000  0.0000000 )
                  (  0.0000000 -1.0000000  0.0000000 )


      isym = 13     inv. 180 deg rotation - cart. axis [1,1,0]   

 cryst.   s(13) = (     1          0         -1      )
                  (     0          1         -1      )
                  (     0          0         -1      )

 cart.    s(13) = (  0.0000000 -1.0000000  0.0000000 )
                  ( -1.0000000  0.0000000  0.0000000 )
                  (  0.0000000  0.0000000  1.0000000 )


      isym = 14     inv. 180 deg rotation - cart. axis [1,-1,0]  

 cryst.   s(14) = (     0          1          0      )
                  (     1          0          0      )
                  (     0          0          1      )

 cart.    s(14) = (  0.0000000  1.0000000  0.0000000 )
                  (  1.0000000  0.0000000  0.0000000 )
                  (  0.0000000  0.0000000  1.0000000 )


      isym = 15     inv.  90 deg rotation - cart. axis [0,0,-1]  

 cryst.   s(15) = (     0         -1          0      )
                  (     0         -1          1      )
                  (     1         -1          0      )

 cart.    s(15) = (  0.0000000 -1.0000000  0.0000000 )
                  (  1.0000000  0.0000000  0.0000000 )
                  (  0.0000000  0.0000000 -1.0000000 )


      isym = 16     inv.  90 deg rotation - cart. axis [0,0,1]   

 cryst.   s(16) = (    -1          0          1      )
                  (    -1          0          0      )
                  (    -1          1          0      )

 cart.    s(16) = (  0.0000000  1.0000000  0.0000000 )
                  ( -1.0000000  0.0000000  0.0000000 )
                  (  0.0000000  0.0000000 -1.0000000 )


      isym = 17     inv. 180 deg rotation - cart. axis [1,0,1]   

 cryst.   s(17) = (     1         -1          0      )
                  (     0         -1          0      )
                  (     0         -1          1      )

 cart.    s(17) = (  0.0000000  0.0000000 -1.0000000 )
                  (  0.0000000  1.0000000  0.0000000 )
                  ( -1.0000000  0.0000000  0.0000000 )


      isym = 18     inv. 180 deg rotation - cart. axis [-1,0,1]  

 cryst.   s(18) = (     0          0          1      )
                  (     0          1          0      )
                  (     1          0          0      )

 cart.    s(18) = (  0.0000000  0.0000000  1.0000000 )
                  (  0.0000000  1.0000000  0.0000000 )
                  (  1.0000000  0.0000000  0.0000000 )


      isym = 19     inv.  90 deg rotation - cart. axis [0,1,0]   

 cryst.   s(19) = (     0          0         -1      )
                  (     1          0         -1      )
                  (     0          1         -1      )

 cart.    s(19) = (  0.0000000  0.0000000 -1.0000000 )
                  (  0.0000000 -1.0000000  0.0000000 )
                  (  1.0000000  0.0000000  0.0000000 )


      isym = 20     inv.  90 deg rotation - cart. axis [0,-1,0]  

 cryst.   s(20) = (    -1          1          0      )
                  (    -1          0          1      )
                  (    -1          0          0      )

 cart.    s(20) = (  0.0000000  0.0000000  1.0000000 )
                  (  0.0000000 -1.0000000  0.0000000 )
                  ( -1.0000000  0.0000000  0.0000000 )


      isym = 21     inv. 180 deg rotation - cart. axis [0,1,1]   

 cryst.   s(21) = (    -1          0          0      )
                  (    -1          1          0      )
                  (    -1          0          1      )

 cart.    s(21) = (  1.0000000  0.0000000  0.0000000 )
                  (  0.0000000  0.0000000 -1.0000000 )
                  (  0.0000000 -1.0000000  0.0000000 )


      isym = 22     inv. 180 deg rotation - cart. axis [0,1,-1]  

 cryst.   s(22) = (     1          0          0      )
                  (     0          0          1      )
                  (     0          1          0      )

 cart.    s(22) = (  1.0000000  0.0000000  0.0000000 )
                  (  0.0000000  0.0000000  1.0000000 )
                  (  0.0000000  1.0000000  0.0000000 )


      isym = 23     inv.  90 deg rotation - cart. axis [-1,0,0]  

 cryst.   s(23) = (     0          1         -1      )
                  (     0          0         -1      )
                  (     1          0         -1      )

 cart.    s(23) = ( -1.0000000  0.0000000  0.0000000 )
                  (  0.0000000  0.0000000 -1.0000000 )
                  (  0.0000000  1.0000000  0.0000000 )


      isym = 24     inv.  90 deg rotation - cart. axis [1,0,0]   

 cryst.   s(24) = (     0         -1          1      )
                  (     1         -1          0      )
                  (     0         -1          0      )

 cart.    s(24) = ( -1.0000000  0.0000000  0.0000000 )
                  (  0.0000000  0.0000000  1.0000000 )
                  (  0.0000000 -1.0000000  0.0000000 )


   Cartesian axes

     site n.     atom                  positions (alat units)
         1           Sn  tau(   1) = (   0.0000000   0.0000000   0.0000000  )
         2           Sn  tau(   2) = (   0.3535534   0.3535534   0.3535534  )

   Crystallographic axes

     site n.     atom                  positions (cryst. coord.)
         1           Sn  tau(   1) = (  0.0000000  0.0000000  0.0000000  )
         2           Sn  tau(   2) = (  0.2500000  0.2500000  0.2500000  )

     number of k points=    47  gaussian smearing, width (Ry)=  0.0001
                       cart. coord. in units 2pi/alat
        k(    1) = (   0.0000000   0.0000000   0.0000000), wk =   0.0020000
        k(    2) = (   0.0707107   0.0707107  -0.0707107), wk =   0.0160000
        k(    3) = (   0.1414214   0.1414214  -0.1414214), wk =   0.0160000
        k(    4) = (   0.2121320   0.2121320  -0.2121320), wk =   0.0160000
        k(    5) = (   0.2828427   0.2828427  -0.2828427), wk =   0.0160000
        k(    6) = (  -0.3535534  -0.3535534   0.3535534), wk =   0.0080000
        k(    7) = (   0.1414214   0.0000000   0.0000000), wk =   0.0120000
        k(    8) = (   0.2121320   0.0707107  -0.0707107), wk =   0.0480000
        k(    9) = (   0.2828427   0.1414214  -0.1414214), wk =   0.0480000
        k(   10) = (   0.3535534   0.2121320  -0.2121320), wk =   0.0480000
        k(   11) = (  -0.2828427  -0.4242641   0.4242641), wk =   0.0480000
        k(   12) = (  -0.2121320  -0.3535534   0.3535534), wk =   0.0480000
        k(   13) = (  -0.1414214  -0.2828427   0.2828427), wk =   0.0480000
        k(   14) = (  -0.0707107  -0.2121320   0.2121320), wk =   0.0480000
        k(   15) = (   0.0000000  -0.1414214   0.1414214), wk =   0.0240000
        k(   16) = (   0.2828427   0.0000000   0.0000000), wk =   0.0120000
        k(   17) = (   0.3535534   0.0707107  -0.0707107), wk =   0.0480000
        k(   18) = (   0.4242641   0.1414214  -0.1414214), wk =   0.0480000
        k(   19) = (  -0.2121320  -0.4949747   0.4949747), wk =   0.0480000
        k(   20) = (  -0.1414214  -0.4242641   0.4242641), wk =   0.0480000
        k(   21) = (  -0.0707107  -0.3535534   0.3535534), wk =   0.0480000
        k(   22) = (   0.0000000  -0.2828427   0.2828427), wk =   0.0240000
        k(   23) = (   0.4242641   0.0000000   0.0000000), wk =   0.0120000
        k(   24) = (   0.4949747   0.0707107  -0.0707107), wk =   0.0480000
        k(   25) = (  -0.1414214  -0.5656854   0.5656854), wk =   0.0480000
        k(   26) = (  -0.0707107  -0.4949747   0.4949747), wk =   0.0480000
        k(   27) = (  -0.0000000  -0.4242641   0.4242641), wk =   0.0240000
        k(   28) = (   0.5656854   0.0000000   0.0000000), wk =   0.0120000
        k(   29) = (  -0.0707107  -0.6363961   0.6363961), wk =   0.0480000
        k(   30) = (   0.0000000  -0.5656854   0.5656854), wk =   0.0240000
        k(   31) = (  -0.7071068   0.0000000   0.0000000), wk =   0.0060000
        k(   32) = (   0.2828427   0.1414214   0.0000000), wk =   0.0480000
        k(   33) = (   0.3535534   0.2121320  -0.0707107), wk =   0.0960000
        k(   34) = (  -0.2828427  -0.4242641   0.5656854), wk =   0.0960000
        k(   35) = (  -0.2121320  -0.3535534   0.4949747), wk =   0.0480000
        k(   36) = (   0.4242641   0.1414214  -0.0000000), wk =   0.0480000
        k(   37) = (  -0.2121320  -0.4949747   0.6363961), wk =   0.0960000
        k(   38) = (  -0.1414214  -0.4242641   0.5656854), wk =   0.0960000
        k(   39) = (  -0.0707107  -0.3535534   0.4949747), wk =   0.0960000
        k(   40) = (   0.0000000  -0.2828427   0.4242641), wk =   0.0480000
        k(   41) = (  -0.1414214  -0.5656854   0.7071068), wk =   0.0480000
        k(   42) = (  -0.0707107  -0.4949747   0.6363961), wk =   0.0960000
        k(   43) = (  -0.0000000  -0.4242641   0.5656854), wk =   0.0480000
        k(   44) = (  -0.7071068   0.1414214   0.0000000), wk =   0.0240000
        k(   45) = (  -0.1414214  -0.4242641   0.7071068), wk =   0.0480000
        k(   46) = (  -0.0707107  -0.3535534   0.6363961), wk =   0.0480000
        k(   47) = (  -0.7071068   0.2828427   0.0000000), wk =   0.0240000

                       cryst. coord.
        k(    1) = (   0.0000000   0.0000000   0.0000000), wk =   0.0020000
        k(    2) = (   0.0000000   0.0000000   0.1000000), wk =   0.0160000
        k(    3) = (   0.0000000   0.0000000   0.2000000), wk =   0.0160000
        k(    4) = (   0.0000000   0.0000000   0.3000000), wk =   0.0160000
        k(    5) = (   0.0000000   0.0000000   0.4000000), wk =   0.0160000
        k(    6) = (   0.0000000   0.0000000  -0.5000000), wk =   0.0080000
        k(    7) = (   0.0000000   0.1000000   0.1000000), wk =   0.0120000
        k(    8) = (   0.0000000   0.1000000   0.2000000), wk =   0.0480000
        k(    9) = (   0.0000000   0.1000000   0.3000000), wk =   0.0480000
        k(   10) = (   0.0000000   0.1000000   0.4000000), wk =   0.0480000
        k(   11) = (   0.0000000   0.1000000  -0.5000000), wk =   0.0480000
        k(   12) = (   0.0000000   0.1000000  -0.4000000), wk =   0.0480000
        k(   13) = (   0.0000000   0.1000000  -0.3000000), wk =   0.0480000
        k(   14) = (   0.0000000   0.1000000  -0.2000000), wk =   0.0480000
        k(   15) = (   0.0000000   0.1000000  -0.1000000), wk =   0.0240000
        k(   16) = (   0.0000000   0.2000000   0.2000000), wk =   0.0120000
        k(   17) = (   0.0000000   0.2000000   0.3000000), wk =   0.0480000
        k(   18) = (   0.0000000   0.2000000   0.4000000), wk =   0.0480000
        k(   19) = (   0.0000000   0.2000000  -0.5000000), wk =   0.0480000
        k(   20) = (   0.0000000   0.2000000  -0.4000000), wk =   0.0480000
        k(   21) = (   0.0000000   0.2000000  -0.3000000), wk =   0.0480000
        k(   22) = (   0.0000000   0.2000000  -0.2000000), wk =   0.0240000
        k(   23) = (   0.0000000   0.3000000   0.3000000), wk =   0.0120000
        k(   24) = (   0.0000000   0.3000000   0.4000000), wk =   0.0480000
        k(   25) = (   0.0000000   0.3000000  -0.5000000), wk =   0.0480000
        k(   26) = (   0.0000000   0.3000000  -0.4000000), wk =   0.0480000
        k(   27) = (   0.0000000   0.3000000  -0.3000000), wk =   0.0240000
        k(   28) = (   0.0000000   0.4000000   0.4000000), wk =   0.0120000
        k(   29) = (   0.0000000   0.4000000  -0.5000000), wk =   0.0480000
        k(   30) = (   0.0000000   0.4000000  -0.4000000), wk =   0.0240000
        k(   31) = (   0.0000000  -0.5000000  -0.5000000), wk =   0.0060000
        k(   32) = (   0.1000000   0.2000000   0.3000000), wk =   0.0480000
        k(   33) = (   0.1000000   0.2000000   0.4000000), wk =   0.0960000
        k(   34) = (   0.1000000   0.2000000  -0.5000000), wk =   0.0960000
        k(   35) = (   0.1000000   0.2000000  -0.4000000), wk =   0.0480000
        k(   36) = (   0.1000000   0.3000000   0.4000000), wk =   0.0480000
        k(   37) = (   0.1000000   0.3000000  -0.5000000), wk =   0.0960000
        k(   38) = (   0.1000000   0.3000000  -0.4000000), wk =   0.0960000
        k(   39) = (   0.1000000   0.3000000  -0.3000000), wk =   0.0960000
        k(   40) = (   0.1000000   0.3000000  -0.2000000), wk =   0.0480000
        k(   41) = (   0.1000000   0.4000000  -0.5000000), wk =   0.0480000
        k(   42) = (   0.1000000   0.4000000  -0.4000000), wk =   0.0960000
        k(   43) = (   0.1000000   0.4000000  -0.3000000), wk =   0.0480000
        k(   44) = (   0.1000000  -0.5000000  -0.4000000), wk =   0.0240000
        k(   45) = (   0.2000000   0.4000000  -0.4000000), wk =   0.0480000
        k(   46) = (   0.2000000   0.4000000  -0.3000000), wk =   0.0480000
        k(   47) = (   0.2000000  -0.5000000  -0.3000000), wk =   0.0240000

     Dense  grid:    45863 G-vectors     FFT dimensions: (  50,  50,  50)

     Largest allocated arrays     est. size (Mb)     dimensions
        Kohn-Sham Wavefunctions         0.10 Mb     (     364,   18)
        NL pseudopotentials             0.20 Mb     (     364,   36)
        Each V/rho on FFT grid          0.15 Mb     (   10000)
        Each G-vector array             0.02 Mb     (    2868)
        G-vector shells                 0.00 Mb     (     401)
     Largest temporary arrays     est. size (Mb)     dimensions
        Auxiliary wavefunctions         0.40 Mb     (     364,   72)
        Each subspace H/S matrix        0.08 Mb     (      72,   72)
        Each <psi_i|beta_j> matrix      0.01 Mb     (      36,   18)
        Arrays for rho mixing           1.22 Mb     (   10000,    8)

     Initial potential from superposition of free atoms

     starting charge   27.82674, renormalised to   28.00000
     Starting wfc are random

     total cpu time spent up to now is        1.2 secs

     Self-consistent Calculation

     iteration #  1     ecut=    80.00 Ry     beta=0.70
     Davidson diagonalization with overlap
     ethr =  1.00E-02,  avg # of iterations =  7.1

     Threshold (ethr) on eigenvalues was too large:
     Diagonalizing with lowered threshold

     Davidson diagonalization with overlap
     ethr =  1.12E-04,  avg # of iterations =  1.9

     total cpu time spent up to now is       11.4 secs

     total energy              =    -241.29351011 Ry
     Harris-Foulkes estimate   =    -241.30458212 Ry
     estimated scf accuracy    <       0.03130896 Ry

     iteration #  2     ecut=    80.00 Ry     beta=0.70
     Davidson diagonalization with overlap
     ethr =  1.12E-04,  avg # of iterations =  2.0

     total cpu time spent up to now is       14.4 secs

     total energy              =    -241.29746087 Ry
     Harris-Foulkes estimate   =    -241.29747153 Ry
     estimated scf accuracy    <       0.00166123 Ry

     iteration #  3     ecut=    80.00 Ry     beta=0.70
     Davidson diagonalization with overlap
     ethr =  5.93E-06,  avg # of iterations =  2.9

     total cpu time spent up to now is       17.1 secs

     total energy              =    -241.29760120 Ry
     Harris-Foulkes estimate   =    -241.29757263 Ry
     estimated scf accuracy    <       0.00008563 Ry

     iteration #  4     ecut=    80.00 Ry     beta=0.70
     Davidson diagonalization with overlap
     ethr =  3.06E-07,  avg # of iterations =  2.0

     total cpu time spent up to now is       19.6 secs

     total energy              =    -241.29760598 Ry
     Harris-Foulkes estimate   =    -241.29760571 Ry
     estimated scf accuracy    <       0.00000129 Ry

     iteration #  5     ecut=    80.00 Ry     beta=0.70
     Davidson diagonalization with overlap
     ethr =  4.62E-09,  avg # of iterations =  2.2

     total cpu time spent up to now is       22.3 secs

     End of self-consistent calculation

          k = 0.0000 0.0000 0.0000 (  5769 PWs)   bands (ev):

   -12.7376 -12.7376 -12.7376 -12.6763 -12.6763 -12.3981 -12.3981 -12.3981
   -12.3886 -12.3886  -1.4403   8.0935   9.0383   9.0383   9.0383  11.1233
    11.1233  11.1233

     occupation numbers 
     1.0000   1.0000   1.0000   1.0000   1.0000   1.0000   1.0000   1.0000
     1.0000   1.0000   1.0000   1.0000   0.0000   0.0000   0.0000   0.0000
     0.0000   0.0000

          k = 0.0707 0.0707-0.0707 (  5790 PWs)   bands (ev):

   -12.7440 -12.7440 -12.7352 -12.6672 -12.6672 -12.4127 -12.4127 -12.4009
   -12.3756 -12.3756  -1.3467   7.0770   8.8541   8.8541   9.4447  11.3630
    11.3630  11.5218

     occupation numbers 
     1.0000   1.0000   1.0000   1.0000   1.0000   1.0000   1.0000   1.0000
     1.0000   1.0000   1.0000   1.0000   1.0000   1.0000   0.0000   0.0000
     0.0000   0.0000

          k = 0.1414 0.1414-0.1414 (  5777 PWs)   bands (ev):

   -12.7554 -12.7554 -12.7290 -12.6495 -12.6495 -12.4297 -12.4297 -12.4085
   -12.3624 -12.3624  -1.0723   5.6372   8.4956   8.4956   9.3731  11.8148
    11.8148  12.6628

     occupation numbers 
     1.0000   1.0000   1.0000   1.0000   1.0000   1.0000   1.0000   1.0000
     1.0000   1.0000   1.0000   1.0000   1.0000   1.0000   0.0000   0.0000
     0.0000   0.0000

          k = 0.2121 0.2121-0.2121 (  5750 PWs)   bands (ev):

   -12.7642 -12.7642 -12.7211 -12.6337 -12.6337 -12.4424 -12.4424 -12.4181
   -12.3536 -12.3536  -0.6436   4.2967   8.1714   8.1714   9.1309  12.1116
    12.1116  14.0712

     occupation numbers 
     1.0000   1.0000   1.0000   1.0000   1.0000   1.0000   1.0000   1.0000
     1.0000   1.0000   1.0000   1.0000   1.0000   1.0000   0.0000   0.0000
     0.0000   0.0000

          k = 0.2828 0.2828-0.2828 (  5720 PWs)   bands (ev):

   -12.7690 -12.7690 -12.7144 -12.6242 -12.6242 -12.4491 -12.4491 -12.4262
   -12.3490 -12.3490  -0.1509   3.2351   7.9599   7.9599   8.9526  12.1826
    12.1826  14.7495

     occupation numbers 
     1.0000   1.0000   1.0000   1.0000   1.0000   1.0000   1.0000   1.0000
     1.0000   1.0000   1.0000   1.0000   1.0000   1.0000   0.0000   0.0000
     0.0000   0.0000

          k =-0.3536-0.3536 0.3536 (  5720 PWs)   bands (ev):

   -12.7705 -12.7705 -12.7118 -12.6213 -12.6213 -12.4509 -12.4509 -12.4294
   -12.3476 -12.3476   0.1161   2.7754   7.8873   7.8873   8.8900  12.1803
    12.1803  14.6765

     occupation numbers 
     1.0000   1.0000   1.0000   1.0000   1.0000   1.0000   1.0000   1.0000
     1.0000   1.0000   1.0000   1.0000   1.0000   1.0000   0.5000   0.0000
     0.0000   0.0000

          k = 0.1414 0.0000 0.0000 (  5789 PWs)   bands (ev):

   -12.7428 -12.7428 -12.7418 -12.6691 -12.6580 -12.4334 -12.3955 -12.3908
   -12.3908 -12.3698  -1.3152   6.9687   8.5497   8.5497  10.0957  10.7754
    11.7703  11.7703

     occupation numbers 
     1.0000   1.0000   1.0000   1.0000   1.0000   1.0000   1.0000   1.0000
     1.0000   1.0000   1.0000   1.0000   1.0000   1.0000   0.0000   0.0000
     0.0000   0.0000

          k = 0.2121 0.0707-0.0707 (  5782 PWs)   bands (ev):

   -12.7563 -12.7511 -12.7343 -12.6563 -12.6388 -12.4551 -12.4128 -12.3929
   -12.3749 -12.3592  -1.0995   5.9021   8.1621   8.1685  10.3089  10.9068
    12.3172  12.5571

     occupation numbers 
     1.0000   1.0000   1.0000   1.0000   1.0000   1.0000   1.0000   1.0000
     1.0000   1.0000   1.0000   1.0000   1.0000   1.0000   0.0000   0.0000
     0.0000   0.0000

          k = 0.2828 0.1414-0.1414 (  5773 PWs)   bands (ev):

   -12.7693 -12.7608 -12.7216 -12.6397 -12.6208 -12.4705 -12.4299 -12.4065
   -12.3616 -12.3469  -0.7170   4.6331   7.7247   7.8691  10.0793  11.4739
    12.6607  13.3363

     occupation numbers 
     1.0000   1.0000   1.0000   1.0000   1.0000   1.0000   1.0000   1.0000
     1.0000   1.0000   1.0000   1.0000   1.0000   1.0000   0.0000   0.0000
     0.0000   0.0000

          k = 0.3536 0.2121-0.2121 (  5754 PWs)   bands (ev):

   -12.7780 -12.7680 -12.7079 -12.6254 -12.6115 -12.4747 -12.4443 -12.4232
   -12.3518 -12.3386  -0.2265   3.5065   7.3598   7.7105   9.8467  11.8456
    12.6778  14.1476

     occupation numbers 
     1.0000   1.0000   1.0000   1.0000   1.0000   1.0000   1.0000   1.0000
     1.0000   1.0000   1.0000   1.0000   1.0000   1.0000   0.0000   0.0000
     0.0000   0.0000

          k =-0.2828-0.4243 0.4243 (  5747 PWs)   bands (ev):

   -12.7814 -12.7724 -12.6986 -12.6151 -12.6127 -12.4668 -12.4561 -12.4371
   -12.3453 -12.3358   0.1682   2.8119   7.1300   7.7102   9.7116  12.0042
    12.5380  14.8837

     occupation numbers 
     1.0000   1.0000   1.0000   1.0000   1.0000   1.0000   1.0000   1.0000
     1.0000   1.0000   1.0000   1.0000   1.0000   1.0000   0.0000   0.0000
     0.0000   0.0000

          k =-0.2121-0.3536 0.3536 (  5757 PWs)   bands (ev):

   -12.7794 -12.7739 -12.6983 -12.6207 -12.6106 -12.4637 -12.4512 -12.4425
   -12.3421 -12.3393   0.0702   2.9718   7.0613   7.8646   9.6974  12.1492
    12.3757  14.9440

     occupation numbers 
     1.0000   1.0000   1.0000   1.0000   1.0000   1.0000   1.0000   1.0000
     1.0000   1.0000   1.0000   1.0000   1.0000   1.0000   0.0000   0.0000
     0.0000   0.0000

          k =-0.1414-0.2828 0.2828 (  5748 PWs)   bands (ev):

   -12.7723 -12.7718 -12.7073 -12.6318 -12.6153 -12.4632 -12.4453 -12.4259
   -12.3489 -12.3430  -0.3970   3.8560   7.1726   8.1516   9.7955  12.1652
    12.2680  14.0938

     occupation numbers 
     1.0000   1.0000   1.0000   1.0000   1.0000   1.0000   1.0000   1.0000
     1.0000   1.0000   1.0000   1.0000   1.0000   1.0000   0.0000   0.0000
     0.0000   0.0000

          k =-0.0707-0.2121 0.2121 (  5792 PWs)   bands (ev):

   -12.7651 -12.7610 -12.7209 -12.6453 -12.6302 -12.4522 -12.4369 -12.4042
   -12.3642 -12.3490  -0.8627   5.0436   7.4897   8.5179   9.9442  11.8044
    12.0361  13.1667

     occupation numbers 
     1.0000   1.0000   1.0000   1.0000   1.0000   1.0000   1.0000   1.0000
     1.0000   1.0000   1.0000   1.0000   1.0000   1.0000   0.0000   0.0000
     0.0000   0.0000

          k = 0.0000-0.1414 0.1414 (  5785 PWs)   bands (ev):

   -12.7544 -12.7483 -12.7323 -12.6598 -12.6506 -12.4338 -12.4232 -12.3872
   -12.3833 -12.3601  -1.1923   6.2485   8.0723   8.8323   9.8899  11.4095
    11.5047  12.4039

     occupation numbers 
     1.0000   1.0000   1.0000   1.0000   1.0000   1.0000   1.0000   1.0000
     1.0000   1.0000   1.0000   1.0000   1.0000   1.0000   0.0000   0.0000
     0.0000   0.0000

          k = 0.2828 0.0000 0.0000 (  5798 PWs)   bands (ev):

   -12.7555 -12.7555 -12.7420 -12.6482 -12.6167 -12.4852 -12.4155 -12.3726
   -12.3726 -12.3658  -0.9423   5.5082   7.7750   7.7750  10.2063  11.0334
    13.0088  13.0088

     occupation numbers 
     1.0000   1.0000   1.0000   1.0000   1.0000   1.0000   1.0000   1.0000
     1.0000   1.0000   1.0000   1.0000   1.0000   1.0000   0.0000   0.0000
     0.0000   0.0000

          k = 0.3536 0.0707-0.0707 (  5757 PWs)   bands (ev):

   -12.7698 -12.7637 -12.7279 -12.6321 -12.5943 -12.5093 -12.4322 -12.3879
   -12.3602 -12.3489  -0.6110   4.6111   7.3022   7.4686  10.2898  11.1145
    13.2786  13.5348

     occupation numbers 
     1.0000   1.0000   1.0000   1.0000   1.0000   1.0000   1.0000   1.0000
     1.0000   1.0000   1.0000   1.0000   1.0000   1.0000   0.0000   0.0000
     0.0000   0.0000

          k = 0.4243 0.1414-0.1414 (  5749 PWs)   bands (ev):

   -12.7847 -12.7712 -12.7050 -12.6146 -12.5810 -12.5207 -12.4512 -12.4137
   -12.3486 -12.3318  -0.1426   3.6169   6.7612   7.3123  10.3549  11.6645
    13.1936  13.6420

     occupation numbers 
     1.0000   1.0000   1.0000   1.0000   1.0000   1.0000   1.0000   1.0000
     1.0000   1.0000   1.0000   1.0000   1.0000   1.0000   0.0000   0.0000
     0.0000   0.0000

          k =-0.2121-0.4950 0.4950 (  5749 PWs)   bands (ev):

   -12.7942 -12.7768 -12.6839 -12.5989 -12.5835 -12.5143 -12.4695 -12.4376
   -12.3400 -12.3215   0.3302   2.8302   6.3526   7.3266  10.2879  12.2518
    13.4534  13.7015

     occupation numbers 
     1.0000   1.0000   1.0000   1.0000   1.0000   1.0000   1.0000   1.0000
     1.0000   1.0000   1.0000   1.0000   1.0000   1.0000   0.0000   0.0000
     0.0000   0.0000

          k =-0.1414-0.4243 0.4243 (  5780 PWs)   bands (ev):

   -12.7961 -12.7796 -12.6737 -12.5993 -12.5885 -12.4925 -12.4838 -12.4510
   -12.3350 -12.3202   0.4157   2.7065   6.1518   7.5082  10.3014  12.4388
    13.1644  14.7290

     occupation numbers 
     1.0000   1.0000   1.0000   1.0000   1.0000   1.0000   1.0000   1.0000
     1.0000   1.0000   1.0000   1.0000   1.0000   1.0000   0.0000   0.0000
     0.0000   0.0000

          k =-0.0707-0.3536 0.3536 (  5757 PWs)   bands (ev):

   -12.7897 -12.7790 -12.6801 -12.6192 -12.5905 -12.4861 -12.4628 -12.4508
   -12.3346 -12.3290   0.0024   3.3490   6.2124   7.8293  10.3869  12.6088
    12.7814  13.8472

     occupation numbers 
     1.0000   1.0000   1.0000   1.0000   1.0000   1.0000   1.0000   1.0000
     1.0000   1.0000   1.0000   1.0000   1.0000   1.0000   0.0000   0.0000
     0.0000   0.0000

          k = 0.0000-0.2828 0.2828 (  5763 PWs)   bands (ev):

   -12.7763 -12.7740 -12.7002 -12.6344 -12.6073 -12.4734 -12.4491 -12.4251
   -12.3463 -12.3393  -0.4870   4.2427   6.6262   8.2194  10.3874  12.2533
    12.4549  13.1450

     occupation numbers 
     1.0000   1.0000   1.0000   1.0000   1.0000   1.0000   1.0000   1.0000
     1.0000   1.0000   1.0000   1.0000   1.0000   1.0000   0.0000   0.0000
     0.0000   0.0000

          k = 0.4243 0.0000 0.0000 (  5746 PWs)   bands (ev):

   -12.7699 -12.7699 -12.7285 -12.6158 -12.5651 -12.5439 -12.4467 -12.3807
   -12.3515 -12.3515  -0.3298   4.0868   7.1395   7.1395   9.8011  10.8619
    14.3853  14.3854

     occupation numbers 
     1.0000   1.0000   1.0000   1.0000   1.0000   1.0000   1.0000   1.0000
     1.0000   1.0000   1.0000   1.0000   1.0000   1.0000   0.0000   0.0000
     0.0000   0.0000

          k = 0.4950 0.0707-0.0707 (  5740 PWs)   bands (ev):

   -12.7823 -12.7762 -12.7072 -12.5964 -12.5674 -12.5425 -12.4665 -12.4055
   -12.3419 -12.3347   0.1050   3.3326   6.6839   6.9570   9.9720  10.8190
    14.3203  14.7929

     occupation numbers 
     1.0000   1.0000   1.0000   1.0000   1.0000   1.0000   1.0000   1.0000
     1.0000   1.0000   1.0000   1.0000   1.0000   1.0000   0.0000   0.0000
     0.0000   0.0000

          k =-0.1414-0.5657 0.5657 (  5746 PWs)   bands (ev):

   -12.7965 -12.7810 -12.6780 -12.5771 -12.5733 -12.5350 -12.4879 -12.4369
   -12.3344 -12.3183   0.6137   2.6141   6.1108   6.9489  10.1028  11.6640
    14.0373  14.6682

     occupation numbers 
     1.0000   1.0000   1.0000   1.0000   1.0000   1.0000   1.0000   1.0000
     1.0000   1.0000   1.0000   1.0000   1.0000   1.0000   0.0000   0.0000
     0.0000   0.0000

          k =-0.0707-0.4950 0.4950 (  5766 PWs)   bands (ev):

   -12.8042 -12.7836 -12.6606 -12.5627 -12.5599 -12.5458 -12.5058 -12.4547
   -12.3303 -12.3103   0.8574   2.3190   5.7382   7.1158  10.2004  12.9782
    13.9038  14.2605

     occupation numbers 
     1.0000   1.0000   1.0000   1.0000   1.0000   1.0000   1.0000   1.0000
     1.0000   1.0000   1.0000   1.0000   1.0000   1.0000   0.0000   0.0000
     0.0000   0.0000

          k =-0.0000-0.4243 0.4243 (  5766 PWs)   bands (ev):

   -12.8019 -12.7831 -12.6618 -12.5911 -12.5678 -12.5078 -12.5050 -12.4565
   -12.3302 -12.3139   0.4975   2.7515   5.7304   7.4322  10.3690  13.5725
    13.6041  13.7436

     occupation numbers 
     1.0000   1.0000   1.0000   1.0000   1.0000   1.0000   1.0000   1.0000
     1.0000   1.0000   1.0000   1.0000   1.0000   1.0000   0.0000   0.0000
     0.0000   0.0000

          k = 0.5657 0.0000 0.0000 (  5746 PWs)   bands (ev):

   -12.7807 -12.7807 -12.6995 -12.6030 -12.5753 -12.5100 -12.4864 -12.4125
   -12.3352 -12.3352   0.5074   2.7521   6.7376   6.7376   9.6622  10.2579
    15.7316  15.7317

     occupation numbers 
     1.0000   1.0000   1.0000   1.0000   1.0000   1.0000   1.0000   1.0000
     1.0000   1.0000   1.0000   1.0000   1.0000   1.0000   0.0000   0.0000
     0.0000   0.0000

          k =-0.0707-0.6364 0.6364 (  5744 PWs)   bands (ev):

   -12.7898 -12.7838 -12.6723 -12.6221 -12.5537 -12.5086 -12.4908 -12.4410
   -12.3305 -12.3244   1.0237   2.1227   6.3669   6.6911   9.8667  10.4124
    15.6086  15.8965

     occupation numbers 
     1.0000   1.0000   1.0000   1.0000   1.0000   1.0000   1.0000   1.0000
     1.0000   1.0000   1.0000   1.0000   1.0000   1.0000   0.0000   0.0000
     0.0000   0.0000

          k = 0.0000-0.5657 0.5657 (  5738 PWs)   bands (ev):

   -12.8008 -12.7849 -12.6557 -12.6029 -12.5405 -12.5243 -12.5081 -12.4578
   -12.3288 -12.3129   1.2996   1.8475   5.8849   6.8237   9.9913  11.5611
    15.0392  15.3120

     occupation numbers 
     1.0000   1.0000   1.0000   1.0000   1.0000   1.0000   1.0000   1.0000
     1.0000   1.0000   1.0000   1.0000   1.0000   1.0000   0.0000   0.0000
     0.0000   0.0000

          k =-0.7071 0.0000 0.0000 (  5738 PWs)   bands (ev):

   -12.7847 -12.7847 -12.6565 -12.6565 -12.5307 -12.5306 -12.4573 -12.4573
   -12.3292 -12.3292   1.5456   1.5456   6.6009   6.6009   9.8177   9.8177
    16.5073  16.5074

     occupation numbers 
     1.0000   1.0000   1.0000   1.0000   1.0000   1.0000   1.0000   1.0000
     1.0000   1.0000   1.0000   1.0000   1.0000   1.0000   0.0000   0.0000
     0.0000   0.0000

          k = 0.2828 0.1414 0.0000 (  5773 PWs)   bands (ev):

   -12.7655 -12.7619 -12.7247 -12.6438 -12.6177 -12.4783 -12.4258 -12.3967
   -12.3647 -12.3495  -0.8269   5.0771   7.3250   8.0949  10.6996  10.9082
    12.7955  12.9804

     occupation numbers 
     1.0000   1.0000   1.0000   1.0000   1.0000   1.0000   1.0000   1.0000
     1.0000   1.0000   1.0000   1.0000   1.0000   1.0000   0.0000   0.0000
     0.0000   0.0000

          k = 0.3536 0.2121-0.0707 (  5762 PWs)   bands (ev):

   -12.7781 -12.7721 -12.7051 -12.6286 -12.5994 -12.4938 -12.4408 -12.4201
   -12.3481 -12.3384  -0.3996   4.0537   6.7847   7.8035  10.6063  11.5195
    12.9703  13.3443

     occupation numbers 
     1.0000   1.0000   1.0000   1.0000   1.0000   1.0000   1.0000   1.0000
     1.0000   1.0000   1.0000   1.0000   1.0000   1.0000   0.0000   0.0000
     0.0000   0.0000

          k =-0.2828-0.4243 0.5657 (  5751 PWs)   bands (ev):

   -12.7886 -12.7770 -12.6869 -12.6140 -12.5920 -12.4963 -12.4564 -12.4424
   -12.3395 -12.3282   0.0977   3.1238   6.5094   7.5431  10.4633  11.8741
    13.1066  14.0131

     occupation numbers 
     1.0000   1.0000   1.0000   1.0000   1.0000   1.0000   1.0000   1.0000
     1.0000   1.0000   1.0000   1.0000   1.0000   1.0000   0.0000   0.0000
     0.0000   0.0000

          k =-0.2121-0.3536 0.4950 (  5742 PWs)   bands (ev):

   -12.7923 -12.7785 -12.6794 -12.6044 -12.5945 -12.4899 -12.4708 -12.4488
   -12.3372 -12.3241   0.3742   2.6925   6.4266   7.4440  10.4087  11.9103
    13.1590  14.8150

     occupation numbers 
     1.0000   1.0000   1.0000   1.0000   1.0000   1.0000   1.0000   1.0000
     1.0000   1.0000   1.0000   1.0000   1.0000   1.0000   0.0000   0.0000
     0.0000   0.0000

          k = 0.4243 0.1414-0.0000 (  5746 PWs)   bands (ev):

   -12.7767 -12.7766 -12.7103 -12.6152 -12.5714 -12.5336 -12.4493 -12.4060
   -12.3438 -12.3400  -0.2300   3.8668   6.7392   7.2569  10.4877  11.1039
    13.2238  14.2839

     occupation numbers 
     1.0000   1.0000   1.0000   1.0000   1.0000   1.0000   1.0000   1.0000
     1.0000   1.0000   1.0000   1.0000   1.0000   1.0000   0.0000   0.0000
     0.0000   0.0000

          k =-0.2121-0.4950 0.6364 (  5748 PWs)   bands (ev):

   -12.7917 -12.7820 -12.6828 -12.5974 -12.5594 -12.5434 -12.4696 -12.4353
   -12.3342 -12.3242   0.2653   3.0652   6.2584   7.0292  10.7081  11.7069
    12.9766  14.5894

     occupation numbers 
     1.0000   1.0000   1.0000   1.0000   1.0000   1.0000   1.0000   1.0000
     1.0000   1.0000   1.0000   1.0000   1.0000   1.0000   0.0000   0.0000
     0.0000   0.0000

          k =-0.1414-0.4243 0.5657 (  5755 PWs)   bands (ev):

   -12.8005 -12.7849 -12.6621 -12.5834 -12.5624 -12.5359 -12.4897 -12.4553
   -12.3298 -12.3143   0.6768   2.5023   5.9455   6.9879  10.7497  12.3540
    13.3828  14.3574

     occupation numbers 
     1.0000   1.0000   1.0000   1.0000   1.0000   1.0000   1.0000   1.0000
     1.0000   1.0000   1.0000   1.0000   1.0000   1.0000   0.0000   0.0000
     0.0000   0.0000

          k =-0.0707-0.3536 0.4950 (  5756 PWs)   bands (ev):

   -12.8002 -12.7851 -12.6606 -12.5921 -12.5656 -12.5238 -12.4887 -12.4586
   -12.3289 -12.3154   0.5453   2.6739   5.8687   7.1616  10.8642  12.3321
    13.4880  14.3311

     occupation numbers 
     1.0000   1.0000   1.0000   1.0000   1.0000   1.0000   1.0000   1.0000
     1.0000   1.0000   1.0000   1.0000   1.0000   1.0000   0.0000   0.0000
     0.0000   0.0000

          k = 0.0000-0.2828 0.4243 (  5755 PWs)   bands (ev):

   -12.7907 -12.7818 -12.6786 -12.6132 -12.5772 -12.5132 -12.4574 -12.4496
   -12.3321 -12.3275   0.0577   3.3517   6.1207   7.4857  10.9553  11.9566
    12.8454  14.0204

     occupation numbers 
     1.0000   1.0000   1.0000   1.0000   1.0000   1.0000   1.0000   1.0000
     1.0000   1.0000   1.0000   1.0000   1.0000   1.0000   0.0000   0.0000
     0.0000   0.0000

          k =-0.1414-0.5657 0.7071 (  5736 PWs)   bands (ev):

   -12.7873 -12.7863 -12.6824 -12.5898 -12.5761 -12.5206 -12.4876 -12.4313
   -12.3286 -12.3283   0.5779   2.6787   6.4126   6.6654  10.3048  10.7327
    14.2555  15.6119

     occupation numbers 
     1.0000   1.0000   1.0000   1.0000   1.0000   1.0000   1.0000   1.0000
     1.0000   1.0000   1.0000   1.0000   1.0000   1.0000   0.0000   0.0000
     0.0000   0.0000

          k =-0.0707-0.4950 0.6364 (  5751 PWs)   bands (ev):

   -12.7993 -12.7890 -12.6519 -12.5933 -12.5568 -12.5161 -12.5098 -12.4613
   -12.3249 -12.3146   1.0740   2.1058   5.9753   6.5989  10.5477  11.6324
    13.9421  15.0692

     occupation numbers 
     1.0000   1.0000   1.0000   1.0000   1.0000   1.0000   1.0000   1.0000
     1.0000   1.0000   1.0000   1.0000   1.0000   1.0000   0.0000   0.0000
     0.0000   0.0000

          k =-0.0000-0.4243 0.5657 (  5756 PWs)   bands (ev):

   -12.8047 -12.7888 -12.6464 -12.5625 -12.5592 -12.5381 -12.5172 -12.4662
   -12.3248 -12.3094   1.0299   2.1626   5.7075   6.7999  10.7139  13.0034
    13.7127  13.7436

     occupation numbers 
     1.0000   1.0000   1.0000   1.0000   1.0000   1.0000   1.0000   1.0000
     1.0000   1.0000   1.0000   1.0000   1.0000   1.0000   0.0000   0.0000
     0.0000   0.0000

          k =-0.7071 0.1414 0.0000 (  5758 PWs)   bands (ev):

   -12.7906 -12.7906 -12.6411 -12.6410 -12.5318 -12.5317 -12.4718 -12.4718
   -12.3231 -12.3231   1.5634   1.5635   6.3822   6.3822  10.3930  10.3930
    15.4686  15.4686

     occupation numbers 
     1.0000   1.0000   1.0000   1.0000   1.0000   1.0000   1.0000   1.0000
     1.0000   1.0000   1.0000   1.0000   1.0000   1.0000   0.0000   0.0000
     0.0000   0.0000

          k =-0.1414-0.4243 0.7071 (  5734 PWs)   bands (ev):

   -12.7989 -12.7915 -12.6511 -12.5779 -12.5638 -12.5370 -12.4954 -12.4640
   -12.3225 -12.3159   0.7699   2.4657   5.9252   6.6456  11.6746  11.7436
    12.6962  14.8212

     occupation numbers 
     1.0000   1.0000   1.0000   1.0000   1.0000   1.0000   1.0000   1.0000
     1.0000   1.0000   1.0000   1.0000   1.0000   1.0000   0.0000   0.0000
     0.0000   0.0000

          k =-0.0707-0.3536 0.6364 (  5750 PWs)   bands (ev):

   -12.8029 -12.7938 -12.6342 -12.5736 -12.5596 -12.5322 -12.5131 -12.4768
   -12.3199 -12.3111   1.1077   2.0922   5.8290   6.4716  11.7038  12.2708
    13.2602  13.5493

     occupation numbers 
     1.0000   1.0000   1.0000   1.0000   1.0000   1.0000   1.0000   1.0000
     1.0000   1.0000   1.0000   1.0000   1.0000   1.0000   0.0000   0.0000
     0.0000   0.0000

          k =-0.7071 0.2828 0.0000 (  5748 PWs)   bands (ev):

   -12.7987 -12.7987 -12.6117 -12.6117 -12.5370 -12.5369 -12.4961 -12.4961
   -12.3149 -12.3148   1.5931   1.5932   6.0952   6.0952  11.7281  11.7281
    13.6314  13.6314

     occupation numbers 
     1.0000   1.0000   1.0000   1.0000   1.0000   1.0000   1.0000   1.0000
     1.0000   1.0000   1.0000   1.0000   1.0000   1.0000   0.0000   0.0000
     0.0000   0.0000

     the Fermi energy is     8.8900 ev

!    total energy              =    -241.29760629 Ry
     Harris-Foulkes estimate   =    -241.29760628 Ry
     estimated scf accuracy    <       0.00000005 Ry

     The total energy is the sum of the following terms:

     one-electron contribution =    -105.40217193 Ry
     hartree contribution      =      63.89557054 Ry
     xc contribution           =     -29.45202070 Ry
     ewald contribution        =    -170.33898398 Ry
     smearing contrib. (-TS)   =      -0.00000023 Ry

     convergence has been achieved in   5 iterations

     Writing output data file Sn.save
 
     init_run     :      1.00s CPU      1.14s WALL (       1 calls)
     electrons    :     19.46s CPU     21.10s WALL (       1 calls)

     Called by init_run:
     wfcinit      :      0.83s CPU      0.92s WALL (       1 calls)
     potinit      :      0.02s CPU      0.02s WALL (       1 calls)

     Called by electrons:
     c_bands      :     17.20s CPU     18.67s WALL (       6 calls)
     sum_band     :      2.18s CPU      2.32s WALL (       6 calls)
     v_of_rho     :      0.07s CPU      0.07s WALL (       6 calls)
     v_h          :      0.01s CPU      0.01s WALL (       6 calls)
     v_xc         :      0.06s CPU      0.07s WALL (       6 calls)
     mix_rho      :      0.01s CPU      0.01s WALL (       6 calls)

     Called by c_bands:
     init_us_2    :      0.12s CPU      0.13s WALL (     611 calls)
     cegterg      :     16.57s CPU     18.01s WALL (     282 calls)

     Called by sum_band:

     Called by *egterg:
     h_psi        :     14.26s CPU     15.69s WALL (    1175 calls)
     g_psi        :      0.06s CPU      0.06s WALL (     846 calls)
     cdiaghg      :      1.13s CPU      1.14s WALL (    1081 calls)
     cegterg:over :      0.78s CPU      0.80s WALL (     846 calls)
     cegterg:upda :      0.30s CPU      0.30s WALL (     846 calls)
     cegterg:last :      0.18s CPU      0.18s WALL (     355 calls)

     Called by h_psi:
     h_psi:vloc   :     13.38s CPU     14.77s WALL (    1175 calls)
     h_psi:vnl    :      0.83s CPU      0.88s WALL (    1175 calls)
     add_vuspsi   :      0.31s CPU      0.32s WALL (    1175 calls)

     General routines
     calbec       :      0.52s CPU      0.55s WALL (    1175 calls)
     fft          :      0.06s CPU      0.06s WALL (      67 calls)
     fftw         :     14.28s CPU     15.70s WALL (   37950 calls)
     davcio       :      0.00s CPU      0.04s WALL (      47 calls)
 
     Parallel routines
     fft_scatter  :      8.05s CPU      8.82s WALL (   38017 calls)
 
     PWSCF        :    20.63s CPU        22.56s WALL

 
   This run was terminated on:   7: 6:43  28Feb2020            

=------------------------------------------------------------------------------=
   JOB DONE.
=------------------------------------------------------------------------------=
