
     Program PWSCF v.5.4.0 starts on 16Mar2020 at 22:54:39 

     This program is part of the open-source Quantum ESPRESSO suite
     for quantum simulation of materials; please cite
         "P. Giannozzi et al., J. Phys.:Condens. Matter 21 395502 (2009);
          URL http://www.quantum-espresso.org", 
     in publications or presentations arising from this work. More details at
     http://www.quantum-espresso.org/quote

     Parallel version (MPI & OpenMP), running on      16 processor cores
     Number of MPI processes:                16
     Threads/MPI process:                     1
     R & G space division:  proc/nbgrp/npool/nimage =      16
     Waiting for input...
     Reading input from standard input
Warning: card &IONS ignored
Warning: card / ignored
Warning: card &CELL ignored
Warning: card / ignored

     Current dimensions of program PWSCF are:
     Max number of different atomic species (ntypx) = 10
     Max number of k-points (npk) =  40000
     Max angular momentum in pseudopotentials (lmaxx) =  3
               file Sn.pbe-dn-kjpaw_psl.1.0.0.UPF: wavefunction(s)  5S 5P 4D renormalized
     Message from routine setup:
     At least one non s.o. pseudo

     Subspace diagonalization in iterative solution of the eigenvalue problem:
     a serial algorithm will be used

 
     Parallelization info
     --------------------
     sticks:   dense  smooth     PW     G-vecs:    dense   smooth      PW
     Min         109     109     31                 3022     3022     473
     Max         111     111     32                 3024     3024     477
     Sum        1759    1759    511                48359    48359    7583
 

     Title: 
     Sn                                                                         


     bravais-lattice index     =            0
     lattice parameter (alat)  =       8.9127  a.u.
     unit-cell volume          =     500.6268 (a.u.)^3
     number of atoms/cell      =            2
     number of atomic types    =            1
     number of electrons       =        28.00
     number of Kohn-Sham states=           36
     kinetic-energy cutoff     =      80.0000  Ry
     charge density cutoff     =     320.0000  Ry
     convergence threshold     =      1.0E-06
     mixing beta               =       0.7000
     number of iterations used =            8  plain     mixing
     Exchange-correlation      =  SLA  PW   PBX  PBC ( 1  4  3  4 0 0)
     Non magnetic calculation with spin-orbit


     celldm(1)=   8.912709  celldm(2)=   0.000000  celldm(3)=   0.000000
     celldm(4)=   0.000000  celldm(5)=   0.000000  celldm(6)=   0.000000

     crystal axes: (cart. coord. in units of alat)
               a(1) = (   0.000000   0.707107   0.707107 )  
               a(2) = (   0.707107   0.000000   0.707107 )  
               a(3) = (   0.707107   0.707107   0.000000 )  

     reciprocal axes: (cart. coord. in units 2 pi/alat)
               b(1) = ( -0.707107  0.707107  0.707107 )  
               b(2) = (  0.707107 -0.707107  0.707107 )  
               b(3) = (  0.707107  0.707107 -0.707107 )  


     PseudoPot. # 1 for Sn read from file:
     ../PseudopotentialDatabase/Sn.pbe-dn-kjpaw_psl.1.0.0.UPF
     MD5 check sum: 67f11dec737d427557dc41ea34975807
     Pseudo is Projector augmented-wave + core cor, Zval = 14.0
     Generated using "atomic" code by A. Dal Corso  v.6.3
     Shape of augmentation charge: PSQ
     Using radial grid of 1243 points,  6 beta functions with: 
                l(1) =   0
                l(2) =   0
                l(3) =   1
                l(4) =   1
                l(5) =   2
                l(6) =   2
     Q(r) pseudized with 0 coefficients 


     atomic species   valence    mass     pseudopotential
        Sn            14.00   118.71000     Sn( 1.00)

     24 Sym. Ops. (no inversion) found
          (note: 24 additional sym.ops. were found but ignored
           their fractional translations are incommensurate with FFT grid)

                                    s                        frac. trans.

      isym =  1     identity                                     

 cryst.   s( 1) = (     1          0          0      )
                  (     0          1          0      )
                  (     0          0          1      )

 cart.    s( 1) = (  1.0000000  0.0000000  0.0000000 )
                  (  0.0000000  1.0000000  0.0000000 )
                  (  0.0000000  0.0000000  1.0000000 )


      isym =  2     180 deg rotation - cart. axis [0,0,1]        

 cryst.   s( 2) = (     0          1         -1      )
                  (     1          0         -1      )
                  (     0          0         -1      )

 cart.    s( 2) = ( -1.0000000  0.0000000  0.0000000 )
                  (  0.0000000 -1.0000000  0.0000000 )
                  (  0.0000000  0.0000000  1.0000000 )


      isym =  3     180 deg rotation - cart. axis [0,1,0]        

 cryst.   s( 3) = (     0         -1          1      )
                  (     0         -1          0      )
                  (     1         -1          0      )

 cart.    s( 3) = ( -1.0000000  0.0000000  0.0000000 )
                  (  0.0000000  1.0000000  0.0000000 )
                  (  0.0000000  0.0000000 -1.0000000 )


      isym =  4     180 deg rotation - cart. axis [1,0,0]        

 cryst.   s( 4) = (    -1          0          0      )
                  (    -1          0          1      )
                  (    -1          1          0      )

 cart.    s( 4) = (  1.0000000  0.0000000  0.0000000 )
                  (  0.0000000 -1.0000000  0.0000000 )
                  (  0.0000000  0.0000000 -1.0000000 )


      isym =  5     120 deg rotation - cart. axis [-1,-1,-1]     

 cryst.   s( 5) = (     0          0          1      )
                  (     1          0          0      )
                  (     0          1          0      )

 cart.    s( 5) = (  0.0000000  1.0000000  0.0000000 )
                  (  0.0000000  0.0000000  1.0000000 )
                  (  1.0000000  0.0000000  0.0000000 )


      isym =  6     120 deg rotation - cart. axis [-1,1,1]       

 cryst.   s( 6) = (     1         -1          0      )
                  (     0         -1          1      )
                  (     0         -1          0      )

 cart.    s( 6) = (  0.0000000 -1.0000000  0.0000000 )
                  (  0.0000000  0.0000000  1.0000000 )
                  ( -1.0000000  0.0000000  0.0000000 )


      isym =  7     120 deg rotation - cart. axis [1,1,-1]       

 cryst.   s( 7) = (    -1          1          0      )
                  (    -1          0          0      )
                  (    -1          0          1      )

 cart.    s( 7) = (  0.0000000  1.0000000  0.0000000 )
                  (  0.0000000  0.0000000 -1.0000000 )
                  ( -1.0000000  0.0000000  0.0000000 )


      isym =  8     120 deg rotation - cart. axis [1,-1,1]       

 cryst.   s( 8) = (     0          0         -1      )
                  (     0          1         -1      )
                  (     1          0         -1      )

 cart.    s( 8) = (  0.0000000 -1.0000000  0.0000000 )
                  (  0.0000000  0.0000000 -1.0000000 )
                  (  1.0000000  0.0000000  0.0000000 )


      isym =  9     120 deg rotation - cart. axis [1,1,1]        

 cryst.   s( 9) = (     0          1          0      )
                  (     0          0          1      )
                  (     1          0          0      )

 cart.    s( 9) = (  0.0000000  0.0000000  1.0000000 )
                  (  1.0000000  0.0000000  0.0000000 )
                  (  0.0000000  1.0000000  0.0000000 )


      isym = 10     120 deg rotation - cart. axis [-1,1,-1]      

 cryst.   s(10) = (    -1          0          1      )
                  (    -1          1          0      )
                  (    -1          0          0      )

 cart.    s(10) = (  0.0000000  0.0000000  1.0000000 )
                  ( -1.0000000  0.0000000  0.0000000 )
                  (  0.0000000 -1.0000000  0.0000000 )


      isym = 11     120 deg rotation - cart. axis [1,-1,-1]      

 cryst.   s(11) = (     1          0         -1      )
                  (     0          0         -1      )
                  (     0          1         -1      )

 cart.    s(11) = (  0.0000000  0.0000000 -1.0000000 )
                  ( -1.0000000  0.0000000  0.0000000 )
                  (  0.0000000  1.0000000  0.0000000 )


      isym = 12     120 deg rotation - cart. axis [-1,-1,1]      

 cryst.   s(12) = (     0         -1          0      )
                  (     1         -1          0      )
                  (     0         -1          1      )

 cart.    s(12) = (  0.0000000  0.0000000 -1.0000000 )
                  (  1.0000000  0.0000000  0.0000000 )
                  (  0.0000000 -1.0000000  0.0000000 )


      isym = 13     inv. 180 deg rotation - cart. axis [1,1,0]   

 cryst.   s(13) = (     1          0         -1      )
                  (     0          1         -1      )
                  (     0          0         -1      )

 cart.    s(13) = (  0.0000000 -1.0000000  0.0000000 )
                  ( -1.0000000  0.0000000  0.0000000 )
                  (  0.0000000  0.0000000  1.0000000 )


      isym = 14     inv. 180 deg rotation - cart. axis [1,-1,0]  

 cryst.   s(14) = (     0          1          0      )
                  (     1          0          0      )
                  (     0          0          1      )

 cart.    s(14) = (  0.0000000  1.0000000  0.0000000 )
                  (  1.0000000  0.0000000  0.0000000 )
                  (  0.0000000  0.0000000  1.0000000 )


      isym = 15     inv.  90 deg rotation - cart. axis [0,0,-1]  

 cryst.   s(15) = (     0         -1          0      )
                  (     0         -1          1      )
                  (     1         -1          0      )

 cart.    s(15) = (  0.0000000 -1.0000000  0.0000000 )
                  (  1.0000000  0.0000000  0.0000000 )
                  (  0.0000000  0.0000000 -1.0000000 )


      isym = 16     inv.  90 deg rotation - cart. axis [0,0,1]   

 cryst.   s(16) = (    -1          0          1      )
                  (    -1          0          0      )
                  (    -1          1          0      )

 cart.    s(16) = (  0.0000000  1.0000000  0.0000000 )
                  ( -1.0000000  0.0000000  0.0000000 )
                  (  0.0000000  0.0000000 -1.0000000 )


      isym = 17     inv. 180 deg rotation - cart. axis [1,0,1]   

 cryst.   s(17) = (     1         -1          0      )
                  (     0         -1          0      )
                  (     0         -1          1      )

 cart.    s(17) = (  0.0000000  0.0000000 -1.0000000 )
                  (  0.0000000  1.0000000  0.0000000 )
                  ( -1.0000000  0.0000000  0.0000000 )


      isym = 18     inv. 180 deg rotation - cart. axis [-1,0,1]  

 cryst.   s(18) = (     0          0          1      )
                  (     0          1          0      )
                  (     1          0          0      )

 cart.    s(18) = (  0.0000000  0.0000000  1.0000000 )
                  (  0.0000000  1.0000000  0.0000000 )
                  (  1.0000000  0.0000000  0.0000000 )


      isym = 19     inv.  90 deg rotation - cart. axis [0,1,0]   

 cryst.   s(19) = (     0          0         -1      )
                  (     1          0         -1      )
                  (     0          1         -1      )

 cart.    s(19) = (  0.0000000  0.0000000 -1.0000000 )
                  (  0.0000000 -1.0000000  0.0000000 )
                  (  1.0000000  0.0000000  0.0000000 )


      isym = 20     inv.  90 deg rotation - cart. axis [0,-1,0]  

 cryst.   s(20) = (    -1          1          0      )
                  (    -1          0          1      )
                  (    -1          0          0      )

 cart.    s(20) = (  0.0000000  0.0000000  1.0000000 )
                  (  0.0000000 -1.0000000  0.0000000 )
                  ( -1.0000000  0.0000000  0.0000000 )


      isym = 21     inv. 180 deg rotation - cart. axis [0,1,1]   

 cryst.   s(21) = (    -1          0          0      )
                  (    -1          1          0      )
                  (    -1          0          1      )

 cart.    s(21) = (  1.0000000  0.0000000  0.0000000 )
                  (  0.0000000  0.0000000 -1.0000000 )
                  (  0.0000000 -1.0000000  0.0000000 )


      isym = 22     inv. 180 deg rotation - cart. axis [0,1,-1]  

 cryst.   s(22) = (     1          0          0      )
                  (     0          0          1      )
                  (     0          1          0      )

 cart.    s(22) = (  1.0000000  0.0000000  0.0000000 )
                  (  0.0000000  0.0000000  1.0000000 )
                  (  0.0000000  1.0000000  0.0000000 )


      isym = 23     inv.  90 deg rotation - cart. axis [-1,0,0]  

 cryst.   s(23) = (     0          1         -1      )
                  (     0          0         -1      )
                  (     1          0         -1      )

 cart.    s(23) = ( -1.0000000  0.0000000  0.0000000 )
                  (  0.0000000  0.0000000 -1.0000000 )
                  (  0.0000000  1.0000000  0.0000000 )


      isym = 24     inv.  90 deg rotation - cart. axis [1,0,0]   

 cryst.   s(24) = (     0         -1          1      )
                  (     1         -1          0      )
                  (     0         -1          0      )

 cart.    s(24) = ( -1.0000000  0.0000000  0.0000000 )
                  (  0.0000000  0.0000000  1.0000000 )
                  (  0.0000000 -1.0000000  0.0000000 )


   Cartesian axes

     site n.     atom                  positions (alat units)
         1           Sn  tau(   1) = (   0.0000000   0.0000000   0.0000000  )
         2           Sn  tau(   2) = (   0.3535534   0.3535534   0.3535534  )

   Crystallographic axes

     site n.     atom                  positions (cryst. coord.)
         1           Sn  tau(   1) = (  0.0000000  0.0000000  0.0000000  )
         2           Sn  tau(   2) = (  0.2500000  0.2500000  0.2500000  )

     number of k points=   145  gaussian smearing, width (Ry)=  0.0001
                       cart. coord. in units 2pi/alat
        k(    1) = (   0.0000000   0.0000000   0.0000000), wk =   0.0002441
        k(    2) = (   0.0441942   0.0441942  -0.0441942), wk =   0.0019531
        k(    3) = (   0.0883883   0.0883883  -0.0883883), wk =   0.0019531
        k(    4) = (   0.1325825   0.1325825  -0.1325825), wk =   0.0019531
        k(    5) = (   0.1767767   0.1767767  -0.1767767), wk =   0.0019531
        k(    6) = (   0.2209709   0.2209709  -0.2209709), wk =   0.0019531
        k(    7) = (   0.2651650   0.2651650  -0.2651650), wk =   0.0019531
        k(    8) = (   0.3093592   0.3093592  -0.3093592), wk =   0.0019531
        k(    9) = (  -0.3535534  -0.3535534   0.3535534), wk =   0.0009766
        k(   10) = (   0.0883883   0.0000000   0.0000000), wk =   0.0014648
        k(   11) = (   0.1325825   0.0441942  -0.0441942), wk =   0.0058594
        k(   12) = (   0.1767767   0.0883883  -0.0883883), wk =   0.0058594
        k(   13) = (   0.2209709   0.1325825  -0.1325825), wk =   0.0058594
        k(   14) = (   0.2651650   0.1767767  -0.1767767), wk =   0.0058594
        k(   15) = (   0.3093592   0.2209709  -0.2209709), wk =   0.0058594
        k(   16) = (   0.3535534   0.2651650  -0.2651650), wk =   0.0058594
        k(   17) = (  -0.3093592  -0.3977476   0.3977476), wk =   0.0058594
        k(   18) = (  -0.2651650  -0.3535534   0.3535534), wk =   0.0058594
        k(   19) = (  -0.2209709  -0.3093592   0.3093592), wk =   0.0058594
        k(   20) = (  -0.1767767  -0.2651650   0.2651650), wk =   0.0058594
        k(   21) = (  -0.1325825  -0.2209709   0.2209709), wk =   0.0058594
        k(   22) = (  -0.0883883  -0.1767767   0.1767767), wk =   0.0058594
        k(   23) = (  -0.0441942  -0.1325825   0.1325825), wk =   0.0058594
        k(   24) = (   0.0000000  -0.0883883   0.0883883), wk =   0.0029297
        k(   25) = (   0.1767767   0.0000000   0.0000000), wk =   0.0014648
        k(   26) = (   0.2209709   0.0441942  -0.0441942), wk =   0.0058594
        k(   27) = (   0.2651650   0.0883883  -0.0883883), wk =   0.0058594
        k(   28) = (   0.3093592   0.1325825  -0.1325825), wk =   0.0058594
        k(   29) = (   0.3535534   0.1767767  -0.1767767), wk =   0.0058594
        k(   30) = (   0.3977476   0.2209709  -0.2209709), wk =   0.0058594
        k(   31) = (  -0.2651650  -0.4419417   0.4419417), wk =   0.0058594
        k(   32) = (  -0.2209709  -0.3977476   0.3977476), wk =   0.0058594
        k(   33) = (  -0.1767767  -0.3535534   0.3535534), wk =   0.0058594
        k(   34) = (  -0.1325825  -0.3093592   0.3093592), wk =   0.0058594
        k(   35) = (  -0.0883883  -0.2651650   0.2651650), wk =   0.0058594
        k(   36) = (  -0.0441942  -0.2209709   0.2209709), wk =   0.0058594
        k(   37) = (   0.0000000  -0.1767767   0.1767767), wk =   0.0029297
        k(   38) = (   0.2651650   0.0000000   0.0000000), wk =   0.0014648
        k(   39) = (   0.3093592   0.0441942  -0.0441942), wk =   0.0058594
        k(   40) = (   0.3535534   0.0883883  -0.0883883), wk =   0.0058594
        k(   41) = (   0.3977476   0.1325825  -0.1325825), wk =   0.0058594
        k(   42) = (   0.4419417   0.1767767  -0.1767767), wk =   0.0058594
        k(   43) = (  -0.2209709  -0.4861359   0.4861359), wk =   0.0058594
        k(   44) = (  -0.1767767  -0.4419417   0.4419417), wk =   0.0058594
        k(   45) = (  -0.1325825  -0.3977476   0.3977476), wk =   0.0058594
        k(   46) = (  -0.0883883  -0.3535534   0.3535534), wk =   0.0058594
        k(   47) = (  -0.0441942  -0.3093592   0.3093592), wk =   0.0058594
        k(   48) = (   0.0000000  -0.2651650   0.2651650), wk =   0.0029297
        k(   49) = (   0.3535534   0.0000000   0.0000000), wk =   0.0014648
        k(   50) = (   0.3977476   0.0441942  -0.0441942), wk =   0.0058594
        k(   51) = (   0.4419417   0.0883883  -0.0883883), wk =   0.0058594
        k(   52) = (   0.4861359   0.1325825  -0.1325825), wk =   0.0058594
        k(   53) = (  -0.1767767  -0.5303301   0.5303301), wk =   0.0058594
        k(   54) = (  -0.1325825  -0.4861359   0.4861359), wk =   0.0058594
        k(   55) = (  -0.0883883  -0.4419417   0.4419417), wk =   0.0058594
        k(   56) = (  -0.0441942  -0.3977476   0.3977476), wk =   0.0058594
        k(   57) = (   0.0000000  -0.3535534   0.3535534), wk =   0.0029297
        k(   58) = (   0.4419417   0.0000000   0.0000000), wk =   0.0014648
        k(   59) = (   0.4861359   0.0441942  -0.0441942), wk =   0.0058594
        k(   60) = (   0.5303301   0.0883883  -0.0883883), wk =   0.0058594
        k(   61) = (  -0.1325825  -0.5745243   0.5745243), wk =   0.0058594
        k(   62) = (  -0.0883883  -0.5303301   0.5303301), wk =   0.0058594
        k(   63) = (  -0.0441942  -0.4861359   0.4861359), wk =   0.0058594
        k(   64) = (   0.0000000  -0.4419417   0.4419417), wk =   0.0029297
        k(   65) = (   0.5303301   0.0000000   0.0000000), wk =   0.0014648
        k(   66) = (   0.5745243   0.0441942  -0.0441942), wk =   0.0058594
        k(   67) = (  -0.0883883  -0.6187184   0.6187184), wk =   0.0058594
        k(   68) = (  -0.0441942  -0.5745243   0.5745243), wk =   0.0058594
        k(   69) = (   0.0000000  -0.5303301   0.5303301), wk =   0.0029297
        k(   70) = (   0.6187184   0.0000000   0.0000000), wk =   0.0014648
        k(   71) = (  -0.0441942  -0.6629126   0.6629126), wk =   0.0058594
        k(   72) = (   0.0000000  -0.6187184   0.6187184), wk =   0.0029297
        k(   73) = (  -0.7071068   0.0000000   0.0000000), wk =   0.0007324
        k(   74) = (   0.1767767   0.0883883   0.0000000), wk =   0.0058594
        k(   75) = (   0.2209709   0.1325825  -0.0441942), wk =   0.0117188
        k(   76) = (   0.2651650   0.1767767  -0.0883883), wk =   0.0117188
        k(   77) = (   0.3093592   0.2209709  -0.1325825), wk =   0.0117188
        k(   78) = (   0.3535534   0.2651650  -0.1767767), wk =   0.0117188
        k(   79) = (  -0.3093592  -0.3977476   0.4861359), wk =   0.0117188
        k(   80) = (  -0.2651650  -0.3535534   0.4419417), wk =   0.0058594
        k(   81) = (   0.2651650   0.0883883   0.0000000), wk =   0.0058594
        k(   82) = (   0.3093592   0.1325825  -0.0441942), wk =   0.0117188
        k(   83) = (   0.3535534   0.1767767  -0.0883883), wk =   0.0117188
        k(   84) = (   0.3977476   0.2209709  -0.1325825), wk =   0.0117188
        k(   85) = (  -0.2651650  -0.4419417   0.5303301), wk =   0.0117188
        k(   86) = (  -0.2209709  -0.3977476   0.4861359), wk =   0.0117188
        k(   87) = (  -0.1767767  -0.3535534   0.4419417), wk =   0.0117188
        k(   88) = (  -0.1325825  -0.3093592   0.3977476), wk =   0.0117188
        k(   89) = (  -0.0883883  -0.2651650   0.3535534), wk =   0.0117188
        k(   90) = (  -0.0441942  -0.2209709   0.3093592), wk =   0.0117188
        k(   91) = (   0.0000000  -0.1767767   0.2651650), wk =   0.0058594
        k(   92) = (   0.3535534   0.0883883   0.0000000), wk =   0.0058594
        k(   93) = (   0.3977476   0.1325825  -0.0441942), wk =   0.0117188
        k(   94) = (   0.4419417   0.1767767  -0.0883883), wk =   0.0117188
        k(   95) = (  -0.2209709  -0.4861359   0.5745243), wk =   0.0117188
        k(   96) = (  -0.1767767  -0.4419417   0.5303301), wk =   0.0117188
        k(   97) = (  -0.1325825  -0.3977476   0.4861359), wk =   0.0117188
        k(   98) = (  -0.0883883  -0.3535534   0.4419417), wk =   0.0117188
        k(   99) = (  -0.0441942  -0.3093592   0.3977476), wk =   0.0117188
        k(  100) = (   0.0000000  -0.2651650   0.3535534), wk =   0.0058594
        k(  101) = (   0.4419417   0.0883883   0.0000000), wk =   0.0058594
        k(  102) = (   0.4861359   0.1325825  -0.0441942), wk =   0.0117188
        k(  103) = (  -0.1767767  -0.5303301   0.6187184), wk =   0.0117188
        k(  104) = (  -0.1325825  -0.4861359   0.5745243), wk =   0.0117188
        k(  105) = (  -0.0883883  -0.4419417   0.5303301), wk =   0.0117188
        k(  106) = (  -0.0441942  -0.3977476   0.4861359), wk =   0.0117188
        k(  107) = (   0.0000000  -0.3535534   0.4419417), wk =   0.0058594
        k(  108) = (   0.5303301   0.0883883   0.0000000), wk =   0.0058594
        k(  109) = (  -0.1325825  -0.5745243   0.6629126), wk =   0.0117188
        k(  110) = (  -0.0883883  -0.5303301   0.6187184), wk =   0.0117188
        k(  111) = (  -0.0441942  -0.4861359   0.5745243), wk =   0.0117188
        k(  112) = (   0.0000000  -0.4419417   0.5303301), wk =   0.0058594
        k(  113) = (  -0.0883883  -0.6187184   0.7071068), wk =   0.0058594
        k(  114) = (  -0.0441942  -0.5745243   0.6629126), wk =   0.0117188
        k(  115) = (  -0.0000000  -0.5303301   0.6187184), wk =   0.0058594
        k(  116) = (  -0.7071068   0.0883883   0.0000000), wk =   0.0029297
        k(  117) = (   0.3535534   0.1767767   0.0000000), wk =   0.0058594
        k(  118) = (   0.3977476   0.2209709  -0.0441942), wk =   0.0117188
        k(  119) = (  -0.2651650  -0.4419417   0.6187184), wk =   0.0117188
        k(  120) = (  -0.2209709  -0.3977476   0.5745243), wk =   0.0117188
        k(  121) = (  -0.1767767  -0.3535534   0.5303301), wk =   0.0058594
        k(  122) = (   0.4419417   0.1767767   0.0000000), wk =   0.0058594
        k(  123) = (  -0.2209709  -0.4861359   0.6629126), wk =   0.0117188
        k(  124) = (  -0.1767767  -0.4419417   0.6187184), wk =   0.0117188
        k(  125) = (  -0.1325825  -0.3977476   0.5745243), wk =   0.0117188
        k(  126) = (  -0.0883883  -0.3535534   0.5303301), wk =   0.0117188
        k(  127) = (  -0.0441942  -0.3093592   0.4861359), wk =   0.0117188
        k(  128) = (   0.0000000  -0.2651650   0.4419417), wk =   0.0058594
        k(  129) = (  -0.1767767  -0.5303301   0.7071068), wk =   0.0058594
        k(  130) = (  -0.1325825  -0.4861359   0.6629126), wk =   0.0117188
        k(  131) = (  -0.0883883  -0.4419417   0.6187184), wk =   0.0117188
        k(  132) = (  -0.0441942  -0.3977476   0.5745243), wk =   0.0117188
        k(  133) = (   0.0000000  -0.3535534   0.5303301), wk =   0.0058594
        k(  134) = (  -0.0883883  -0.5303301   0.7071068), wk =   0.0058594
        k(  135) = (  -0.0441942  -0.4861359   0.6629126), wk =   0.0117188
        k(  136) = (   0.0000000  -0.4419417   0.6187184), wk =   0.0058594
        k(  137) = (  -0.7071068   0.1767767   0.0000000), wk =   0.0029297
        k(  138) = (  -0.1767767  -0.4419417   0.7071068), wk =   0.0058594
        k(  139) = (  -0.1325825  -0.3977476   0.6629126), wk =   0.0117188
        k(  140) = (  -0.0883883  -0.3535534   0.6187184), wk =   0.0058594
        k(  141) = (  -0.0883883  -0.4419417   0.7071068), wk =   0.0058594
        k(  142) = (  -0.0441942  -0.3977476   0.6629126), wk =   0.0117188
        k(  143) = (  -0.0000000  -0.3535534   0.6187184), wk =   0.0058594
        k(  144) = (  -0.7071068   0.2651650   0.0000000), wk =   0.0029297
        k(  145) = (  -0.7071068   0.3535534   0.0000000), wk =   0.0014648

                       cryst. coord.
        k(    1) = (   0.0000000   0.0000000   0.0000000), wk =   0.0002441
        k(    2) = (   0.0000000   0.0000000   0.0625000), wk =   0.0019531
        k(    3) = (   0.0000000   0.0000000   0.1250000), wk =   0.0019531
        k(    4) = (   0.0000000   0.0000000   0.1875000), wk =   0.0019531
        k(    5) = (   0.0000000   0.0000000   0.2500000), wk =   0.0019531
        k(    6) = (   0.0000000   0.0000000   0.3125000), wk =   0.0019531
        k(    7) = (   0.0000000   0.0000000   0.3750000), wk =   0.0019531
        k(    8) = (   0.0000000   0.0000000   0.4375000), wk =   0.0019531
        k(    9) = (   0.0000000   0.0000000  -0.5000000), wk =   0.0009766
        k(   10) = (   0.0000000   0.0625000   0.0625000), wk =   0.0014648
        k(   11) = (   0.0000000   0.0625000   0.1250000), wk =   0.0058594
        k(   12) = (   0.0000000   0.0625000   0.1875000), wk =   0.0058594
        k(   13) = (   0.0000000   0.0625000   0.2500000), wk =   0.0058594
        k(   14) = (   0.0000000   0.0625000   0.3125000), wk =   0.0058594
        k(   15) = (   0.0000000   0.0625000   0.3750000), wk =   0.0058594
        k(   16) = (   0.0000000   0.0625000   0.4375000), wk =   0.0058594
        k(   17) = (   0.0000000   0.0625000  -0.5000000), wk =   0.0058594
        k(   18) = (   0.0000000   0.0625000  -0.4375000), wk =   0.0058594
        k(   19) = (   0.0000000   0.0625000  -0.3750000), wk =   0.0058594
        k(   20) = (   0.0000000   0.0625000  -0.3125000), wk =   0.0058594
        k(   21) = (   0.0000000   0.0625000  -0.2500000), wk =   0.0058594
        k(   22) = (   0.0000000   0.0625000  -0.1875000), wk =   0.0058594
        k(   23) = (   0.0000000   0.0625000  -0.1250000), wk =   0.0058594
        k(   24) = (   0.0000000   0.0625000  -0.0625000), wk =   0.0029297
        k(   25) = (   0.0000000   0.1250000   0.1250000), wk =   0.0014648
        k(   26) = (   0.0000000   0.1250000   0.1875000), wk =   0.0058594
        k(   27) = (   0.0000000   0.1250000   0.2500000), wk =   0.0058594
        k(   28) = (   0.0000000   0.1250000   0.3125000), wk =   0.0058594
        k(   29) = (   0.0000000   0.1250000   0.3750000), wk =   0.0058594
        k(   30) = (   0.0000000   0.1250000   0.4375000), wk =   0.0058594
        k(   31) = (   0.0000000   0.1250000  -0.5000000), wk =   0.0058594
        k(   32) = (   0.0000000   0.1250000  -0.4375000), wk =   0.0058594
        k(   33) = (   0.0000000   0.1250000  -0.3750000), wk =   0.0058594
        k(   34) = (   0.0000000   0.1250000  -0.3125000), wk =   0.0058594
        k(   35) = (   0.0000000   0.1250000  -0.2500000), wk =   0.0058594
        k(   36) = (   0.0000000   0.1250000  -0.1875000), wk =   0.0058594
        k(   37) = (   0.0000000   0.1250000  -0.1250000), wk =   0.0029297
        k(   38) = (   0.0000000   0.1875000   0.1875000), wk =   0.0014648
        k(   39) = (   0.0000000   0.1875000   0.2500000), wk =   0.0058594
        k(   40) = (   0.0000000   0.1875000   0.3125000), wk =   0.0058594
        k(   41) = (   0.0000000   0.1875000   0.3750000), wk =   0.0058594
        k(   42) = (   0.0000000   0.1875000   0.4375000), wk =   0.0058594
        k(   43) = (   0.0000000   0.1875000  -0.5000000), wk =   0.0058594
        k(   44) = (   0.0000000   0.1875000  -0.4375000), wk =   0.0058594
        k(   45) = (   0.0000000   0.1875000  -0.3750000), wk =   0.0058594
        k(   46) = (   0.0000000   0.1875000  -0.3125000), wk =   0.0058594
        k(   47) = (   0.0000000   0.1875000  -0.2500000), wk =   0.0058594
        k(   48) = (   0.0000000   0.1875000  -0.1875000), wk =   0.0029297
        k(   49) = (   0.0000000   0.2500000   0.2500000), wk =   0.0014648
        k(   50) = (   0.0000000   0.2500000   0.3125000), wk =   0.0058594
        k(   51) = (   0.0000000   0.2500000   0.3750000), wk =   0.0058594
        k(   52) = (   0.0000000   0.2500000   0.4375000), wk =   0.0058594
        k(   53) = (   0.0000000   0.2500000  -0.5000000), wk =   0.0058594
        k(   54) = (   0.0000000   0.2500000  -0.4375000), wk =   0.0058594
        k(   55) = (   0.0000000   0.2500000  -0.3750000), wk =   0.0058594
        k(   56) = (   0.0000000   0.2500000  -0.3125000), wk =   0.0058594
        k(   57) = (   0.0000000   0.2500000  -0.2500000), wk =   0.0029297
        k(   58) = (   0.0000000   0.3125000   0.3125000), wk =   0.0014648
        k(   59) = (   0.0000000   0.3125000   0.3750000), wk =   0.0058594
        k(   60) = (   0.0000000   0.3125000   0.4375000), wk =   0.0058594
        k(   61) = (   0.0000000   0.3125000  -0.5000000), wk =   0.0058594
        k(   62) = (   0.0000000   0.3125000  -0.4375000), wk =   0.0058594
        k(   63) = (   0.0000000   0.3125000  -0.3750000), wk =   0.0058594
        k(   64) = (   0.0000000   0.3125000  -0.3125000), wk =   0.0029297
        k(   65) = (   0.0000000   0.3750000   0.3750000), wk =   0.0014648
        k(   66) = (   0.0000000   0.3750000   0.4375000), wk =   0.0058594
        k(   67) = (   0.0000000   0.3750000  -0.5000000), wk =   0.0058594
        k(   68) = (   0.0000000   0.3750000  -0.4375000), wk =   0.0058594
        k(   69) = (   0.0000000   0.3750000  -0.3750000), wk =   0.0029297
        k(   70) = (   0.0000000   0.4375000   0.4375000), wk =   0.0014648
        k(   71) = (   0.0000000   0.4375000  -0.5000000), wk =   0.0058594
        k(   72) = (   0.0000000   0.4375000  -0.4375000), wk =   0.0029297
        k(   73) = (   0.0000000  -0.5000000  -0.5000000), wk =   0.0007324
        k(   74) = (   0.0625000   0.1250000   0.1875000), wk =   0.0058594
        k(   75) = (   0.0625000   0.1250000   0.2500000), wk =   0.0117188
        k(   76) = (   0.0625000   0.1250000   0.3125000), wk =   0.0117188
        k(   77) = (   0.0625000   0.1250000   0.3750000), wk =   0.0117188
        k(   78) = (   0.0625000   0.1250000   0.4375000), wk =   0.0117188
        k(   79) = (   0.0625000   0.1250000  -0.5000000), wk =   0.0117188
        k(   80) = (   0.0625000   0.1250000  -0.4375000), wk =   0.0058594
        k(   81) = (   0.0625000   0.1875000   0.2500000), wk =   0.0058594
        k(   82) = (   0.0625000   0.1875000   0.3125000), wk =   0.0117188
        k(   83) = (   0.0625000   0.1875000   0.3750000), wk =   0.0117188
        k(   84) = (   0.0625000   0.1875000   0.4375000), wk =   0.0117188
        k(   85) = (   0.0625000   0.1875000  -0.5000000), wk =   0.0117188
        k(   86) = (   0.0625000   0.1875000  -0.4375000), wk =   0.0117188
        k(   87) = (   0.0625000   0.1875000  -0.3750000), wk =   0.0117188
        k(   88) = (   0.0625000   0.1875000  -0.3125000), wk =   0.0117188
        k(   89) = (   0.0625000   0.1875000  -0.2500000), wk =   0.0117188
        k(   90) = (   0.0625000   0.1875000  -0.1875000), wk =   0.0117188
        k(   91) = (   0.0625000   0.1875000  -0.1250000), wk =   0.0058594
        k(   92) = (   0.0625000   0.2500000   0.3125000), wk =   0.0058594
        k(   93) = (   0.0625000   0.2500000   0.3750000), wk =   0.0117188
        k(   94) = (   0.0625000   0.2500000   0.4375000), wk =   0.0117188
        k(   95) = (   0.0625000   0.2500000  -0.5000000), wk =   0.0117188
        k(   96) = (   0.0625000   0.2500000  -0.4375000), wk =   0.0117188
        k(   97) = (   0.0625000   0.2500000  -0.3750000), wk =   0.0117188
        k(   98) = (   0.0625000   0.2500000  -0.3125000), wk =   0.0117188
        k(   99) = (   0.0625000   0.2500000  -0.2500000), wk =   0.0117188
        k(  100) = (   0.0625000   0.2500000  -0.1875000), wk =   0.0058594
        k(  101) = (   0.0625000   0.3125000   0.3750000), wk =   0.0058594
        k(  102) = (   0.0625000   0.3125000   0.4375000), wk =   0.0117188
        k(  103) = (   0.0625000   0.3125000  -0.5000000), wk =   0.0117188
        k(  104) = (   0.0625000   0.3125000  -0.4375000), wk =   0.0117188
        k(  105) = (   0.0625000   0.3125000  -0.3750000), wk =   0.0117188
        k(  106) = (   0.0625000   0.3125000  -0.3125000), wk =   0.0117188
        k(  107) = (   0.0625000   0.3125000  -0.2500000), wk =   0.0058594
        k(  108) = (   0.0625000   0.3750000   0.4375000), wk =   0.0058594
        k(  109) = (   0.0625000   0.3750000  -0.5000000), wk =   0.0117188
        k(  110) = (   0.0625000   0.3750000  -0.4375000), wk =   0.0117188
        k(  111) = (   0.0625000   0.3750000  -0.3750000), wk =   0.0117188
        k(  112) = (   0.0625000   0.3750000  -0.3125000), wk =   0.0058594
        k(  113) = (   0.0625000   0.4375000  -0.5000000), wk =   0.0058594
        k(  114) = (   0.0625000   0.4375000  -0.4375000), wk =   0.0117188
        k(  115) = (   0.0625000   0.4375000  -0.3750000), wk =   0.0058594
        k(  116) = (   0.0625000  -0.5000000  -0.4375000), wk =   0.0029297
        k(  117) = (   0.1250000   0.2500000   0.3750000), wk =   0.0058594
        k(  118) = (   0.1250000   0.2500000   0.4375000), wk =   0.0117188
        k(  119) = (   0.1250000   0.2500000  -0.5000000), wk =   0.0117188
        k(  120) = (   0.1250000   0.2500000  -0.4375000), wk =   0.0117188
        k(  121) = (   0.1250000   0.2500000  -0.3750000), wk =   0.0058594
        k(  122) = (   0.1250000   0.3125000   0.4375000), wk =   0.0058594
        k(  123) = (   0.1250000   0.3125000  -0.5000000), wk =   0.0117188
        k(  124) = (   0.1250000   0.3125000  -0.4375000), wk =   0.0117188
        k(  125) = (   0.1250000   0.3125000  -0.3750000), wk =   0.0117188
        k(  126) = (   0.1250000   0.3125000  -0.3125000), wk =   0.0117188
        k(  127) = (   0.1250000   0.3125000  -0.2500000), wk =   0.0117188
        k(  128) = (   0.1250000   0.3125000  -0.1875000), wk =   0.0058594
        k(  129) = (   0.1250000   0.3750000  -0.5000000), wk =   0.0058594
        k(  130) = (   0.1250000   0.3750000  -0.4375000), wk =   0.0117188
        k(  131) = (   0.1250000   0.3750000  -0.3750000), wk =   0.0117188
        k(  132) = (   0.1250000   0.3750000  -0.3125000), wk =   0.0117188
        k(  133) = (   0.1250000   0.3750000  -0.2500000), wk =   0.0058594
        k(  134) = (   0.1250000   0.4375000  -0.4375000), wk =   0.0058594
        k(  135) = (   0.1250000   0.4375000  -0.3750000), wk =   0.0117188
        k(  136) = (   0.1250000   0.4375000  -0.3125000), wk =   0.0058594
        k(  137) = (   0.1250000  -0.5000000  -0.3750000), wk =   0.0029297
        k(  138) = (   0.1875000   0.3750000  -0.4375000), wk =   0.0058594
        k(  139) = (   0.1875000   0.3750000  -0.3750000), wk =   0.0117188
        k(  140) = (   0.1875000   0.3750000  -0.3125000), wk =   0.0058594
        k(  141) = (   0.1875000   0.4375000  -0.3750000), wk =   0.0058594
        k(  142) = (   0.1875000   0.4375000  -0.3125000), wk =   0.0117188
        k(  143) = (   0.1875000   0.4375000  -0.2500000), wk =   0.0058594
        k(  144) = (   0.1875000  -0.5000000  -0.3125000), wk =   0.0029297
        k(  145) = (   0.2500000  -0.5000000  -0.2500000), wk =   0.0014648

     Dense  grid:    48359 G-vectors     FFT dimensions: (  54,  54,  54)

     Largest allocated arrays     est. size (Mb)     dimensions
        Kohn-Sham Wavefunctions         0.43 Mb     (     774,   36)
        NL pseudopotentials             0.21 Mb     (     387,   36)
        Each V/rho on FFT grid          0.18 Mb     (   11664)
        Each G-vector array             0.02 Mb     (    3024)
        G-vector shells                 0.00 Mb     (     421)
     Largest temporary arrays     est. size (Mb)     dimensions
        Auxiliary wavefunctions         1.70 Mb     (     774,  144)
        Each subspace H/S matrix        0.32 Mb     (     144,  144)
        Each <psi_i|beta_j> matrix      0.04 Mb     (      36,   2,   36)
        Arrays for rho mixing           1.42 Mb     (   11664,    8)

     Initial potential from superposition of free atoms

     starting charge   27.99723, renormalised to   28.00000
     Starting wfc are   36 randomized atomic wfcs
     Checking if some PAW data can be deallocated... 

     total cpu time spent up to now is       17.2 secs

     Self-consistent Calculation

     iteration #  1     ecut=    80.00 Ry     beta=0.70
     Davidson diagonalization with overlap
     ethr =  1.00E-02,  avg # of iterations =  3.4

     Threshold (ethr) on eigenvalues was too large:
     Diagonalizing with lowered threshold

     Davidson diagonalization with overlap
     ethr =  6.63E-05,  avg # of iterations =  3.3

     total cpu time spent up to now is      111.6 secs

     total energy              =    -884.12151176 Ry
     Harris-Foulkes estimate   =    -884.12491599 Ry
     estimated scf accuracy    <       0.02229754 Ry

     iteration #  2     ecut=    80.00 Ry     beta=0.70
     Davidson diagonalization with overlap
     ethr =  7.96E-05,  avg # of iterations =  1.0

     total cpu time spent up to now is      149.1 secs

     total energy              =    -884.12239016 Ry
     Harris-Foulkes estimate   =    -884.12245369 Ry
     estimated scf accuracy    <       0.00159895 Ry

     iteration #  3     ecut=    80.00 Ry     beta=0.70
     Davidson diagonalization with overlap
     ethr =  5.71E-06,  avg # of iterations =  2.5

     total cpu time spent up to now is      200.0 secs

     total energy              =    -884.12264900 Ry
     Harris-Foulkes estimate   =    -884.12267935 Ry
     estimated scf accuracy    <       0.00006778 Ry

     iteration #  4     ecut=    80.00 Ry     beta=0.70
     Davidson diagonalization with overlap
     ethr =  2.42E-07,  avg # of iterations =  2.0

     total cpu time spent up to now is      249.8 secs

     total energy              =    -884.12267024 Ry
     Harris-Foulkes estimate   =    -884.12266853 Ry
     estimated scf accuracy    <       0.00000469 Ry

     iteration #  5     ecut=    80.00 Ry     beta=0.70
     Davidson diagonalization with overlap
     ethr =  1.68E-08,  avg # of iterations =  2.0

     total cpu time spent up to now is      291.5 secs

     End of self-consistent calculation

          k = 0.0000 0.0000 0.0000 (  5985 PWs)   bands (ev):

   -14.6619 -14.6619 -14.6619 -14.6619 -14.6619 -14.6619 -14.6141 -14.6141
   -14.6141 -14.6141 -14.3653 -14.3653 -14.3653 -14.3653 -14.3652 -14.3652
   -14.3652 -14.3652 -14.3652 -14.3652  -3.1869  -3.1869   5.6997   5.6997
     6.9822   6.9822   6.9822   6.9822   6.9822   6.9822   9.0474   9.0474
     9.0474   9.0474   9.0474   9.0474

     occupation numbers 
     1.0000   1.0000   1.0000   1.0000   1.0000   1.0000   1.0000   1.0000
     1.0000   1.0000   1.0000   1.0000   1.0000   1.0000   1.0000   1.0000
     1.0000   1.0000   1.0000   1.0000   1.0000   1.0000   1.0000   1.0000
     0.0000   0.0000   0.0000   0.0000   0.0000   0.0000   0.0000   0.0000
     0.0000   0.0000   0.0000   0.0000

          k = 0.0442 0.0442-0.0442 (  6048 PWs)   bands (ev):

   -14.6645 -14.6645 -14.6645 -14.6645 -14.6611 -14.6611 -14.6106 -14.6106
   -14.6106 -14.6106 -14.3760 -14.3760 -14.3760 -14.3760 -14.3662 -14.3662
   -14.3552 -14.3552 -14.3552 -14.3552  -3.1522  -3.1522   5.3054   5.3054
     6.9098   6.9098   6.9098   6.9098   7.1639   7.1639   9.1422   9.1422
     9.1422   9.1422   9.1764   9.1764

     occupation numbers 
     1.0000   1.0000   1.0000   1.0000   1.0000   1.0000   1.0000   1.0000
     1.0000   1.0000   1.0000   1.0000   1.0000   1.0000   1.0000   1.0000
     1.0000   1.0000   1.0000   1.0000   1.0000   1.0000   1.0000   1.0000
     0.0240   0.0240   0.0240   0.0240   0.0000   0.0000   0.0000   0.0000
     0.0000   0.0000   0.0000   0.0000

          k = 0.0884 0.0884-0.0884 (  6051 PWs)   bands (ev):

   -14.6704 -14.6704 -14.6704 -14.6704 -14.6587 -14.6587 -14.6022 -14.6022
   -14.6022 -14.6022 -14.3866 -14.3866 -14.3866 -14.3866 -14.3690 -14.3690
   -14.3461 -14.3461 -14.3461 -14.3461  -3.0487  -3.0487   4.5452   4.5452
     6.7324   6.7324   6.7324   6.7324   7.2937   7.2937   9.3762   9.3762
     9.3762   9.3762   9.6085   9.6085

     occupation numbers 
     1.0000   1.0000   1.0000   1.0000   1.0000   1.0000   1.0000   1.0000
     1.0000   1.0000   1.0000   1.0000   1.0000   1.0000   1.0000   1.0000
     1.0000   1.0000   1.0000   1.0000   1.0000   1.0000   1.0000   1.0000
     1.0000   1.0000   1.0000   1.0000   0.0000   0.0000   0.0000   0.0000
     0.0000   0.0000   0.0000   0.0000

          k = 0.1326 0.1326-0.1326 (  6048 PWs)   bands (ev):

   -14.6767 -14.6767 -14.6767 -14.6767 -14.6551 -14.6551 -14.5923 -14.5923
   -14.5923 -14.5923 -14.3965 -14.3965 -14.3965 -14.3965 -14.3732 -14.3732
   -14.3384 -14.3384 -14.3384 -14.3384  -2.8795  -2.8795   3.7159   3.7159
     6.5178   6.5178   6.5178   6.5178   7.2306   7.2306   9.6516   9.6516
     9.6516   9.6516  10.2885  10.2885

     occupation numbers 
     1.0000   1.0000   1.0000   1.0000   1.0000   1.0000   1.0000   1.0000
     1.0000   1.0000   1.0000   1.0000   1.0000   1.0000   1.0000   1.0000
     1.0000   1.0000   1.0000   1.0000   1.0000   1.0000   1.0000   1.0000
     1.0000   1.0000   1.0000   1.0000   0.0000   0.0000   0.0000   0.0000
     0.0000   0.0000   0.0000   0.0000

          k = 0.1768 0.1768-0.1768 (  6057 PWs)   bands (ev):

   -14.6822 -14.6822 -14.6822 -14.6822 -14.6508 -14.6508 -14.5829 -14.5829
   -14.5829 -14.5829 -14.4050 -14.4050 -14.4050 -14.4050 -14.3783 -14.3783
   -14.3323 -14.3323 -14.3323 -14.3323  -2.6509  -2.6509   2.9047   2.9047
     6.3112   6.3112   6.3112   6.3112   7.0909   7.0909   9.8823   9.8823
     9.8823   9.8823  11.0972  11.0972

     occupation numbers 
     1.0000   1.0000   1.0000   1.0000   1.0000   1.0000   1.0000   1.0000
     1.0000   1.0000   1.0000   1.0000   1.0000   1.0000   1.0000   1.0000
     1.0000   1.0000   1.0000   1.0000   1.0000   1.0000   1.0000   1.0000
     1.0000   1.0000   1.0000   1.0000   0.0000   0.0000   0.0000   0.0000
     0.0000   0.0000   0.0000   0.0000

          k = 0.2210 0.2210-0.2210 (  6057 PWs)   bands (ev):

   -14.6863 -14.6863 -14.6863 -14.6863 -14.6464 -14.6464 -14.5753 -14.5753
   -14.5753 -14.5753 -14.4115 -14.4115 -14.4115 -14.4115 -14.3835 -14.3835
   -14.3277 -14.3277 -14.3277 -14.3277  -2.3759  -2.3759   2.1568   2.1568
     6.1364   6.1364   6.1364   6.1364   6.9492   6.9492  10.0222  10.0222
    10.0222  10.0222  11.9618  11.9618

     occupation numbers 
     1.0000   1.0000   1.0000   1.0000   1.0000   1.0000   1.0000   1.0000
     1.0000   1.0000   1.0000   1.0000   1.0000   1.0000   1.0000   1.0000
     1.0000   1.0000   1.0000   1.0000   1.0000   1.0000   1.0000   1.0000
     1.0000   1.0000   1.0000   1.0000   0.0000   0.0000   0.0000   0.0000
     0.0000   0.0000   0.0000   0.0000

          k = 0.2652 0.2652-0.2652 (  6077 PWs)   bands (ev):

   -14.6890 -14.6890 -14.6890 -14.6890 -14.6425 -14.6425 -14.5699 -14.5699
   -14.5699 -14.5699 -14.4158 -14.4158 -14.4158 -14.4158 -14.3881 -14.3881
   -14.3247 -14.3247 -14.3247 -14.3247  -2.0827  -2.0827   1.5171   1.5171
     6.0057   6.0057   6.0057   6.0057   6.8366   6.8366  10.0794  10.0794
    10.0794  10.0794  12.6244  12.6244

     occupation numbers 
     1.0000   1.0000   1.0000   1.0000   1.0000   1.0000   1.0000   1.0000
     1.0000   1.0000   1.0000   1.0000   1.0000   1.0000   1.0000   1.0000
     1.0000   1.0000   1.0000   1.0000   1.0000   1.0000   1.0000   1.0000
     1.0000   1.0000   1.0000   1.0000   1.0000   1.0000   0.0000   0.0000
     0.0000   0.0000   0.0000   0.0000

          k = 0.3094 0.3094-0.3094 (  6056 PWs)   bands (ev):

   -14.6905 -14.6905 -14.6905 -14.6905 -14.6399 -14.6399 -14.5668 -14.5668
   -14.5668 -14.5668 -14.4182 -14.4182 -14.4182 -14.4182 -14.3912 -14.3912
   -14.3229 -14.3229 -14.3229 -14.3229  -1.8313  -1.8313   1.0546   1.0546
     5.9253   5.9253   5.9253   5.9253   6.7658   6.7658  10.0919  10.0919
    10.0919  10.0919  12.6493  12.6493

     occupation numbers 
     1.0000   1.0000   1.0000   1.0000   1.0000   1.0000   1.0000   1.0000
     1.0000   1.0000   1.0000   1.0000   1.0000   1.0000   1.0000   1.0000
     1.0000   1.0000   1.0000   1.0000   1.0000   1.0000   1.0000   1.0000
     1.0000   1.0000   1.0000   1.0000   1.0000   1.0000   0.0000   0.0000
     0.0000   0.0000   0.0000   0.0000

          k =-0.3536-0.3536 0.3536 (  6062 PWs)   bands (ev):

   -14.6910 -14.6910 -14.6910 -14.6910 -14.6390 -14.6390 -14.5659 -14.5659
   -14.5659 -14.5659 -14.4189 -14.4189 -14.4189 -14.4189 -14.3923 -14.3923
   -14.3224 -14.3224 -14.3224 -14.3224  -1.7250  -1.7250   0.8775   0.8775
     5.8982   5.8982   5.8982   5.8982   6.7417   6.7417  10.0922  10.0922
    10.0922  10.0922  12.6242  12.6242

     occupation numbers 
     1.0000   1.0000   1.0000   1.0000   1.0000   1.0000   1.0000   1.0000
     1.0000   1.0000   1.0000   1.0000   1.0000   1.0000   1.0000   1.0000
     1.0000   1.0000   1.0000   1.0000   1.0000   1.0000   1.0000   1.0000
     1.0000   1.0000   1.0000   1.0000   1.0000   1.0000   0.0000   0.0000
     0.0000   0.0000   0.0000   0.0000

          k = 0.0884 0.0000 0.0000 (  6038 PWs)   bands (ev):

   -14.6641 -14.6641 -14.6637 -14.6637 -14.6637 -14.6637 -14.6116 -14.6116
   -14.6070 -14.6070 -14.3851 -14.3851 -14.3677 -14.3677 -14.3627 -14.3627
   -14.3627 -14.3627 -14.3511 -14.3511  -3.1405  -3.1405   5.2254   5.2254
     6.7771   6.7771   6.7771   6.7771   7.4373   7.4373   8.9025   8.9025
     9.3119   9.3119   9.3119   9.3119

     occupation numbers 
     1.0000   1.0000   1.0000   1.0000   1.0000   1.0000   1.0000   1.0000
     1.0000   1.0000   1.0000   1.0000   1.0000   1.0000   1.0000   1.0000
     1.0000   1.0000   1.0000   1.0000   1.0000   1.0000   1.0000   1.0000
     1.0000   1.0000   1.0000   1.0000   0.0000   0.0000   0.0000   0.0000
     0.0000   0.0000   0.0000   0.0000

          k = 0.1326 0.0442-0.0442 (  6057 PWs)   bands (ev):

   -14.6702 -14.6702 -14.6675 -14.6675 -14.6616 -14.6616 -14.6064 -14.6064
   -14.5984 -14.5984 -14.3964 -14.3964 -14.3766 -14.3766 -14.3629 -14.3629
   -14.3542 -14.3542 -14.3441 -14.3441  -3.0598  -3.0598   4.6618   4.6618
     6.5694   6.5694   6.6006   6.6006   7.6900   7.6900   8.9013   8.9013
     9.5948   9.5948   9.6684   9.6684

     occupation numbers 
     1.0000   1.0000   1.0000   1.0000   1.0000   1.0000   1.0000   1.0000
     1.0000   1.0000   1.0000   1.0000   1.0000   1.0000   1.0000   1.0000
     1.0000   1.0000   1.0000   1.0000   1.0000   1.0000   1.0000   1.0000
     1.0000   1.0000   1.0000   1.0000   0.0000   0.0000   0.0000   0.0000
     0.0000   0.0000   0.0000   0.0000

          k = 0.1768 0.0884-0.0884 (  6045 PWs)   bands (ev):

   -14.6775 -14.6775 -14.6733 -14.6733 -14.6575 -14.6575 -14.5978 -14.5978
   -14.5880 -14.5880 -14.4072 -14.4072 -14.3867 -14.3867 -14.3669 -14.3669
   -14.3454 -14.3454 -14.3363 -14.3363  -2.9120  -2.9120   3.9085   3.9085
     6.3471   6.3471   6.3833   6.3833   7.7085   7.7085   9.1282   9.1282
     9.9005   9.9005  10.2198  10.2198

     occupation numbers 
     1.0000   1.0000   1.0000   1.0000   1.0000   1.0000   1.0000   1.0000
     1.0000   1.0000   1.0000   1.0000   1.0000   1.0000   1.0000   1.0000
     1.0000   1.0000   1.0000   1.0000   1.0000   1.0000   1.0000   1.0000
     1.0000   1.0000   1.0000   1.0000   0.0000   0.0000   0.0000   0.0000
     0.0000   0.0000   0.0000   0.0000

          k = 0.2210 0.1326-0.1326 (  6053 PWs)   bands (ev):

   -14.6840 -14.6840 -14.6790 -14.6790 -14.6522 -14.6522 -14.5885 -14.5885
   -14.5779 -14.5779 -14.4162 -14.4162 -14.3961 -14.3961 -14.3730 -14.3730
   -14.3380 -14.3380 -14.3294 -14.3294  -2.7022  -2.7022   3.1206   3.1206
     6.1428   6.1428   6.1469   6.1469   7.5938   7.5938   9.4407   9.4407
    10.1481  10.1481  10.8645  10.8645

     occupation numbers 
     1.0000   1.0000   1.0000   1.0000   1.0000   1.0000   1.0000   1.0000
     1.0000   1.0000   1.0000   1.0000   1.0000   1.0000   1.0000   1.0000
     1.0000   1.0000   1.0000   1.0000   1.0000   1.0000   1.0000   1.0000
     1.0000   1.0000   1.0000   1.0000   0.0000   0.0000   0.0000   0.0000
     0.0000   0.0000   0.0000   0.0000

          k = 0.2652 0.1768-0.1768 (  6054 PWs)   bands (ev):

   -14.6893 -14.6893 -14.6838 -14.6838 -14.6463 -14.6463 -14.5799 -14.5799
   -14.5697 -14.5697 -14.4226 -14.4226 -14.4043 -14.4043 -14.3801 -14.3801
   -14.3319 -14.3319 -14.3240 -14.3240  -2.4406  -2.4406   2.3672   2.3672
     5.9176   5.9176   5.9878   5.9878   7.4486   7.4486   9.7014   9.7014
    10.2865  10.2865  11.5432  11.5433

     occupation numbers 
     1.0000   1.0000   1.0000   1.0000   1.0000   1.0000   1.0000   1.0000
     1.0000   1.0000   1.0000   1.0000   1.0000   1.0000   1.0000   1.0000
     1.0000   1.0000   1.0000   1.0000   1.0000   1.0000   1.0000   1.0000
     1.0000   1.0000   1.0000   1.0000   0.0000   0.0000   0.0000   0.0000
     0.0000   0.0000   0.0000   0.0000

          k = 0.3094 0.2210-0.2210 (  6068 PWs)   bands (ev):

   -14.6929 -14.6929 -14.6875 -14.6875 -14.6406 -14.6406 -14.5729 -14.5729
   -14.5645 -14.5645 -14.4257 -14.4257 -14.4111 -14.4111 -14.3872 -14.3872
   -14.3273 -14.3273 -14.3202 -14.3202  -2.1486  -2.1486   1.6970   1.6970
     5.7293   5.7293   5.8794   5.8794   7.3192   7.3192   9.8608   9.8608
    10.3185  10.3185  12.2121  12.2121

     occupation numbers 
     1.0000   1.0000   1.0000   1.0000   1.0000   1.0000   1.0000   1.0000
     1.0000   1.0000   1.0000   1.0000   1.0000   1.0000   1.0000   1.0000
     1.0000   1.0000   1.0000   1.0000   1.0000   1.0000   1.0000   1.0000
     1.0000   1.0000   1.0000   1.0000   0.0000   0.0000   0.0000   0.0000
     0.0000   0.0000   0.0000   0.0000

          k = 0.3536 0.2652-0.2652 (  6053 PWs)   bands (ev):

   -14.6949 -14.6949 -14.6901 -14.6901 -14.6361 -14.6361 -14.5674 -14.5674
   -14.5624 -14.5624 -14.4256 -14.4256 -14.4165 -14.4165 -14.3932 -14.3932
   -14.3238 -14.3238 -14.3181 -14.3181  -1.8730  -1.8730   1.1711   1.1711
     5.5888   5.5888   5.8264   5.8264   7.2249   7.2249   9.9478   9.9478
    10.2854  10.2854  12.6444  12.6444

     occupation numbers 
     1.0000   1.0000   1.0000   1.0000   1.0000   1.0000   1.0000   1.0000
     1.0000   1.0000   1.0000   1.0000   1.0000   1.0000   1.0000   1.0000
     1.0000   1.0000   1.0000   1.0000   1.0000   1.0000   1.0000   1.0000
     1.0000   1.0000   1.0000   1.0000   0.0000   0.0000   0.0000   0.0000
     0.0000   0.0000   0.0000   0.0000

          k =-0.3094-0.3977 0.3977 (  6060 PWs)   bands (ev):

   -14.6955 -14.6955 -14.6917 -14.6917 -14.6336 -14.6336 -14.5638 -14.5638
   -14.5630 -14.5630 -14.4229 -14.4229 -14.4207 -14.4207 -14.3969 -14.3969
   -14.3216 -14.3216 -14.3177 -14.3177  -1.7053  -1.7053   0.8884   0.8884
     5.5021   5.5021   5.8301   5.8301   7.1740   7.1740  10.0087  10.0087
    10.2278  10.2278  12.7381  12.7381

     occupation numbers 
     1.0000   1.0000   1.0000   1.0000   1.0000   1.0000   1.0000   1.0000
     1.0000   1.0000   1.0000   1.0000   1.0000   1.0000   1.0000   1.0000
     1.0000   1.0000   1.0000   1.0000   1.0000   1.0000   1.0000   1.0000
     1.0000   1.0000   1.0000   1.0000   0.0000   0.0000   0.0000   0.0000
     0.0000   0.0000   0.0000   0.0000

          k =-0.2652-0.3536 0.3536 (  6070 PWs)   bands (ev):

   -14.6946 -14.6946 -14.6924 -14.6924 -14.6337 -14.6337 -14.5657 -14.5657
   -14.5620 -14.5620 -14.4233 -14.4233 -14.4190 -14.4190 -14.3974 -14.3974
   -14.3205 -14.3205 -14.3191 -14.3191  -1.7422  -1.7422   0.9486   0.9486
     5.4729   5.4729   5.8895   5.8895   7.1697   7.1697  10.0685  10.0685
    10.1654  10.1654  12.7509  12.7509

     occupation numbers 
     1.0000   1.0000   1.0000   1.0000   1.0000   1.0000   1.0000   1.0000
     1.0000   1.0000   1.0000   1.0000   1.0000   1.0000   1.0000   1.0000
     1.0000   1.0000   1.0000   1.0000   1.0000   1.0000   1.0000   1.0000
     1.0000   1.0000   1.0000   1.0000   0.0000   0.0000   0.0000   0.0000
     0.0000   0.0000   0.0000   0.0000

          k =-0.2210-0.3094 0.3094 (  6063 PWs)   bands (ev):

   -14.6924 -14.6924 -14.6919 -14.6919 -14.6363 -14.6363 -14.5698 -14.5698
   -14.5627 -14.5627 -14.4239 -14.4239 -14.4150 -14.4150 -14.3939 -14.3939
   -14.3220 -14.3220 -14.3207 -14.3207  -1.9590  -1.9590   1.3263   1.3263
     5.5034   5.5034   6.0015   6.0015   7.2113   7.2113  10.0947  10.0947
    10.1241  10.1241  12.6372  12.6372

     occupation numbers 
     1.0000   1.0000   1.0000   1.0000   1.0000   1.0000   1.0000   1.0000
     1.0000   1.0000   1.0000   1.0000   1.0000   1.0000   1.0000   1.0000
     1.0000   1.0000   1.0000   1.0000   1.0000   1.0000   1.0000   1.0000
     1.0000   1.0000   1.0000   1.0000   0.0000   0.0000   0.0000   0.0000
     0.0000   0.0000   0.0000   0.0000

          k =-0.1768-0.2652 0.2652 (  6060 PWs)   bands (ev):

   -14.6902 -14.6902 -14.6889 -14.6889 -14.6410 -14.6410 -14.5755 -14.5755
   -14.5664 -14.5664 -14.4217 -14.4217 -14.4106 -14.4106 -14.3872 -14.3872
   -14.3266 -14.3266 -14.3224 -14.3224  -2.2477  -2.2477   1.9090   1.9090
     5.5951   5.5951   6.1604   6.1604   7.2945   7.2945   9.9911   9.9911
    10.1414  10.1414  12.0660  12.0660

     occupation numbers 
     1.0000   1.0000   1.0000   1.0000   1.0000   1.0000   1.0000   1.0000
     1.0000   1.0000   1.0000   1.0000   1.0000   1.0000   1.0000   1.0000
     1.0000   1.0000   1.0000   1.0000   1.0000   1.0000   1.0000   1.0000
     1.0000   1.0000   1.0000   1.0000   0.0000   0.0000   0.0000   0.0000
     0.0000   0.0000   0.0000   0.0000

          k =-0.1326-0.2210 0.2210 (  6046 PWs)   bands (ev):

   -14.6869 -14.6869 -14.6840 -14.6840 -14.6468 -14.6468 -14.5826 -14.5826
   -14.5732 -14.5732 -14.4165 -14.4165 -14.4051 -14.4051 -14.3792 -14.3792
   -14.3328 -14.3328 -14.3257 -14.3257  -2.5331  -2.5331   2.6115   2.6115
     5.7484   5.7484   6.3563   6.3563   7.4072   7.4072   9.8234   9.8234
    10.0531  10.0532  11.3362  11.3362

     occupation numbers 
     1.0000   1.0000   1.0000   1.0000   1.0000   1.0000   1.0000   1.0000
     1.0000   1.0000   1.0000   1.0000   1.0000   1.0000   1.0000   1.0000
     1.0000   1.0000   1.0000   1.0000   1.0000   1.0000   1.0000   1.0000
     1.0000   1.0000   1.0000   1.0000   0.0000   0.0000   0.0000   0.0000
     0.0000   0.0000   0.0000   0.0000

          k =-0.0884-0.1768 0.1768 (  6060 PWs)   bands (ev):

   -14.6821 -14.6821 -14.6779 -14.6779 -14.6527 -14.6527 -14.5910 -14.5910
   -14.5826 -14.5826 -14.4084 -14.4084 -14.3979 -14.3979 -14.3712 -14.3712
   -14.3405 -14.3405 -14.3308 -14.3308  -2.7790  -2.7790   3.3790   3.3790
     5.9632   5.9632   6.5716   6.5716   7.5201   7.5201   9.5876   9.5876
     9.7973   9.7973  10.6818  10.6818

     occupation numbers 
     1.0000   1.0000   1.0000   1.0000   1.0000   1.0000   1.0000   1.0000
     1.0000   1.0000   1.0000   1.0000   1.0000   1.0000   1.0000   1.0000
     1.0000   1.0000   1.0000   1.0000   1.0000   1.0000   1.0000   1.0000
     1.0000   1.0000   1.0000   1.0000   0.0000   0.0000   0.0000   0.0000
     0.0000   0.0000   0.0000   0.0000

          k =-0.0442-0.1326 0.1326 (  6051 PWs)   bands (ev):

   -14.6760 -14.6760 -14.6712 -14.6712 -14.6577 -14.6577 -14.5999 -14.5999
   -14.5933 -14.5933 -14.3984 -14.3984 -14.3894 -14.3894 -14.3643 -14.3643
   -14.3495 -14.3495 -14.3375 -14.3375  -2.9688  -2.9688   4.1578   4.1578
     6.2386   6.2386   6.7737   6.7737   7.5637   7.5637   9.3336   9.3336
     9.4408   9.4408  10.1105  10.1105

     occupation numbers 
     1.0000   1.0000   1.0000   1.0000   1.0000   1.0000   1.0000   1.0000
     1.0000   1.0000   1.0000   1.0000   1.0000   1.0000   1.0000   1.0000
     1.0000   1.0000   1.0000   1.0000   1.0000   1.0000   1.0000   1.0000
     1.0000   1.0000   1.0000   1.0000   0.0000   0.0000   0.0000   0.0000
     0.0000   0.0000   0.0000   0.0000

          k = 0.0000-0.0884 0.0884 (  6039 PWs)   bands (ev):

   -14.6695 -14.6695 -14.6656 -14.6656 -14.6609 -14.6609 -14.6074 -14.6074
   -14.6035 -14.6035 -14.3873 -14.3873 -14.3804 -14.3804 -14.3601 -14.3601
   -14.3583 -14.3583 -14.3458 -14.3458  -3.0944  -3.0944   4.8604   4.8604
     6.5734   6.5734   6.9070   6.9070   7.4240   7.4240   9.1547   9.1547
     9.1934   9.1934   9.5885   9.5885

     occupation numbers 
     1.0000   1.0000   1.0000   1.0000   1.0000   1.0000   1.0000   1.0000
     1.0000   1.0000   1.0000   1.0000   1.0000   1.0000   1.0000   1.0000
     1.0000   1.0000   1.0000   1.0000   1.0000   1.0000   1.0000   1.0000
     1.0000   1.0000   0.8013   0.8013   0.0000   0.0000   0.0000   0.0000
     0.0000   0.0000   0.0000   0.0000

          k = 0.1768 0.0000 0.0000 (  6058 PWs)   bands (ev):

   -14.6688 -14.6688 -14.6688 -14.6688 -14.6673 -14.6673 -14.6044 -14.6044
   -14.5895 -14.5895 -14.4097 -14.4097 -14.3746 -14.3746 -14.3557 -14.3557
   -14.3557 -14.3557 -14.3431 -14.3431  -3.0016  -3.0016   4.4122   4.4122
     6.3470   6.3470   6.3470   6.3470   8.1582   8.1582   8.5820   8.5820
     9.9186   9.9186   9.9186   9.9186

     occupation numbers 
     1.0000   1.0000   1.0000   1.0000   1.0000   1.0000   1.0000   1.0000
     1.0000   1.0000   1.0000   1.0000   1.0000   1.0000   1.0000   1.0000
     1.0000   1.0000   1.0000   1.0000   1.0000   1.0000   1.0000   1.0000
     1.0000   1.0000   1.0000   1.0000   0.0000   0.0000   0.0000   0.0000
     0.0000   0.0000   0.0000   0.0000

          k = 0.2210 0.0442-0.0442 (  6052 PWs)   bands (ev):

   -14.6766 -14.6766 -14.6732 -14.6732 -14.6631 -14.6631 -14.5977 -14.5977
   -14.5783 -14.5783 -14.4225 -14.4225 -14.3823 -14.3823 -14.3562 -14.3562
   -14.3487 -14.3487 -14.3375 -14.3375  -2.8757  -2.8757   3.8692   3.8692
     6.1040   6.1040   6.1199   6.1199   8.3411   8.3411   8.5769   8.5769
    10.2650  10.2650  10.3468  10.3468

     occupation numbers 
     1.0000   1.0000   1.0000   1.0000   1.0000   1.0000   1.0000   1.0000
     1.0000   1.0000   1.0000   1.0000   1.0000   1.0000   1.0000   1.0000
     1.0000   1.0000   1.0000   1.0000   1.0000   1.0000   1.0000   1.0000
     1.0000   1.0000   1.0000   1.0000   0.0000   0.0000   0.0000   0.0000
     0.0000   0.0000   0.0000   0.0000

          k = 0.2652 0.0884-0.0884 (  6054 PWs)   bands (ev):

   -14.6848 -14.6848 -14.6785 -14.6785 -14.6560 -14.6560 -14.5889 -14.5889
   -14.5673 -14.5673 -14.4335 -14.4335 -14.3920 -14.3920 -14.3632 -14.3632
   -14.3407 -14.3407 -14.3291 -14.3291  -2.6858  -2.6858   3.1935   3.1935
     5.8236   5.8236   5.9207   5.9207   8.2677   8.2677   8.8705   8.8705
    10.5542  10.5542  10.7816  10.7816

     occupation numbers 
     1.0000   1.0000   1.0000   1.0000   1.0000   1.0000   1.0000   1.0000
     1.0000   1.0000   1.0000   1.0000   1.0000   1.0000   1.0000   1.0000
     1.0000   1.0000   1.0000   1.0000   1.0000   1.0000   1.0000   1.0000
     1.0000   1.0000   1.0000   1.0000   0.0000   0.0000   0.0000   0.0000
     0.0000   0.0000   0.0000   0.0000

          k = 0.3094 0.1326-0.1326 (  6054 PWs)   bands (ev):

   -14.6922 -14.6922 -14.6835 -14.6835 -14.6473 -14.6473 -14.5798 -14.5798
   -14.5583 -14.5583 -14.4415 -14.4415 -14.4016 -14.4016 -14.3728 -14.3728
   -14.3336 -14.3336 -14.3212 -14.3212  -2.4397  -2.4397   2.4920   2.4920
     5.5405   5.5405   5.7673   5.7673   8.1263   8.1263   9.2544   9.2544
    10.7233  10.7233  11.1039  11.1039

     occupation numbers 
     1.0000   1.0000   1.0000   1.0000   1.0000   1.0000   1.0000   1.0000
     1.0000   1.0000   1.0000   1.0000   1.0000   1.0000   1.0000   1.0000
     1.0000   1.0000   1.0000   1.0000   1.0000   1.0000   1.0000   1.0000
     1.0000   1.0000   1.0000   1.0000   0.0000   0.0000   0.0000   0.0000
     0.0000   0.0000   0.0000   0.0000

          k = 0.3536 0.1768-0.1768 (  6061 PWs)   bands (ev):

   -14.6980 -14.6980 -14.6878 -14.6878 -14.6382 -14.6382 -14.5713 -14.5713
   -14.5526 -14.5526 -14.4453 -14.4453 -14.4105 -14.4105 -14.3834 -14.3834
   -14.3276 -14.3276 -14.3149 -14.3149  -2.1537  -2.1537   1.8312   1.8312
     5.2894   5.2894   5.6691   5.6691   7.9833   7.9833   9.5797   9.5797
    10.7604  10.7604  11.4630  11.4630

     occupation numbers 
     1.0000   1.0000   1.0000   1.0000   1.0000   1.0000   1.0000   1.0000
     1.0000   1.0000   1.0000   1.0000   1.0000   1.0000   1.0000   1.0000
     1.0000   1.0000   1.0000   1.0000   1.0000   1.0000   1.0000   1.0000
     1.0000   1.0000   1.0000   1.0000   0.0000   0.0000   0.0000   0.0000
     0.0000   0.0000   0.0000   0.0000

          k = 0.3977 0.2210-0.2210 (  6055 PWs)   bands (ev):

   -14.7020 -14.7020 -14.6911 -14.6911 -14.6299 -14.6299 -14.5639 -14.5639
   -14.5511 -14.5511 -14.4442 -14.4442 -14.4186 -14.4186 -14.3936 -14.3936
   -14.3229 -14.3229 -14.3107 -14.3107  -1.8636  -1.8636   1.2732   1.2732
     5.0883   5.0883   5.6306   5.6306   7.8671   7.8671   9.7793   9.7793
    10.7051  10.7051  11.9811  11.9812

     occupation numbers 
     1.0000   1.0000   1.0000   1.0000   1.0000   1.0000   1.0000   1.0000
     1.0000   1.0000   1.0000   1.0000   1.0000   1.0000   1.0000   1.0000
     1.0000   1.0000   1.0000   1.0000   1.0000   1.0000   1.0000   1.0000
     1.0000   1.0000   1.0000   1.0000   0.0000   0.0000   0.0000   0.0000
     0.0000   0.0000   0.0000   0.0000

          k =-0.2652-0.4419 0.4419 (  6059 PWs)   bands (ev):

   -14.7039 -14.7039 -14.6936 -14.6936 -14.6237 -14.6237 -14.5578 -14.5578
   -14.5535 -14.5535 -14.4387 -14.4387 -14.4257 -14.4257 -14.4021 -14.4021
   -14.3193 -14.3193 -14.3087 -14.3087  -1.6453  -1.6453   0.9081   0.9081
     4.9462   4.9462   5.6526   5.6526   7.7905   7.7905   9.8988   9.8988
    10.6057  10.6057  12.5499  12.5499

     occupation numbers 
     1.0000   1.0000   1.0000   1.0000   1.0000   1.0000   1.0000   1.0000
     1.0000   1.0000   1.0000   1.0000   1.0000   1.0000   1.0000   1.0000
     1.0000   1.0000   1.0000   1.0000   1.0000   1.0000   1.0000   1.0000
     1.0000   1.0000   1.0000   1.0000   0.0000   0.0000   0.0000   0.0000
     0.0000   0.0000   0.0000   0.0000

          k =-0.2210-0.3977 0.3977 (  6065 PWs)   bands (ev):

   -14.7038 -14.7038 -14.6950 -14.6950 -14.6210 -14.6210 -14.5586 -14.5586
   -14.5536 -14.5536 -14.4312 -14.4312 -14.4296 -14.4296 -14.4076 -14.4076
   -14.3171 -14.3171 -14.3093 -14.3093  -1.6099  -1.6099   0.8528   0.8528
     4.8693   4.8693   5.7335   5.7335   7.7580   7.7580   9.9983   9.9983
    10.4903  10.4903  12.8565  12.8565

     occupation numbers 
     1.0000   1.0000   1.0000   1.0000   1.0000   1.0000   1.0000   1.0000
     1.0000   1.0000   1.0000   1.0000   1.0000   1.0000   1.0000   1.0000
     1.0000   1.0000   1.0000   1.0000   1.0000   1.0000   1.0000   1.0000
     1.0000   1.0000   1.0000   1.0000   0.0000   0.0000   0.0000   0.0000
     0.0000   0.0000   0.0000   0.0000

          k =-0.1768-0.3536 0.3536 (  6059 PWs)   bands (ev):

   -14.7015 -14.7015 -14.6954 -14.6954 -14.6226 -14.6226 -14.5651 -14.5651
   -14.5522 -14.5522 -14.4343 -14.4343 -14.4193 -14.4193 -14.4085 -14.4085
   -14.3163 -14.3163 -14.3124 -14.3124  -1.7819  -1.7819   1.1321   1.1321
     4.8629   4.8629   5.8687   5.8687   7.7687   7.7687  10.0996  10.0996
    10.3618  10.3618  12.6009  12.6009

     occupation numbers 
     1.0000   1.0000   1.0000   1.0000   1.0000   1.0000   1.0000   1.0000
     1.0000   1.0000   1.0000   1.0000   1.0000   1.0000   1.0000   1.0000
     1.0000   1.0000   1.0000   1.0000   1.0000   1.0000   1.0000   1.0000
     1.0000   1.0000   1.0000   1.0000   0.0000   0.0000   0.0000   0.0000
     0.0000   0.0000   0.0000   0.0000

          k =-0.1326-0.3094 0.3094 (  6053 PWs)   bands (ev):

   -14.6973 -14.6973 -14.6945 -14.6945 -14.6281 -14.6281 -14.5719 -14.5719
   -14.5545 -14.5545 -14.4337 -14.4337 -14.4138 -14.4138 -14.4003 -14.4003
   -14.3180 -14.3180 -14.3171 -14.3171  -2.0599  -2.0599   1.6388   1.6388
     4.9335   4.9335   6.0500   6.0500   7.8153   7.8153  10.1800  10.1800
    10.2018  10.2018  11.9480  11.9480

     occupation numbers 
     1.0000   1.0000   1.0000   1.0000   1.0000   1.0000   1.0000   1.0000
     1.0000   1.0000   1.0000   1.0000   1.0000   1.0000   1.0000   1.0000
     1.0000   1.0000   1.0000   1.0000   1.0000   1.0000   1.0000   1.0000
     1.0000   1.0000   1.0000   1.0000   0.0000   0.0000   0.0000   0.0000
     0.0000   0.0000   0.0000   0.0000

          k =-0.0884-0.2652 0.2652 (  6050 PWs)   bands (ev):

   -14.6919 -14.6919 -14.6913 -14.6913 -14.6363 -14.6363 -14.5789 -14.5789
   -14.5609 -14.5609 -14.4290 -14.4290 -14.4100 -14.4100 -14.3872 -14.3872
   -14.3258 -14.3258 -14.3196 -14.3196  -2.3523  -2.3523   2.2667   2.2667
     5.0905   5.0905   6.2637   6.2637   7.8792   7.8792   9.9871   9.9871
    10.1472  10.1472  11.3384  11.3384

     occupation numbers 
     1.0000   1.0000   1.0000   1.0000   1.0000   1.0000   1.0000   1.0000
     1.0000   1.0000   1.0000   1.0000   1.0000   1.0000   1.0000   1.0000
     1.0000   1.0000   1.0000   1.0000   1.0000   1.0000   1.0000   1.0000
     1.0000   1.0000   1.0000   1.0000   0.0000   0.0000   0.0000   0.0000
     0.0000   0.0000   0.0000   0.0000

          k =-0.0442-0.2210 0.2210 (  6046 PWs)   bands (ev):

   -14.6878 -14.6878 -14.6840 -14.6840 -14.6452 -14.6452 -14.5863 -14.5863
   -14.5706 -14.5706 -14.4208 -14.4208 -14.4045 -14.4045 -14.3746 -14.3746
   -14.3355 -14.3355 -14.3239 -14.3239  -2.6132  -2.6132   2.9425   2.9425
     5.3487   5.3487   6.4859   6.4859   7.9161   7.9161   9.7243   9.7243
     9.8874   9.8874  10.9551  10.9551

     occupation numbers 
     1.0000   1.0000   1.0000   1.0000   1.0000   1.0000   1.0000   1.0000
     1.0000   1.0000   1.0000   1.0000   1.0000   1.0000   1.0000   1.0000
     1.0000   1.0000   1.0000   1.0000   1.0000   1.0000   1.0000   1.0000
     1.0000   1.0000   1.0000   1.0000   0.0000   0.0000   0.0000   0.0000
     0.0000   0.0000   0.0000   0.0000

          k = 0.0000-0.1768 0.1768 (  6047 PWs)   bands (ev):

   -14.6823 -14.6823 -14.6765 -14.6765 -14.6531 -14.6531 -14.5937 -14.5937
   -14.5820 -14.5820 -14.4102 -14.4102 -14.3973 -14.3973 -14.3647 -14.3647
   -14.3457 -14.3457 -14.3300 -14.3300  -2.8220  -2.8220   3.5979   3.5979
     5.7290   5.7290   6.6758   6.6758   7.8351   7.8351   9.4744   9.4744
     9.5726   9.5726  10.6141  10.6141

     occupation numbers 
     1.0000   1.0000   1.0000   1.0000   1.0000   1.0000   1.0000   1.0000
     1.0000   1.0000   1.0000   1.0000   1.0000   1.0000   1.0000   1.0000
     1.0000   1.0000   1.0000   1.0000   1.0000   1.0000   1.0000   1.0000
     1.0000   1.0000   1.0000   1.0000   0.0000   0.0000   0.0000   0.0000
     0.0000   0.0000   0.0000   0.0000

          k = 0.2652 0.0000 0.0000 (  6058 PWs)   bands (ev):

   -14.6761 -14.6761 -14.6761 -14.6761 -14.6674 -14.6674 -14.5927 -14.5927
   -14.5660 -14.5660 -14.4380 -14.4380 -14.3858 -14.3858 -14.3456 -14.3456
   -14.3456 -14.3456 -14.3416 -14.3416  -2.7714  -2.7714   3.5572   3.5572
     5.8884   5.8884   5.8884   5.8884   8.2406   8.2406   8.7210   8.7210
    10.6660  10.6660  10.6660  10.6660

     occupation numbers 
     1.0000   1.0000   1.0000   1.0000   1.0000   1.0000   1.0000   1.0000
     1.0000   1.0000   1.0000   1.0000   1.0000   1.0000   1.0000   1.0000
     1.0000   1.0000   1.0000   1.0000   1.0000   1.0000   1.0000   1.0000
     1.0000   1.0000   1.0000   1.0000   0.0000   0.0000   0.0000   0.0000
     0.0000   0.0000   0.0000   0.0000

          k = 0.3094 0.0442-0.0442 (  6047 PWs)   bands (ev):

   -14.6835 -14.6835 -14.6806 -14.6806 -14.6615 -14.6615 -14.5846 -14.5846
   -14.5535 -14.5535 -14.4519 -14.4519 -14.3941 -14.3941 -14.3521 -14.3521
   -14.3390 -14.3390 -14.3324 -14.3324  -2.6018  -2.6018   3.0524   3.0524
     5.6291   5.6291   5.6855   5.6855   8.2257   8.2257   8.8232   8.8232
    10.9944  10.9944  11.0227  11.0227

     occupation numbers 
     1.0000   1.0000   1.0000   1.0000   1.0000   1.0000   1.0000   1.0000
     1.0000   1.0000   1.0000   1.0000   1.0000   1.0000   1.0000   1.0000
     1.0000   1.0000   1.0000   1.0000   1.0000   1.0000   1.0000   1.0000
     1.0000   1.0000   1.0000   1.0000   0.0000   0.0000   0.0000   0.0000
     0.0000   0.0000   0.0000   0.0000

          k = 0.3536 0.0884-0.0884 (  6057 PWs)   bands (ev):

   -14.6924 -14.6924 -14.6853 -14.6853 -14.6511 -14.6511 -14.5753 -14.5753
   -14.5427 -14.5427 -14.4627 -14.4627 -14.4039 -14.4039 -14.3639 -14.3639
   -14.3320 -14.3320 -14.3218 -14.3218  -2.3727  -2.3727   2.4609   2.4609
     5.3095   5.3095   5.5297   5.5297   8.3193   8.3193   8.9685   8.9685
    11.0644  11.0644  11.2581  11.2581

     occupation numbers 
     1.0000   1.0000   1.0000   1.0000   1.0000   1.0000   1.0000   1.0000
     1.0000   1.0000   1.0000   1.0000   1.0000   1.0000   1.0000   1.0000
     1.0000   1.0000   1.0000   1.0000   1.0000   1.0000   1.0000   1.0000
     1.0000   1.0000   1.0000   1.0000   0.0000   0.0000   0.0000   0.0000
     0.0000   0.0000   0.0000   0.0000

          k = 0.3977 0.1326-0.1326 (  6053 PWs)   bands (ev):

   -14.7004 -14.7004 -14.6896 -14.6896 -14.6389 -14.6389 -14.5658 -14.5658
   -14.5354 -14.5354 -14.4690 -14.4690 -14.4141 -14.4141 -14.3776 -14.3776
   -14.3257 -14.3257 -14.3126 -14.3126  -2.0965  -2.0965   1.8591   1.8591
     4.9910   4.9910   5.4311   5.4311   8.2893   8.2893   9.3518   9.3518
    11.0708  11.0708  11.3364  11.3364

     occupation numbers 
     1.0000   1.0000   1.0000   1.0000   1.0000   1.0000   1.0000   1.0000
     1.0000   1.0000   1.0000   1.0000   1.0000   1.0000   1.0000   1.0000
     1.0000   1.0000   1.0000   1.0000   1.0000   1.0000   1.0000   1.0000
     1.0000   1.0000   1.0000   1.0000   0.0000   0.0000   0.0000   0.0000
     0.0000   0.0000   0.0000   0.0000

          k = 0.4419 0.1768-0.1768 (  6051 PWs)   bands (ev):

   -14.7067 -14.7067 -14.6932 -14.6932 -14.6267 -14.6267 -14.5568 -14.5568
   -14.5331 -14.5331 -14.4695 -14.4695 -14.4240 -14.4240 -14.3913 -14.3913
   -14.3204 -14.3204 -14.3056 -14.3056  -1.7998  -1.7998   1.3111   1.3111
     4.7172   4.7172   5.3946   5.3946   8.2120   8.2120   9.7692   9.7692
    11.2487  11.2487  11.2868  11.2868

     occupation numbers 
     1.0000   1.0000   1.0000   1.0000   1.0000   1.0000   1.0000   1.0000
     1.0000   1.0000   1.0000   1.0000   1.0000   1.0000   1.0000   1.0000
     1.0000   1.0000   1.0000   1.0000   1.0000   1.0000   1.0000   1.0000
     1.0000   1.0000   1.0000   1.0000   0.0000   0.0000   0.0000   0.0000
     0.0000   0.0000   0.0000   0.0000

          k =-0.2210-0.4861 0.4861 (  6058 PWs)   bands (ev):

   -14.7108 -14.7108 -14.6960 -14.6960 -14.6164 -14.6164 -14.5488 -14.5488
   -14.5363 -14.5363 -14.4641 -14.4641 -14.4332 -14.4332 -14.4032 -14.4032
   -14.3163 -14.3163 -14.3011 -14.3011  -1.5429  -1.5429   0.8987   0.8987
     4.5088   4.5088   5.4216   5.4216   8.1536   8.1536  10.0271  10.0271
    11.1650  11.1650  11.7281  11.7281

     occupation numbers 
     1.0000   1.0000   1.0000   1.0000   1.0000   1.0000   1.0000   1.0000
     1.0000   1.0000   1.0000   1.0000   1.0000   1.0000   1.0000   1.0000
     1.0000   1.0000   1.0000   1.0000   1.0000   1.0000   1.0000   1.0000
     1.0000   1.0000   1.0000   1.0000   0.0000   0.0000   0.0000   0.0000
     0.0000   0.0000   0.0000   0.0000

          k =-0.1768-0.4419 0.4419 (  6052 PWs)   bands (ev):

   -14.7122 -14.7122 -14.6979 -14.6979 -14.6099 -14.6099 -14.5438 -14.5438
   -14.5426 -14.5426 -14.4535 -14.4535 -14.4411 -14.4411 -14.4116 -14.4116
   -14.3136 -14.3136 -14.2998 -14.2998  -1.4378  -1.4378   0.7440   0.7440
     4.3774   4.3774   5.5104   5.5104   8.1318   8.1318  10.1618  10.1618
    11.0083  11.0083  12.3648  12.3648

     occupation numbers 
     1.0000   1.0000   1.0000   1.0000   1.0000   1.0000   1.0000   1.0000
     1.0000   1.0000   1.0000   1.0000   1.0000   1.0000   1.0000   1.0000
     1.0000   1.0000   1.0000   1.0000   1.0000   1.0000   1.0000   1.0000
     1.0000   1.0000   1.0000   1.0000   0.0000   0.0000   0.0000   0.0000
     0.0000   0.0000   0.0000   0.0000

          k =-0.1326-0.3977 0.3977 (  6051 PWs)   bands (ev):

   -14.7110 -14.7110 -14.6987 -14.6987 -14.6084 -14.6084 -14.5539 -14.5539
   -14.5395 -14.5395 -14.4459 -14.4459 -14.4388 -14.4388 -14.4161 -14.4161
   -14.3123 -14.3123 -14.3017 -14.3017  -1.5572  -1.5572   0.9213   0.9213
     4.3327   4.3327   5.6558   5.6558   8.1457   8.1457  10.2706  10.2706
    10.8248  10.8248  12.4735  12.4736

     occupation numbers 
     1.0000   1.0000   1.0000   1.0000   1.0000   1.0000   1.0000   1.0000
     1.0000   1.0000   1.0000   1.0000   1.0000   1.0000   1.0000   1.0000
     1.0000   1.0000   1.0000   1.0000   1.0000   1.0000   1.0000   1.0000
     1.0000   1.0000   1.0000   1.0000   0.0000   0.0000   0.0000   0.0000
     0.0000   0.0000   0.0000   0.0000

          k =-0.0884-0.3536 0.3536 (  6047 PWs)   bands (ev):

   -14.7070 -14.7070 -14.6982 -14.6982 -14.6127 -14.6127 -14.5642 -14.5642
   -14.5411 -14.5411 -14.4462 -14.4462 -14.4216 -14.4216 -14.4170 -14.4170
   -14.3126 -14.3126 -14.3068 -14.3068  -1.8190  -1.8190   1.3402   1.3402
     4.3871   4.3871   5.8484   5.8484   8.1817   8.1817  10.3800  10.3800
    10.5996  10.5996  11.8042  11.8042

     occupation numbers 
     1.0000   1.0000   1.0000   1.0000   1.0000   1.0000   1.0000   1.0000
     1.0000   1.0000   1.0000   1.0000   1.0000   1.0000   1.0000   1.0000
     1.0000   1.0000   1.0000   1.0000   1.0000   1.0000   1.0000   1.0000
     1.0000   1.0000   1.0000   1.0000   0.0000   0.0000   0.0000   0.0000
     0.0000   0.0000   0.0000   0.0000

          k =-0.0442-0.3094 0.3094 (  6053 PWs)   bands (ev):

   -14.7006 -14.7006 -14.6963 -14.6963 -14.6221 -14.6221 -14.5729 -14.5729
   -14.5478 -14.5478 -14.4413 -14.4413 -14.4150 -14.4150 -14.4037 -14.4037
   -14.3149 -14.3149 -14.3147 -14.3147  -2.1149  -2.1149   1.8723   1.8723
     4.5591   4.5591   6.0723   6.0723   8.2065   8.2065  10.3168  10.3169
    10.4111  10.4111  11.1908  11.1908

     occupation numbers 
     1.0000   1.0000   1.0000   1.0000   1.0000   1.0000   1.0000   1.0000
     1.0000   1.0000   1.0000   1.0000   1.0000   1.0000   1.0000   1.0000
     1.0000   1.0000   1.0000   1.0000   1.0000   1.0000   1.0000   1.0000
     1.0000   1.0000   1.0000   1.0000   0.0000   0.0000   0.0000   0.0000
     0.0000   0.0000   0.0000   0.0000

          k = 0.0000-0.2652 0.2652 (  6057 PWs)   bands (ev):

   -14.6927 -14.6927 -14.6925 -14.6925 -14.6340 -14.6340 -14.5801 -14.5801
   -14.5584 -14.5584 -14.4322 -14.4322 -14.4107 -14.4107 -14.3871 -14.3871
   -14.3252 -14.3252 -14.3185 -14.3185  -2.3879  -2.3879   2.4276   2.4276
     4.8734   4.8734   6.2997   6.2997   8.1495   8.1495   9.9997   9.9997
    10.1545  10.1545  11.0009  11.0009

     occupation numbers 
     1.0000   1.0000   1.0000   1.0000   1.0000   1.0000   1.0000   1.0000
     1.0000   1.0000   1.0000   1.0000   1.0000   1.0000   1.0000   1.0000
     1.0000   1.0000   1.0000   1.0000   1.0000   1.0000   1.0000   1.0000
     1.0000   1.0000   1.0000   1.0000   0.0000   0.0000   0.0000   0.0000
     0.0000   0.0000   0.0000   0.0000

          k = 0.3536 0.0000 0.0000 (  6030 PWs)   bands (ev):

   -14.6842 -14.6842 -14.6842 -14.6842 -14.6627 -14.6627 -14.5769 -14.5769
   -14.5390 -14.5390 -14.4689 -14.4689 -14.4010 -14.4010 -14.3466 -14.3466
   -14.3341 -14.3341 -14.3341 -14.3341  -2.4519  -2.4519   2.7083   2.7083
     5.4761   5.4761   5.4761   5.4761   7.9553   7.9553   8.8891   8.8891
    11.4725  11.4725  11.4725  11.4725

     occupation numbers 
     1.0000   1.0000   1.0000   1.0000   1.0000   1.0000   1.0000   1.0000
     1.0000   1.0000   1.0000   1.0000   1.0000   1.0000   1.0000   1.0000
     1.0000   1.0000   1.0000   1.0000   1.0000   1.0000   1.0000   1.0000
     1.0000   1.0000   1.0000   1.0000   0.0000   0.0000   0.0000   0.0000
     0.0000   0.0000   0.0000   0.0000

          k = 0.3977 0.0442-0.0442 (  6054 PWs)   bands (ev):

   -14.6910 -14.6910 -14.6884 -14.6884 -14.6546 -14.6546 -14.5675 -14.5675
   -14.5258 -14.5258 -14.4831 -14.4831 -14.4104 -14.4104 -14.3567 -14.3567
   -14.3281 -14.3281 -14.3244 -14.3244  -2.2406  -2.2406   2.2419   2.2419
     5.2253   5.2253   5.3127   5.3127   7.9793   7.9793   8.8548   8.8548
    11.6124  11.6124  11.8141  11.8141

     occupation numbers 
     1.0000   1.0000   1.0000   1.0000   1.0000   1.0000   1.0000   1.0000
     1.0000   1.0000   1.0000   1.0000   1.0000   1.0000   1.0000   1.0000
     1.0000   1.0000   1.0000   1.0000   1.0000   1.0000   1.0000   1.0000
     1.0000   1.0000   1.0000   1.0000   0.0000   0.0000   0.0000   0.0000
     0.0000   0.0000   0.0000   0.0000

          k = 0.4419 0.0884-0.0884 (  6061 PWs)   bands (ev):

   -14.6997 -14.6997 -14.6923 -14.6923 -14.6413 -14.6413 -14.5574 -14.5574
   -14.5161 -14.5161 -14.4928 -14.4928 -14.4210 -14.4210 -14.3719 -14.3719
   -14.3222 -14.3222 -14.3135 -14.3135  -1.9767  -1.9767   1.7291   1.7291
     4.8883   4.8883   5.2067   5.2067   8.1254   8.1254   8.9887   8.9887
    11.4820  11.4821  11.9783  11.9783

     occupation numbers 
     1.0000   1.0000   1.0000   1.0000   1.0000   1.0000   1.0000   1.0000
     1.0000   1.0000   1.0000   1.0000   1.0000   1.0000   1.0000   1.0000
     1.0000   1.0000   1.0000   1.0000   1.0000   1.0000   1.0000   1.0000
     1.0000   1.0000   1.0000   1.0000   0.0000   0.0000   0.0000   0.0000
     0.0000   0.0000   0.0000   0.0000

          k = 0.4861 0.1326-0.1326 (  6052 PWs)   bands (ev):

   -14.7078 -14.7078 -14.6957 -14.6957 -14.6263 -14.6263 -14.5473 -14.5473
   -14.5126 -14.5126 -14.4953 -14.4953 -14.4319 -14.4319 -14.3883 -14.3883
   -14.3171 -14.3171 -14.3042 -14.3042  -1.6798  -1.6798   1.2288   1.2288
     4.5499   4.5499   5.1640   5.1640   8.1678   8.1678   9.4488   9.4488
    11.3564  11.3564  11.9687  11.9687

     occupation numbers 
     1.0000   1.0000   1.0000   1.0000   1.0000   1.0000   1.0000   1.0000
     1.0000   1.0000   1.0000   1.0000   1.0000   1.0000   1.0000   1.0000
     1.0000   1.0000   1.0000   1.0000   1.0000   1.0000   1.0000   1.0000
     1.0000   1.0000   1.0000   1.0000   0.0000   0.0000   0.0000   0.0000
     0.0000   0.0000   0.0000   0.0000

          k =-0.1768-0.5303 0.5303 (  6053 PWs)   bands (ev):

   -14.7140 -14.7140 -14.6985 -14.6985 -14.6126 -14.6126 -14.5378 -14.5378
   -14.5149 -14.5149 -14.4915 -14.4915 -14.4426 -14.4426 -14.4031 -14.4031
   -14.3131 -14.3131 -14.2973 -14.2973  -1.3958  -1.3958   0.8091   0.8091
     4.2671   4.2671   5.1865   5.1865   8.1641   8.1641  10.0690  10.0690
    11.3392  11.3392  11.8444  11.8444

     occupation numbers 
     1.0000   1.0000   1.0000   1.0000   1.0000   1.0000   1.0000   1.0000
     1.0000   1.0000   1.0000   1.0000   1.0000   1.0000   1.0000   1.0000
     1.0000   1.0000   1.0000   1.0000   1.0000   1.0000   1.0000   1.0000
[...]

     occupation numbers 
     1.0000   1.0000   1.0000   1.0000   1.0000   1.0000   1.0000   1.0000
     1.0000   1.0000   1.0000   1.0000   1.0000   1.0000   1.0000   1.0000
     1.0000   1.0000   1.0000   1.0000   1.0000   1.0000   1.0000   1.0000
     1.0000   1.0000   1.0000   1.0000   0.0000   0.0000   0.0000   0.0000
     0.0000   0.0000   0.0000   0.0000

          k =-0.1326-0.3977 0.5745 (  6042 PWs)   bands (ev):

   -14.7178 -14.7178 -14.7052 -14.7052 -14.5921 -14.5921 -14.5321 -14.5321
   -14.5118 -14.5118 -14.4888 -14.4888 -14.4547 -14.4547 -14.4234 -14.4234
   -14.3055 -14.3055 -14.2930 -14.2930  -1.1390  -1.1390   0.5117   0.5117
     4.0329   4.0329   4.9940   4.9940   8.8409   8.8409  10.0824  10.0824
    11.3602  11.3602  12.0455  12.0455

     occupation numbers 
     1.0000   1.0000   1.0000   1.0000   1.0000   1.0000   1.0000   1.0000
     1.0000   1.0000   1.0000   1.0000   1.0000   1.0000   1.0000   1.0000
     1.0000   1.0000   1.0000   1.0000   1.0000   1.0000   1.0000   1.0000
     1.0000   1.0000   1.0000   1.0000   0.0000   0.0000   0.0000   0.0000
     0.0000   0.0000   0.0000   0.0000

          k =-0.0884-0.3536 0.5303 (  6041 PWs)   bands (ev):

   -14.7178 -14.7178 -14.7052 -14.7052 -14.5916 -14.5916 -14.5351 -14.5351
   -14.5132 -14.5132 -14.4847 -14.4847 -14.4541 -14.4541 -14.4245 -14.4245
   -14.3054 -14.3054 -14.2933 -14.2933  -1.1936  -1.1936   0.5810   0.5810
     3.9998   3.9998   5.0630   5.0630   8.8861   8.8861  10.0741  10.0741
    11.4241  11.4241  12.0067  12.0067

     occupation numbers 
     1.0000   1.0000   1.0000   1.0000   1.0000   1.0000   1.0000   1.0000
     1.0000   1.0000   1.0000   1.0000   1.0000   1.0000   1.0000   1.0000
     1.0000   1.0000   1.0000   1.0000   1.0000   1.0000   1.0000   1.0000
     1.0000   1.0000   1.0000   1.0000   0.0000   0.0000   0.0000   0.0000
     0.0000   0.0000   0.0000   0.0000

          k =-0.0442-0.3094 0.4861 (  6046 PWs)   bands (ev):

   -14.7144 -14.7144 -14.7042 -14.7042 -14.5985 -14.5985 -14.5455 -14.5455
   -14.5155 -14.5155 -14.4824 -14.4824 -14.4410 -14.4410 -14.4201 -14.4201
   -14.3065 -14.3065 -14.2974 -14.2974  -1.4373  -1.4373   0.9003   0.9003
     4.0711   4.0711   5.2056   5.2056   8.9380   8.9380   9.9584   9.9584
    10.8460  10.8460  12.2332  12.2332

     occupation numbers 
     1.0000   1.0000   1.0000   1.0000   1.0000   1.0000   1.0000   1.0000
     1.0000   1.0000   1.0000   1.0000   1.0000   1.0000   1.0000   1.0000
     1.0000   1.0000   1.0000   1.0000   1.0000   1.0000   1.0000   1.0000
     1.0000   1.0000   1.0000   1.0000   0.0000   0.0000   0.0000   0.0000
     0.0000   0.0000   0.0000   0.0000

          k = 0.0000-0.2652 0.4419 (  6045 PWs)   bands (ev):

   -14.7083 -14.7083 -14.7018 -14.7018 -14.6113 -14.6113 -14.5563 -14.5563
   -14.5230 -14.5230 -14.4764 -14.4764 -14.4262 -14.4262 -14.4095 -14.4095
   -14.3092 -14.3092 -14.3049 -14.3049  -1.7354  -1.7354   1.3196   1.3196
     4.2659   4.2659   5.3959   5.3959   8.9376   8.9376   9.6040   9.6040
    10.6696  10.6696  12.0068  12.0068

     occupation numbers 
     1.0000   1.0000   1.0000   1.0000   1.0000   1.0000   1.0000   1.0000
     1.0000   1.0000   1.0000   1.0000   1.0000   1.0000   1.0000   1.0000
     1.0000   1.0000   1.0000   1.0000   1.0000   1.0000   1.0000   1.0000
     1.0000   1.0000   1.0000   1.0000   0.0000   0.0000   0.0000   0.0000
     0.0000   0.0000   0.0000   0.0000

          k =-0.1768-0.5303 0.7071 (  6053 PWs)   bands (ev):

   -14.7065 -14.7065 -14.7047 -14.7047 -14.6149 -14.6149 -14.5367 -14.5367
   -14.5178 -14.5178 -14.4914 -14.4914 -14.4426 -14.4426 -14.3990 -14.3990
   -14.3065 -14.3065 -14.3052 -14.3052  -1.4439  -1.4439   0.9380   0.9380
     4.4364   4.4364   4.8670   4.8670   8.5827   8.5827   8.9381   8.9381
    11.3575  11.3575  12.9679  12.9679

     occupation numbers 
     1.0000   1.0000   1.0000   1.0000   1.0000   1.0000   1.0000   1.0000
     1.0000   1.0000   1.0000   1.0000   1.0000   1.0000   1.0000   1.0000
     1.0000   1.0000   1.0000   1.0000   1.0000   1.0000   1.0000   1.0000
     1.0000   1.0000   1.0000   1.0000   0.0000   0.0000   0.0000   0.0000
     0.0000   0.0000   0.0000   0.0000

          k =-0.1326-0.4861 0.6629 (  6051 PWs)   bands (ev):

   -14.7133 -14.7133 -14.7070 -14.7070 -14.5976 -14.5976 -14.5266 -14.5266
   -14.5224 -14.5224 -14.4853 -14.4853 -14.4548 -14.4548 -14.4163 -14.4163
   -14.3036 -14.3036 -14.2974 -14.2974  -1.1400  -1.1400   0.5539   0.5539
     4.2067   4.2067   4.7455   4.7455   8.7487   8.7487   9.4129   9.4129
    11.1827  11.1827  12.9212  12.9212

     occupation numbers 
     1.0000   1.0000   1.0000   1.0000   1.0000   1.0000   1.0000   1.0000
     1.0000   1.0000   1.0000   1.0000   1.0000   1.0000   1.0000   1.0000
     1.0000   1.0000   1.0000   1.0000   1.0000   1.0000   1.0000   1.0000
     1.0000   1.0000   1.0000   1.0000   0.0000   0.0000   0.0000   0.0000
     0.0000   0.0000   0.0000   0.0000

          k =-0.0884-0.4419 0.6187 (  6041 PWs)   bands (ev):

   -14.7183 -14.7183 -14.7080 -14.7080 -14.5850 -14.5850 -14.5222 -14.5222
   -14.5148 -14.5148 -14.4873 -14.4873 -14.4659 -14.4659 -14.4281 -14.4281
   -14.3022 -14.3022 -14.2920 -14.2920  -0.9021  -0.9021   0.2783   0.2783
     4.0088   4.0088   4.7360   4.7360   8.8039   8.8039  10.1398  10.1398
    11.0794  11.0794  12.3417  12.3417

     occupation numbers 
     1.0000   1.0000   1.0000   1.0000   1.0000   1.0000   1.0000   1.0000
     1.0000   1.0000   1.0000   1.0000   1.0000   1.0000   1.0000   1.0000
     1.0000   1.0000   1.0000   1.0000   1.0000   1.0000   1.0000   1.0000
     1.0000   1.0000   1.0000   1.0000   0.0000   0.0000   0.0000   0.0000
     0.0000   0.0000   0.0000   0.0000

          k =-0.0442-0.3977 0.5745 (  6042 PWs)   bands (ev):

   -14.7202 -14.7202 -14.7080 -14.7080 -14.5818 -14.5818 -14.5188 -14.5188
   -14.5067 -14.5067 -14.4949 -14.4949 -14.4703 -14.4703 -14.4310 -14.4310
   -14.3021 -14.3021 -14.2902 -14.2902  -0.9042  -0.9042   0.2832   0.2832
     3.8962   3.8962   4.8249   4.8249   8.8809   8.8809  10.6082  10.6082
    11.2956  11.2956  11.6127  11.6127

     occupation numbers 
     1.0000   1.0000   1.0000   1.0000   1.0000   1.0000   1.0000   1.0000
     1.0000   1.0000   1.0000   1.0000   1.0000   1.0000   1.0000   1.0000
     1.0000   1.0000   1.0000   1.0000   1.0000   1.0000   1.0000   1.0000
     1.0000   1.0000   1.0000   1.0000   0.0000   0.0000   0.0000   0.0000
     0.0000   0.0000   0.0000   0.0000

          k = 0.0000-0.3536 0.5303 (  6045 PWs)   bands (ev):

   -14.7188 -14.7188 -14.7068 -14.7068 -14.5869 -14.5869 -14.5308 -14.5308
   -14.5041 -14.5041 -14.4942 -14.4942 -14.4598 -14.4598 -14.4276 -14.4276
   -14.3034 -14.3034 -14.2921 -14.2921  -1.1396  -1.1396   0.5523   0.5523
     3.9086   3.9086   4.9904   4.9904   8.9591   8.9591  10.4664  10.4664
    10.9187  10.9187  12.0978  12.0978

     occupation numbers 
     1.0000   1.0000   1.0000   1.0000   1.0000   1.0000   1.0000   1.0000
     1.0000   1.0000   1.0000   1.0000   1.0000   1.0000   1.0000   1.0000
     1.0000   1.0000   1.0000   1.0000   1.0000   1.0000   1.0000   1.0000
     1.0000   1.0000   1.0000   1.0000   0.0000   0.0000   0.0000   0.0000
     0.0000   0.0000   0.0000   0.0000

          k =-0.0884-0.5303 0.7071 (  6044 PWs)   bands (ev):

   -14.7100 -14.7100 -14.7088 -14.7088 -14.5958 -14.5958 -14.5462 -14.5462
   -14.5139 -14.5139 -14.4653 -14.4653 -14.4649 -14.4649 -14.4173 -14.4173
   -14.3014 -14.3014 -14.3003 -14.3003  -0.9175  -0.9175   0.2864   0.2864
     4.3629   4.3629   4.5770   4.5770   8.5511   8.5511   8.7593   8.7593
    12.0310  12.0310  13.2568  13.2568

     occupation numbers 
     1.0000   1.0000   1.0000   1.0000   1.0000   1.0000   1.0000   1.0000
     1.0000   1.0000   1.0000   1.0000   1.0000   1.0000   1.0000   1.0000
     1.0000   1.0000   1.0000   1.0000   1.0000   1.0000   1.0000   1.0000
     1.0000   1.0000   1.0000   1.0000   0.0000   0.0000   0.0000   0.0000
     0.0000   0.0000   0.0000   0.0000

          k =-0.0442-0.4861 0.6629 (  6036 PWs)   bands (ev):

   -14.7156 -14.7156 -14.7099 -14.7099 -14.5791 -14.5791 -14.5470 -14.5470
   -14.5035 -14.5035 -14.4778 -14.4778 -14.4630 -14.4630 -14.4332 -14.4332
   -14.3000 -14.3000 -14.2943 -14.2943  -0.6338  -0.6338  -0.0136  -0.0136
     4.1529   4.1529   4.5356   4.5356   8.6963   8.6963   9.3606   9.3606
    11.8484  11.8484  12.5588  12.5588

     occupation numbers 
     1.0000   1.0000   1.0000   1.0000   1.0000   1.0000   1.0000   1.0000
     1.0000   1.0000   1.0000   1.0000   1.0000   1.0000   1.0000   1.0000
     1.0000   1.0000   1.0000   1.0000   1.0000   1.0000   1.0000   1.0000
     1.0000   1.0000   1.0000   1.0000   0.0000   0.0000   0.0000   0.0000
     0.0000   0.0000   0.0000   0.0000

          k = 0.0000-0.4419 0.6187 (  6039 PWs)   bands (ev):

   -14.7195 -14.7195 -14.7095 -14.7095 -14.5761 -14.5761 -14.5310 -14.5310
   -14.5027 -14.5027 -14.4819 -14.4819 -14.4763 -14.4763 -14.4356 -14.4356
   -14.3003 -14.3003 -14.2905 -14.2905  -0.6360  -0.6360  -0.0022  -0.0022
     3.9600   3.9600   4.6402   4.6402   8.7836   8.7836  10.1783  10.1783
    11.6901  11.6901  11.7013  11.7013

     occupation numbers 
     1.0000   1.0000   1.0000   1.0000   1.0000   1.0000   1.0000   1.0000
     1.0000   1.0000   1.0000   1.0000   1.0000   1.0000   1.0000   1.0000
     1.0000   1.0000   1.0000   1.0000   1.0000   1.0000   1.0000   1.0000
     1.0000   1.0000   1.0000   1.0000   0.0000   0.0000   0.0000   0.0000
     0.0000   0.0000   0.0000   0.0000

          k =-0.7071 0.1768 0.0000 (  6042 PWs)   bands (ev):

   -14.7107 -14.7107 -14.7107 -14.7107 -14.5732 -14.5732 -14.5720 -14.5720
   -14.4925 -14.4925 -14.4867 -14.4867 -14.4403 -14.4403 -14.4391 -14.4391
   -14.2991 -14.2991 -14.2990 -14.2990  -0.3373  -0.3373  -0.3357  -0.3357
     4.4086   4.4086   4.4086   4.4086   8.6142   8.6142   8.6145   8.6145
    12.7533  12.7533  12.7533  12.7533

     occupation numbers 
     1.0000   1.0000   1.0000   1.0000   1.0000   1.0000   1.0000   1.0000
     1.0000   1.0000   1.0000   1.0000   1.0000   1.0000   1.0000   1.0000
     1.0000   1.0000   1.0000   1.0000   1.0000   1.0000   1.0000   1.0000
     1.0000   1.0000   1.0000   1.0000   0.0000   0.0000   0.0000   0.0000
     0.0000   0.0000   0.0000   0.0000

          k =-0.1768-0.4419 0.7071 (  6045 PWs)   bands (ev):

   -14.7134 -14.7134 -14.7072 -14.7072 -14.5970 -14.5970 -14.5371 -14.5371
   -14.5053 -14.5053 -14.4984 -14.4984 -14.4464 -14.4464 -14.4187 -14.4187
   -14.3035 -14.3035 -14.2980 -14.2980  -1.3103  -1.3103   0.7652   0.7652
     4.1278   4.1278   4.9032   4.9032   9.3370   9.3370   9.4675   9.4675
    10.6231  10.6231  12.6974  12.6974

     occupation numbers 
     1.0000   1.0000   1.0000   1.0000   1.0000   1.0000   1.0000   1.0000
     1.0000   1.0000   1.0000   1.0000   1.0000   1.0000   1.0000   1.0000
     1.0000   1.0000   1.0000   1.0000   1.0000   1.0000   1.0000   1.0000
     1.0000   1.0000   1.0000   1.0000   0.0000   0.0000   0.0000   0.0000
     0.0000   0.0000   0.0000   0.0000

          k =-0.1326-0.3977 0.6629 (  6038 PWs)   bands (ev):

   -14.7177 -14.7177 -14.7092 -14.7092 -14.5833 -14.5833 -14.5266 -14.5266
   -14.5093 -14.5093 -14.4931 -14.4931 -14.4606 -14.4606 -14.4302 -14.4302
   -14.3011 -14.3011 -14.2929 -14.2929  -1.0267  -1.0267   0.4262   0.4262
     4.0005   4.0005   4.7478   4.7478   9.3624   9.3624   9.9605   9.9605
    10.7345  10.7345  12.2278  12.2279

     occupation numbers 
     1.0000   1.0000   1.0000   1.0000   1.0000   1.0000   1.0000   1.0000
     1.0000   1.0000   1.0000   1.0000   1.0000   1.0000   1.0000   1.0000
     1.0000   1.0000   1.0000   1.0000   1.0000   1.0000   1.0000   1.0000
     1.0000   1.0000   1.0000   1.0000   0.0000   0.0000   0.0000   0.0000
     0.0000   0.0000   0.0000   0.0000

          k =-0.0884-0.3536 0.6187 (  6030 PWs)   bands (ev):

   -14.7193 -14.7193 -14.7098 -14.7098 -14.5780 -14.5780 -14.5227 -14.5227
   -14.5074 -14.5074 -14.4937 -14.4937 -14.4671 -14.4671 -14.4344 -14.4344
   -14.3004 -14.3004 -14.2910 -14.2910  -0.8888  -0.8888   0.2687   0.2687
     3.9601   3.9601   4.6910   4.6910   9.3620   9.3620  10.0847  10.0847
    11.2571  11.2571  11.5479  11.5479

     occupation numbers 
     1.0000   1.0000   1.0000   1.0000   1.0000   1.0000   1.0000   1.0000
     1.0000   1.0000   1.0000   1.0000   1.0000   1.0000   1.0000   1.0000
     1.0000   1.0000   1.0000   1.0000   1.0000   1.0000   1.0000   1.0000
     1.0000   1.0000   1.0000   1.0000   0.0000   0.0000   0.0000   0.0000
     0.0000   0.0000   0.0000   0.0000

          k =-0.0884-0.4419 0.7071 (  6038 PWs)   bands (ev):

   -14.7157 -14.7157 -14.7120 -14.7120 -14.5785 -14.5785 -14.5310 -14.5310
   -14.5153 -14.5153 -14.4761 -14.4761 -14.4687 -14.4687 -14.4338 -14.4338
   -14.2981 -14.2981 -14.2945 -14.2945  -0.8341  -0.8341   0.2162   0.2162
     4.1181   4.1181   4.5095   4.5095   9.4089   9.4089   9.4518   9.4518
    11.0034  11.0034  12.3963  12.3963

     occupation numbers 
     1.0000   1.0000   1.0000   1.0000   1.0000   1.0000   1.0000   1.0000
     1.0000   1.0000   1.0000   1.0000   1.0000   1.0000   1.0000   1.0000
     1.0000   1.0000   1.0000   1.0000   1.0000   1.0000   1.0000   1.0000
     1.0000   1.0000   1.0000   1.0000   0.0000   0.0000   0.0000   0.0000
     0.0000   0.0000   0.0000   0.0000

          k =-0.0442-0.3977 0.6629 (  6031 PWs)   bands (ev):

   -14.7184 -14.7184 -14.7132 -14.7132 -14.5661 -14.5661 -14.5326 -14.5326
   -14.5064 -14.5064 -14.4817 -14.4817 -14.4726 -14.4726 -14.4442 -14.4442
   -14.2968 -14.2968 -14.2916 -14.2916  -0.6142  -0.6142  -0.0131  -0.0131
     4.0365   4.0365   4.4292   4.4292   9.4890   9.4890  10.1602  10.1602
    10.9230  10.9230  11.5386  11.5386

     occupation numbers 
     1.0000   1.0000   1.0000   1.0000   1.0000   1.0000   1.0000   1.0000
     1.0000   1.0000   1.0000   1.0000   1.0000   1.0000   1.0000   1.0000
     1.0000   1.0000   1.0000   1.0000   1.0000   1.0000   1.0000   1.0000
     1.0000   1.0000   1.0000   1.0000   0.0000   0.0000   0.0000   0.0000
     0.0000   0.0000   0.0000   0.0000

          k =-0.0000-0.3536 0.6187 (  6031 PWs)   bands (ev):

   -14.7192 -14.7192 -14.7122 -14.7122 -14.5699 -14.5699 -14.5224 -14.5224
   -14.5126 -14.5126 -14.4812 -14.4812 -14.4766 -14.4766 -14.4408 -14.4408
   -14.2978 -14.2978 -14.2909 -14.2909  -0.7362  -0.7362   0.1169   0.1169
     3.9712   3.9712   4.5332   4.5332   9.5398   9.5398  10.3414  10.3414
    10.8122  10.8122  11.4429  11.4429

     occupation numbers 
     1.0000   1.0000   1.0000   1.0000   1.0000   1.0000   1.0000   1.0000
     1.0000   1.0000   1.0000   1.0000   1.0000   1.0000   1.0000   1.0000
     1.0000   1.0000   1.0000   1.0000   1.0000   1.0000   1.0000   1.0000
     1.0000   1.0000   1.0000   1.0000   0.0000   0.0000   0.0000   0.0000
     0.0000   0.0000   0.0000   0.0000

          k =-0.7071 0.2652 0.0000 (  6040 PWs)   bands (ev):

   -14.7151 -14.7151 -14.7151 -14.7151 -14.5569 -14.5569 -14.5554 -14.5554
   -14.4950 -14.4950 -14.4892 -14.4892 -14.4543 -14.4543 -14.4527 -14.4527
   -14.2948 -14.2948 -14.2947 -14.2947  -0.3214  -0.3214  -0.3198  -0.3198
     4.2446   4.2446   4.2447   4.2447   9.4198   9.4198   9.4201   9.4201
    11.6723  11.6723  11.6724  11.6724

     occupation numbers 
     1.0000   1.0000   1.0000   1.0000   1.0000   1.0000   1.0000   1.0000
     1.0000   1.0000   1.0000   1.0000   1.0000   1.0000   1.0000   1.0000
     1.0000   1.0000   1.0000   1.0000   1.0000   1.0000   1.0000   1.0000
     1.0000   1.0000   1.0000   1.0000   0.0000   0.0000   0.0000   0.0000
     0.0000   0.0000   0.0000   0.0000

          k =-0.7071 0.3536 0.0000 (  6032 PWs)   bands (ev):

   -14.7168 -14.7168 -14.7167 -14.7167 -14.5488 -14.5488 -14.5469 -14.5469
   -14.4973 -14.4973 -14.4915 -14.4915 -14.4604 -14.4604 -14.4585 -14.4585
   -14.2932 -14.2932 -14.2931 -14.2931  -0.3148  -0.3148  -0.3132  -0.3132
     4.1823   4.1823   4.1824   4.1824  10.0853  10.0853  10.0859  10.0859
    10.9098  10.9098  10.9103  10.9103

     occupation numbers 
     1.0000   1.0000   1.0000   1.0000   1.0000   1.0000   1.0000   1.0000
     1.0000   1.0000   1.0000   1.0000   1.0000   1.0000   1.0000   1.0000
     1.0000   1.0000   1.0000   1.0000   1.0000   1.0000   1.0000   1.0000
     1.0000   1.0000   1.0000   1.0000   0.0000   0.0000   0.0000   0.0000
     0.0000   0.0000   0.0000   0.0000

     the Fermi energy is     6.9079 ev

!    total energy              =    -884.12267120 Ry
     Harris-Foulkes estimate   =    -884.12267119 Ry
     estimated scf accuracy    <       0.00000048 Ry

     total all-electron energy =    -24709.378244 Ry

     The total energy is the sum of the following terms:

     one-electron contribution =    -154.08792920 Ry
     hartree contribution      =      95.64311839 Ry
     xc contribution           =     -96.23752528 Ry
     ewald contribution        =    -167.52979533 Ry
     one-center paw contrib.   =    -561.91053962 Ry
     smearing contrib. (-TS)   =      -0.00000015 Ry

     convergence has been achieved in   5 iterations

     Writing output data file Sn.save
 
     init_run     :     13.27s CPU     15.61s WALL (       1 calls)
     electrons    :    257.04s CPU    274.31s WALL (       1 calls)

     Called by init_run:
     wfcinit      :     12.83s CPU     14.01s WALL (       1 calls)
     potinit      :      0.16s CPU      0.25s WALL (       1 calls)

     Called by electrons:
     c_bands      :    216.51s CPU    231.28s WALL (       6 calls)
     sum_band     :     39.78s CPU     42.15s WALL (       6 calls)
     v_of_rho     :      0.09s CPU      0.12s WALL (       6 calls)
     v_h          :      0.01s CPU      0.01s WALL (       6 calls)
     v_xc         :      0.08s CPU      0.09s WALL (       6 calls)
     newd         :      0.09s CPU      0.16s WALL (       6 calls)
     PAW_pot      :      0.65s CPU      0.76s WALL (       6 calls)
     mix_rho      :      0.03s CPU      0.05s WALL (       6 calls)

     Called by c_bands:
     init_us_2    :      0.38s CPU      0.43s WALL (    1885 calls)
     cegterg      :    212.97s CPU    227.45s WALL (     870 calls)

     Called by sum_band:
     sum_band:bec :      0.12s CPU      0.13s WALL (     870 calls)
     addusdens    :      0.12s CPU      0.15s WALL (       6 calls)

     Called by *egterg:
     h_psi        :    189.85s CPU    202.00s WALL (    3088 calls)
     s_psi        :      2.41s CPU      2.44s WALL (    3088 calls)
     g_psi        :      0.50s CPU      0.51s WALL (    2073 calls)
     cdiaghg      :     11.53s CPU     11.92s WALL (    2798 calls)
     cegterg:over :      8.30s CPU      8.34s WALL (    2073 calls)
     cegterg:upda :      4.11s CPU      4.14s WALL (    2073 calls)
     cegterg:last :      2.31s CPU      2.32s WALL (     870 calls)

     Called by h_psi:
     h_psi:vloc   :    182.98s CPU    194.90s WALL (    3088 calls)
     h_psi:vnl    :      6.43s CPU      6.64s WALL (    3088 calls)
     add_vuspsi   :      2.52s CPU      2.54s WALL (    3088 calls)

     General routines
     calbec       :      5.25s CPU      5.47s WALL (    3958 calls)
     fft          :      0.11s CPU      0.41s WALL (     116 calls)
     fftw         :    205.55s CPU    218.82s WALL (  394264 calls)
     davcio       :      0.06s CPU      0.49s WALL (     145 calls)
 
     Parallel routines
     fft_scatter  :    131.45s CPU    140.28s WALL (  394380 calls)

     PAW routines
     PAW_pot      :      0.65s CPU      0.76s WALL (       6 calls)
     PAW_symme    :      0.01s CPU      0.01s WALL (      12 calls)
 
     PWSCF        :  4m31.56s CPU     4m52.81s WALL

 
   This run was terminated on:  22:59:32  16Mar2020            

=------------------------------------------------------------------------------=
   JOB DONE.
=------------------------------------------------------------------------------=
