
     Program PWSCF v.5.4.0 starts on 17Mar2020 at 11:38:49 

     This program is part of the open-source Quantum ESPRESSO suite
     for quantum simulation of materials; please cite
         "P. Giannozzi et al., J. Phys.:Condens. Matter 21 395502 (2009);
          URL http://www.quantum-espresso.org", 
     in publications or presentations arising from this work. More details at
     http://www.quantum-espresso.org/quote

     Parallel version (MPI & OpenMP), running on      16 processor cores
     Number of MPI processes:                16
     Threads/MPI process:                     1
     R & G space division:  proc/nbgrp/npool/nimage =      16
     Waiting for input...
     Reading input from standard input
Warning: card &IONS ignored
Warning: card / ignored
Warning: card &CELL ignored
Warning: card / ignored

     Current dimensions of program PWSCF are:
     Max number of different atomic species (ntypx) = 10
     Max number of k-points (npk) =  40000
     Max angular momentum in pseudopotentials (lmaxx) =  3
               file Sn.rel-pbe-dn-rrkjus_psl.1.0.0.UPF: wavefunction(s)  5S 4D 4D renormalized

     Subspace diagonalization in iterative solution of the eigenvalue problem:
     a serial algorithm will be used

 
     Parallelization info
     --------------------
     sticks:   dense  smooth     PW     G-vecs:    dense   smooth      PW
     Min         129     129     37                 3910     3910     597
     Max         130     130     38                 3913     3913     600
     Sum        2077    2077    595                62583    62583    9577
 

     Title: 
     Sn                                                                         


     bravais-lattice index     =            0
     lattice parameter (alat)  =       8.9127  a.u.
     unit-cell volume          =     500.6268 (a.u.)^3
     number of atoms/cell      =            2
     number of atomic types    =            1
     number of electrons       =        28.00
     number of Kohn-Sham states=           36
     kinetic-energy cutoff     =      95.0000  Ry
     charge density cutoff     =     380.0000  Ry
     convergence threshold     =      1.0E-06
     mixing beta               =       0.7000
     number of iterations used =            8  plain     mixing
     Exchange-correlation      = PBE ( 1  4  3  4 0 0)
     Non magnetic calculation with spin-orbit


     celldm(1)=   8.912709  celldm(2)=   0.000000  celldm(3)=   0.000000
     celldm(4)=   0.000000  celldm(5)=   0.000000  celldm(6)=   0.000000

     crystal axes: (cart. coord. in units of alat)
               a(1) = (   0.000000   0.707107   0.707107 )  
               a(2) = (   0.707107   0.000000   0.707107 )  
               a(3) = (   0.707107   0.707107   0.000000 )  

     reciprocal axes: (cart. coord. in units 2 pi/alat)
               b(1) = ( -0.707107  0.707107  0.707107 )  
               b(2) = (  0.707107 -0.707107  0.707107 )  
               b(3) = (  0.707107  0.707107 -0.707107 )  


     PseudoPot. # 1 for Sn read from file:
     ../PseudopotentialDatabase/Sn.rel-pbe-dn-rrkjus_psl.1.0.0.UPF
     MD5 check sum: e9415cc9ba1036dfb73502962f03961a
     Pseudo is Ultrasoft + core correction, Zval = 14.0
     Generated using "atomic" code by A. Dal Corso  v.6.3
     Using radial grid of 1243 points, 10 beta functions with: 
                l(1) =   0
                l(2) =   0
                l(3) =   1
                l(4) =   1
                l(5) =   1
                l(6) =   1
                l(7) =   2
                l(8) =   2
                l(9) =   2
               l(10) =   2
     Q(r) pseudized with 0 coefficients 


     atomic species   valence    mass     pseudopotential
        Sn            14.00   118.71000     Sn( 1.00)

     48 Sym. Ops., with inversion, found (24 have fractional translation)


                                    s                        frac. trans.

      isym =  1     identity                                     

 cryst.   s( 1) = (     1          0          0      )
                  (     0          1          0      )
                  (     0          0          1      )

 cart.    s( 1) = (  1.0000000  0.0000000  0.0000000 )
                  (  0.0000000  1.0000000  0.0000000 )
                  (  0.0000000  0.0000000  1.0000000 )


      isym =  2     180 deg rotation - cart. axis [0,0,1]        

 cryst.   s( 2) = (     0          1         -1      )
                  (     1          0         -1      )
                  (     0          0         -1      )

 cart.    s( 2) = ( -1.0000000  0.0000000  0.0000000 )
                  (  0.0000000 -1.0000000  0.0000000 )
                  (  0.0000000  0.0000000  1.0000000 )


      isym =  3     180 deg rotation - cart. axis [0,1,0]        

 cryst.   s( 3) = (     0         -1          1      )
                  (     0         -1          0      )
                  (     1         -1          0      )

 cart.    s( 3) = ( -1.0000000  0.0000000  0.0000000 )
                  (  0.0000000  1.0000000  0.0000000 )
                  (  0.0000000  0.0000000 -1.0000000 )


      isym =  4     180 deg rotation - cart. axis [1,0,0]        

 cryst.   s( 4) = (    -1          0          0      )
                  (    -1          0          1      )
                  (    -1          1          0      )

 cart.    s( 4) = (  1.0000000  0.0000000  0.0000000 )
                  (  0.0000000 -1.0000000  0.0000000 )
                  (  0.0000000  0.0000000 -1.0000000 )


      isym =  5     180 deg rotation - cart. axis [1,1,0]        

 cryst.   s( 5) = (    -1          0          1      )    f =( -0.2500000 )
                  (     0         -1          1      )       ( -0.2500000 )
                  (     0          0          1      )       ( -0.2500000 )

 cart.    s( 5) = (  0.0000000  1.0000000  0.0000000 )    f =( -0.3535534 )
                  (  1.0000000  0.0000000  0.0000000 )       ( -0.3535534 )
                  (  0.0000000  0.0000000 -1.0000000 )       ( -0.3535534 )


      isym =  6     180 deg rotation - cart. axis [1,-1,0]       

 cryst.   s( 6) = (     0         -1          0      )    f =( -0.2500000 )
                  (    -1          0          0      )       ( -0.2500000 )
                  (     0          0         -1      )       ( -0.2500000 )

 cart.    s( 6) = (  0.0000000 -1.0000000  0.0000000 )    f =( -0.3535534 )
                  ( -1.0000000  0.0000000  0.0000000 )       ( -0.3535534 )
                  (  0.0000000  0.0000000 -1.0000000 )       ( -0.3535534 )


      isym =  7      90 deg rotation - cart. axis [0,0,-1]       

 cryst.   s( 7) = (     0          1          0      )    f =( -0.2500000 )
                  (     0          1         -1      )       ( -0.2500000 )
                  (    -1          1          0      )       ( -0.2500000 )

 cart.    s( 7) = (  0.0000000  1.0000000  0.0000000 )    f =( -0.3535534 )
                  ( -1.0000000  0.0000000  0.0000000 )       ( -0.3535534 )
                  (  0.0000000  0.0000000  1.0000000 )       ( -0.3535534 )


      isym =  8      90 deg rotation - cart. axis [0,0,1]        

 cryst.   s( 8) = (     1          0         -1      )    f =( -0.2500000 )
                  (     1          0          0      )       ( -0.2500000 )
                  (     1         -1          0      )       ( -0.2500000 )

 cart.    s( 8) = (  0.0000000 -1.0000000  0.0000000 )    f =( -0.3535534 )
                  (  1.0000000  0.0000000  0.0000000 )       ( -0.3535534 )
                  (  0.0000000  0.0000000  1.0000000 )       ( -0.3535534 )


      isym =  9     180 deg rotation - cart. axis [1,0,1]        

 cryst.   s( 9) = (    -1          1          0      )    f =( -0.2500000 )
                  (     0          1          0      )       ( -0.2500000 )
                  (     0          1         -1      )       ( -0.2500000 )

 cart.    s( 9) = (  0.0000000  0.0000000  1.0000000 )    f =( -0.3535534 )
                  (  0.0000000 -1.0000000  0.0000000 )       ( -0.3535534 )
                  (  1.0000000  0.0000000  0.0000000 )       ( -0.3535534 )


      isym = 10     180 deg rotation - cart. axis [-1,0,1]       

 cryst.   s(10) = (     0          0         -1      )    f =( -0.2500000 )
                  (     0         -1          0      )       ( -0.2500000 )
                  (    -1          0          0      )       ( -0.2500000 )

 cart.    s(10) = (  0.0000000  0.0000000 -1.0000000 )    f =( -0.3535534 )
                  (  0.0000000 -1.0000000  0.0000000 )       ( -0.3535534 )
                  ( -1.0000000  0.0000000  0.0000000 )       ( -0.3535534 )


      isym = 11      90 deg rotation - cart. axis [0,1,0]        

 cryst.   s(11) = (     0          0          1      )    f =( -0.2500000 )
                  (    -1          0          1      )       ( -0.2500000 )
                  (     0         -1          1      )       ( -0.2500000 )

 cart.    s(11) = (  0.0000000  0.0000000  1.0000000 )    f =( -0.3535534 )
                  (  0.0000000  1.0000000  0.0000000 )       ( -0.3535534 )
                  ( -1.0000000  0.0000000  0.0000000 )       ( -0.3535534 )


      isym = 12      90 deg rotation - cart. axis [0,-1,0]       

 cryst.   s(12) = (     1         -1          0      )    f =( -0.2500000 )
                  (     1          0         -1      )       ( -0.2500000 )
                  (     1          0          0      )       ( -0.2500000 )

 cart.    s(12) = (  0.0000000  0.0000000 -1.0000000 )    f =( -0.3535534 )
                  (  0.0000000  1.0000000  0.0000000 )       ( -0.3535534 )
                  (  1.0000000  0.0000000  0.0000000 )       ( -0.3535534 )


      isym = 13     180 deg rotation - cart. axis [0,1,1]        

 cryst.   s(13) = (     1          0          0      )    f =( -0.2500000 )
                  (     1         -1          0      )       ( -0.2500000 )
                  (     1          0         -1      )       ( -0.2500000 )

 cart.    s(13) = ( -1.0000000  0.0000000  0.0000000 )    f =( -0.3535534 )
                  (  0.0000000  0.0000000  1.0000000 )       ( -0.3535534 )
                  (  0.0000000  1.0000000  0.0000000 )       ( -0.3535534 )


      isym = 14     180 deg rotation - cart. axis [0,1,-1]       

 cryst.   s(14) = (    -1          0          0      )    f =( -0.2500000 )
                  (     0          0         -1      )       ( -0.2500000 )
                  (     0         -1          0      )       ( -0.2500000 )

 cart.    s(14) = ( -1.0000000  0.0000000  0.0000000 )    f =( -0.3535534 )
                  (  0.0000000  0.0000000 -1.0000000 )       ( -0.3535534 )
                  (  0.0000000 -1.0000000  0.0000000 )       ( -0.3535534 )


      isym = 15      90 deg rotation - cart. axis [-1,0,0]       

 cryst.   s(15) = (     0         -1          1      )    f =( -0.2500000 )
                  (     0          0          1      )       ( -0.2500000 )
                  (    -1          0          1      )       ( -0.2500000 )

 cart.    s(15) = (  1.0000000  0.0000000  0.0000000 )    f =( -0.3535534 )
                  (  0.0000000  0.0000000  1.0000000 )       ( -0.3535534 )
                  (  0.0000000 -1.0000000  0.0000000 )       ( -0.3535534 )


      isym = 16      90 deg rotation - cart. axis [1,0,0]        

 cryst.   s(16) = (     0          1         -1      )    f =( -0.2500000 )
                  (    -1          1          0      )       ( -0.2500000 )
                  (     0          1          0      )       ( -0.2500000 )

 cart.    s(16) = (  1.0000000  0.0000000  0.0000000 )    f =( -0.3535534 )
                  (  0.0000000  0.0000000 -1.0000000 )       ( -0.3535534 )
                  (  0.0000000  1.0000000  0.0000000 )       ( -0.3535534 )


      isym = 17     120 deg rotation - cart. axis [-1,-1,-1]     

 cryst.   s(17) = (     0          0          1      )
                  (     1          0          0      )
                  (     0          1          0      )

 cart.    s(17) = (  0.0000000  1.0000000  0.0000000 )
                  (  0.0000000  0.0000000  1.0000000 )
                  (  1.0000000  0.0000000  0.0000000 )


      isym = 18     120 deg rotation - cart. axis [-1,1,1]       

 cryst.   s(18) = (     1         -1          0      )
                  (     0         -1          1      )
                  (     0         -1          0      )

 cart.    s(18) = (  0.0000000 -1.0000000  0.0000000 )
                  (  0.0000000  0.0000000  1.0000000 )
                  ( -1.0000000  0.0000000  0.0000000 )


      isym = 19     120 deg rotation - cart. axis [1,1,-1]       

 cryst.   s(19) = (    -1          1          0      )
                  (    -1          0          0      )
                  (    -1          0          1      )

 cart.    s(19) = (  0.0000000  1.0000000  0.0000000 )
                  (  0.0000000  0.0000000 -1.0000000 )
                  ( -1.0000000  0.0000000  0.0000000 )


      isym = 20     120 deg rotation - cart. axis [1,-1,1]       

 cryst.   s(20) = (     0          0         -1      )
                  (     0          1         -1      )
                  (     1          0         -1      )

 cart.    s(20) = (  0.0000000 -1.0000000  0.0000000 )
                  (  0.0000000  0.0000000 -1.0000000 )
                  (  1.0000000  0.0000000  0.0000000 )


      isym = 21     120 deg rotation - cart. axis [1,1,1]        

 cryst.   s(21) = (     0          1          0      )
                  (     0          0          1      )
                  (     1          0          0      )

 cart.    s(21) = (  0.0000000  0.0000000  1.0000000 )
                  (  1.0000000  0.0000000  0.0000000 )
                  (  0.0000000  1.0000000  0.0000000 )


      isym = 22     120 deg rotation - cart. axis [-1,1,-1]      

 cryst.   s(22) = (    -1          0          1      )
                  (    -1          1          0      )
                  (    -1          0          0      )

 cart.    s(22) = (  0.0000000  0.0000000  1.0000000 )
                  ( -1.0000000  0.0000000  0.0000000 )
                  (  0.0000000 -1.0000000  0.0000000 )


      isym = 23     120 deg rotation - cart. axis [1,-1,-1]      

 cryst.   s(23) = (     1          0         -1      )
                  (     0          0         -1      )
                  (     0          1         -1      )

 cart.    s(23) = (  0.0000000  0.0000000 -1.0000000 )
                  ( -1.0000000  0.0000000  0.0000000 )
                  (  0.0000000  1.0000000  0.0000000 )


      isym = 24     120 deg rotation - cart. axis [-1,-1,1]      

 cryst.   s(24) = (     0         -1          0      )
                  (     1         -1          0      )
                  (     0         -1          1      )

 cart.    s(24) = (  0.0000000  0.0000000 -1.0000000 )
                  (  1.0000000  0.0000000  0.0000000 )
                  (  0.0000000 -1.0000000  0.0000000 )


      isym = 25     inversion                                    

 cryst.   s(25) = (    -1          0          0      )    f =( -0.2500000 )
                  (     0         -1          0      )       ( -0.2500000 )
                  (     0          0         -1      )       ( -0.2500000 )

 cart.    s(25) = ( -1.0000000  0.0000000  0.0000000 )    f =( -0.3535534 )
                  (  0.0000000 -1.0000000  0.0000000 )       ( -0.3535534 )
                  (  0.0000000  0.0000000 -1.0000000 )       ( -0.3535534 )


      isym = 26     inv. 180 deg rotation - cart. axis [0,0,1]   

 cryst.   s(26) = (     0         -1          1      )    f =( -0.2500000 )
                  (    -1          0          1      )       ( -0.2500000 )
                  (     0          0          1      )       ( -0.2500000 )

 cart.    s(26) = (  1.0000000  0.0000000  0.0000000 )    f =( -0.3535534 )
                  (  0.0000000  1.0000000  0.0000000 )       ( -0.3535534 )
                  (  0.0000000  0.0000000 -1.0000000 )       ( -0.3535534 )


      isym = 27     inv. 180 deg rotation - cart. axis [0,1,0]   

 cryst.   s(27) = (     0          1         -1      )    f =( -0.2500000 )
                  (     0          1          0      )       ( -0.2500000 )
                  (    -1          1          0      )       ( -0.2500000 )

 cart.    s(27) = (  1.0000000  0.0000000  0.0000000 )    f =( -0.3535534 )
                  (  0.0000000 -1.0000000  0.0000000 )       ( -0.3535534 )
                  (  0.0000000  0.0000000  1.0000000 )       ( -0.3535534 )


      isym = 28     inv. 180 deg rotation - cart. axis [1,0,0]   

 cryst.   s(28) = (     1          0          0      )    f =( -0.2500000 )
                  (     1          0         -1      )       ( -0.2500000 )
                  (     1         -1          0      )       ( -0.2500000 )

 cart.    s(28) = ( -1.0000000  0.0000000  0.0000000 )    f =( -0.3535534 )
                  (  0.0000000  1.0000000  0.0000000 )       ( -0.3535534 )
                  (  0.0000000  0.0000000  1.0000000 )       ( -0.3535534 )


      isym = 29     inv. 180 deg rotation - cart. axis [1,1,0]   

 cryst.   s(29) = (     1          0         -1      )
                  (     0          1         -1      )
                  (     0          0         -1      )

 cart.    s(29) = (  0.0000000 -1.0000000  0.0000000 )
                  ( -1.0000000  0.0000000  0.0000000 )
                  (  0.0000000  0.0000000  1.0000000 )


      isym = 30     inv. 180 deg rotation - cart. axis [1,-1,0]  

 cryst.   s(30) = (     0          1          0      )
                  (     1          0          0      )
                  (     0          0          1      )

 cart.    s(30) = (  0.0000000  1.0000000  0.0000000 )
                  (  1.0000000  0.0000000  0.0000000 )
                  (  0.0000000  0.0000000  1.0000000 )


      isym = 31     inv.  90 deg rotation - cart. axis [0,0,-1]  

 cryst.   s(31) = (     0         -1          0      )
                  (     0         -1          1      )
                  (     1         -1          0      )

 cart.    s(31) = (  0.0000000 -1.0000000  0.0000000 )
                  (  1.0000000  0.0000000  0.0000000 )
                  (  0.0000000  0.0000000 -1.0000000 )


      isym = 32     inv.  90 deg rotation - cart. axis [0,0,1]   

 cryst.   s(32) = (    -1          0          1      )
                  (    -1          0          0      )
                  (    -1          1          0      )

 cart.    s(32) = (  0.0000000  1.0000000  0.0000000 )
                  ( -1.0000000  0.0000000  0.0000000 )
                  (  0.0000000  0.0000000 -1.0000000 )


      isym = 33     inv. 180 deg rotation - cart. axis [1,0,1]   

 cryst.   s(33) = (     1         -1          0      )
                  (     0         -1          0      )
                  (     0         -1          1      )

 cart.    s(33) = (  0.0000000  0.0000000 -1.0000000 )
                  (  0.0000000  1.0000000  0.0000000 )
                  ( -1.0000000  0.0000000  0.0000000 )


      isym = 34     inv. 180 deg rotation - cart. axis [-1,0,1]  

 cryst.   s(34) = (     0          0          1      )
                  (     0          1          0      )
                  (     1          0          0      )

 cart.    s(34) = (  0.0000000  0.0000000  1.0000000 )
                  (  0.0000000  1.0000000  0.0000000 )
                  (  1.0000000  0.0000000  0.0000000 )


      isym = 35     inv.  90 deg rotation - cart. axis [0,1,0]   

 cryst.   s(35) = (     0          0         -1      )
                  (     1          0         -1      )
                  (     0          1         -1      )

 cart.    s(35) = (  0.0000000  0.0000000 -1.0000000 )
                  (  0.0000000 -1.0000000  0.0000000 )
                  (  1.0000000  0.0000000  0.0000000 )


      isym = 36     inv.  90 deg rotation - cart. axis [0,-1,0]  

 cryst.   s(36) = (    -1          1          0      )
                  (    -1          0          1      )
                  (    -1          0          0      )

 cart.    s(36) = (  0.0000000  0.0000000  1.0000000 )
                  (  0.0000000 -1.0000000  0.0000000 )
                  ( -1.0000000  0.0000000  0.0000000 )


      isym = 37     inv. 180 deg rotation - cart. axis [0,1,1]   

 cryst.   s(37) = (    -1          0          0      )
                  (    -1          1          0      )
                  (    -1          0          1      )

 cart.    s(37) = (  1.0000000  0.0000000  0.0000000 )
                  (  0.0000000  0.0000000 -1.0000000 )
                  (  0.0000000 -1.0000000  0.0000000 )


      isym = 38     inv. 180 deg rotation - cart. axis [0,1,-1]  

 cryst.   s(38) = (     1          0          0      )
                  (     0          0          1      )
                  (     0          1          0      )

 cart.    s(38) = (  1.0000000  0.0000000  0.0000000 )
                  (  0.0000000  0.0000000  1.0000000 )
                  (  0.0000000  1.0000000  0.0000000 )


      isym = 39     inv.  90 deg rotation - cart. axis [-1,0,0]  

 cryst.   s(39) = (     0          1         -1      )
                  (     0          0         -1      )
                  (     1          0         -1      )

 cart.    s(39) = ( -1.0000000  0.0000000  0.0000000 )
                  (  0.0000000  0.0000000 -1.0000000 )
                  (  0.0000000  1.0000000  0.0000000 )


      isym = 40     inv.  90 deg rotation - cart. axis [1,0,0]   

 cryst.   s(40) = (     0         -1          1      )
                  (     1         -1          0      )
                  (     0         -1          0      )

 cart.    s(40) = ( -1.0000000  0.0000000  0.0000000 )
                  (  0.0000000  0.0000000  1.0000000 )
                  (  0.0000000 -1.0000000  0.0000000 )


      isym = 41     inv. 120 deg rotation - cart. axis [-1,-1,-1]

 cryst.   s(41) = (     0          0         -1      )    f =( -0.2500000 )
                  (    -1          0          0      )       ( -0.2500000 )
                  (     0         -1          0      )       ( -0.2500000 )

 cart.    s(41) = (  0.0000000 -1.0000000  0.0000000 )    f =( -0.3535534 )
                  (  0.0000000  0.0000000 -1.0000000 )       ( -0.3535534 )
                  ( -1.0000000  0.0000000  0.0000000 )       ( -0.3535534 )


      isym = 42     inv. 120 deg rotation - cart. axis [-1,1,1]  

 cryst.   s(42) = (    -1          1          0      )    f =( -0.2500000 )
                  (     0          1         -1      )       ( -0.2500000 )
                  (     0          1          0      )       ( -0.2500000 )

 cart.    s(42) = (  0.0000000  1.0000000  0.0000000 )    f =( -0.3535534 )
                  (  0.0000000  0.0000000 -1.0000000 )       ( -0.3535534 )
                  (  1.0000000  0.0000000  0.0000000 )       ( -0.3535534 )


      isym = 43     inv. 120 deg rotation - cart. axis [1,1,-1]  

 cryst.   s(43) = (     1         -1          0      )    f =( -0.2500000 )
                  (     1          0          0      )       ( -0.2500000 )
                  (     1          0         -1      )       ( -0.2500000 )

 cart.    s(43) = (  0.0000000 -1.0000000  0.0000000 )    f =( -0.3535534 )
                  (  0.0000000  0.0000000  1.0000000 )       ( -0.3535534 )
                  (  1.0000000  0.0000000  0.0000000 )       ( -0.3535534 )


      isym = 44     inv. 120 deg rotation - cart. axis [1,-1,1]  

 cryst.   s(44) = (     0          0          1      )    f =( -0.2500000 )
                  (     0         -1          1      )       ( -0.2500000 )
                  (    -1          0          1      )       ( -0.2500000 )

 cart.    s(44) = (  0.0000000  1.0000000  0.0000000 )    f =( -0.3535534 )
                  (  0.0000000  0.0000000  1.0000000 )       ( -0.3535534 )
                  ( -1.0000000  0.0000000  0.0000000 )       ( -0.3535534 )


      isym = 45     inv. 120 deg rotation - cart. axis [1,1,1]   

 cryst.   s(45) = (     0         -1          0      )    f =( -0.2500000 )
                  (     0          0         -1      )       ( -0.2500000 )
                  (    -1          0          0      )       ( -0.2500000 )

 cart.    s(45) = (  0.0000000  0.0000000 -1.0000000 )    f =( -0.3535534 )
                  ( -1.0000000  0.0000000  0.0000000 )       ( -0.3535534 )
                  (  0.0000000 -1.0000000  0.0000000 )       ( -0.3535534 )


      isym = 46     inv. 120 deg rotation - cart. axis [-1,1,-1] 

 cryst.   s(46) = (     1          0         -1      )    f =( -0.2500000 )
                  (     1         -1          0      )       ( -0.2500000 )
                  (     1          0          0      )       ( -0.2500000 )

 cart.    s(46) = (  0.0000000  0.0000000 -1.0000000 )    f =( -0.3535534 )
                  (  1.0000000  0.0000000  0.0000000 )       ( -0.3535534 )
                  (  0.0000000  1.0000000  0.0000000 )       ( -0.3535534 )


      isym = 47     inv. 120 deg rotation - cart. axis [1,-1,-1] 

 cryst.   s(47) = (    -1          0          1      )    f =( -0.2500000 )
                  (     0          0          1      )       ( -0.2500000 )
                  (     0         -1          1      )       ( -0.2500000 )

 cart.    s(47) = (  0.0000000  0.0000000  1.0000000 )    f =( -0.3535534 )
                  (  1.0000000  0.0000000  0.0000000 )       ( -0.3535534 )
                  (  0.0000000 -1.0000000  0.0000000 )       ( -0.3535534 )


      isym = 48     inv. 120 deg rotation - cart. axis [-1,-1,1] 

 cryst.   s(48) = (     0          1          0      )    f =( -0.2500000 )
                  (    -1          1          0      )       ( -0.2500000 )
                  (     0          1         -1      )       ( -0.2500000 )

 cart.    s(48) = (  0.0000000  0.0000000  1.0000000 )    f =( -0.3535534 )
                  ( -1.0000000  0.0000000  0.0000000 )       ( -0.3535534 )
                  (  0.0000000  1.0000000  0.0000000 )       ( -0.3535534 )


   Cartesian axes

     site n.     atom                  positions (alat units)
         1           Sn  tau(   1) = (   0.0000000   0.0000000   0.0000000  )
         2           Sn  tau(   2) = (   0.3535534   0.3535534   0.3535534  )

   Crystallographic axes

     site n.     atom                  positions (cryst. coord.)
         1           Sn  tau(   1) = (  0.0000000  0.0000000  0.0000000  )
         2           Sn  tau(   2) = (  0.2500000  0.2500000  0.2500000  )

     number of k points=   145  gaussian smearing, width (Ry)=  0.0001
                       cart. coord. in units 2pi/alat
        k(    1) = (   0.0000000   0.0000000   0.0000000), wk =   0.0002441
        k(    2) = (   0.0441942   0.0441942  -0.0441942), wk =   0.0019531
        k(    3) = (   0.0883883   0.0883883  -0.0883883), wk =   0.0019531
        k(    4) = (   0.1325825   0.1325825  -0.1325825), wk =   0.0019531
        k(    5) = (   0.1767767   0.1767767  -0.1767767), wk =   0.0019531
        k(    6) = (   0.2209709   0.2209709  -0.2209709), wk =   0.0019531
        k(    7) = (   0.2651650   0.2651650  -0.2651650), wk =   0.0019531
        k(    8) = (   0.3093592   0.3093592  -0.3093592), wk =   0.0019531
        k(    9) = (  -0.3535534  -0.3535534   0.3535534), wk =   0.0009766
        k(   10) = (   0.0883883   0.0000000   0.0000000), wk =   0.0014648
        k(   11) = (   0.1325825   0.0441942  -0.0441942), wk =   0.0058594
        k(   12) = (   0.1767767   0.0883883  -0.0883883), wk =   0.0058594
        k(   13) = (   0.2209709   0.1325825  -0.1325825), wk =   0.0058594
        k(   14) = (   0.2651650   0.1767767  -0.1767767), wk =   0.0058594
        k(   15) = (   0.3093592   0.2209709  -0.2209709), wk =   0.0058594
        k(   16) = (   0.3535534   0.2651650  -0.2651650), wk =   0.0058594
        k(   17) = (  -0.3093592  -0.3977476   0.3977476), wk =   0.0058594
        k(   18) = (  -0.2651650  -0.3535534   0.3535534), wk =   0.0058594
        k(   19) = (  -0.2209709  -0.3093592   0.3093592), wk =   0.0058594
        k(   20) = (  -0.1767767  -0.2651650   0.2651650), wk =   0.0058594
        k(   21) = (  -0.1325825  -0.2209709   0.2209709), wk =   0.0058594
        k(   22) = (  -0.0883883  -0.1767767   0.1767767), wk =   0.0058594
        k(   23) = (  -0.0441942  -0.1325825   0.1325825), wk =   0.0058594
        k(   24) = (   0.0000000  -0.0883883   0.0883883), wk =   0.0029297
        k(   25) = (   0.1767767   0.0000000   0.0000000), wk =   0.0014648
        k(   26) = (   0.2209709   0.0441942  -0.0441942), wk =   0.0058594
        k(   27) = (   0.2651650   0.0883883  -0.0883883), wk =   0.0058594
        k(   28) = (   0.3093592   0.1325825  -0.1325825), wk =   0.0058594
        k(   29) = (   0.3535534   0.1767767  -0.1767767), wk =   0.0058594
        k(   30) = (   0.3977476   0.2209709  -0.2209709), wk =   0.0058594
        k(   31) = (  -0.2651650  -0.4419417   0.4419417), wk =   0.0058594
        k(   32) = (  -0.2209709  -0.3977476   0.3977476), wk =   0.0058594
        k(   33) = (  -0.1767767  -0.3535534   0.3535534), wk =   0.0058594
        k(   34) = (  -0.1325825  -0.3093592   0.3093592), wk =   0.0058594
        k(   35) = (  -0.0883883  -0.2651650   0.2651650), wk =   0.0058594
        k(   36) = (  -0.0441942  -0.2209709   0.2209709), wk =   0.0058594
        k(   37) = (   0.0000000  -0.1767767   0.1767767), wk =   0.0029297
        k(   38) = (   0.2651650   0.0000000   0.0000000), wk =   0.0014648
        k(   39) = (   0.3093592   0.0441942  -0.0441942), wk =   0.0058594
        k(   40) = (   0.3535534   0.0883883  -0.0883883), wk =   0.0058594
        k(   41) = (   0.3977476   0.1325825  -0.1325825), wk =   0.0058594
        k(   42) = (   0.4419417   0.1767767  -0.1767767), wk =   0.0058594
        k(   43) = (  -0.2209709  -0.4861359   0.4861359), wk =   0.0058594
        k(   44) = (  -0.1767767  -0.4419417   0.4419417), wk =   0.0058594
        k(   45) = (  -0.1325825  -0.3977476   0.3977476), wk =   0.0058594
        k(   46) = (  -0.0883883  -0.3535534   0.3535534), wk =   0.0058594
        k(   47) = (  -0.0441942  -0.3093592   0.3093592), wk =   0.0058594
        k(   48) = (   0.0000000  -0.2651650   0.2651650), wk =   0.0029297
        k(   49) = (   0.3535534   0.0000000   0.0000000), wk =   0.0014648
        k(   50) = (   0.3977476   0.0441942  -0.0441942), wk =   0.0058594
        k(   51) = (   0.4419417   0.0883883  -0.0883883), wk =   0.0058594
        k(   52) = (   0.4861359   0.1325825  -0.1325825), wk =   0.0058594
        k(   53) = (  -0.1767767  -0.5303301   0.5303301), wk =   0.0058594
        k(   54) = (  -0.1325825  -0.4861359   0.4861359), wk =   0.0058594
        k(   55) = (  -0.0883883  -0.4419417   0.4419417), wk =   0.0058594
        k(   56) = (  -0.0441942  -0.3977476   0.3977476), wk =   0.0058594
        k(   57) = (   0.0000000  -0.3535534   0.3535534), wk =   0.0029297
        k(   58) = (   0.4419417   0.0000000   0.0000000), wk =   0.0014648
        k(   59) = (   0.4861359   0.0441942  -0.0441942), wk =   0.0058594
        k(   60) = (   0.5303301   0.0883883  -0.0883883), wk =   0.0058594
        k(   61) = (  -0.1325825  -0.5745243   0.5745243), wk =   0.0058594
        k(   62) = (  -0.0883883  -0.5303301   0.5303301), wk =   0.0058594
        k(   63) = (  -0.0441942  -0.4861359   0.4861359), wk =   0.0058594
        k(   64) = (   0.0000000  -0.4419417   0.4419417), wk =   0.0029297
        k(   65) = (   0.5303301   0.0000000   0.0000000), wk =   0.0014648
        k(   66) = (   0.5745243   0.0441942  -0.0441942), wk =   0.0058594
        k(   67) = (  -0.0883883  -0.6187184   0.6187184), wk =   0.0058594
        k(   68) = (  -0.0441942  -0.5745243   0.5745243), wk =   0.0058594
        k(   69) = (   0.0000000  -0.5303301   0.5303301), wk =   0.0029297
        k(   70) = (   0.6187184   0.0000000   0.0000000), wk =   0.0014648
        k(   71) = (  -0.0441942  -0.6629126   0.6629126), wk =   0.0058594
        k(   72) = (   0.0000000  -0.6187184   0.6187184), wk =   0.0029297
        k(   73) = (  -0.7071068   0.0000000   0.0000000), wk =   0.0007324
        k(   74) = (   0.1767767   0.0883883   0.0000000), wk =   0.0058594
        k(   75) = (   0.2209709   0.1325825  -0.0441942), wk =   0.0117188
        k(   76) = (   0.2651650   0.1767767  -0.0883883), wk =   0.0117188
        k(   77) = (   0.3093592   0.2209709  -0.1325825), wk =   0.0117188
        k(   78) = (   0.3535534   0.2651650  -0.1767767), wk =   0.0117188
        k(   79) = (  -0.3093592  -0.3977476   0.4861359), wk =   0.0117188
        k(   80) = (  -0.2651650  -0.3535534   0.4419417), wk =   0.0058594
        k(   81) = (   0.2651650   0.0883883   0.0000000), wk =   0.0058594
        k(   82) = (   0.3093592   0.1325825  -0.0441942), wk =   0.0117188
        k(   83) = (   0.3535534   0.1767767  -0.0883883), wk =   0.0117188
        k(   84) = (   0.3977476   0.2209709  -0.1325825), wk =   0.0117188
        k(   85) = (  -0.2651650  -0.4419417   0.5303301), wk =   0.0117188
        k(   86) = (  -0.2209709  -0.3977476   0.4861359), wk =   0.0117188
        k(   87) = (  -0.1767767  -0.3535534   0.4419417), wk =   0.0117188
        k(   88) = (  -0.1325825  -0.3093592   0.3977476), wk =   0.0117188
        k(   89) = (  -0.0883883  -0.2651650   0.3535534), wk =   0.0117188
        k(   90) = (  -0.0441942  -0.2209709   0.3093592), wk =   0.0117188
        k(   91) = (   0.0000000  -0.1767767   0.2651650), wk =   0.0058594
        k(   92) = (   0.3535534   0.0883883   0.0000000), wk =   0.0058594
        k(   93) = (   0.3977476   0.1325825  -0.0441942), wk =   0.0117188
        k(   94) = (   0.4419417   0.1767767  -0.0883883), wk =   0.0117188
        k(   95) = (  -0.2209709  -0.4861359   0.5745243), wk =   0.0117188
        k(   96) = (  -0.1767767  -0.4419417   0.5303301), wk =   0.0117188
        k(   97) = (  -0.1325825  -0.3977476   0.4861359), wk =   0.0117188
        k(   98) = (  -0.0883883  -0.3535534   0.4419417), wk =   0.0117188
        k(   99) = (  -0.0441942  -0.3093592   0.3977476), wk =   0.0117188
        k(  100) = (   0.0000000  -0.2651650   0.3535534), wk =   0.0058594
        k(  101) = (   0.4419417   0.0883883   0.0000000), wk =   0.0058594
        k(  102) = (   0.4861359   0.1325825  -0.0441942), wk =   0.0117188
        k(  103) = (  -0.1767767  -0.5303301   0.6187184), wk =   0.0117188
        k(  104) = (  -0.1325825  -0.4861359   0.5745243), wk =   0.0117188
        k(  105) = (  -0.0883883  -0.4419417   0.5303301), wk =   0.0117188
        k(  106) = (  -0.0441942  -0.3977476   0.4861359), wk =   0.0117188
        k(  107) = (   0.0000000  -0.3535534   0.4419417), wk =   0.0058594
        k(  108) = (   0.5303301   0.0883883   0.0000000), wk =   0.0058594
        k(  109) = (  -0.1325825  -0.5745243   0.6629126), wk =   0.0117188
        k(  110) = (  -0.0883883  -0.5303301   0.6187184), wk =   0.0117188
        k(  111) = (  -0.0441942  -0.4861359   0.5745243), wk =   0.0117188
        k(  112) = (   0.0000000  -0.4419417   0.5303301), wk =   0.0058594
        k(  113) = (  -0.0883883  -0.6187184   0.7071068), wk =   0.0058594
        k(  114) = (  -0.0441942  -0.5745243   0.6629126), wk =   0.0117188
        k(  115) = (  -0.0000000  -0.5303301   0.6187184), wk =   0.0058594
        k(  116) = (  -0.7071068   0.0883883   0.0000000), wk =   0.0029297
        k(  117) = (   0.3535534   0.1767767   0.0000000), wk =   0.0058594
        k(  118) = (   0.3977476   0.2209709  -0.0441942), wk =   0.0117188
        k(  119) = (  -0.2651650  -0.4419417   0.6187184), wk =   0.0117188
        k(  120) = (  -0.2209709  -0.3977476   0.5745243), wk =   0.0117188
        k(  121) = (  -0.1767767  -0.3535534   0.5303301), wk =   0.0058594
        k(  122) = (   0.4419417   0.1767767   0.0000000), wk =   0.0058594
        k(  123) = (  -0.2209709  -0.4861359   0.6629126), wk =   0.0117188
        k(  124) = (  -0.1767767  -0.4419417   0.6187184), wk =   0.0117188
        k(  125) = (  -0.1325825  -0.3977476   0.5745243), wk =   0.0117188
        k(  126) = (  -0.0883883  -0.3535534   0.5303301), wk =   0.0117188
        k(  127) = (  -0.0441942  -0.3093592   0.4861359), wk =   0.0117188
        k(  128) = (   0.0000000  -0.2651650   0.4419417), wk =   0.0058594
        k(  129) = (  -0.1767767  -0.5303301   0.7071068), wk =   0.0058594
        k(  130) = (  -0.1325825  -0.4861359   0.6629126), wk =   0.0117188
        k(  131) = (  -0.0883883  -0.4419417   0.6187184), wk =   0.0117188
        k(  132) = (  -0.0441942  -0.3977476   0.5745243), wk =   0.0117188
        k(  133) = (   0.0000000  -0.3535534   0.5303301), wk =   0.0058594
        k(  134) = (  -0.0883883  -0.5303301   0.7071068), wk =   0.0058594
        k(  135) = (  -0.0441942  -0.4861359   0.6629126), wk =   0.0117188
        k(  136) = (   0.0000000  -0.4419417   0.6187184), wk =   0.0058594
        k(  137) = (  -0.7071068   0.1767767   0.0000000), wk =   0.0029297
        k(  138) = (  -0.1767767  -0.4419417   0.7071068), wk =   0.0058594
        k(  139) = (  -0.1325825  -0.3977476   0.6629126), wk =   0.0117188
        k(  140) = (  -0.0883883  -0.3535534   0.6187184), wk =   0.0058594
        k(  141) = (  -0.0883883  -0.4419417   0.7071068), wk =   0.0058594
        k(  142) = (  -0.0441942  -0.3977476   0.6629126), wk =   0.0117188
        k(  143) = (  -0.0000000  -0.3535534   0.6187184), wk =   0.0058594
        k(  144) = (  -0.7071068   0.2651650   0.0000000), wk =   0.0029297
        k(  145) = (  -0.7071068   0.3535534   0.0000000), wk =   0.0014648

                       cryst. coord.
        k(    1) = (   0.0000000   0.0000000   0.0000000), wk =   0.0002441
        k(    2) = (   0.0000000   0.0000000   0.0625000), wk =   0.0019531
        k(    3) = (   0.0000000   0.0000000   0.1250000), wk =   0.0019531
        k(    4) = (   0.0000000   0.0000000   0.1875000), wk =   0.0019531
        k(    5) = (   0.0000000   0.0000000   0.2500000), wk =   0.0019531
        k(    6) = (   0.0000000   0.0000000   0.3125000), wk =   0.0019531
        k(    7) = (   0.0000000   0.0000000   0.3750000), wk =   0.0019531
        k(    8) = (   0.0000000   0.0000000   0.4375000), wk =   0.0019531
        k(    9) = (   0.0000000   0.0000000  -0.5000000), wk =   0.0009766
        k(   10) = (   0.0000000   0.0625000   0.0625000), wk =   0.0014648
        k(   11) = (   0.0000000   0.0625000   0.1250000), wk =   0.0058594
        k(   12) = (   0.0000000   0.0625000   0.1875000), wk =   0.0058594
        k(   13) = (   0.0000000   0.0625000   0.2500000), wk =   0.0058594
        k(   14) = (   0.0000000   0.0625000   0.3125000), wk =   0.0058594
        k(   15) = (   0.0000000   0.0625000   0.3750000), wk =   0.0058594
        k(   16) = (   0.0000000   0.0625000   0.4375000), wk =   0.0058594
        k(   17) = (   0.0000000   0.0625000  -0.5000000), wk =   0.0058594
        k(   18) = (   0.0000000   0.0625000  -0.4375000), wk =   0.0058594
        k(   19) = (   0.0000000   0.0625000  -0.3750000), wk =   0.0058594
        k(   20) = (   0.0000000   0.0625000  -0.3125000), wk =   0.0058594
        k(   21) = (   0.0000000   0.0625000  -0.2500000), wk =   0.0058594
        k(   22) = (   0.0000000   0.0625000  -0.1875000), wk =   0.0058594
        k(   23) = (   0.0000000   0.0625000  -0.1250000), wk =   0.0058594
        k(   24) = (   0.0000000   0.0625000  -0.0625000), wk =   0.0029297
        k(   25) = (   0.0000000   0.1250000   0.1250000), wk =   0.0014648
        k(   26) = (   0.0000000   0.1250000   0.1875000), wk =   0.0058594
        k(   27) = (   0.0000000   0.1250000   0.2500000), wk =   0.0058594
        k(   28) = (   0.0000000   0.1250000   0.3125000), wk =   0.0058594
        k(   29) = (   0.0000000   0.1250000   0.3750000), wk =   0.0058594
        k(   30) = (   0.0000000   0.1250000   0.4375000), wk =   0.0058594
        k(   31) = (   0.0000000   0.1250000  -0.5000000), wk =   0.0058594
        k(   32) = (   0.0000000   0.1250000  -0.4375000), wk =   0.0058594
        k(   33) = (   0.0000000   0.1250000  -0.3750000), wk =   0.0058594
        k(   34) = (   0.0000000   0.1250000  -0.3125000), wk =   0.0058594
        k(   35) = (   0.0000000   0.1250000  -0.2500000), wk =   0.0058594
        k(   36) = (   0.0000000   0.1250000  -0.1875000), wk =   0.0058594
        k(   37) = (   0.0000000   0.1250000  -0.1250000), wk =   0.0029297
        k(   38) = (   0.0000000   0.1875000   0.1875000), wk =   0.0014648
        k(   39) = (   0.0000000   0.1875000   0.2500000), wk =   0.0058594
        k(   40) = (   0.0000000   0.1875000   0.3125000), wk =   0.0058594
        k(   41) = (   0.0000000   0.1875000   0.3750000), wk =   0.0058594
        k(   42) = (   0.0000000   0.1875000   0.4375000), wk =   0.0058594
        k(   43) = (   0.0000000   0.1875000  -0.5000000), wk =   0.0058594
        k(   44) = (   0.0000000   0.1875000  -0.4375000), wk =   0.0058594
        k(   45) = (   0.0000000   0.1875000  -0.3750000), wk =   0.0058594
        k(   46) = (   0.0000000   0.1875000  -0.3125000), wk =   0.0058594
        k(   47) = (   0.0000000   0.1875000  -0.2500000), wk =   0.0058594
        k(   48) = (   0.0000000   0.1875000  -0.1875000), wk =   0.0029297
        k(   49) = (   0.0000000   0.2500000   0.2500000), wk =   0.0014648
        k(   50) = (   0.0000000   0.2500000   0.3125000), wk =   0.0058594
        k(   51) = (   0.0000000   0.2500000   0.3750000), wk =   0.0058594
        k(   52) = (   0.0000000   0.2500000   0.4375000), wk =   0.0058594
        k(   53) = (   0.0000000   0.2500000  -0.5000000), wk =   0.0058594
        k(   54) = (   0.0000000   0.2500000  -0.4375000), wk =   0.0058594
        k(   55) = (   0.0000000   0.2500000  -0.3750000), wk =   0.0058594
        k(   56) = (   0.0000000   0.2500000  -0.3125000), wk =   0.0058594
        k(   57) = (   0.0000000   0.2500000  -0.2500000), wk =   0.0029297
        k(   58) = (   0.0000000   0.3125000   0.3125000), wk =   0.0014648
        k(   59) = (   0.0000000   0.3125000   0.3750000), wk =   0.0058594
        k(   60) = (   0.0000000   0.3125000   0.4375000), wk =   0.0058594
        k(   61) = (   0.0000000   0.3125000  -0.5000000), wk =   0.0058594
        k(   62) = (   0.0000000   0.3125000  -0.4375000), wk =   0.0058594
        k(   63) = (   0.0000000   0.3125000  -0.3750000), wk =   0.0058594
        k(   64) = (   0.0000000   0.3125000  -0.3125000), wk =   0.0029297
        k(   65) = (   0.0000000   0.3750000   0.3750000), wk =   0.0014648
        k(   66) = (   0.0000000   0.3750000   0.4375000), wk =   0.0058594
        k(   67) = (   0.0000000   0.3750000  -0.5000000), wk =   0.0058594
        k(   68) = (   0.0000000   0.3750000  -0.4375000), wk =   0.0058594
        k(   69) = (   0.0000000   0.3750000  -0.3750000), wk =   0.0029297
        k(   70) = (   0.0000000   0.4375000   0.4375000), wk =   0.0014648
        k(   71) = (   0.0000000   0.4375000  -0.5000000), wk =   0.0058594
        k(   72) = (   0.0000000   0.4375000  -0.4375000), wk =   0.0029297
        k(   73) = (   0.0000000  -0.5000000  -0.5000000), wk =   0.0007324
        k(   74) = (   0.0625000   0.1250000   0.1875000), wk =   0.0058594
        k(   75) = (   0.0625000   0.1250000   0.2500000), wk =   0.0117188
        k(   76) = (   0.0625000   0.1250000   0.3125000), wk =   0.0117188
        k(   77) = (   0.0625000   0.1250000   0.3750000), wk =   0.0117188
        k(   78) = (   0.0625000   0.1250000   0.4375000), wk =   0.0117188
        k(   79) = (   0.0625000   0.1250000  -0.5000000), wk =   0.0117188
        k(   80) = (   0.0625000   0.1250000  -0.4375000), wk =   0.0058594
        k(   81) = (   0.0625000   0.1875000   0.2500000), wk =   0.0058594
        k(   82) = (   0.0625000   0.1875000   0.3125000), wk =   0.0117188
        k(   83) = (   0.0625000   0.1875000   0.3750000), wk =   0.0117188
        k(   84) = (   0.0625000   0.1875000   0.4375000), wk =   0.0117188
        k(   85) = (   0.0625000   0.1875000  -0.5000000), wk =   0.0117188
        k(   86) = (   0.0625000   0.1875000  -0.4375000), wk =   0.0117188
        k(   87) = (   0.0625000   0.1875000  -0.3750000), wk =   0.0117188
        k(   88) = (   0.0625000   0.1875000  -0.3125000), wk =   0.0117188
        k(   89) = (   0.0625000   0.1875000  -0.2500000), wk =   0.0117188
        k(   90) = (   0.0625000   0.1875000  -0.1875000), wk =   0.0117188
        k(   91) = (   0.0625000   0.1875000  -0.1250000), wk =   0.0058594
        k(   92) = (   0.0625000   0.2500000   0.3125000), wk =   0.0058594
        k(   93) = (   0.0625000   0.2500000   0.3750000), wk =   0.0117188
        k(   94) = (   0.0625000   0.2500000   0.4375000), wk =   0.0117188
        k(   95) = (   0.0625000   0.2500000  -0.5000000), wk =   0.0117188
        k(   96) = (   0.0625000   0.2500000  -0.4375000), wk =   0.0117188
        k(   97) = (   0.0625000   0.2500000  -0.3750000), wk =   0.0117188
        k(   98) = (   0.0625000   0.2500000  -0.3125000), wk =   0.0117188
        k(   99) = (   0.0625000   0.2500000  -0.2500000), wk =   0.0117188
        k(  100) = (   0.0625000   0.2500000  -0.1875000), wk =   0.0058594
        k(  101) = (   0.0625000   0.3125000   0.3750000), wk =   0.0058594
        k(  102) = (   0.0625000   0.3125000   0.4375000), wk =   0.0117188
        k(  103) = (   0.0625000   0.3125000  -0.5000000), wk =   0.0117188
        k(  104) = (   0.0625000   0.3125000  -0.4375000), wk =   0.0117188
        k(  105) = (   0.0625000   0.3125000  -0.3750000), wk =   0.0117188
        k(  106) = (   0.0625000   0.3125000  -0.3125000), wk =   0.0117188
        k(  107) = (   0.0625000   0.3125000  -0.2500000), wk =   0.0058594
        k(  108) = (   0.0625000   0.3750000   0.4375000), wk =   0.0058594
        k(  109) = (   0.0625000   0.3750000  -0.5000000), wk =   0.0117188
        k(  110) = (   0.0625000   0.3750000  -0.4375000), wk =   0.0117188
        k(  111) = (   0.0625000   0.3750000  -0.3750000), wk =   0.0117188
        k(  112) = (   0.0625000   0.3750000  -0.3125000), wk =   0.0058594
        k(  113) = (   0.0625000   0.4375000  -0.5000000), wk =   0.0058594
        k(  114) = (   0.0625000   0.4375000  -0.4375000), wk =   0.0117188
        k(  115) = (   0.0625000   0.4375000  -0.3750000), wk =   0.0058594
        k(  116) = (   0.0625000  -0.5000000  -0.4375000), wk =   0.0029297
        k(  117) = (   0.1250000   0.2500000   0.3750000), wk =   0.0058594
        k(  118) = (   0.1250000   0.2500000   0.4375000), wk =   0.0117188
        k(  119) = (   0.1250000   0.2500000  -0.5000000), wk =   0.0117188
        k(  120) = (   0.1250000   0.2500000  -0.4375000), wk =   0.0117188
        k(  121) = (   0.1250000   0.2500000  -0.3750000), wk =   0.0058594
        k(  122) = (   0.1250000   0.3125000   0.4375000), wk =   0.0058594
        k(  123) = (   0.1250000   0.3125000  -0.5000000), wk =   0.0117188
        k(  124) = (   0.1250000   0.3125000  -0.4375000), wk =   0.0117188
        k(  125) = (   0.1250000   0.3125000  -0.3750000), wk =   0.0117188
        k(  126) = (   0.1250000   0.3125000  -0.3125000), wk =   0.0117188
        k(  127) = (   0.1250000   0.3125000  -0.2500000), wk =   0.0117188
        k(  128) = (   0.1250000   0.3125000  -0.1875000), wk =   0.0058594
        k(  129) = (   0.1250000   0.3750000  -0.5000000), wk =   0.0058594
        k(  130) = (   0.1250000   0.3750000  -0.4375000), wk =   0.0117188
        k(  131) = (   0.1250000   0.3750000  -0.3750000), wk =   0.0117188
        k(  132) = (   0.1250000   0.3750000  -0.3125000), wk =   0.0117188
        k(  133) = (   0.1250000   0.3750000  -0.2500000), wk =   0.0058594
        k(  134) = (   0.1250000   0.4375000  -0.4375000), wk =   0.0058594
        k(  135) = (   0.1250000   0.4375000  -0.3750000), wk =   0.0117188
        k(  136) = (   0.1250000   0.4375000  -0.3125000), wk =   0.0058594
        k(  137) = (   0.1250000  -0.5000000  -0.3750000), wk =   0.0029297
        k(  138) = (   0.1875000   0.3750000  -0.4375000), wk =   0.0058594
        k(  139) = (   0.1875000   0.3750000  -0.3750000), wk =   0.0117188
        k(  140) = (   0.1875000   0.3750000  -0.3125000), wk =   0.0058594
        k(  141) = (   0.1875000   0.4375000  -0.3750000), wk =   0.0058594
        k(  142) = (   0.1875000   0.4375000  -0.3125000), wk =   0.0117188
        k(  143) = (   0.1875000   0.4375000  -0.2500000), wk =   0.0058594
        k(  144) = (   0.1875000  -0.5000000  -0.3125000), wk =   0.0029297
        k(  145) = (   0.2500000  -0.5000000  -0.2500000), wk =   0.0014648

     Dense  grid:    62583 G-vectors     FFT dimensions: (  60,  60,  60)

     Largest allocated arrays     est. size (Mb)     dimensions
        Kohn-Sham Wavefunctions         0.56 Mb     (    1024,   36)
        NL pseudopotentials             0.53 Mb     (     512,   68)
        Each V/rho on FFT grid          0.22 Mb     (   14400)
        Each G-vector array             0.03 Mb     (    3912)
        G-vector shells                 0.00 Mb     (     489)
     Largest temporary arrays     est. size (Mb)     dimensions
        Auxiliary wavefunctions         2.25 Mb     (    1024,  144)
        Each subspace H/S matrix        0.32 Mb     (     144,  144)
        Each <psi_i|beta_j> matrix      0.07 Mb     (      68,   2,   36)
        Arrays for rho mixing           1.76 Mb     (   14400,    8)

     Check: negative/imaginary core charge=   -0.000001    0.000000

     Initial potential from superposition of free atoms

     starting charge   27.99781, renormalised to   28.00000
     Starting wfc are   36 randomized atomic wfcs

     total cpu time spent up to now is        9.3 secs

     Self-consistent Calculation

     iteration #  1     ecut=    95.00 Ry     beta=0.70
     Davidson diagonalization with overlap
     ethr =  1.00E-02,  avg # of iterations =  3.5

     Threshold (ethr) on eigenvalues was too large:
     Diagonalizing with lowered threshold

     Davidson diagonalization with overlap
     ethr =  5.68E-05,  avg # of iterations =  3.5

     total cpu time spent up to now is       68.6 secs

     total energy              =    -325.85626489 Ry
     Harris-Foulkes estimate   =    -325.85828475 Ry
     estimated scf accuracy    <       0.01885476 Ry

     iteration #  2     ecut=    95.00 Ry     beta=0.70
     Davidson diagonalization with overlap
     ethr =  6.73E-05,  avg # of iterations =  1.0

     total cpu time spent up to now is       91.9 secs

     total energy              =    -325.85684852 Ry
     Harris-Foulkes estimate   =    -325.85696044 Ry
     estimated scf accuracy    <       0.00151048 Ry

     iteration #  3     ecut=    95.00 Ry     beta=0.70
     Davidson diagonalization with overlap
     ethr =  5.39E-06,  avg # of iterations =  2.3

     total cpu time spent up to now is      123.1 secs

     total energy              =    -325.85706134 Ry
     Harris-Foulkes estimate   =    -325.85710115 Ry
     estimated scf accuracy    <       0.00008168 Ry

     iteration #  4     ecut=    95.00 Ry     beta=0.70
     Davidson diagonalization with overlap
     ethr =  2.92E-07,  avg # of iterations =  2.0

     total cpu time spent up to now is      152.1 secs

     total energy              =    -325.85708180 Ry
     Harris-Foulkes estimate   =    -325.85708007 Ry
     estimated scf accuracy    <       0.00000288 Ry

     iteration #  5     ecut=    95.00 Ry     beta=0.70
     Davidson diagonalization with overlap
     ethr =  1.03E-08,  avg # of iterations =  2.0

     total cpu time spent up to now is      178.0 secs

     End of self-consistent calculation

          k = 0.0000 0.0000 0.0000 (  7799 PWs)   bands (ev):

   -15.1258 -15.1258 -15.1258 -15.1258 -15.0460 -15.0460 -15.0460 -15.0460
   -14.1992 -14.1992 -14.0307 -14.0307 -14.0307 -14.0307 -13.9935 -13.9935
   -13.9935 -13.9935 -13.8899 -13.8899  -3.1712  -3.1712   5.7239   5.7239
     6.5508   6.5508   7.1990   7.1990   7.1990   7.1990   8.7331   8.7331
     9.2029   9.2029   9.2029   9.2029

     occupation numbers 
     1.0000   1.0000   1.0000   1.0000   1.0000   1.0000   1.0000   1.0000
     1.0000   1.0000   1.0000   1.0000   1.0000   1.0000   1.0000   1.0000
     1.0000   1.0000   1.0000   1.0000   1.0000   1.0000   1.0000   1.0000
     1.0000   1.0000   0.0000   0.0000   0.0000   0.0000   0.0000   0.0000
     0.0000   0.0000   0.0000   0.0000

          k = 0.0442 0.0442-0.0442 (  7802 PWs)   bands (ev):

   -15.1262 -15.1262 -15.1250 -15.1250 -15.0467 -15.0467 -15.0454 -15.0454
   -14.1974 -14.1974 -14.0357 -14.0357 -14.0339 -14.0339 -13.9902 -13.9902
   -13.9892 -13.9892 -13.8908 -13.8908  -3.1364  -3.1364   5.3152   5.3152
     6.5970   6.5970   7.1242   7.1242   7.2603   7.2603   8.8900   8.8900
     9.2854   9.2854   9.2999   9.2999

     occupation numbers 
     1.0000   1.0000   1.0000   1.0000   1.0000   1.0000   1.0000   1.0000
     1.0000   1.0000   1.0000   1.0000   1.0000   1.0000   1.0000   1.0000
     1.0000   1.0000   1.0000   1.0000   1.0000   1.0000   1.0000   1.0000
     1.0000   1.0000   0.0000   0.0000   0.0000   0.0000   0.0000   0.0000
     0.0000   0.0000   0.0000   0.0000

          k = 0.0884 0.0884-0.0884 (  7808 PWs)   bands (ev):

   -15.1272 -15.1272 -15.1227 -15.1227 -15.0489 -15.0489 -15.0440 -15.0440
   -14.1923 -14.1923 -14.0468 -14.0468 -14.0409 -14.0409 -13.9825 -13.9825
   -13.9802 -13.9802 -13.8936 -13.8936  -3.0330  -3.0330   4.5523   4.5523
     6.4902   6.4902   6.9424   6.9424   7.3076   7.3076   9.2165   9.2165
     9.5371   9.5371   9.6396   9.6396

     occupation numbers 
     1.0000   1.0000   1.0000   1.0000   1.0000   1.0000   1.0000   1.0000
     1.0000   1.0000   1.0000   1.0000   1.0000   1.0000   1.0000   1.0000
     1.0000   1.0000   1.0000   1.0000   1.0000   1.0000   1.0000   1.0000
     1.0000   1.0000   1.0000   1.0000   0.0000   0.0000   0.0000   0.0000
     0.0000   0.0000   0.0000   0.0000

          k = 0.1326 0.1326-0.1326 (  7808 PWs)   bands (ev):

   -15.1287 -15.1287 -15.1191 -15.1191 -15.0524 -15.0524 -15.0419 -15.0419
   -14.1842 -14.1842 -14.0598 -14.0598 -14.0489 -14.0489 -13.9737 -13.9737
   -13.9703 -13.9703 -13.8979 -13.8979  -2.8637  -2.8637   3.7243   3.7243
     6.2947   6.2947   6.7240   6.7240   7.2290   7.2290   9.5029   9.5029
     9.8114   9.8115  10.3072  10.3072

     occupation numbers 
     1.0000   1.0000   1.0000   1.0000   1.0000   1.0000   1.0000   1.0000
     1.0000   1.0000   1.0000   1.0000   1.0000   1.0000   1.0000   1.0000
     1.0000   1.0000   1.0000   1.0000   1.0000   1.0000   1.0000   1.0000
     1.0000   1.0000   1.0000   1.0000   0.0000   0.0000   0.0000   0.0000
     0.0000   0.0000   0.0000   0.0000

          k = 0.1768 0.1768-0.1768 (  7832 PWs)   bands (ev):

   -15.1303 -15.1303 -15.1143 -15.1143 -15.0571 -15.0571 -15.0396 -15.0396
   -14.1740 -14.1740 -14.0732 -14.0732 -14.0564 -14.0564 -13.9653 -13.9653
   -13.9610 -13.9610 -13.9036 -13.9036  -2.6351  -2.6351   2.9142   2.9142
     6.0944   6.0944   6.5151   6.5151   7.0901   7.0901   9.7349   9.7349
    10.0339  10.0339  11.1152  11.1153

     occupation numbers 
     1.0000   1.0000   1.0000   1.0000   1.0000   1.0000   1.0000   1.0000
     1.0000   1.0000   1.0000   1.0000   1.0000   1.0000   1.0000   1.0000
     1.0000   1.0000   1.0000   1.0000   1.0000   1.0000   1.0000   1.0000
     1.0000   1.0000   1.0000   1.0000   0.0000   0.0000   0.0000   0.0000
     0.0000   0.0000   0.0000   0.0000

          k = 0.2210 0.2210-0.2210 (  7837 PWs)   bands (ev):

   -15.1318 -15.1318 -15.1087 -15.1087 -15.0625 -15.0625 -15.0375 -15.0375
   -14.1623 -14.1623 -14.0864 -14.0864 -14.0627 -14.0627 -13.9580 -13.9580
   -13.9525 -13.9525 -13.9100 -13.9100  -2.3600  -2.3600   2.1672   2.1672
     5.9224   5.9224   6.3390   6.3390   6.9510   6.9510   9.8850   9.8850
    10.1598  10.1598  11.9760  11.9760

     occupation numbers 
     1.0000   1.0000   1.0000   1.0000   1.0000   1.0000   1.0000   1.0000
     1.0000   1.0000   1.0000   1.0000   1.0000   1.0000   1.0000   1.0000
     1.0000   1.0000   1.0000   1.0000   1.0000   1.0000   1.0000   1.0000
     1.0000   1.0000   1.0000   1.0000   0.1250   0.1250   0.0000   0.0000
     0.0000   0.0000   0.0000   0.0000

          k = 0.2652 0.2652-0.2652 (  7831 PWs)   bands (ev):

   -15.1330 -15.1330 -15.1027 -15.1027 -15.0683 -15.0683 -15.0357 -15.0357
   -14.1500 -14.1500 -14.0990 -14.0990 -14.0673 -14.0673 -13.9525 -13.9525
   -13.9448 -13.9448 -13.9169 -13.9169  -2.0666  -2.0666   1.5277   1.5277
     5.7931   5.7931   6.2076   6.2076   6.8403   6.8403   9.9553   9.9553
    10.2030  10.2030  12.6299  12.6300

     occupation numbers 
     1.0000   1.0000   1.0000   1.0000   1.0000   1.0000   1.0000   1.0000
     1.0000   1.0000   1.0000   1.0000   1.0000   1.0000   1.0000   1.0000
     1.0000   1.0000   1.0000   1.0000   1.0000   1.0000   1.0000   1.0000
     1.0000   1.0000   1.0000   1.0000   1.0000   1.0000   0.0000   0.0000
     0.0000   0.0000   0.0000   0.0000

          k = 0.3094 0.3094-0.3094 (  7843 PWs)   bands (ev):

   -15.1338 -15.1338 -15.0972 -15.0972 -15.0737 -15.0737 -15.0346 -15.0346
   -14.1379 -14.1379 -14.1109 -14.1109 -14.0702 -14.0702 -13.9490 -13.9490
   -13.9379 -13.9379 -13.9237 -13.9237  -1.8149  -1.8149   1.0653   1.0653
     5.7133   5.7133   6.1269   6.1269   6.7706   6.7706   9.9775   9.9775
    10.2062  10.2062  12.6528  12.6528

     occupation numbers 
     1.0000   1.0000   1.0000   1.0000   1.0000   1.0000   1.0000   1.0000
     1.0000   1.0000   1.0000   1.0000   1.0000   1.0000   1.0000   1.0000
     1.0000   1.0000   1.0000   1.0000   1.0000   1.0000   1.0000   1.0000
     1.0000   1.0000   1.0000   1.0000   1.0000   1.0000   0.0000   0.0000
     0.0000   0.0000   0.0000   0.0000

          k =-0.3536-0.3536 0.3536 (  7786 PWs)   bands (ev):

   -15.1340 -15.1340 -15.0945 -15.0945 -15.0762 -15.0762 -15.0341 -15.0341
   -14.1297 -14.1297 -14.1190 -14.1190 -14.0712 -14.0712 -13.9478 -13.9478
   -13.9326 -13.9326 -13.9289 -13.9289  -1.7084  -1.7084   0.8881   0.8881
     5.6864   5.6864   6.0997   6.0997   6.7469   6.7469   9.9812   9.9812
    10.2033  10.2033  12.6276  12.6276

     occupation numbers 
     1.0000   1.0000   1.0000   1.0000   1.0000   1.0000   1.0000   1.0000
     1.0000   1.0000   1.0000   1.0000   1.0000   1.0000   1.0000   1.0000
     1.0000   1.0000   1.0000   1.0000   1.0000   1.0000   1.0000   1.0000
     1.0000   1.0000   1.0000   1.0000   1.0000   1.0000   0.0000   0.0000
     0.0000   0.0000   0.0000   0.0000

          k = 0.0884 0.0000 0.0000 (  7807 PWs)   bands (ev):

   -15.1259 -15.1259 -15.1252 -15.1252 -15.0466 -15.0466 -15.0456 -15.0456
   -14.1968 -14.1968 -14.0381 -14.0381 -14.0337 -14.0337 -13.9895 -13.9895
   -13.9878 -13.9878 -13.8911 -13.8911  -3.1248  -3.1248   5.2345   5.2345
     6.5296   6.5296   6.9438   6.9438   7.5173   7.5173   8.8074   8.8074
     9.2990   9.2990   9.4338   9.4338

     occupation numbers 
     1.0000   1.0000   1.0000   1.0000   1.0000   1.0000   1.0000   1.0000
     1.0000   1.0000   1.0000   1.0000   1.0000   1.0000   1.0000   1.0000
     1.0000   1.0000   1.0000   1.0000   1.0000   1.0000   1.0000   1.0000
     1.0000   1.0000   1.0000   1.0000   0.0000   0.0000   0.0000   0.0000
     0.0000   0.0000   0.0000   0.0000

          k = 0.1326 0.0442-0.0442 (  7809 PWs)   bands (ev):

   -15.1266 -15.1266 -15.1235 -15.1235 -15.0483 -15.0483 -15.0445 -15.0445
   -14.1928 -14.1928 -14.0470 -14.0470 -14.0387 -14.0387 -13.9842 -13.9842
   -13.9805 -13.9805 -13.8932 -13.8932  -3.0440  -3.0440   4.6691   4.6691
     6.3903   6.3903   6.7332   6.7332   7.7203   7.7203   8.8740   8.8740
     9.5850   9.5850   9.7352   9.7352

     occupation numbers 
     1.0000   1.0000   1.0000   1.0000   1.0000   1.0000   1.0000   1.0000
     1.0000   1.0000   1.0000   1.0000   1.0000   1.0000   1.0000   1.0000
     1.0000   1.0000   1.0000   1.0000   1.0000   1.0000   1.0000   1.0000
     1.0000   1.0000   1.0000   1.0000   0.0000   0.0000   0.0000   0.0000
     0.0000   0.0000   0.0000   0.0000

          k = 0.1768 0.0884-0.0884 (  7814 PWs)   bands (ev):

   -15.1280 -15.1280 -15.1203 -15.1203 -15.0514 -15.0514 -15.0426 -15.0426
   -14.1858 -14.1858 -14.0588 -14.0588 -14.0458 -14.0458 -13.9776 -13.9776
   -13.9704 -13.9704 -13.8968 -13.8968  -2.8963  -2.8963   3.9169   3.9169
     6.1855   6.1855   6.5148   6.5148   7.7158   7.7158   9.1172   9.1172
     9.9183   9.9183  10.2471  10.2471

     occupation numbers 
     1.0000   1.0000   1.0000   1.0000   1.0000   1.0000   1.0000   1.0000
     1.0000   1.0000   1.0000   1.0000   1.0000   1.0000   1.0000   1.0000
     1.0000   1.0000   1.0000   1.0000   1.0000   1.0000   1.0000   1.0000
     1.0000   1.0000   1.0000   1.0000   0.0000   0.0000   0.0000   0.0000
     0.0000   0.0000   0.0000   0.0000

          k = 0.2210 0.1326-0.1326 (  7824 PWs)   bands (ev):

   -15.1297 -15.1297 -15.1159 -15.1159 -15.0557 -15.0557 -15.0402 -15.0402
   -14.1763 -14.1763 -14.0714 -14.0714 -14.0531 -14.0531 -13.9711 -13.9711
   -13.9603 -13.9603 -13.9017 -13.9017  -2.6865  -2.6865   3.1302   3.1302
     5.9698   5.9698   6.2971   6.2971   7.5987   7.5987   9.4224   9.4224
    10.1733  10.1733  10.8840  10.8840

     occupation numbers 
     1.0000   1.0000   1.0000   1.0000   1.0000   1.0000   1.0000   1.0000
     1.0000   1.0000   1.0000   1.0000   1.0000   1.0000   1.0000   1.0000
     1.0000   1.0000   1.0000   1.0000   1.0000   1.0000   1.0000   1.0000
     1.0000   1.0000   1.0000   1.0000   0.0000   0.0000   0.0000   0.0000
     0.0000   0.0000   0.0000   0.0000

          k = 0.2652 0.1768-0.1768 (  7842 PWs)   bands (ev):

   -15.1313 -15.1313 -15.1105 -15.1105 -15.0609 -15.0609 -15.0379 -15.0379
   -14.1651 -14.1651 -14.0838 -14.0838 -14.0597 -14.0597 -13.9652 -13.9652
   -13.9510 -13.9510 -13.9073 -13.9073  -2.4247  -2.4247   2.3776   2.3776
     5.7750   5.7750   6.1109   6.1109   7.4552   7.4552   9.6763   9.6763
    10.3137  10.3137  11.5591  11.5591

     occupation numbers 
     1.0000   1.0000   1.0000   1.0000   1.0000   1.0000   1.0000   1.0000
     1.0000   1.0000   1.0000   1.0000   1.0000   1.0000   1.0000   1.0000
     1.0000   1.0000   1.0000   1.0000   1.0000   1.0000   1.0000   1.0000
     1.0000   1.0000   1.0000   1.0000   0.0000   0.0000   0.0000   0.0000
     0.0000   0.0000   0.0000   0.0000

          k = 0.3094 0.2210-0.2210 (  7837 PWs)   bands (ev):

   -15.1326 -15.1326 -15.1046 -15.1046 -15.0667 -15.0667 -15.0359 -15.0359
   -14.1532 -14.1532 -14.0958 -14.0958 -14.0650 -14.0650 -13.9605 -13.9605
   -13.9433 -13.9433 -13.9130 -13.9130  -2.1326  -2.1326   1.7078   1.7078
     5.6147   5.6147   5.9763   5.9763   7.3275   7.3275   9.8331   9.8331
    10.3461  10.3461  12.2223  12.2223

     occupation numbers 
     1.0000   1.0000   1.0000   1.0000   1.0000   1.0000   1.0000   1.0000
     1.0000   1.0000   1.0000   1.0000   1.0000   1.0000   1.0000   1.0000
     1.0000   1.0000   1.0000   1.0000   1.0000   1.0000   1.0000   1.0000
     1.0000   1.0000   1.0000   1.0000   0.0000   0.0000   0.0000   0.0000
     0.0000   0.0000   0.0000   0.0000

          k = 0.3536 0.2652-0.2652 (  7836 PWs)   bands (ev):

   -15.1335 -15.1335 -15.0988 -15.0988 -15.0724 -15.0724 -15.0345 -15.0345
   -14.1415 -14.1415 -14.1070 -14.1070 -14.0686 -14.0686 -13.9572 -13.9572
   -13.9374 -13.9374 -13.9181 -13.9181  -1.8567  -1.8567   1.1820   1.1820
     5.4962   5.4962   5.9021   5.9021   7.2343   7.2343   9.9175   9.9175
    10.3156  10.3156  12.6482  12.6483

     occupation numbers 
     1.0000   1.0000   1.0000   1.0000   1.0000   1.0000   1.0000   1.0000
     1.0000   1.0000   1.0000   1.0000   1.0000   1.0000   1.0000   1.0000
     1.0000   1.0000   1.0000   1.0000   1.0000   1.0000   1.0000   1.0000
     1.0000   1.0000   1.0000   1.0000   0.0000   0.0000   0.0000   0.0000
     0.0000   0.0000   0.0000   0.0000

          k =-0.3094-0.3977 0.3977 (  7813 PWs)   bands (ev):

   -15.1339 -15.1339 -15.0948 -15.0948 -15.0763 -15.0763 -15.0338 -15.0338
   -14.1319 -14.1319 -14.1161 -14.1161 -14.0703 -14.0703 -13.9557 -13.9557
   -13.9339 -13.9339 -13.9213 -13.9213  -1.6887  -1.6887   0.8992   0.8992
     5.4255   5.4255   5.8901   5.8901   7.1841   7.1841   9.9697   9.9697
    10.2670  10.2670  12.7406  12.7406

     occupation numbers 
     1.0000   1.0000   1.0000   1.0000   1.0000   1.0000   1.0000   1.0000
     1.0000   1.0000   1.0000   1.0000   1.0000   1.0000   1.0000   1.0000
     1.0000   1.0000   1.0000   1.0000   1.0000   1.0000   1.0000   1.0000
     1.0000   1.0000   1.0000   1.0000   0.0000   0.0000   0.0000   0.0000
     0.0000   0.0000   0.0000   0.0000

          k =-0.2652-0.3536 0.3536 (  7817 PWs)   bands (ev):

   -15.1339 -15.1339 -15.0956 -15.0956 -15.0755 -15.0755 -15.0340 -15.0340
   -14.1345 -14.1345 -14.1136 -14.1136 -14.0699 -14.0699 -13.9562 -13.9562
   -13.9344 -13.9344 -13.9207 -13.9207  -1.7258  -1.7258   0.9595   0.9595
     5.4074   5.4074   5.9381   5.9381   7.1799   7.1799  10.0041  10.0041
    10.2300  10.2300  12.7532  12.7533

     occupation numbers 
     1.0000   1.0000   1.0000   1.0000   1.0000   1.0000   1.0000   1.0000
     1.0000   1.0000   1.0000   1.0000   1.0000   1.0000   1.0000   1.0000
     1.0000   1.0000   1.0000   1.0000   1.0000   1.0000   1.0000   1.0000
     1.0000   1.0000   1.0000   1.0000   0.0000   0.0000   0.0000   0.0000
     0.0000   0.0000   0.0000   0.0000

          k =-0.2210-0.3094 0.3094 (  7845 PWs)   bands (ev):

   -15.1333 -15.1333 -15.1005 -15.1005 -15.0707 -15.0707 -15.0349 -15.0349
   -14.1453 -14.1453 -14.1034 -14.1034 -14.0675 -14.0675 -13.9587 -13.9587
   -13.9385 -13.9385 -13.9167 -13.9167  -1.9428  -1.9428   1.3372   1.3372
     5.4452   5.4452   6.0420   6.0420   7.2211   7.2211   9.9987   9.9987
    10.2200  10.2200  12.6414  12.6415

     occupation numbers 
     1.0000   1.0000   1.0000   1.0000   1.0000   1.0000   1.0000   1.0000
     1.0000   1.0000   1.0000   1.0000   1.0000   1.0000   1.0000   1.0000
     1.0000   1.0000   1.0000   1.0000   1.0000   1.0000   1.0000   1.0000
     1.0000   1.0000   1.0000   1.0000   0.0000   0.0000   0.0000   0.0000
     0.0000   0.0000   0.0000   0.0000

          k =-0.1768-0.2652 0.2652 (  7817 PWs)   bands (ev):

   -15.1322 -15.1322 -15.1064 -15.1064 -15.0649 -15.0649 -15.0364 -15.0364
   -14.1573 -14.1573 -14.0919 -14.0919 -14.0632 -14.0632 -13.9627 -13.9627
   -13.9449 -13.9449 -13.9113 -13.9113  -2.2318  -2.2318   1.9197   1.9197
     5.5412   5.5412   6.1953   6.1953   7.3032   7.3032   9.9234   9.9234
    10.2096  10.2096  12.0780  12.0780

     occupation numbers 
     1.0000   1.0000   1.0000   1.0000   1.0000   1.0000   1.0000   1.0000
     1.0000   1.0000   1.0000   1.0000   1.0000   1.0000   1.0000   1.0000
     1.0000   1.0000   1.0000   1.0000   1.0000   1.0000   1.0000   1.0000
     1.0000   1.0000   1.0000   1.0000   0.0000   0.0000   0.0000   0.0000
     0.0000   0.0000   0.0000   0.0000

          k =-0.1326-0.2210 0.2210 (  7833 PWs)   bands (ev):

   -15.1309 -15.1309 -15.1122 -15.1122 -15.0593 -15.0593 -15.0385 -15.0385
   -14.1690 -14.1690 -14.0798 -14.0798 -14.0574 -14.0574 -13.9680 -13.9680
   -13.9530 -13.9530 -13.9055 -13.9055  -2.5173  -2.5173   2.6217   2.6217
     5.6958   5.6958   6.3876   6.3876   7.4142   7.4142   9.7655   9.7655
    10.1148  10.1148  11.3532  11.3532

     occupation numbers 
     1.0000   1.0000   1.0000   1.0000   1.0000   1.0000   1.0000   1.0000
     1.0000   1.0000   1.0000   1.0000   1.0000   1.0000   1.0000   1.0000
     1.0000   1.0000   1.0000   1.0000   1.0000   1.0000   1.0000   1.0000
     1.0000   1.0000   1.0000   1.0000   0.0000   0.0000   0.0000   0.0000
     0.0000   0.0000   0.0000   0.0000

          k =-0.0884-0.1768 0.1768 (  7813 PWs)   bands (ev):

   -15.1293 -15.1293 -15.1172 -15.1172 -15.0544 -15.0544 -15.0409 -15.0409
   -14.1797 -14.1797 -14.0672 -14.0672 -14.0505 -14.0505 -13.9742 -13.9742
   -13.9625 -13.9625 -13.9001 -13.9001  -2.7632  -2.7632   3.3882   3.3882
     5.9075   5.9075   6.6017   6.6017   7.5259   7.5259   9.5324   9.5324
     9.8618   9.8618  10.7016  10.7016

     occupation numbers 
     1.0000   1.0000   1.0000   1.0000   1.0000   1.0000   1.0000   1.0000
     1.0000   1.0000   1.0000   1.0000   1.0000   1.0000   1.0000   1.0000
     1.0000   1.0000   1.0000   1.0000   1.0000   1.0000   1.0000   1.0000
     1.0000   1.0000   1.0000   1.0000   0.0000   0.0000   0.0000   0.0000
     0.0000   0.0000   0.0000   0.0000

          k =-0.0442-0.1326 0.1326 (  7814 PWs)   bands (ev):

   -15.1277 -15.1277 -15.1212 -15.1212 -15.0505 -15.0505 -15.0431 -15.0431
   -14.1884 -14.1884 -14.0546 -14.0546 -14.0434 -14.0434 -13.9808 -13.9808
   -13.9729 -13.9729 -13.8955 -13.8955  -2.9530  -2.9530   4.1658   4.1658
     6.1696   6.1696   6.8076   6.8076   7.5760   7.5760   9.2654   9.2654
     9.5174   9.5174  10.1370  10.1370

     occupation numbers 
     1.0000   1.0000   1.0000   1.0000   1.0000   1.0000   1.0000   1.0000
     1.0000   1.0000   1.0000   1.0000   1.0000   1.0000   1.0000   1.0000
     1.0000   1.0000   1.0000   1.0000   1.0000   1.0000   1.0000   1.0000
     1.0000   1.0000   1.0000   1.0000   0.0000   0.0000   0.0000   0.0000
     0.0000   0.0000   0.0000   0.0000

          k = 0.0000-0.0884 0.0884 (  7811 PWs)   bands (ev):

   -15.1266 -15.1266 -15.1239 -15.1239 -15.0479 -15.0479 -15.0447 -15.0447
   -14.1945 -14.1945 -14.0431 -14.0431 -14.0372 -14.0372 -13.9867 -13.9867
   -13.9828 -13.9828 -13.8924 -13.8924  -3.0787  -3.0787   4.8677   4.8677
     6.4511   6.4511   6.9699   6.9699   7.4698   7.4698   9.0235   9.0235
     9.3036   9.3036   9.6372   9.6372

     occupation numbers 
     1.0000   1.0000   1.0000   1.0000   1.0000   1.0000   1.0000   1.0000
     1.0000   1.0000   1.0000   1.0000   1.0000   1.0000   1.0000   1.0000
     1.0000   1.0000   1.0000   1.0000   1.0000   1.0000   1.0000   1.0000
     1.0000   1.0000   0.0000   0.0000   0.0000   0.0000   0.0000   0.0000
     0.0000   0.0000   0.0000   0.0000

          k = 0.1768 0.0000 0.0000 (  7811 PWs)   bands (ev):

   -15.1260 -15.1260 -15.1235 -15.1235 -15.0485 -15.0485 -15.0446 -15.0446
   -14.1900 -14.1900 -14.0531 -14.0531 -14.0404 -14.0404 -13.9799 -13.9799
   -13.9782 -13.9782 -13.8944 -13.8944  -2.9859  -2.9859   4.4201   4.4201
     6.1998   6.1998   6.4549   6.4549   8.1844   8.1844   8.5677   8.5677
     9.8865   9.8865   9.9899   9.9899

     occupation numbers 
     1.0000   1.0000   1.0000   1.0000   1.0000   1.0000   1.0000   1.0000
     1.0000   1.0000   1.0000   1.0000   1.0000   1.0000   1.0000   1.0000
     1.0000   1.0000   1.0000   1.0000   1.0000   1.0000   1.0000   1.0000
     1.0000   1.0000   1.0000   1.0000   0.0000   0.0000   0.0000   0.0000
     0.0000   0.0000   0.0000   0.0000

          k = 0.2210 0.0442-0.0442 (  7813 PWs)   bands (ev):

   -15.1269 -15.1269 -15.1212 -15.1212 -15.0507 -15.0507 -15.0433 -15.0433
   -14.1840 -14.1840 -14.0625 -14.0625 -14.0451 -14.0451 -13.9764 -13.9764
   -13.9699 -13.9699 -13.8970 -13.8970  -2.8600  -2.8600   3.8783   3.8783
     5.9802   5.9802   6.2133   6.2133   8.3307   8.3307   8.5967   8.5967
    10.2574  10.2574  10.3845  10.3845

     occupation numbers 
     1.0000   1.0000   1.0000   1.0000   1.0000   1.0000   1.0000   1.0000
     1.0000   1.0000   1.0000   1.0000   1.0000   1.0000   1.0000   1.0000
     1.0000   1.0000   1.0000   1.0000   1.0000   1.0000   1.0000   1.0000
     1.0000   1.0000   1.0000   1.0000   0.0000   0.0000   0.0000   0.0000
     0.0000   0.0000   0.0000   0.0000

          k = 0.2652 0.0884-0.0884 (  7827 PWs)   bands (ev):

   -15.1286 -15.1286 -15.1173 -15.1173 -15.0546 -15.0546 -15.0410 -15.0410
   -14.1755 -14.1755 -14.0734 -14.0734 -14.0507 -14.0507 -13.9738 -13.9738
   -13.9595 -13.9595 -13.9006 -13.9006  -2.6701  -2.6701   3.2038   3.2038
     5.7300   5.7300   5.9911   5.9911   8.2576   8.2576   8.8852   8.8852
    10.5533  10.5533  10.8068  10.8068

     occupation numbers 
     1.0000   1.0000   1.0000   1.0000   1.0000   1.0000   1.0000   1.0000
     1.0000   1.0000   1.0000   1.0000   1.0000   1.0000   1.0000   1.0000
     1.0000   1.0000   1.0000   1.0000   1.0000   1.0000   1.0000   1.0000
     1.0000   1.0000   1.0000   1.0000   0.0000   0.0000   0.0000   0.0000
     0.0000   0.0000   0.0000   0.0000

          k = 0.3094 0.1326-0.1326 (  7834 PWs)   bands (ev):

   -15.1303 -15.1303 -15.1123 -15.1123 -15.0595 -15.0595 -15.0385 -15.0385
   -14.1653 -14.1653 -14.0844 -14.0844 -14.0564 -14.0564 -13.9717 -13.9717
   -13.9499 -13.9499 -13.9045 -13.9045  -2.4239  -2.4239   2.5031   2.5031
     5.4748   5.4748   5.8141   5.8141   8.1230   8.1230   9.2575   9.2575
    10.7248  10.7248  11.1242  11.1243

     occupation numbers 
     1.0000   1.0000   1.0000   1.0000   1.0000   1.0000   1.0000   1.0000
     1.0000   1.0000   1.0000   1.0000   1.0000   1.0000   1.0000   1.0000
     1.0000   1.0000   1.0000   1.0000   1.0000   1.0000   1.0000   1.0000
     1.0000   1.0000   1.0000   1.0000   0.0000   0.0000   0.0000   0.0000
     0.0000   0.0000   0.0000   0.0000

          k = 0.3536 0.1768-0.1768 (  7833 PWs)   bands (ev):

   -15.1318 -15.1318 -15.1066 -15.1066 -15.0651 -15.0651 -15.0362 -15.0362
   -14.1543 -14.1543 -14.0947 -14.0947 -14.0615 -14.0615 -13.9701 -13.9701
   -13.9422 -13.9422 -13.9080 -13.9080  -2.1378  -2.1378   1.8428   1.8428
     5.2418   5.2418   5.7003   5.7003   7.9842   7.9842   9.5765   9.5765
    10.7630  10.7630  11.4804  11.4804

     occupation numbers 
     1.0000   1.0000   1.0000   1.0000   1.0000   1.0000   1.0000   1.0000
     1.0000   1.0000   1.0000   1.0000   1.0000   1.0000   1.0000   1.0000
     1.0000   1.0000   1.0000   1.0000   1.0000   1.0000   1.0000   1.0000
     1.0000   1.0000   1.0000   1.0000   0.0000   0.0000   0.0000   0.0000
     0.0000   0.0000   0.0000   0.0000

          k = 0.3977 0.2210-0.2210 (  7838 PWs)   bands (ev):

   -15.1329 -15.1329 -15.1008 -15.1008 -15.0710 -15.0710 -15.0344 -15.0344
   -14.1436 -14.1436 -14.1039 -14.1039 -14.0655 -14.0655 -13.9694 -13.9694
   -13.9370 -13.9370 -13.9103 -13.9103  -1.8474  -1.8474   1.2850   1.2850
     5.0516   5.0516   5.6520   5.6520   7.8703   7.8703   9.7744   9.7744
    10.7089  10.7089  11.9934  11.9934

     occupation numbers 
     1.0000   1.0000   1.0000   1.0000   1.0000   1.0000   1.0000   1.0000
     1.0000   1.0000   1.0000   1.0000   1.0000   1.0000   1.0000   1.0000
     1.0000   1.0000   1.0000   1.0000   1.0000   1.0000   1.0000   1.0000
     1.0000   1.0000   1.0000   1.0000   0.0000   0.0000   0.0000   0.0000
     0.0000   0.0000   0.0000   0.0000

          k =-0.2652-0.4419 0.4419 (  7823 PWs)   bands (ev):

   -15.1336 -15.1336 -15.0959 -15.0959 -15.0759 -15.0759 -15.0332 -15.0332
   -14.1352 -14.1352 -14.1111 -14.1111 -14.0678 -14.0678 -13.9693 -13.9693
   -13.9344 -13.9344 -13.9113 -13.9113  -1.6289  -1.6289   0.9197   0.9197
     4.9163   4.9163   5.6677   5.6677   7.7949   7.7949   9.8929   9.8929
    10.6113  10.6113  12.5558  12.5558

     occupation numbers 
     1.0000   1.0000   1.0000   1.0000   1.0000   1.0000   1.0000   1.0000
     1.0000   1.0000   1.0000   1.0000   1.0000   1.0000   1.0000   1.0000
     1.0000   1.0000   1.0000   1.0000   1.0000   1.0000   1.0000   1.0000
     1.0000   1.0000   1.0000   1.0000   0.0000   0.0000   0.0000   0.0000
     0.0000   0.0000   0.0000   0.0000

          k =-0.2210-0.3977 0.3977 (  7814 PWs)   bands (ev):

   -15.1338 -15.1338 -15.0945 -15.0945 -15.0774 -15.0774 -15.0329 -15.0329
   -14.1337 -14.1337 -14.1125 -14.1125 -14.0679 -14.0679 -13.9698 -13.9698
   -13.9335 -13.9335 -13.9115 -13.9115  -1.5935  -1.5935   0.8644   0.8644
     4.8435   4.8435   5.7443   5.7443   7.7630   7.7630   9.9892   9.9893
    10.4997  10.4997  12.8581  12.8582

     occupation numbers 
     1.0000   1.0000   1.0000   1.0000   1.0000   1.0000   1.0000   1.0000
     1.0000   1.0000   1.0000   1.0000   1.0000   1.0000   1.0000   1.0000
     1.0000   1.0000   1.0000   1.0000   1.0000   1.0000   1.0000   1.0000
     1.0000   1.0000   1.0000   1.0000   0.0000   0.0000   0.0000   0.0000
     0.0000   0.0000   0.0000   0.0000

          k =-0.1768-0.3536 0.3536 (  7824 PWs)   bands (ev):

   -15.1335 -15.1335 -15.0980 -15.0980 -15.0739 -15.0739 -15.0335 -15.0335
   -14.1407 -14.1407 -14.1066 -14.1066 -14.0658 -14.0658 -13.9709 -13.9709
   -13.9343 -13.9343 -13.9111 -13.9111  -1.7656  -1.7656   1.1439   1.1439
     4.8394   4.8394   5.8763   5.8763   7.7734   7.7734  10.0791  10.0791
    10.3827  10.3827  12.6056  12.6056

     occupation numbers 
     1.0000   1.0000   1.0000   1.0000   1.0000   1.0000   1.0000   1.0000
     1.0000   1.0000   1.0000   1.0000   1.0000   1.0000   1.0000   1.0000
     1.0000   1.0000   1.0000   1.0000   1.0000   1.0000   1.0000   1.0000
     1.0000   1.0000   1.0000   1.0000   0.0000   0.0000   0.0000   0.0000
     0.0000   0.0000   0.0000   0.0000

          k =-0.1326-0.3094 0.3094 (  7834 PWs)   bands (ev):

   -15.1327 -15.1327 -15.1035 -15.1035 -15.0685 -15.0685 -15.0348 -15.0348
   -14.1509 -14.1509 -14.0980 -14.0980 -14.0619 -14.0619 -13.9723 -13.9723
   -13.9376 -13.9376 -13.9096 -13.9096  -2.0439  -2.0439   1.6505   1.6505
     4.9110   4.9110   6.0553   6.0553   7.8189   7.8189  10.1025  10.1025
    10.2803  10.2803  11.9600  11.9600

     occupation numbers 
     1.0000   1.0000   1.0000   1.0000   1.0000   1.0000   1.0000   1.0000
     1.0000   1.0000   1.0000   1.0000   1.0000   1.0000   1.0000   1.0000
     1.0000   1.0000   1.0000   1.0000   1.0000   1.0000   1.0000   1.0000
     1.0000   1.0000   1.0000   1.0000   0.0000   0.0000   0.0000   0.0000
     0.0000   0.0000   0.0000   0.0000

          k =-0.0884-0.2652 0.2652 (  7824 PWs)   bands (ev):

   -15.1315 -15.1315 -15.1092 -15.1092 -15.0628 -15.0628 -15.0368 -15.0368
   -14.1620 -14.1620 -14.0882 -14.0882 -14.0570 -14.0570 -13.9743 -13.9743
   -13.9438 -13.9438 -13.9065 -13.9065  -2.3364  -2.3364   2.2781   2.2781
     5.0673   5.0673   6.2673   6.2673   7.8807   7.8807   9.9454   9.9454
    10.1931  10.1931  11.3553  11.3553

     occupation numbers 
     1.0000   1.0000   1.0000   1.0000   1.0000   1.0000   1.0000   1.0000
     1.0000   1.0000   1.0000   1.0000   1.0000   1.0000   1.0000   1.0000
     1.0000   1.0000   1.0000   1.0000   1.0000   1.0000   1.0000   1.0000
     1.0000   1.0000   1.0000   1.0000   0.0000   0.0000   0.0000   0.0000
     0.0000   0.0000   0.0000   0.0000

          k =-0.0442-0.2210 0.2210 (  7816 PWs)   bands (ev):

   -15.1301 -15.1301 -15.1143 -15.1143 -15.0577 -15.0577 -15.0391 -15.0391
   -14.1725 -14.1725 -14.0773 -14.0773 -14.0517 -14.0517 -13.9765 -13.9765
   -13.9525 -13.9525 -13.9026 -13.9026  -2.5974  -2.5974   2.9532   2.9532
     5.3226   5.3226   6.4891   6.4891   7.9149   7.9149   9.6949   9.6949
     9.9281   9.9281  10.9740  10.9740

     occupation numbers 
     1.0000   1.0000   1.0000   1.0000   1.0000   1.0000   1.0000   1.0000
     1.0000   1.0000   1.0000   1.0000   1.0000   1.0000   1.0000   1.0000
     1.0000   1.0000   1.0000   1.0000   1.0000   1.0000   1.0000   1.0000
     1.0000   1.0000   1.0000   1.0000   0.0000   0.0000   0.0000   0.0000
     0.0000   0.0000   0.0000   0.0000

          k = 0.0000-0.1768 0.1768 (  7822 PWs)   bands (ev):

   -15.1287 -15.1287 -15.1184 -15.1184 -15.0534 -15.0534 -15.0413 -15.0413
   -14.1816 -14.1816 -14.0657 -14.0657 -14.0470 -14.0470 -13.9789 -13.9789
   -13.9627 -13.9627 -13.8987 -13.8987  -2.8063  -2.8063   3.6074   3.6074
     5.6943   5.6943   6.6825   6.6825   7.8360   7.8360   9.4373   9.4373
     9.6254   9.6254  10.6349  10.6349

     occupation numbers 
[...]

   -15.1318 -15.1318 -15.1008 -15.1008 -15.0724 -15.0724 -15.0328 -15.0328
   -14.1381 -14.1381 -14.1028 -14.1028 -14.0573 -14.0573 -13.9999 -13.9999
   -13.9336 -13.9336 -13.8963 -13.8963  -1.3047  -1.3047   0.7598   0.7598
     4.1381   4.1381   5.0144   5.0144   8.8098   8.8098   9.9121   9.9121
    10.8454  10.8454  12.3810  12.3810

     occupation numbers 
     1.0000   1.0000   1.0000   1.0000   1.0000   1.0000   1.0000   1.0000
     1.0000   1.0000   1.0000   1.0000   1.0000   1.0000   1.0000   1.0000
     1.0000   1.0000   1.0000   1.0000   1.0000   1.0000   1.0000   1.0000
     1.0000   1.0000   1.0000   1.0000   0.0000   0.0000   0.0000   0.0000
     0.0000   0.0000   0.0000   0.0000

          k =-0.1326-0.3977 0.5745 (  7822 PWs)   bands (ev):

   -15.1324 -15.1324 -15.0979 -15.0979 -15.0756 -15.0756 -15.0317 -15.0317
   -14.1371 -14.1371 -14.1018 -14.1018 -14.0572 -14.0572 -14.0034 -14.0034
   -13.9335 -13.9335 -13.8946 -13.8946  -1.1230  -1.1230   0.5262   0.5262
     4.0184   4.0184   4.9965   4.9965   8.8310   8.8310  10.0870  10.0870
    11.3498  11.3498  12.0634  12.0634

     occupation numbers 
     1.0000   1.0000   1.0000   1.0000   1.0000   1.0000   1.0000   1.0000
     1.0000   1.0000   1.0000   1.0000   1.0000   1.0000   1.0000   1.0000
     1.0000   1.0000   1.0000   1.0000   1.0000   1.0000   1.0000   1.0000
     1.0000   1.0000   1.0000   1.0000   0.0000   0.0000   0.0000   0.0000
     0.0000   0.0000   0.0000   0.0000

          k =-0.0884-0.3536 0.5303 (  7813 PWs)   bands (ev):

   -15.1327 -15.1327 -15.0973 -15.0973 -15.0762 -15.0762 -15.0314 -15.0314
   -14.1376 -14.1376 -14.1019 -14.1019 -14.0570 -14.0570 -14.0029 -14.0029
   -13.9336 -13.9336 -13.8948 -13.8948  -1.1775  -1.1775   0.5955   0.5955
     3.9860   3.9860   5.0649   5.0649   8.8750   8.8750  10.0807  10.0807
    11.4076  11.4076  12.0296  12.0296

     occupation numbers 
     1.0000   1.0000   1.0000   1.0000   1.0000   1.0000   1.0000   1.0000
     1.0000   1.0000   1.0000   1.0000   1.0000   1.0000   1.0000   1.0000
     1.0000   1.0000   1.0000   1.0000   1.0000   1.0000   1.0000   1.0000
     1.0000   1.0000   1.0000   1.0000   0.0000   0.0000   0.0000   0.0000
     0.0000   0.0000   0.0000   0.0000

          k =-0.0442-0.3094 0.4861 (  7817 PWs)   bands (ev):

   -15.1325 -15.1325 -15.0994 -15.0994 -15.0740 -15.0740 -15.0321 -15.0321
   -14.1396 -14.1396 -14.1026 -14.1026 -14.0567 -14.0567 -13.9985 -13.9985
   -13.9338 -13.9338 -13.8970 -13.8970  -1.4213  -1.4213   0.9147   0.9147
     4.0572   4.0572   5.2068   5.2068   8.9225   8.9225   9.9691   9.9691
    10.8487  10.8487  12.2367  12.2367

     occupation numbers 
     1.0000   1.0000   1.0000   1.0000   1.0000   1.0000   1.0000   1.0000
     1.0000   1.0000   1.0000   1.0000   1.0000   1.0000   1.0000   1.0000
     1.0000   1.0000   1.0000   1.0000   1.0000   1.0000   1.0000   1.0000
     1.0000   1.0000   1.0000   1.0000   0.0000   0.0000   0.0000   0.0000
     0.0000   0.0000   0.0000   0.0000

          k = 0.0000-0.2652 0.4419 (  7824 PWs)   bands (ev):

   -15.1320 -15.1320 -15.1030 -15.1030 -15.0701 -15.0701 -15.0336 -15.0336
   -14.1441 -14.1441 -14.1016 -14.1016 -14.0568 -14.0568 -13.9912 -13.9912
   -13.9350 -13.9350 -13.9004 -13.9004  -1.7195  -1.7195   1.3335   1.3335
     4.2511   4.2511   5.3970   5.3970   8.9130   8.9130   9.6261   9.6261
    10.6750  10.6750  12.0092  12.0092

     occupation numbers 
     1.0000   1.0000   1.0000   1.0000   1.0000   1.0000   1.0000   1.0000
     1.0000   1.0000   1.0000   1.0000   1.0000   1.0000   1.0000   1.0000
     1.0000   1.0000   1.0000   1.0000   1.0000   1.0000   1.0000   1.0000
     1.0000   1.0000   1.0000   1.0000   0.0000   0.0000   0.0000   0.0000
     0.0000   0.0000   0.0000   0.0000

          k =-0.1768-0.5303 0.7071 (  7832 PWs)   bands (ev):

   -15.1291 -15.1291 -15.1076 -15.1076 -15.0650 -15.0650 -15.0365 -15.0365
   -14.1387 -14.1387 -14.1043 -14.1043 -14.0552 -14.0552 -13.9990 -13.9990
   -13.9322 -13.9322 -13.8984 -13.8984  -1.4282  -1.4282   0.9526   0.9526
     4.4161   4.4161   4.8733   4.8733   8.5652   8.5652   8.9586   8.9586
    11.3594  11.3594  12.9590  12.9590

     occupation numbers 
     1.0000   1.0000   1.0000   1.0000   1.0000   1.0000   1.0000   1.0000
     1.0000   1.0000   1.0000   1.0000   1.0000   1.0000   1.0000   1.0000
     1.0000   1.0000   1.0000   1.0000   1.0000   1.0000   1.0000   1.0000
     1.0000   1.0000   1.0000   1.0000   0.0000   0.0000   0.0000   0.0000
     0.0000   0.0000   0.0000   0.0000

          k =-0.1326-0.4861 0.6629 (  7832 PWs)   bands (ev):

   -15.1302 -15.1302 -15.1043 -15.1043 -15.0688 -15.0688 -15.0344 -15.0344
   -14.1371 -14.1371 -14.1028 -14.1028 -14.0529 -14.0529 -14.0080 -14.0080
   -13.9318 -13.9318 -13.8949 -13.8949  -1.1243  -1.1243   0.5690   0.5690
     4.1885   4.1885   4.7511   4.7511   8.7368   8.7368   9.4228   9.4228
    11.1871  11.1871  12.9148  12.9148

     occupation numbers 
     1.0000   1.0000   1.0000   1.0000   1.0000   1.0000   1.0000   1.0000
     1.0000   1.0000   1.0000   1.0000   1.0000   1.0000   1.0000   1.0000
     1.0000   1.0000   1.0000   1.0000   1.0000   1.0000   1.0000   1.0000
     1.0000   1.0000   1.0000   1.0000   0.0000   0.0000   0.0000   0.0000
     0.0000   0.0000   0.0000   0.0000

          k =-0.0884-0.4419 0.6187 (  7830 PWs)   bands (ev):

   -15.1312 -15.1312 -15.1012 -15.1012 -15.0724 -15.0724 -15.0326 -15.0326
   -14.1373 -14.1373 -14.1000 -14.1000 -14.0511 -14.0511 -14.0141 -14.0141
   -13.9324 -13.9324 -13.8922 -13.8922  -0.8863  -0.8863   0.2937   0.2937
     3.9933   3.9933   4.7397   4.7397   8.7961   8.7961  10.1362  10.1362
    11.0883  11.0883  12.3444  12.3444

     occupation numbers 
     1.0000   1.0000   1.0000   1.0000   1.0000   1.0000   1.0000   1.0000
     1.0000   1.0000   1.0000   1.0000   1.0000   1.0000   1.0000   1.0000
     1.0000   1.0000   1.0000   1.0000   1.0000   1.0000   1.0000   1.0000
     1.0000   1.0000   1.0000   1.0000   0.0000   0.0000   0.0000   0.0000
     0.0000   0.0000   0.0000   0.0000

          k =-0.0442-0.3977 0.5745 (  7821 PWs)   bands (ev):

   -15.1320 -15.1320 -15.0988 -15.0988 -15.0750 -15.0750 -15.0315 -15.0315
   -14.1379 -14.1379 -14.0990 -14.0990 -14.0513 -14.0513 -14.0145 -14.0145
   -13.9331 -13.9331 -13.8915 -13.8915  -0.8883  -0.8883   0.2986   0.2986
     3.8823   3.8823   4.8272   4.8272   8.8728   8.8728  10.5950  10.5950
    11.2966  11.2966  11.6352  11.6352

     occupation numbers 
     1.0000   1.0000   1.0000   1.0000   1.0000   1.0000   1.0000   1.0000
     1.0000   1.0000   1.0000   1.0000   1.0000   1.0000   1.0000   1.0000
     1.0000   1.0000   1.0000   1.0000   1.0000   1.0000   1.0000   1.0000
     1.0000   1.0000   1.0000   1.0000   0.0000   0.0000   0.0000   0.0000
     0.0000   0.0000   0.0000   0.0000

          k = 0.0000-0.3536 0.5303 (  7818 PWs)   bands (ev):

   -15.1324 -15.1324 -15.0981 -15.0981 -15.0756 -15.0756 -15.0314 -15.0314
   -14.1383 -14.1383 -14.1005 -14.1005 -14.0537 -14.0537 -14.0085 -14.0085
   -13.9335 -13.9335 -13.8932 -13.8932  -1.1237  -1.1237   0.5674   0.5674
     3.8953   3.8953   4.9918   4.9918   8.9480   8.9480  10.4615  10.4615
    10.9272  10.9272  12.1057  12.1057

     occupation numbers 
     1.0000   1.0000   1.0000   1.0000   1.0000   1.0000   1.0000   1.0000
     1.0000   1.0000   1.0000   1.0000   1.0000   1.0000   1.0000   1.0000
     1.0000   1.0000   1.0000   1.0000   1.0000   1.0000   1.0000   1.0000
     1.0000   1.0000   1.0000   1.0000   0.0000   0.0000   0.0000   0.0000
     0.0000   0.0000   0.0000   0.0000

          k =-0.0884-0.5303 0.7071 (  7837 PWs)   bands (ev):

   -15.1283 -15.1283 -15.1076 -15.1076 -15.0650 -15.0650 -15.0366 -15.0366
   -14.1349 -14.1349 -14.1051 -14.1051 -14.0476 -14.0476 -14.0152 -14.0152
   -13.9284 -13.9284 -13.8958 -13.8958  -0.9019  -0.9019   0.3018   0.3018
     4.3348   4.3348   4.5916   4.5916   8.5300   8.5300   8.7847   8.7847
    12.0260  12.0260  13.2493  13.2493

     occupation numbers 
     1.0000   1.0000   1.0000   1.0000   1.0000   1.0000   1.0000   1.0000
     1.0000   1.0000   1.0000   1.0000   1.0000   1.0000   1.0000   1.0000
     1.0000   1.0000   1.0000   1.0000   1.0000   1.0000   1.0000   1.0000
     1.0000   1.0000   1.0000   1.0000   0.0000   0.0000   0.0000   0.0000
     0.0000   0.0000   0.0000   0.0000

          k =-0.0442-0.4861 0.6629 (  7845 PWs)   bands (ev):

   -15.1296 -15.1296 -15.1047 -15.1047 -15.0686 -15.0686 -15.0344 -15.0344
   -14.1363 -14.1363 -14.1013 -14.1013 -14.0439 -14.0439 -14.0228 -14.0228
   -13.9302 -13.9302 -13.8925 -13.8925  -0.6185  -0.6185   0.0023   0.0023
     4.1318   4.1318   4.5445   4.5445   8.6872   8.6872   9.3688   9.3688
    11.8441  11.8441  12.5624  12.5624

     occupation numbers 
     1.0000   1.0000   1.0000   1.0000   1.0000   1.0000   1.0000   1.0000
     1.0000   1.0000   1.0000   1.0000   1.0000   1.0000   1.0000   1.0000
     1.0000   1.0000   1.0000   1.0000   1.0000   1.0000   1.0000   1.0000
     1.0000   1.0000   1.0000   1.0000   0.0000   0.0000   0.0000   0.0000
     0.0000   0.0000   0.0000   0.0000

          k = 0.0000-0.4419 0.6187 (  7842 PWs)   bands (ev):

   -15.1310 -15.1310 -15.1016 -15.1016 -15.0721 -15.0721 -15.0325 -15.0325
   -14.1375 -14.1375 -14.0987 -14.0987 -14.0454 -14.0454 -14.0226 -14.0226
   -13.9320 -13.9320 -13.8908 -13.8908  -0.6206  -0.6206   0.0138   0.0138
     3.9443   3.9443   4.6442   4.6442   8.7771   8.7771  10.1738  10.1738
    11.6524  11.6524  11.7517  11.7517

     occupation numbers 
     1.0000   1.0000   1.0000   1.0000   1.0000   1.0000   1.0000   1.0000
     1.0000   1.0000   1.0000   1.0000   1.0000   1.0000   1.0000   1.0000
     1.0000   1.0000   1.0000   1.0000   1.0000   1.0000   1.0000   1.0000
     1.0000   1.0000   1.0000   1.0000   0.0000   0.0000   0.0000   0.0000
     0.0000   0.0000   0.0000   0.0000

          k =-0.7071 0.1768 0.0000 (  7848 PWs)   bands (ev):

   -15.1279 -15.1279 -15.1078 -15.1078 -15.0648 -15.0648 -15.0368 -15.0368
   -14.1343 -14.1343 -14.1048 -14.1048 -14.0382 -14.0382 -14.0275 -14.0275
   -13.9271 -13.9271 -13.8949 -13.8949  -0.3364  -0.3364  -0.3055  -0.3055
     4.3330   4.3330   4.4709   4.4709   8.5469   8.5469   8.6865   8.6865
    12.6668  12.6668  12.8290  12.8290

     occupation numbers 
     1.0000   1.0000   1.0000   1.0000   1.0000   1.0000   1.0000   1.0000
     1.0000   1.0000   1.0000   1.0000   1.0000   1.0000   1.0000   1.0000
     1.0000   1.0000   1.0000   1.0000   1.0000   1.0000   1.0000   1.0000
     1.0000   1.0000   1.0000   1.0000   0.0000   0.0000   0.0000   0.0000
     0.0000   0.0000   0.0000   0.0000

          k =-0.1768-0.4419 0.7071 (  7820 PWs)   bands (ev):

   -15.1314 -15.1314 -15.1020 -15.1020 -15.0714 -15.0714 -15.0330 -15.0330
   -14.1388 -14.1388 -14.1020 -14.1020 -14.0550 -14.0550 -14.0033 -14.0033
   -13.9336 -13.9336 -13.8952 -13.8952  -1.2944  -1.2944   0.7800   0.7800
     4.1118   4.1118   4.9070   4.9070   9.2605   9.2605   9.5382   9.5382
    10.6316  10.6316  12.6918  12.6918

     occupation numbers 
     1.0000   1.0000   1.0000   1.0000   1.0000   1.0000   1.0000   1.0000
     1.0000   1.0000   1.0000   1.0000   1.0000   1.0000   1.0000   1.0000
     1.0000   1.0000   1.0000   1.0000   1.0000   1.0000   1.0000   1.0000
     1.0000   1.0000   1.0000   1.0000   0.0000   0.0000   0.0000   0.0000
     0.0000   0.0000   0.0000   0.0000

          k =-0.1326-0.3977 0.6629 (  7823 PWs)   bands (ev):

   -15.1318 -15.1318 -15.0999 -15.0999 -15.0739 -15.0739 -15.0319 -15.0319
   -14.1381 -14.1381 -14.0996 -14.0996 -14.0528 -14.0528 -14.0113 -14.0113
   -13.9335 -13.9335 -13.8922 -13.8922  -1.0109  -1.0109   0.4415   0.4415
     3.9845   3.9845   4.7524   4.7524   9.3321   9.3321   9.9811   9.9811
    10.7416  10.7416  12.2314  12.2315

     occupation numbers 
     1.0000   1.0000   1.0000   1.0000   1.0000   1.0000   1.0000   1.0000
     1.0000   1.0000   1.0000   1.0000   1.0000   1.0000   1.0000   1.0000
     1.0000   1.0000   1.0000   1.0000   1.0000   1.0000   1.0000   1.0000
     1.0000   1.0000   1.0000   1.0000   0.0000   0.0000   0.0000   0.0000
     0.0000   0.0000   0.0000   0.0000

          k =-0.0884-0.3536 0.6187 (  7824 PWs)   bands (ev):

   -15.1320 -15.1320 -15.0990 -15.0990 -15.0748 -15.0748 -15.0315 -15.0315
   -14.1380 -14.1380 -14.0983 -14.0983 -14.0518 -14.0518 -14.0145 -14.0145
   -13.9336 -13.9336 -13.8911 -13.8911  -0.8730  -0.8730   0.2841   0.2841
     3.9439   3.9439   4.6959   4.6959   9.3372   9.3372  10.0998  10.0998
    11.2419  11.2419  11.5760  11.5760

     occupation numbers 
     1.0000   1.0000   1.0000   1.0000   1.0000   1.0000   1.0000   1.0000
     1.0000   1.0000   1.0000   1.0000   1.0000   1.0000   1.0000   1.0000
     1.0000   1.0000   1.0000   1.0000   1.0000   1.0000   1.0000   1.0000
     1.0000   1.0000   1.0000   1.0000   0.0000   0.0000   0.0000   0.0000
     0.0000   0.0000   0.0000   0.0000

          k =-0.0884-0.4419 0.7071 (  7824 PWs)   bands (ev):

   -15.1307 -15.1307 -15.1025 -15.1025 -15.0711 -15.0711 -15.0330 -15.0330
   -14.1376 -14.1376 -14.0994 -14.0994 -14.0484 -14.0484 -14.0179 -14.0179
   -13.9324 -13.9324 -13.8915 -13.8915  -0.8185  -0.8185   0.2319   0.2319
     4.0952   4.0952   4.5209   4.5209   9.3192   9.3192   9.5341   9.5341
    11.0103  11.0103  12.3975  12.3975

     occupation numbers 
     1.0000   1.0000   1.0000   1.0000   1.0000   1.0000   1.0000   1.0000
     1.0000   1.0000   1.0000   1.0000   1.0000   1.0000   1.0000   1.0000
     1.0000   1.0000   1.0000   1.0000   1.0000   1.0000   1.0000   1.0000
     1.0000   1.0000   1.0000   1.0000   0.0000   0.0000   0.0000   0.0000
     0.0000   0.0000   0.0000   0.0000

          k =-0.0442-0.3977 0.6629 (  7837 PWs)   bands (ev):

   -15.1312 -15.1312 -15.1009 -15.1009 -15.0731 -15.0731 -15.0319 -15.0319
   -14.1383 -14.1383 -14.0968 -14.0968 -14.0455 -14.0455 -14.0237 -14.0237
   -13.9332 -13.9332 -13.8895 -13.8895  -0.5990  -0.5990   0.0032   0.0032
     4.0132   4.0132   4.4416   4.4416   9.4612   9.4612  10.1698  10.1698
    10.9348  10.9348  11.5487  11.5487

     occupation numbers 
     1.0000   1.0000   1.0000   1.0000   1.0000   1.0000   1.0000   1.0000
     1.0000   1.0000   1.0000   1.0000   1.0000   1.0000   1.0000   1.0000
     1.0000   1.0000   1.0000   1.0000   1.0000   1.0000   1.0000   1.0000
     1.0000   1.0000   1.0000   1.0000   0.0000   0.0000   0.0000   0.0000
     0.0000   0.0000   0.0000   0.0000

          k =-0.0000-0.3536 0.6187 (  7844 PWs)   bands (ev):

   -15.1316 -15.1316 -15.0999 -15.0999 -15.0741 -15.0741 -15.0316 -15.0316
   -14.1384 -14.1384 -14.0969 -14.0969 -14.0478 -14.0478 -14.0207 -14.0207
   -13.9336 -13.9336 -13.8897 -13.8897  -0.7206  -0.7206   0.1328   0.1328
     3.9525   3.9525   4.5409   4.5409   9.5103   9.5103  10.3514  10.3514
    10.8222  10.8222  11.4563  11.4563

     occupation numbers 
     1.0000   1.0000   1.0000   1.0000   1.0000   1.0000   1.0000   1.0000
     1.0000   1.0000   1.0000   1.0000   1.0000   1.0000   1.0000   1.0000
     1.0000   1.0000   1.0000   1.0000   1.0000   1.0000   1.0000   1.0000
     1.0000   1.0000   1.0000   1.0000   0.0000   0.0000   0.0000   0.0000
     0.0000   0.0000   0.0000   0.0000

          k =-0.7071 0.2652 0.0000 (  7840 PWs)   bands (ev):

   -15.1304 -15.1304 -15.1029 -15.1029 -15.0708 -15.0708 -15.0330 -15.0330
   -14.1376 -14.1376 -14.0981 -14.0981 -14.0409 -14.0409 -14.0282 -14.0282
   -13.9319 -13.9319 -13.8901 -13.8901  -0.3254  -0.3254  -0.2844  -0.2844
     4.1569   4.1569   4.3211   4.3211   9.3182   9.3182   9.5146   9.5146
    11.6240  11.6240  11.7304  11.7304

     occupation numbers 
     1.0000   1.0000   1.0000   1.0000   1.0000   1.0000   1.0000   1.0000
     1.0000   1.0000   1.0000   1.0000   1.0000   1.0000   1.0000   1.0000
     1.0000   1.0000   1.0000   1.0000   1.0000   1.0000   1.0000   1.0000
     1.0000   1.0000   1.0000   1.0000   0.0000   0.0000   0.0000   0.0000
     0.0000   0.0000   0.0000   0.0000

          k =-0.7071 0.3536 0.0000 (  7848 PWs)   bands (ev):

   -15.1312 -15.1312 -15.1008 -15.1008 -15.0733 -15.0733 -15.0317 -15.0317
   -14.1387 -14.1387 -14.0955 -14.0955 -14.0419 -14.0419 -14.0288 -14.0288
   -13.9336 -13.9336 -13.8885 -13.8885  -0.3205  -0.3205  -0.2757  -0.2757
     4.0910   4.0910   4.2631   4.2631   9.9140   9.9140  10.2362  10.2362
    10.9123  10.9123  10.9335  10.9335

     occupation numbers 
     1.0000   1.0000   1.0000   1.0000   1.0000   1.0000   1.0000   1.0000
     1.0000   1.0000   1.0000   1.0000   1.0000   1.0000   1.0000   1.0000
     1.0000   1.0000   1.0000   1.0000   1.0000   1.0000   1.0000   1.0000
     1.0000   1.0000   1.0000   1.0000   0.0000   0.0000   0.0000   0.0000
     0.0000   0.0000   0.0000   0.0000

     the Fermi energy is     6.9499 ev

!    total energy              =    -325.85708229 Ry
     Harris-Foulkes estimate   =    -325.85708223 Ry
     estimated scf accuracy    <       0.00000010 Ry

     The total energy is the sum of the following terms:

     one-electron contribution =    -157.76589280 Ry
     hartree contribution      =      95.54339114 Ry
     xc contribution           =     -96.10478523 Ry
     ewald contribution        =    -167.52979533 Ry
     smearing contrib. (-TS)   =      -0.00000006 Ry

     convergence has been achieved in   5 iterations

     Writing output data file Sn.save
 
     init_run     :      7.60s CPU      8.53s WALL (       1 calls)
     electrons    :    152.60s CPU    168.73s WALL (       1 calls)

     Called by init_run:
     wfcinit      :      7.24s CPU      8.06s WALL (       1 calls)
     potinit      :      0.02s CPU      0.03s WALL (       1 calls)

     Called by electrons:
     c_bands      :    128.42s CPU    142.43s WALL (       6 calls)
     sum_band     :     23.75s CPU     25.75s WALL (       6 calls)
     v_of_rho     :      0.06s CPU      0.07s WALL (       6 calls)
     v_h          :      0.00s CPU      0.00s WALL (       6 calls)
     v_xc         :      0.05s CPU      0.06s WALL (       6 calls)
     newd         :      0.42s CPU      0.48s WALL (       6 calls)
     mix_rho      :      0.02s CPU      0.03s WALL (       6 calls)

     Called by c_bands:
     init_us_2    :      0.52s CPU      0.70s WALL (    1885 calls)
     cegterg      :    118.73s CPU    132.43s WALL (     870 calls)

     Called by sum_band:
     sum_band:bec :      1.95s CPU      2.01s WALL (     870 calls)
     addusdens    :      0.27s CPU      0.34s WALL (       6 calls)

     Called by *egterg:
     h_psi        :    101.48s CPU    112.32s WALL (    3093 calls)
     s_psi        :      3.36s CPU      3.39s WALL (    3093 calls)
     g_psi        :      0.31s CPU      0.32s WALL (    2078 calls)
     cdiaghg      :      7.01s CPU      7.17s WALL (    2803 calls)
     cegterg:over :      4.81s CPU      4.83s WALL (    2078 calls)
     cegterg:upda :      2.64s CPU      2.66s WALL (    2078 calls)
     cegterg:last :      1.37s CPU      1.37s WALL (     870 calls)

     Called by h_psi:
     h_psi:vloc   :     93.67s CPU    104.28s WALL (    3093 calls)
     h_psi:vnl    :      7.51s CPU      7.71s WALL (    3093 calls)
     add_vuspsi   :      3.58s CPU      3.64s WALL (    3093 calls)

     General routines
     calbec       :      5.33s CPU      5.51s WALL (    3963 calls)
     fft          :      0.06s CPU      0.07s WALL (     116 calls)
     fftw         :    104.81s CPU    116.44s WALL (  392108 calls)
     davcio       :      0.07s CPU      0.45s WALL (     145 calls)
 
     Parallel routines
     fft_scatter  :     53.75s CPU     59.63s WALL (  392224 calls)
 
     PWSCF        :  2m41.16s CPU     2m58.72s WALL

 
   This run was terminated on:  11:41:48  17Mar2020            

=------------------------------------------------------------------------------=
   JOB DONE.
=------------------------------------------------------------------------------=
