
     Program PWSCF v.5.4.0 starts on 16Mar2020 at 22:58: 2 

     This program is part of the open-source Quantum ESPRESSO suite
     for quantum simulation of materials; please cite
         "P. Giannozzi et al., J. Phys.:Condens. Matter 21 395502 (2009);
          URL http://www.quantum-espresso.org", 
     in publications or presentations arising from this work. More details at
     http://www.quantum-espresso.org/quote

     Parallel version (MPI & OpenMP), running on      16 processor cores
     Number of MPI processes:                16
     Threads/MPI process:                     1
     R & G space division:  proc/nbgrp/npool/nimage =      16
     Waiting for input...
     Reading input from standard input
Warning: card &IONS ignored
Warning: card / ignored
Warning: card &CELL ignored
Warning: card / ignored

     Current dimensions of program PWSCF are:
     Max number of different atomic species (ntypx) = 10
     Max number of k-points (npk) =  40000
     Max angular momentum in pseudopotentials (lmaxx) =  3
               file Sn.pbesol-dn-kjpaw_psl.1.0.0.UPF: wavefunction(s)  5S 5P 4D renormalized
     Message from routine setup:
     At least one non s.o. pseudo

     Subspace diagonalization in iterative solution of the eigenvalue problem:
     a serial algorithm will be used

 
     Parallelization info
     --------------------
     sticks:   dense  smooth     PW     G-vecs:    dense   smooth      PW
     Min         117     117     33                 3318     3318     505
     Max         119     119     34                 3319     3319     507
     Sum        1879    1879    535                53089    53089    8099
 

     Title: 
     Sn                                                                         


     bravais-lattice index     =            0
     lattice parameter (alat)  =       8.9127  a.u.
     unit-cell volume          =     500.6268 (a.u.)^3
     number of atoms/cell      =            2
     number of atomic types    =            1
     number of electrons       =        28.00
     number of Kohn-Sham states=           36
     kinetic-energy cutoff     =      85.0000  Ry
     charge density cutoff     =     340.0000  Ry
     convergence threshold     =      1.0E-06
     mixing beta               =       0.7000
     number of iterations used =            8  plain     mixing
     Exchange-correlation      =  SLA  PW   PSX  PSC ( 1  4 10  8 0 0)
     Non magnetic calculation with spin-orbit


     celldm(1)=   8.912709  celldm(2)=   0.000000  celldm(3)=   0.000000
     celldm(4)=   0.000000  celldm(5)=   0.000000  celldm(6)=   0.000000

     crystal axes: (cart. coord. in units of alat)
               a(1) = (   0.000000   0.707107   0.707107 )  
               a(2) = (   0.707107   0.000000   0.707107 )  
               a(3) = (   0.707107   0.707107   0.000000 )  

     reciprocal axes: (cart. coord. in units 2 pi/alat)
               b(1) = ( -0.707107  0.707107  0.707107 )  
               b(2) = (  0.707107 -0.707107  0.707107 )  
               b(3) = (  0.707107  0.707107 -0.707107 )  


     PseudoPot. # 1 for Sn read from file:
     ../PseudopotentialDatabase/Sn.pbesol-dn-kjpaw_psl.1.0.0.UPF
     MD5 check sum: 3b64f90c238cf26ccb627d174952382c
     Pseudo is Projector augmented-wave + core cor, Zval = 14.0
     Generated using "atomic" code by A. Dal Corso  v.6.3
     Shape of augmentation charge: PSQ
     Using radial grid of 1243 points,  6 beta functions with: 
                l(1) =   0
                l(2) =   0
                l(3) =   1
                l(4) =   1
                l(5) =   2
                l(6) =   2
     Q(r) pseudized with 0 coefficients 


     atomic species   valence    mass     pseudopotential
        Sn            14.00   118.71000     Sn( 1.00)

     24 Sym. Ops. (no inversion) found
          (note: 24 additional sym.ops. were found but ignored
           their fractional translations are incommensurate with FFT grid)

                                    s                        frac. trans.

      isym =  1     identity                                     

 cryst.   s( 1) = (     1          0          0      )
                  (     0          1          0      )
                  (     0          0          1      )

 cart.    s( 1) = (  1.0000000  0.0000000  0.0000000 )
                  (  0.0000000  1.0000000  0.0000000 )
                  (  0.0000000  0.0000000  1.0000000 )


      isym =  2     180 deg rotation - cart. axis [0,0,1]        

 cryst.   s( 2) = (     0          1         -1      )
                  (     1          0         -1      )
                  (     0          0         -1      )

 cart.    s( 2) = ( -1.0000000  0.0000000  0.0000000 )
                  (  0.0000000 -1.0000000  0.0000000 )
                  (  0.0000000  0.0000000  1.0000000 )


      isym =  3     180 deg rotation - cart. axis [0,1,0]        

 cryst.   s( 3) = (     0         -1          1      )
                  (     0         -1          0      )
                  (     1         -1          0      )

 cart.    s( 3) = ( -1.0000000  0.0000000  0.0000000 )
                  (  0.0000000  1.0000000  0.0000000 )
                  (  0.0000000  0.0000000 -1.0000000 )


      isym =  4     180 deg rotation - cart. axis [1,0,0]        

 cryst.   s( 4) = (    -1          0          0      )
                  (    -1          0          1      )
                  (    -1          1          0      )

 cart.    s( 4) = (  1.0000000  0.0000000  0.0000000 )
                  (  0.0000000 -1.0000000  0.0000000 )
                  (  0.0000000  0.0000000 -1.0000000 )


      isym =  5     120 deg rotation - cart. axis [-1,-1,-1]     

 cryst.   s( 5) = (     0          0          1      )
                  (     1          0          0      )
                  (     0          1          0      )

 cart.    s( 5) = (  0.0000000  1.0000000  0.0000000 )
                  (  0.0000000  0.0000000  1.0000000 )
                  (  1.0000000  0.0000000  0.0000000 )


      isym =  6     120 deg rotation - cart. axis [-1,1,1]       

 cryst.   s( 6) = (     1         -1          0      )
                  (     0         -1          1      )
                  (     0         -1          0      )

 cart.    s( 6) = (  0.0000000 -1.0000000  0.0000000 )
                  (  0.0000000  0.0000000  1.0000000 )
                  ( -1.0000000  0.0000000  0.0000000 )


      isym =  7     120 deg rotation - cart. axis [1,1,-1]       

 cryst.   s( 7) = (    -1          1          0      )
                  (    -1          0          0      )
                  (    -1          0          1      )

 cart.    s( 7) = (  0.0000000  1.0000000  0.0000000 )
                  (  0.0000000  0.0000000 -1.0000000 )
                  ( -1.0000000  0.0000000  0.0000000 )


      isym =  8     120 deg rotation - cart. axis [1,-1,1]       

 cryst.   s( 8) = (     0          0         -1      )
                  (     0          1         -1      )
                  (     1          0         -1      )

 cart.    s( 8) = (  0.0000000 -1.0000000  0.0000000 )
                  (  0.0000000  0.0000000 -1.0000000 )
                  (  1.0000000  0.0000000  0.0000000 )


      isym =  9     120 deg rotation - cart. axis [1,1,1]        

 cryst.   s( 9) = (     0          1          0      )
                  (     0          0          1      )
                  (     1          0          0      )

 cart.    s( 9) = (  0.0000000  0.0000000  1.0000000 )
                  (  1.0000000  0.0000000  0.0000000 )
                  (  0.0000000  1.0000000  0.0000000 )


      isym = 10     120 deg rotation - cart. axis [-1,1,-1]      

 cryst.   s(10) = (    -1          0          1      )
                  (    -1          1          0      )
                  (    -1          0          0      )

 cart.    s(10) = (  0.0000000  0.0000000  1.0000000 )
                  ( -1.0000000  0.0000000  0.0000000 )
                  (  0.0000000 -1.0000000  0.0000000 )


      isym = 11     120 deg rotation - cart. axis [1,-1,-1]      

 cryst.   s(11) = (     1          0         -1      )
                  (     0          0         -1      )
                  (     0          1         -1      )

 cart.    s(11) = (  0.0000000  0.0000000 -1.0000000 )
                  ( -1.0000000  0.0000000  0.0000000 )
                  (  0.0000000  1.0000000  0.0000000 )


      isym = 12     120 deg rotation - cart. axis [-1,-1,1]      

 cryst.   s(12) = (     0         -1          0      )
                  (     1         -1          0      )
                  (     0         -1          1      )

 cart.    s(12) = (  0.0000000  0.0000000 -1.0000000 )
                  (  1.0000000  0.0000000  0.0000000 )
                  (  0.0000000 -1.0000000  0.0000000 )


      isym = 13     inv. 180 deg rotation - cart. axis [1,1,0]   

 cryst.   s(13) = (     1          0         -1      )
                  (     0          1         -1      )
                  (     0          0         -1      )

 cart.    s(13) = (  0.0000000 -1.0000000  0.0000000 )
                  ( -1.0000000  0.0000000  0.0000000 )
                  (  0.0000000  0.0000000  1.0000000 )


      isym = 14     inv. 180 deg rotation - cart. axis [1,-1,0]  

 cryst.   s(14) = (     0          1          0      )
                  (     1          0          0      )
                  (     0          0          1      )

 cart.    s(14) = (  0.0000000  1.0000000  0.0000000 )
                  (  1.0000000  0.0000000  0.0000000 )
                  (  0.0000000  0.0000000  1.0000000 )


      isym = 15     inv.  90 deg rotation - cart. axis [0,0,-1]  

 cryst.   s(15) = (     0         -1          0      )
                  (     0         -1          1      )
                  (     1         -1          0      )

 cart.    s(15) = (  0.0000000 -1.0000000  0.0000000 )
                  (  1.0000000  0.0000000  0.0000000 )
                  (  0.0000000  0.0000000 -1.0000000 )


      isym = 16     inv.  90 deg rotation - cart. axis [0,0,1]   

 cryst.   s(16) = (    -1          0          1      )
                  (    -1          0          0      )
                  (    -1          1          0      )

 cart.    s(16) = (  0.0000000  1.0000000  0.0000000 )
                  ( -1.0000000  0.0000000  0.0000000 )
                  (  0.0000000  0.0000000 -1.0000000 )


      isym = 17     inv. 180 deg rotation - cart. axis [1,0,1]   

 cryst.   s(17) = (     1         -1          0      )
                  (     0         -1          0      )
                  (     0         -1          1      )

 cart.    s(17) = (  0.0000000  0.0000000 -1.0000000 )
                  (  0.0000000  1.0000000  0.0000000 )
                  ( -1.0000000  0.0000000  0.0000000 )


      isym = 18     inv. 180 deg rotation - cart. axis [-1,0,1]  

 cryst.   s(18) = (     0          0          1      )
                  (     0          1          0      )
                  (     1          0          0      )

 cart.    s(18) = (  0.0000000  0.0000000  1.0000000 )
                  (  0.0000000  1.0000000  0.0000000 )
                  (  1.0000000  0.0000000  0.0000000 )


      isym = 19     inv.  90 deg rotation - cart. axis [0,1,0]   

 cryst.   s(19) = (     0          0         -1      )
                  (     1          0         -1      )
                  (     0          1         -1      )

 cart.    s(19) = (  0.0000000  0.0000000 -1.0000000 )
                  (  0.0000000 -1.0000000  0.0000000 )
                  (  1.0000000  0.0000000  0.0000000 )


      isym = 20     inv.  90 deg rotation - cart. axis [0,-1,0]  

 cryst.   s(20) = (    -1          1          0      )
                  (    -1          0          1      )
                  (    -1          0          0      )

 cart.    s(20) = (  0.0000000  0.0000000  1.0000000 )
                  (  0.0000000 -1.0000000  0.0000000 )
                  ( -1.0000000  0.0000000  0.0000000 )


      isym = 21     inv. 180 deg rotation - cart. axis [0,1,1]   

 cryst.   s(21) = (    -1          0          0      )
                  (    -1          1          0      )
                  (    -1          0          1      )

 cart.    s(21) = (  1.0000000  0.0000000  0.0000000 )
                  (  0.0000000  0.0000000 -1.0000000 )
                  (  0.0000000 -1.0000000  0.0000000 )


      isym = 22     inv. 180 deg rotation - cart. axis [0,1,-1]  

 cryst.   s(22) = (     1          0          0      )
                  (     0          0          1      )
                  (     0          1          0      )

 cart.    s(22) = (  1.0000000  0.0000000  0.0000000 )
                  (  0.0000000  0.0000000  1.0000000 )
                  (  0.0000000  1.0000000  0.0000000 )


      isym = 23     inv.  90 deg rotation - cart. axis [-1,0,0]  

 cryst.   s(23) = (     0          1         -1      )
                  (     0          0         -1      )
                  (     1          0         -1      )

 cart.    s(23) = ( -1.0000000  0.0000000  0.0000000 )
                  (  0.0000000  0.0000000 -1.0000000 )
                  (  0.0000000  1.0000000  0.0000000 )


      isym = 24     inv.  90 deg rotation - cart. axis [1,0,0]   

 cryst.   s(24) = (     0         -1          1      )
                  (     1         -1          0      )
                  (     0         -1          0      )

 cart.    s(24) = ( -1.0000000  0.0000000  0.0000000 )
                  (  0.0000000  0.0000000  1.0000000 )
                  (  0.0000000 -1.0000000  0.0000000 )


   Cartesian axes

     site n.     atom                  positions (alat units)
         1           Sn  tau(   1) = (   0.0000000   0.0000000   0.0000000  )
         2           Sn  tau(   2) = (   0.3535534   0.3535534   0.3535534  )

   Crystallographic axes

     site n.     atom                  positions (cryst. coord.)
         1           Sn  tau(   1) = (  0.0000000  0.0000000  0.0000000  )
         2           Sn  tau(   2) = (  0.2500000  0.2500000  0.2500000  )

     number of k points=   145  gaussian smearing, width (Ry)=  0.0001
                       cart. coord. in units 2pi/alat
        k(    1) = (   0.0000000   0.0000000   0.0000000), wk =   0.0002441
        k(    2) = (   0.0441942   0.0441942  -0.0441942), wk =   0.0019531
        k(    3) = (   0.0883883   0.0883883  -0.0883883), wk =   0.0019531
        k(    4) = (   0.1325825   0.1325825  -0.1325825), wk =   0.0019531
        k(    5) = (   0.1767767   0.1767767  -0.1767767), wk =   0.0019531
        k(    6) = (   0.2209709   0.2209709  -0.2209709), wk =   0.0019531
        k(    7) = (   0.2651650   0.2651650  -0.2651650), wk =   0.0019531
        k(    8) = (   0.3093592   0.3093592  -0.3093592), wk =   0.0019531
        k(    9) = (  -0.3535534  -0.3535534   0.3535534), wk =   0.0009766
        k(   10) = (   0.0883883   0.0000000   0.0000000), wk =   0.0014648
        k(   11) = (   0.1325825   0.0441942  -0.0441942), wk =   0.0058594
        k(   12) = (   0.1767767   0.0883883  -0.0883883), wk =   0.0058594
        k(   13) = (   0.2209709   0.1325825  -0.1325825), wk =   0.0058594
        k(   14) = (   0.2651650   0.1767767  -0.1767767), wk =   0.0058594
        k(   15) = (   0.3093592   0.2209709  -0.2209709), wk =   0.0058594
        k(   16) = (   0.3535534   0.2651650  -0.2651650), wk =   0.0058594
        k(   17) = (  -0.3093592  -0.3977476   0.3977476), wk =   0.0058594
        k(   18) = (  -0.2651650  -0.3535534   0.3535534), wk =   0.0058594
        k(   19) = (  -0.2209709  -0.3093592   0.3093592), wk =   0.0058594
        k(   20) = (  -0.1767767  -0.2651650   0.2651650), wk =   0.0058594
        k(   21) = (  -0.1325825  -0.2209709   0.2209709), wk =   0.0058594
        k(   22) = (  -0.0883883  -0.1767767   0.1767767), wk =   0.0058594
        k(   23) = (  -0.0441942  -0.1325825   0.1325825), wk =   0.0058594
        k(   24) = (   0.0000000  -0.0883883   0.0883883), wk =   0.0029297
        k(   25) = (   0.1767767   0.0000000   0.0000000), wk =   0.0014648
        k(   26) = (   0.2209709   0.0441942  -0.0441942), wk =   0.0058594
        k(   27) = (   0.2651650   0.0883883  -0.0883883), wk =   0.0058594
        k(   28) = (   0.3093592   0.1325825  -0.1325825), wk =   0.0058594
        k(   29) = (   0.3535534   0.1767767  -0.1767767), wk =   0.0058594
        k(   30) = (   0.3977476   0.2209709  -0.2209709), wk =   0.0058594
        k(   31) = (  -0.2651650  -0.4419417   0.4419417), wk =   0.0058594
        k(   32) = (  -0.2209709  -0.3977476   0.3977476), wk =   0.0058594
        k(   33) = (  -0.1767767  -0.3535534   0.3535534), wk =   0.0058594
        k(   34) = (  -0.1325825  -0.3093592   0.3093592), wk =   0.0058594
        k(   35) = (  -0.0883883  -0.2651650   0.2651650), wk =   0.0058594
        k(   36) = (  -0.0441942  -0.2209709   0.2209709), wk =   0.0058594
        k(   37) = (   0.0000000  -0.1767767   0.1767767), wk =   0.0029297
        k(   38) = (   0.2651650   0.0000000   0.0000000), wk =   0.0014648
        k(   39) = (   0.3093592   0.0441942  -0.0441942), wk =   0.0058594
        k(   40) = (   0.3535534   0.0883883  -0.0883883), wk =   0.0058594
        k(   41) = (   0.3977476   0.1325825  -0.1325825), wk =   0.0058594
        k(   42) = (   0.4419417   0.1767767  -0.1767767), wk =   0.0058594
        k(   43) = (  -0.2209709  -0.4861359   0.4861359), wk =   0.0058594
        k(   44) = (  -0.1767767  -0.4419417   0.4419417), wk =   0.0058594
        k(   45) = (  -0.1325825  -0.3977476   0.3977476), wk =   0.0058594
        k(   46) = (  -0.0883883  -0.3535534   0.3535534), wk =   0.0058594
        k(   47) = (  -0.0441942  -0.3093592   0.3093592), wk =   0.0058594
        k(   48) = (   0.0000000  -0.2651650   0.2651650), wk =   0.0029297
        k(   49) = (   0.3535534   0.0000000   0.0000000), wk =   0.0014648
        k(   50) = (   0.3977476   0.0441942  -0.0441942), wk =   0.0058594
        k(   51) = (   0.4419417   0.0883883  -0.0883883), wk =   0.0058594
        k(   52) = (   0.4861359   0.1325825  -0.1325825), wk =   0.0058594
        k(   53) = (  -0.1767767  -0.5303301   0.5303301), wk =   0.0058594
        k(   54) = (  -0.1325825  -0.4861359   0.4861359), wk =   0.0058594
        k(   55) = (  -0.0883883  -0.4419417   0.4419417), wk =   0.0058594
        k(   56) = (  -0.0441942  -0.3977476   0.3977476), wk =   0.0058594
        k(   57) = (   0.0000000  -0.3535534   0.3535534), wk =   0.0029297
        k(   58) = (   0.4419417   0.0000000   0.0000000), wk =   0.0014648
        k(   59) = (   0.4861359   0.0441942  -0.0441942), wk =   0.0058594
        k(   60) = (   0.5303301   0.0883883  -0.0883883), wk =   0.0058594
        k(   61) = (  -0.1325825  -0.5745243   0.5745243), wk =   0.0058594
        k(   62) = (  -0.0883883  -0.5303301   0.5303301), wk =   0.0058594
        k(   63) = (  -0.0441942  -0.4861359   0.4861359), wk =   0.0058594
        k(   64) = (   0.0000000  -0.4419417   0.4419417), wk =   0.0029297
        k(   65) = (   0.5303301   0.0000000   0.0000000), wk =   0.0014648
        k(   66) = (   0.5745243   0.0441942  -0.0441942), wk =   0.0058594
        k(   67) = (  -0.0883883  -0.6187184   0.6187184), wk =   0.0058594
        k(   68) = (  -0.0441942  -0.5745243   0.5745243), wk =   0.0058594
        k(   69) = (   0.0000000  -0.5303301   0.5303301), wk =   0.0029297
        k(   70) = (   0.6187184   0.0000000   0.0000000), wk =   0.0014648
        k(   71) = (  -0.0441942  -0.6629126   0.6629126), wk =   0.0058594
        k(   72) = (   0.0000000  -0.6187184   0.6187184), wk =   0.0029297
        k(   73) = (  -0.7071068   0.0000000   0.0000000), wk =   0.0007324
        k(   74) = (   0.1767767   0.0883883   0.0000000), wk =   0.0058594
        k(   75) = (   0.2209709   0.1325825  -0.0441942), wk =   0.0117188
        k(   76) = (   0.2651650   0.1767767  -0.0883883), wk =   0.0117188
        k(   77) = (   0.3093592   0.2209709  -0.1325825), wk =   0.0117188
        k(   78) = (   0.3535534   0.2651650  -0.1767767), wk =   0.0117188
        k(   79) = (  -0.3093592  -0.3977476   0.4861359), wk =   0.0117188
        k(   80) = (  -0.2651650  -0.3535534   0.4419417), wk =   0.0058594
        k(   81) = (   0.2651650   0.0883883   0.0000000), wk =   0.0058594
        k(   82) = (   0.3093592   0.1325825  -0.0441942), wk =   0.0117188
        k(   83) = (   0.3535534   0.1767767  -0.0883883), wk =   0.0117188
        k(   84) = (   0.3977476   0.2209709  -0.1325825), wk =   0.0117188
        k(   85) = (  -0.2651650  -0.4419417   0.5303301), wk =   0.0117188
        k(   86) = (  -0.2209709  -0.3977476   0.4861359), wk =   0.0117188
        k(   87) = (  -0.1767767  -0.3535534   0.4419417), wk =   0.0117188
        k(   88) = (  -0.1325825  -0.3093592   0.3977476), wk =   0.0117188
        k(   89) = (  -0.0883883  -0.2651650   0.3535534), wk =   0.0117188
        k(   90) = (  -0.0441942  -0.2209709   0.3093592), wk =   0.0117188
        k(   91) = (   0.0000000  -0.1767767   0.2651650), wk =   0.0058594
        k(   92) = (   0.3535534   0.0883883   0.0000000), wk =   0.0058594
        k(   93) = (   0.3977476   0.1325825  -0.0441942), wk =   0.0117188
        k(   94) = (   0.4419417   0.1767767  -0.0883883), wk =   0.0117188
        k(   95) = (  -0.2209709  -0.4861359   0.5745243), wk =   0.0117188
        k(   96) = (  -0.1767767  -0.4419417   0.5303301), wk =   0.0117188
        k(   97) = (  -0.1325825  -0.3977476   0.4861359), wk =   0.0117188
        k(   98) = (  -0.0883883  -0.3535534   0.4419417), wk =   0.0117188
        k(   99) = (  -0.0441942  -0.3093592   0.3977476), wk =   0.0117188
        k(  100) = (   0.0000000  -0.2651650   0.3535534), wk =   0.0058594
        k(  101) = (   0.4419417   0.0883883   0.0000000), wk =   0.0058594
        k(  102) = (   0.4861359   0.1325825  -0.0441942), wk =   0.0117188
        k(  103) = (  -0.1767767  -0.5303301   0.6187184), wk =   0.0117188
        k(  104) = (  -0.1325825  -0.4861359   0.5745243), wk =   0.0117188
        k(  105) = (  -0.0883883  -0.4419417   0.5303301), wk =   0.0117188
        k(  106) = (  -0.0441942  -0.3977476   0.4861359), wk =   0.0117188
        k(  107) = (   0.0000000  -0.3535534   0.4419417), wk =   0.0058594
        k(  108) = (   0.5303301   0.0883883   0.0000000), wk =   0.0058594
        k(  109) = (  -0.1325825  -0.5745243   0.6629126), wk =   0.0117188
        k(  110) = (  -0.0883883  -0.5303301   0.6187184), wk =   0.0117188
        k(  111) = (  -0.0441942  -0.4861359   0.5745243), wk =   0.0117188
        k(  112) = (   0.0000000  -0.4419417   0.5303301), wk =   0.0058594
        k(  113) = (  -0.0883883  -0.6187184   0.7071068), wk =   0.0058594
        k(  114) = (  -0.0441942  -0.5745243   0.6629126), wk =   0.0117188
        k(  115) = (  -0.0000000  -0.5303301   0.6187184), wk =   0.0058594
        k(  116) = (  -0.7071068   0.0883883   0.0000000), wk =   0.0029297
        k(  117) = (   0.3535534   0.1767767   0.0000000), wk =   0.0058594
        k(  118) = (   0.3977476   0.2209709  -0.0441942), wk =   0.0117188
        k(  119) = (  -0.2651650  -0.4419417   0.6187184), wk =   0.0117188
        k(  120) = (  -0.2209709  -0.3977476   0.5745243), wk =   0.0117188
        k(  121) = (  -0.1767767  -0.3535534   0.5303301), wk =   0.0058594
        k(  122) = (   0.4419417   0.1767767   0.0000000), wk =   0.0058594
        k(  123) = (  -0.2209709  -0.4861359   0.6629126), wk =   0.0117188
        k(  124) = (  -0.1767767  -0.4419417   0.6187184), wk =   0.0117188
        k(  125) = (  -0.1325825  -0.3977476   0.5745243), wk =   0.0117188
        k(  126) = (  -0.0883883  -0.3535534   0.5303301), wk =   0.0117188
        k(  127) = (  -0.0441942  -0.3093592   0.4861359), wk =   0.0117188
        k(  128) = (   0.0000000  -0.2651650   0.4419417), wk =   0.0058594
        k(  129) = (  -0.1767767  -0.5303301   0.7071068), wk =   0.0058594
        k(  130) = (  -0.1325825  -0.4861359   0.6629126), wk =   0.0117188
        k(  131) = (  -0.0883883  -0.4419417   0.6187184), wk =   0.0117188
        k(  132) = (  -0.0441942  -0.3977476   0.5745243), wk =   0.0117188
        k(  133) = (   0.0000000  -0.3535534   0.5303301), wk =   0.0058594
        k(  134) = (  -0.0883883  -0.5303301   0.7071068), wk =   0.0058594
        k(  135) = (  -0.0441942  -0.4861359   0.6629126), wk =   0.0117188
        k(  136) = (   0.0000000  -0.4419417   0.6187184), wk =   0.0058594
        k(  137) = (  -0.7071068   0.1767767   0.0000000), wk =   0.0029297
        k(  138) = (  -0.1767767  -0.4419417   0.7071068), wk =   0.0058594
        k(  139) = (  -0.1325825  -0.3977476   0.6629126), wk =   0.0117188
        k(  140) = (  -0.0883883  -0.3535534   0.6187184), wk =   0.0058594
        k(  141) = (  -0.0883883  -0.4419417   0.7071068), wk =   0.0058594
        k(  142) = (  -0.0441942  -0.3977476   0.6629126), wk =   0.0117188
        k(  143) = (  -0.0000000  -0.3535534   0.6187184), wk =   0.0058594
        k(  144) = (  -0.7071068   0.2651650   0.0000000), wk =   0.0029297
        k(  145) = (  -0.7071068   0.3535534   0.0000000), wk =   0.0014648

                       cryst. coord.
        k(    1) = (   0.0000000   0.0000000   0.0000000), wk =   0.0002441
        k(    2) = (   0.0000000   0.0000000   0.0625000), wk =   0.0019531
        k(    3) = (   0.0000000   0.0000000   0.1250000), wk =   0.0019531
        k(    4) = (   0.0000000   0.0000000   0.1875000), wk =   0.0019531
        k(    5) = (   0.0000000   0.0000000   0.2500000), wk =   0.0019531
        k(    6) = (   0.0000000   0.0000000   0.3125000), wk =   0.0019531
        k(    7) = (   0.0000000   0.0000000   0.3750000), wk =   0.0019531
        k(    8) = (   0.0000000   0.0000000   0.4375000), wk =   0.0019531
        k(    9) = (   0.0000000   0.0000000  -0.5000000), wk =   0.0009766
        k(   10) = (   0.0000000   0.0625000   0.0625000), wk =   0.0014648
        k(   11) = (   0.0000000   0.0625000   0.1250000), wk =   0.0058594
        k(   12) = (   0.0000000   0.0625000   0.1875000), wk =   0.0058594
        k(   13) = (   0.0000000   0.0625000   0.2500000), wk =   0.0058594
        k(   14) = (   0.0000000   0.0625000   0.3125000), wk =   0.0058594
        k(   15) = (   0.0000000   0.0625000   0.3750000), wk =   0.0058594
        k(   16) = (   0.0000000   0.0625000   0.4375000), wk =   0.0058594
        k(   17) = (   0.0000000   0.0625000  -0.5000000), wk =   0.0058594
        k(   18) = (   0.0000000   0.0625000  -0.4375000), wk =   0.0058594
        k(   19) = (   0.0000000   0.0625000  -0.3750000), wk =   0.0058594
        k(   20) = (   0.0000000   0.0625000  -0.3125000), wk =   0.0058594
        k(   21) = (   0.0000000   0.0625000  -0.2500000), wk =   0.0058594
        k(   22) = (   0.0000000   0.0625000  -0.1875000), wk =   0.0058594
        k(   23) = (   0.0000000   0.0625000  -0.1250000), wk =   0.0058594
        k(   24) = (   0.0000000   0.0625000  -0.0625000), wk =   0.0029297
        k(   25) = (   0.0000000   0.1250000   0.1250000), wk =   0.0014648
        k(   26) = (   0.0000000   0.1250000   0.1875000), wk =   0.0058594
        k(   27) = (   0.0000000   0.1250000   0.2500000), wk =   0.0058594
        k(   28) = (   0.0000000   0.1250000   0.3125000), wk =   0.0058594
        k(   29) = (   0.0000000   0.1250000   0.3750000), wk =   0.0058594
        k(   30) = (   0.0000000   0.1250000   0.4375000), wk =   0.0058594
        k(   31) = (   0.0000000   0.1250000  -0.5000000), wk =   0.0058594
        k(   32) = (   0.0000000   0.1250000  -0.4375000), wk =   0.0058594
        k(   33) = (   0.0000000   0.1250000  -0.3750000), wk =   0.0058594
        k(   34) = (   0.0000000   0.1250000  -0.3125000), wk =   0.0058594
        k(   35) = (   0.0000000   0.1250000  -0.2500000), wk =   0.0058594
        k(   36) = (   0.0000000   0.1250000  -0.1875000), wk =   0.0058594
        k(   37) = (   0.0000000   0.1250000  -0.1250000), wk =   0.0029297
        k(   38) = (   0.0000000   0.1875000   0.1875000), wk =   0.0014648
        k(   39) = (   0.0000000   0.1875000   0.2500000), wk =   0.0058594
        k(   40) = (   0.0000000   0.1875000   0.3125000), wk =   0.0058594
        k(   41) = (   0.0000000   0.1875000   0.3750000), wk =   0.0058594
        k(   42) = (   0.0000000   0.1875000   0.4375000), wk =   0.0058594
        k(   43) = (   0.0000000   0.1875000  -0.5000000), wk =   0.0058594
        k(   44) = (   0.0000000   0.1875000  -0.4375000), wk =   0.0058594
        k(   45) = (   0.0000000   0.1875000  -0.3750000), wk =   0.0058594
        k(   46) = (   0.0000000   0.1875000  -0.3125000), wk =   0.0058594
        k(   47) = (   0.0000000   0.1875000  -0.2500000), wk =   0.0058594
        k(   48) = (   0.0000000   0.1875000  -0.1875000), wk =   0.0029297
        k(   49) = (   0.0000000   0.2500000   0.2500000), wk =   0.0014648
        k(   50) = (   0.0000000   0.2500000   0.3125000), wk =   0.0058594
        k(   51) = (   0.0000000   0.2500000   0.3750000), wk =   0.0058594
        k(   52) = (   0.0000000   0.2500000   0.4375000), wk =   0.0058594
        k(   53) = (   0.0000000   0.2500000  -0.5000000), wk =   0.0058594
        k(   54) = (   0.0000000   0.2500000  -0.4375000), wk =   0.0058594
        k(   55) = (   0.0000000   0.2500000  -0.3750000), wk =   0.0058594
        k(   56) = (   0.0000000   0.2500000  -0.3125000), wk =   0.0058594
        k(   57) = (   0.0000000   0.2500000  -0.2500000), wk =   0.0029297
        k(   58) = (   0.0000000   0.3125000   0.3125000), wk =   0.0014648
        k(   59) = (   0.0000000   0.3125000   0.3750000), wk =   0.0058594
        k(   60) = (   0.0000000   0.3125000   0.4375000), wk =   0.0058594
        k(   61) = (   0.0000000   0.3125000  -0.5000000), wk =   0.0058594
        k(   62) = (   0.0000000   0.3125000  -0.4375000), wk =   0.0058594
        k(   63) = (   0.0000000   0.3125000  -0.3750000), wk =   0.0058594
        k(   64) = (   0.0000000   0.3125000  -0.3125000), wk =   0.0029297
        k(   65) = (   0.0000000   0.3750000   0.3750000), wk =   0.0014648
        k(   66) = (   0.0000000   0.3750000   0.4375000), wk =   0.0058594
        k(   67) = (   0.0000000   0.3750000  -0.5000000), wk =   0.0058594
        k(   68) = (   0.0000000   0.3750000  -0.4375000), wk =   0.0058594
        k(   69) = (   0.0000000   0.3750000  -0.3750000), wk =   0.0029297
        k(   70) = (   0.0000000   0.4375000   0.4375000), wk =   0.0014648
        k(   71) = (   0.0000000   0.4375000  -0.5000000), wk =   0.0058594
        k(   72) = (   0.0000000   0.4375000  -0.4375000), wk =   0.0029297
        k(   73) = (   0.0000000  -0.5000000  -0.5000000), wk =   0.0007324
        k(   74) = (   0.0625000   0.1250000   0.1875000), wk =   0.0058594
        k(   75) = (   0.0625000   0.1250000   0.2500000), wk =   0.0117188
        k(   76) = (   0.0625000   0.1250000   0.3125000), wk =   0.0117188
        k(   77) = (   0.0625000   0.1250000   0.3750000), wk =   0.0117188
        k(   78) = (   0.0625000   0.1250000   0.4375000), wk =   0.0117188
        k(   79) = (   0.0625000   0.1250000  -0.5000000), wk =   0.0117188
        k(   80) = (   0.0625000   0.1250000  -0.4375000), wk =   0.0058594
        k(   81) = (   0.0625000   0.1875000   0.2500000), wk =   0.0058594
        k(   82) = (   0.0625000   0.1875000   0.3125000), wk =   0.0117188
        k(   83) = (   0.0625000   0.1875000   0.3750000), wk =   0.0117188
        k(   84) = (   0.0625000   0.1875000   0.4375000), wk =   0.0117188
        k(   85) = (   0.0625000   0.1875000  -0.5000000), wk =   0.0117188
        k(   86) = (   0.0625000   0.1875000  -0.4375000), wk =   0.0117188
        k(   87) = (   0.0625000   0.1875000  -0.3750000), wk =   0.0117188
        k(   88) = (   0.0625000   0.1875000  -0.3125000), wk =   0.0117188
        k(   89) = (   0.0625000   0.1875000  -0.2500000), wk =   0.0117188
        k(   90) = (   0.0625000   0.1875000  -0.1875000), wk =   0.0117188
        k(   91) = (   0.0625000   0.1875000  -0.1250000), wk =   0.0058594
        k(   92) = (   0.0625000   0.2500000   0.3125000), wk =   0.0058594
        k(   93) = (   0.0625000   0.2500000   0.3750000), wk =   0.0117188
        k(   94) = (   0.0625000   0.2500000   0.4375000), wk =   0.0117188
        k(   95) = (   0.0625000   0.2500000  -0.5000000), wk =   0.0117188
        k(   96) = (   0.0625000   0.2500000  -0.4375000), wk =   0.0117188
        k(   97) = (   0.0625000   0.2500000  -0.3750000), wk =   0.0117188
        k(   98) = (   0.0625000   0.2500000  -0.3125000), wk =   0.0117188
        k(   99) = (   0.0625000   0.2500000  -0.2500000), wk =   0.0117188
        k(  100) = (   0.0625000   0.2500000  -0.1875000), wk =   0.0058594
        k(  101) = (   0.0625000   0.3125000   0.3750000), wk =   0.0058594
        k(  102) = (   0.0625000   0.3125000   0.4375000), wk =   0.0117188
        k(  103) = (   0.0625000   0.3125000  -0.5000000), wk =   0.0117188
        k(  104) = (   0.0625000   0.3125000  -0.4375000), wk =   0.0117188
        k(  105) = (   0.0625000   0.3125000  -0.3750000), wk =   0.0117188
        k(  106) = (   0.0625000   0.3125000  -0.3125000), wk =   0.0117188
        k(  107) = (   0.0625000   0.3125000  -0.2500000), wk =   0.0058594
        k(  108) = (   0.0625000   0.3750000   0.4375000), wk =   0.0058594
        k(  109) = (   0.0625000   0.3750000  -0.5000000), wk =   0.0117188
        k(  110) = (   0.0625000   0.3750000  -0.4375000), wk =   0.0117188
        k(  111) = (   0.0625000   0.3750000  -0.3750000), wk =   0.0117188
        k(  112) = (   0.0625000   0.3750000  -0.3125000), wk =   0.0058594
        k(  113) = (   0.0625000   0.4375000  -0.5000000), wk =   0.0058594
        k(  114) = (   0.0625000   0.4375000  -0.4375000), wk =   0.0117188
        k(  115) = (   0.0625000   0.4375000  -0.3750000), wk =   0.0058594
        k(  116) = (   0.0625000  -0.5000000  -0.4375000), wk =   0.0029297
        k(  117) = (   0.1250000   0.2500000   0.3750000), wk =   0.0058594
        k(  118) = (   0.1250000   0.2500000   0.4375000), wk =   0.0117188
        k(  119) = (   0.1250000   0.2500000  -0.5000000), wk =   0.0117188
        k(  120) = (   0.1250000   0.2500000  -0.4375000), wk =   0.0117188
        k(  121) = (   0.1250000   0.2500000  -0.3750000), wk =   0.0058594
        k(  122) = (   0.1250000   0.3125000   0.4375000), wk =   0.0058594
        k(  123) = (   0.1250000   0.3125000  -0.5000000), wk =   0.0117188
        k(  124) = (   0.1250000   0.3125000  -0.4375000), wk =   0.0117188
        k(  125) = (   0.1250000   0.3125000  -0.3750000), wk =   0.0117188
        k(  126) = (   0.1250000   0.3125000  -0.3125000), wk =   0.0117188
        k(  127) = (   0.1250000   0.3125000  -0.2500000), wk =   0.0117188
        k(  128) = (   0.1250000   0.3125000  -0.1875000), wk =   0.0058594
        k(  129) = (   0.1250000   0.3750000  -0.5000000), wk =   0.0058594
        k(  130) = (   0.1250000   0.3750000  -0.4375000), wk =   0.0117188
        k(  131) = (   0.1250000   0.3750000  -0.3750000), wk =   0.0117188
        k(  132) = (   0.1250000   0.3750000  -0.3125000), wk =   0.0117188
        k(  133) = (   0.1250000   0.3750000  -0.2500000), wk =   0.0058594
        k(  134) = (   0.1250000   0.4375000  -0.4375000), wk =   0.0058594
        k(  135) = (   0.1250000   0.4375000  -0.3750000), wk =   0.0117188
        k(  136) = (   0.1250000   0.4375000  -0.3125000), wk =   0.0058594
        k(  137) = (   0.1250000  -0.5000000  -0.3750000), wk =   0.0029297
        k(  138) = (   0.1875000   0.3750000  -0.4375000), wk =   0.0058594
        k(  139) = (   0.1875000   0.3750000  -0.3750000), wk =   0.0117188
        k(  140) = (   0.1875000   0.3750000  -0.3125000), wk =   0.0058594
        k(  141) = (   0.1875000   0.4375000  -0.3750000), wk =   0.0058594
        k(  142) = (   0.1875000   0.4375000  -0.3125000), wk =   0.0117188
        k(  143) = (   0.1875000   0.4375000  -0.2500000), wk =   0.0058594
        k(  144) = (   0.1875000  -0.5000000  -0.3125000), wk =   0.0029297
        k(  145) = (   0.2500000  -0.5000000  -0.2500000), wk =   0.0014648

     Dense  grid:    53089 G-vectors     FFT dimensions: (  54,  54,  54)

     Largest allocated arrays     est. size (Mb)     dimensions
        Kohn-Sham Wavefunctions         0.47 Mb     (     858,   36)
        NL pseudopotentials             0.24 Mb     (     429,   36)
        Each V/rho on FFT grid          0.18 Mb     (   11664)
        Each G-vector array             0.03 Mb     (    3319)
        G-vector shells                 0.00 Mb     (     445)
     Largest temporary arrays     est. size (Mb)     dimensions
        Auxiliary wavefunctions         1.89 Mb     (     858,  144)
        Each subspace H/S matrix        0.32 Mb     (     144,  144)
        Each <psi_i|beta_j> matrix      0.04 Mb     (      36,   2,   36)
        Arrays for rho mixing           1.42 Mb     (   11664,    8)

     Initial potential from superposition of free atoms

     starting charge   27.99749, renormalised to   28.00000
     Starting wfc are   36 randomized atomic wfcs
     Checking if some PAW data can be deallocated... 

     total cpu time spent up to now is       10.1 secs

     Self-consistent Calculation

     iteration #  1     ecut=    85.00 Ry     beta=0.70
     Davidson diagonalization with overlap
     ethr =  1.00E-02,  avg # of iterations =  3.5

     Threshold (ethr) on eigenvalues was too large:
     Diagonalizing with lowered threshold

     Davidson diagonalization with overlap
     ethr =  6.40E-05,  avg # of iterations =  3.3

     total cpu time spent up to now is       73.1 secs

     total energy              =    -873.10518827 Ry
     Harris-Foulkes estimate   =    -873.11078539 Ry
     estimated scf accuracy    <       0.02142938 Ry

     iteration #  2     ecut=    85.00 Ry     beta=0.70
     Davidson diagonalization with overlap
     ethr =  7.65E-05,  avg # of iterations =  1.0

     total cpu time spent up to now is       97.9 secs

     total energy              =    -873.10605194 Ry
     Harris-Foulkes estimate   =    -873.10631114 Ry
     estimated scf accuracy    <       0.00135264 Ry

     iteration #  3     ecut=    85.00 Ry     beta=0.70
     Davidson diagonalization with overlap
     ethr =  4.83E-06,  avg # of iterations =  2.8

     total cpu time spent up to now is      132.7 secs

     total energy              =    -873.10632328 Ry
     Harris-Foulkes estimate   =    -873.10636388 Ry
     estimated scf accuracy    <       0.00006853 Ry

     iteration #  4     ecut=    85.00 Ry     beta=0.70
     Davidson diagonalization with overlap
     ethr =  2.45E-07,  avg # of iterations =  2.0

     total cpu time spent up to now is      165.7 secs

     total energy              =    -873.10634463 Ry
     Harris-Foulkes estimate   =    -873.10634440 Ry
     estimated scf accuracy    <       0.00000418 Ry

     iteration #  5     ecut=    85.00 Ry     beta=0.70
     Davidson diagonalization with overlap
     ethr =  1.49E-08,  avg # of iterations =  2.0

     total cpu time spent up to now is      193.3 secs

     End of self-consistent calculation

          k = 0.0000 0.0000 0.0000 (  6615 PWs)   bands (ev):

   -14.7470 -14.7470 -14.7470 -14.7470 -14.7470 -14.7470 -14.6979 -14.6979
   -14.6979 -14.6979 -14.4479 -14.4479 -14.4479 -14.4479 -14.4479 -14.4479
   -14.4473 -14.4473 -14.4473 -14.4473  -3.3618  -3.3618   5.4963   5.4963
     6.8329   6.8329   6.8329   6.8329   6.8329   6.8329   8.8854   8.8854
     8.8854   8.8854   8.8854   8.8854

     occupation numbers 
     1.0000   1.0000   1.0000   1.0000   1.0000   1.0000   1.0000   1.0000
     1.0000   1.0000   1.0000   1.0000   1.0000   1.0000   1.0000   1.0000
     1.0000   1.0000   1.0000   1.0000   1.0000   1.0000   1.0000   1.0000
     0.0000   0.0000   0.0000   0.0000   0.0000   0.0000   0.0000   0.0000
     0.0000   0.0000   0.0000   0.0000

          k = 0.0442 0.0442-0.0442 (  6615 PWs)   bands (ev):

   -14.7496 -14.7496 -14.7496 -14.7496 -14.7462 -14.7462 -14.6944 -14.6944
   -14.6944 -14.6944 -14.4583 -14.4583 -14.4583 -14.4583 -14.4488 -14.4488
   -14.4374 -14.4374 -14.4374 -14.4374  -3.3270  -3.3270   5.1138   5.1138
     6.7601   6.7601   6.7601   6.7601   7.0008   7.0008   8.9805   8.9805
     8.9805   8.9805   9.0078   9.0078

     occupation numbers 
     1.0000   1.0000   1.0000   1.0000   1.0000   1.0000   1.0000   1.0000
     1.0000   1.0000   1.0000   1.0000   1.0000   1.0000   1.0000   1.0000
     1.0000   1.0000   1.0000   1.0000   1.0000   1.0000   1.0000   1.0000
     0.0007   0.0007   0.0007   0.0007   0.0000   0.0000   0.0000   0.0000
     0.0000   0.0000   0.0000   0.0000

          k = 0.0884 0.0884-0.0884 (  6630 PWs)   bands (ev):

   -14.7555 -14.7555 -14.7555 -14.7555 -14.7438 -14.7438 -14.6860 -14.6860
   -14.6860 -14.6860 -14.4690 -14.4690 -14.4690 -14.4690 -14.4517 -14.4517
   -14.4283 -14.4283 -14.4283 -14.4283  -3.2234  -3.2234   4.3632   4.3632
     6.5821   6.5821   6.5821   6.5821   7.1156   7.1156   9.2149   9.2149
     9.2149   9.2149   9.4266   9.4266

     occupation numbers 
     1.0000   1.0000   1.0000   1.0000   1.0000   1.0000   1.0000   1.0000
     1.0000   1.0000   1.0000   1.0000   1.0000   1.0000   1.0000   1.0000
     1.0000   1.0000   1.0000   1.0000   1.0000   1.0000   1.0000   1.0000
     1.0000   1.0000   1.0000   1.0000   0.0000   0.0000   0.0000   0.0000
     0.0000   0.0000   0.0000   0.0000

          k = 0.1326 0.1326-0.1326 (  6600 PWs)   bands (ev):

   -14.7618 -14.7618 -14.7618 -14.7618 -14.7402 -14.7402 -14.6760 -14.6760
   -14.6760 -14.6760 -14.4789 -14.4789 -14.4789 -14.4789 -14.4560 -14.4560
   -14.4206 -14.4206 -14.4206 -14.4206  -3.0539  -3.0539   3.5382   3.5382
     6.3669   6.3669   6.3669   6.3669   7.0419   7.0419   9.4899   9.4899
     9.4899   9.4899  10.0943  10.0943

     occupation numbers 
     1.0000   1.0000   1.0000   1.0000   1.0000   1.0000   1.0000   1.0000
     1.0000   1.0000   1.0000   1.0000   1.0000   1.0000   1.0000   1.0000
     1.0000   1.0000   1.0000   1.0000   1.0000   1.0000   1.0000   1.0000
     1.0000   1.0000   1.0000   1.0000   0.0000   0.0000   0.0000   0.0000
     0.0000   0.0000   0.0000   0.0000

          k = 0.1768 0.1768-0.1768 (  6609 PWs)   bands (ev):

   -14.7673 -14.7673 -14.7673 -14.7673 -14.7358 -14.7358 -14.6666 -14.6666
   -14.6666 -14.6666 -14.4874 -14.4874 -14.4874 -14.4874 -14.4612 -14.4612
   -14.4145 -14.4145 -14.4145 -14.4145  -2.8248  -2.8248   2.7286   2.7286
     6.1600   6.1600   6.1600   6.1600   6.8951   6.8951   9.7186   9.7186
     9.7186   9.7186  10.8939  10.8939

     occupation numbers 
     1.0000   1.0000   1.0000   1.0000   1.0000   1.0000   1.0000   1.0000
     1.0000   1.0000   1.0000   1.0000   1.0000   1.0000   1.0000   1.0000
     1.0000   1.0000   1.0000   1.0000   1.0000   1.0000   1.0000   1.0000
     1.0000   1.0000   1.0000   1.0000   0.0000   0.0000   0.0000   0.0000
     0.0000   0.0000   0.0000   0.0000

          k = 0.2210 0.2210-0.2210 (  6603 PWs)   bands (ev):

   -14.7715 -14.7715 -14.7715 -14.7715 -14.7313 -14.7313 -14.6588 -14.6588
   -14.6588 -14.6588 -14.4939 -14.4939 -14.4939 -14.4939 -14.4665 -14.4665
   -14.4100 -14.4100 -14.4100 -14.4100  -2.5493  -2.5493   1.9812   1.9812
     5.9851   5.9851   5.9851   5.9851   6.7488   6.7488   9.8555   9.8555
     9.8555   9.8555  11.7532  11.7532

     occupation numbers 
     1.0000   1.0000   1.0000   1.0000   1.0000   1.0000   1.0000   1.0000
     1.0000   1.0000   1.0000   1.0000   1.0000   1.0000   1.0000   1.0000
     1.0000   1.0000   1.0000   1.0000   1.0000   1.0000   1.0000   1.0000
     1.0000   1.0000   1.0000   1.0000   1.0000   1.0000   0.0000   0.0000
     0.0000   0.0000   0.0000   0.0000

          k = 0.2652 0.2652-0.2652 (  6604 PWs)   bands (ev):

   -14.7742 -14.7742 -14.7742 -14.7742 -14.7274 -14.7274 -14.6534 -14.6534
   -14.6534 -14.6534 -14.4982 -14.4982 -14.4982 -14.4982 -14.4711 -14.4711
   -14.4069 -14.4069 -14.4069 -14.4069  -2.2553  -2.2553   1.3411   1.3411
     5.8544   5.8544   5.8544   5.8544   6.6335   6.6335   9.9097   9.9097
     9.9097   9.9097  12.3835  12.3835

     occupation numbers 
     1.0000   1.0000   1.0000   1.0000   1.0000   1.0000   1.0000   1.0000
     1.0000   1.0000   1.0000   1.0000   1.0000   1.0000   1.0000   1.0000
     1.0000   1.0000   1.0000   1.0000   1.0000   1.0000   1.0000   1.0000
     1.0000   1.0000   1.0000   1.0000   1.0000   1.0000   0.0000   0.0000
     0.0000   0.0000   0.0000   0.0000

          k = 0.3094 0.3094-0.3094 (  6616 PWs)   bands (ev):

   -14.7757 -14.7757 -14.7757 -14.7757 -14.7247 -14.7247 -14.6503 -14.6503
   -14.6503 -14.6503 -14.5006 -14.5006 -14.5006 -14.5006 -14.4742 -14.4742
   -14.4052 -14.4052 -14.4052 -14.4052  -2.0030  -2.0030   0.8779   0.8779
     5.7740   5.7740   5.7740   5.7740   6.5612   6.5612   9.9202   9.9202
     9.9202   9.9202  12.3775  12.3775

     occupation numbers 
     1.0000   1.0000   1.0000   1.0000   1.0000   1.0000   1.0000   1.0000
     1.0000   1.0000   1.0000   1.0000   1.0000   1.0000   1.0000   1.0000
     1.0000   1.0000   1.0000   1.0000   1.0000   1.0000   1.0000   1.0000
     1.0000   1.0000   1.0000   1.0000   1.0000   1.0000   0.0000   0.0000
     0.0000   0.0000   0.0000   0.0000

          k =-0.3536-0.3536 0.3536 (  6586 PWs)   bands (ev):

   -14.7762 -14.7762 -14.7762 -14.7762 -14.7238 -14.7238 -14.6493 -14.6493
   -14.6493 -14.6493 -14.5013 -14.5013 -14.5013 -14.5013 -14.4753 -14.4753
   -14.4046 -14.4046 -14.4046 -14.4046  -1.8963  -1.8963   0.7004   0.7004
     5.7469   5.7469   5.7469   5.7469   6.5367   6.5367   9.9198   9.9198
     9.9198   9.9198  12.3487  12.3487

     occupation numbers 
     1.0000   1.0000   1.0000   1.0000   1.0000   1.0000   1.0000   1.0000
     1.0000   1.0000   1.0000   1.0000   1.0000   1.0000   1.0000   1.0000
     1.0000   1.0000   1.0000   1.0000   1.0000   1.0000   1.0000   1.0000
     1.0000   1.0000   1.0000   1.0000   1.0000   1.0000   0.0000   0.0000
     0.0000   0.0000   0.0000   0.0000

          k = 0.0884 0.0000 0.0000 (  6611 PWs)   bands (ev):

   -14.7492 -14.7492 -14.7488 -14.7488 -14.7488 -14.7488 -14.6954 -14.6954
   -14.6908 -14.6908 -14.4675 -14.4675 -14.4496 -14.4496 -14.4453 -14.4453
   -14.4453 -14.4453 -14.4333 -14.4333  -3.3153  -3.3153   5.0347   5.0347
     6.6263   6.6263   6.6263   6.6263   7.2754   7.2754   8.7307   8.7307
     9.1510   9.1510   9.1510   9.1510

     occupation numbers 
     1.0000   1.0000   1.0000   1.0000   1.0000   1.0000   1.0000   1.0000
     1.0000   1.0000   1.0000   1.0000   1.0000   1.0000   1.0000   1.0000
     1.0000   1.0000   1.0000   1.0000   1.0000   1.0000   1.0000   1.0000
     1.0000   1.0000   1.0000   1.0000   0.0000   0.0000   0.0000   0.0000
     0.0000   0.0000   0.0000   0.0000

          k = 0.1326 0.0442-0.0442 (  6618 PWs)   bands (ev):

   -14.7553 -14.7553 -14.7526 -14.7526 -14.7466 -14.7466 -14.6902 -14.6902
   -14.6822 -14.6822 -14.4790 -14.4790 -14.4588 -14.4588 -14.4455 -14.4455
   -14.4366 -14.4366 -14.4262 -14.4262  -3.2344  -3.2344   4.4783   4.4783
     6.4175   6.4175   6.4464   6.4464   7.5210   7.5210   8.7241   8.7241
     9.4344   9.4344   9.5028   9.5028

     occupation numbers 
     1.0000   1.0000   1.0000   1.0000   1.0000   1.0000   1.0000   1.0000
     1.0000   1.0000   1.0000   1.0000   1.0000   1.0000   1.0000   1.0000
     1.0000   1.0000   1.0000   1.0000   1.0000   1.0000   1.0000   1.0000
     1.0000   1.0000   1.0000   1.0000   0.0000   0.0000   0.0000   0.0000
     0.0000   0.0000   0.0000   0.0000

          k = 0.1768 0.0884-0.0884 (  6599 PWs)   bands (ev):

   -14.7626 -14.7626 -14.7584 -14.7584 -14.7426 -14.7426 -14.6815 -14.6815
   -14.6717 -14.6717 -14.4898 -14.4898 -14.4690 -14.4690 -14.4495 -14.4495
   -14.4278 -14.4278 -14.4185 -14.4185  -3.0865  -3.0865   3.7300   3.7300
     6.1947   6.1947   6.2247   6.2247   7.5326   7.5326   8.9524   8.9524
     9.7397   9.7397  10.0411  10.0411

     occupation numbers 
     1.0000   1.0000   1.0000   1.0000   1.0000   1.0000   1.0000   1.0000
     1.0000   1.0000   1.0000   1.0000   1.0000   1.0000   1.0000   1.0000
     1.0000   1.0000   1.0000   1.0000   1.0000   1.0000   1.0000   1.0000
     1.0000   1.0000   1.0000   1.0000   0.0000   0.0000   0.0000   0.0000
     0.0000   0.0000   0.0000   0.0000

          k = 0.2210 0.1326-0.1326 (  6609 PWs)   bands (ev):

   -14.7692 -14.7692 -14.7642 -14.7642 -14.7372 -14.7372 -14.6721 -14.6721
   -14.6615 -14.6615 -14.4988 -14.4988 -14.4784 -14.4784 -14.4557 -14.4557
   -14.4203 -14.4203 -14.4116 -14.4116  -2.8763  -2.8763   2.9444   2.9444
     5.9809   5.9809   5.9942   5.9942   7.4122   7.4122   9.2686   9.2686
     9.9857   9.9857  10.6705  10.6705

     occupation numbers 
     1.0000   1.0000   1.0000   1.0000   1.0000   1.0000   1.0000   1.0000
     1.0000   1.0000   1.0000   1.0000   1.0000   1.0000   1.0000   1.0000
     1.0000   1.0000   1.0000   1.0000   1.0000   1.0000   1.0000   1.0000
     1.0000   1.0000   1.0000   1.0000   0.0000   0.0000   0.0000   0.0000
     0.0000   0.0000   0.0000   0.0000

          k = 0.2652 0.1768-0.1768 (  6617 PWs)   bands (ev):

   -14.7744 -14.7744 -14.7690 -14.7690 -14.7312 -14.7312 -14.6635 -14.6635
   -14.6533 -14.6533 -14.5052 -14.5052 -14.4866 -14.4866 -14.4629 -14.4629
   -14.4142 -14.4142 -14.4061 -14.4061  -2.6141  -2.6141   2.1917   2.1917
     5.7538   5.7538   5.8350   5.8350   7.2629   7.2629   9.5301   9.5301
    10.1212  10.1212  11.3378  11.3378

     occupation numbers 
     1.0000   1.0000   1.0000   1.0000   1.0000   1.0000   1.0000   1.0000
     1.0000   1.0000   1.0000   1.0000   1.0000   1.0000   1.0000   1.0000
     1.0000   1.0000   1.0000   1.0000   1.0000   1.0000   1.0000   1.0000
     1.0000   1.0000   1.0000   1.0000   0.0000   0.0000   0.0000   0.0000
     0.0000   0.0000   0.0000   0.0000

          k = 0.3094 0.2210-0.2210 (  6611 PWs)   bands (ev):

   -14.7781 -14.7781 -14.7727 -14.7727 -14.7254 -14.7254 -14.6564 -14.6564
   -14.6480 -14.6480 -14.5083 -14.5083 -14.4934 -14.4934 -14.4701 -14.4701
   -14.4096 -14.4096 -14.4024 -14.4024  -2.3214  -2.3214   1.5214   1.5214
     5.5645   5.5645   5.7269   5.7269   7.1306   7.1306   9.6869   9.6869
    10.1500  10.1500  11.9983  11.9983

     occupation numbers 
     1.0000   1.0000   1.0000   1.0000   1.0000   1.0000   1.0000   1.0000
     1.0000   1.0000   1.0000   1.0000   1.0000   1.0000   1.0000   1.0000
     1.0000   1.0000   1.0000   1.0000   1.0000   1.0000   1.0000   1.0000
     1.0000   1.0000   1.0000   1.0000   0.0000   0.0000   0.0000   0.0000
     0.0000   0.0000   0.0000   0.0000

          k = 0.3536 0.2652-0.2652 (  6616 PWs)   bands (ev):

   -14.7802 -14.7802 -14.7753 -14.7753 -14.7209 -14.7209 -14.6509 -14.6509
   -14.6459 -14.6459 -14.5081 -14.5081 -14.4989 -14.4989 -14.4761 -14.4761
   -14.4061 -14.4061 -14.4003 -14.4003  -2.0450  -2.0450   0.9950   0.9950
     5.4237   5.4237   5.6741   5.6741   7.0344   7.0344   9.7708   9.7708
    10.1146  10.1146  12.4018  12.4018

     occupation numbers 
     1.0000   1.0000   1.0000   1.0000   1.0000   1.0000   1.0000   1.0000
     1.0000   1.0000   1.0000   1.0000   1.0000   1.0000   1.0000   1.0000
     1.0000   1.0000   1.0000   1.0000   1.0000   1.0000   1.0000   1.0000
     1.0000   1.0000   1.0000   1.0000   0.0000   0.0000   0.0000   0.0000
     0.0000   0.0000   0.0000   0.0000

          k =-0.3094-0.3977 0.3977 (  6610 PWs)   bands (ev):

   -14.7807 -14.7807 -14.7769 -14.7769 -14.7184 -14.7184 -14.6472 -14.6472
   -14.6465 -14.6465 -14.5054 -14.5054 -14.5031 -14.5031 -14.4800 -14.4800
   -14.4038 -14.4038 -14.4000 -14.4000  -1.8766  -1.8766   0.7117   0.7117
     5.3371   5.3371   5.6782   5.6782   6.9824   6.9824   9.8297   9.8297
    10.0559  10.0559  12.4780  12.4780

     occupation numbers 
     1.0000   1.0000   1.0000   1.0000   1.0000   1.0000   1.0000   1.0000
     1.0000   1.0000   1.0000   1.0000   1.0000   1.0000   1.0000   1.0000
     1.0000   1.0000   1.0000   1.0000   1.0000   1.0000   1.0000   1.0000
     1.0000   1.0000   1.0000   1.0000   0.0000   0.0000   0.0000   0.0000
     0.0000   0.0000   0.0000   0.0000

          k =-0.2652-0.3536 0.3536 (  6618 PWs)   bands (ev):

   -14.7799 -14.7799 -14.7776 -14.7776 -14.7185 -14.7185 -14.6491 -14.6491
   -14.6455 -14.6455 -14.5058 -14.5058 -14.5014 -14.5014 -14.4805 -14.4805
   -14.4027 -14.4027 -14.4013 -14.4013  -1.9138  -1.9138   0.7720   0.7720
     5.3081   5.3081   5.7380   5.7380   6.9776   6.9776   9.8893   9.8893
     9.9939   9.9939  12.4923  12.4923

     occupation numbers 
     1.0000   1.0000   1.0000   1.0000   1.0000   1.0000   1.0000   1.0000
     1.0000   1.0000   1.0000   1.0000   1.0000   1.0000   1.0000   1.0000
     1.0000   1.0000   1.0000   1.0000   1.0000   1.0000   1.0000   1.0000
     1.0000   1.0000   1.0000   1.0000   0.0000   0.0000   0.0000   0.0000
     0.0000   0.0000   0.0000   0.0000

          k =-0.2210-0.3094 0.3094 (  6616 PWs)   bands (ev):

   -14.7776 -14.7776 -14.7771 -14.7771 -14.7212 -14.7212 -14.6534 -14.6534
   -14.6462 -14.6462 -14.5064 -14.5064 -14.4974 -14.4974 -14.4769 -14.4769
   -14.4043 -14.4043 -14.4029 -14.4029  -2.1313  -2.1313   1.1504   1.1504
     5.3391   5.3391   5.8504   5.8504   7.0196   7.0196   9.9248   9.9248
     9.9465   9.9465  12.4032  12.4032

     occupation numbers 
     1.0000   1.0000   1.0000   1.0000   1.0000   1.0000   1.0000   1.0000
     1.0000   1.0000   1.0000   1.0000   1.0000   1.0000   1.0000   1.0000
     1.0000   1.0000   1.0000   1.0000   1.0000   1.0000   1.0000   1.0000
     1.0000   1.0000   1.0000   1.0000   0.0000   0.0000   0.0000   0.0000
     0.0000   0.0000   0.0000   0.0000

          k =-0.1768-0.2652 0.2652 (  6623 PWs)   bands (ev):

   -14.7754 -14.7754 -14.7741 -14.7741 -14.7259 -14.7259 -14.6590 -14.6590
   -14.6499 -14.6499 -14.5042 -14.5042 -14.4931 -14.4931 -14.4701 -14.4701
   -14.4089 -14.4089 -14.4046 -14.4046  -2.4208  -2.4208   1.7335   1.7335
     5.4315   5.4315   6.0097   6.0097   7.1041   7.1041   9.8240   9.8240
     9.9667   9.9667  11.8559  11.8559

     occupation numbers 
     1.0000   1.0000   1.0000   1.0000   1.0000   1.0000   1.0000   1.0000
     1.0000   1.0000   1.0000   1.0000   1.0000   1.0000   1.0000   1.0000
     1.0000   1.0000   1.0000   1.0000   1.0000   1.0000   1.0000   1.0000
     1.0000   1.0000   1.0000   1.0000   0.0000   0.0000   0.0000   0.0000
     0.0000   0.0000   0.0000   0.0000

          k =-0.1326-0.2210 0.2210 (  6621 PWs)   bands (ev):

   -14.7721 -14.7721 -14.7691 -14.7691 -14.7317 -14.7317 -14.6662 -14.6662
   -14.6568 -14.6568 -14.4990 -14.4990 -14.4875 -14.4875 -14.4619 -14.4619
   -14.4151 -14.4151 -14.4079 -14.4079  -2.7068  -2.7068   2.4359   2.4359
     5.5861   5.5861   6.2060   6.2060   7.2195   7.2195   9.6592   9.6592
     9.8799   9.8799  11.1345  11.1345

     occupation numbers 
     1.0000   1.0000   1.0000   1.0000   1.0000   1.0000   1.0000   1.0000
     1.0000   1.0000   1.0000   1.0000   1.0000   1.0000   1.0000   1.0000
     1.0000   1.0000   1.0000   1.0000   1.0000   1.0000   1.0000   1.0000
     1.0000   1.0000   1.0000   1.0000   0.0000   0.0000   0.0000   0.0000
     0.0000   0.0000   0.0000   0.0000

          k =-0.0884-0.1768 0.1768 (  6604 PWs)   bands (ev):

   -14.7672 -14.7672 -14.7630 -14.7630 -14.7377 -14.7377 -14.6747 -14.6747
   -14.6663 -14.6663 -14.4909 -14.4909 -14.4804 -14.4804 -14.4538 -14.4538
   -14.4228 -14.4228 -14.4129 -14.4129  -2.9532  -2.9532   3.2023   3.2023
     5.8029   5.8029   6.4218   6.4218   7.3370   7.3370   9.4251   9.4251
     9.6196   9.6196  10.4963  10.4963

     occupation numbers 
     1.0000   1.0000   1.0000   1.0000   1.0000   1.0000   1.0000   1.0000
     1.0000   1.0000   1.0000   1.0000   1.0000   1.0000   1.0000   1.0000
     1.0000   1.0000   1.0000   1.0000   1.0000   1.0000   1.0000   1.0000
     1.0000   1.0000   1.0000   1.0000   0.0000   0.0000   0.0000   0.0000
     0.0000   0.0000   0.0000   0.0000

          k =-0.0442-0.1326 0.1326 (  6606 PWs)   bands (ev):

   -14.7611 -14.7611 -14.7563 -14.7563 -14.7428 -14.7428 -14.6837 -14.6837
   -14.6770 -14.6770 -14.4809 -14.4809 -14.4719 -14.4719 -14.4468 -14.4468
   -14.4319 -14.4319 -14.4197 -14.4197  -3.1433  -3.1433   3.9781   3.9781
     6.0813   6.0813   6.6244   6.6244   7.3871   7.3871   9.1716   9.1717
     9.2587   9.2587   9.9423   9.9423

     occupation numbers 
     1.0000   1.0000   1.0000   1.0000   1.0000   1.0000   1.0000   1.0000
     1.0000   1.0000   1.0000   1.0000   1.0000   1.0000   1.0000   1.0000
     1.0000   1.0000   1.0000   1.0000   1.0000   1.0000   1.0000   1.0000
     1.0000   1.0000   1.0000   1.0000   0.0000   0.0000   0.0000   0.0000
     0.0000   0.0000   0.0000   0.0000

          k = 0.0000-0.0884 0.0884 (  6619 PWs)   bands (ev):

   -14.7546 -14.7546 -14.7508 -14.7508 -14.7460 -14.7460 -14.6912 -14.6912
   -14.6873 -14.6873 -14.4697 -14.4697 -14.4628 -14.4628 -14.4427 -14.4427
   -14.4406 -14.4406 -14.4280 -14.4280  -3.2691  -3.2691   4.6752   4.6752
     6.4200   6.4200   6.7580   6.7580   7.2545   7.2545   8.9927   8.9927
     9.0168   9.0168   9.4273   9.4273

     occupation numbers 
     1.0000   1.0000   1.0000   1.0000   1.0000   1.0000   1.0000   1.0000
     1.0000   1.0000   1.0000   1.0000   1.0000   1.0000   1.0000   1.0000
     1.0000   1.0000   1.0000   1.0000   1.0000   1.0000   1.0000   1.0000
     1.0000   1.0000   0.1658   0.1658   0.0000   0.0000   0.0000   0.0000
     0.0000   0.0000   0.0000   0.0000

          k = 0.1768 0.0000 0.0000 (  6619 PWs)   bands (ev):

   -14.7540 -14.7540 -14.7540 -14.7540 -14.7523 -14.7523 -14.6881 -14.6881
   -14.6733 -14.6733 -14.4924 -14.4924 -14.4566 -14.4566 -14.4383 -14.4383
   -14.4383 -14.4383 -14.4252 -14.4252  -3.1762  -3.1762   4.2300   4.2300
     6.1940   6.1940   6.1940   6.1940   7.9875   7.9875   8.3946   8.3946
     9.7587   9.7587   9.7587   9.7587

     occupation numbers 
     1.0000   1.0000   1.0000   1.0000   1.0000   1.0000   1.0000   1.0000
     1.0000   1.0000   1.0000   1.0000   1.0000   1.0000   1.0000   1.0000
     1.0000   1.0000   1.0000   1.0000   1.0000   1.0000   1.0000   1.0000
     1.0000   1.0000   1.0000   1.0000   0.0000   0.0000   0.0000   0.0000
     0.0000   0.0000   0.0000   0.0000

          k = 0.2210 0.0442-0.0442 (  6605 PWs)   bands (ev):

   -14.7617 -14.7617 -14.7583 -14.7583 -14.7480 -14.7480 -14.6814 -14.6814
   -14.6621 -14.6621 -14.5053 -14.5053 -14.4644 -14.4644 -14.4387 -14.4387
   -14.4312 -14.4312 -14.4196 -14.4196  -3.0501  -3.0501   3.6904   3.6904
     5.9473   5.9473   5.9661   5.9661   8.1650   8.1650   8.3887   8.3887
    10.1048  10.1048  10.1808  10.1808

     occupation numbers 
     1.0000   1.0000   1.0000   1.0000   1.0000   1.0000   1.0000   1.0000
     1.0000   1.0000   1.0000   1.0000   1.0000   1.0000   1.0000   1.0000
     1.0000   1.0000   1.0000   1.0000   1.0000   1.0000   1.0000   1.0000
     1.0000   1.0000   1.0000   1.0000   0.0000   0.0000   0.0000   0.0000
     0.0000   0.0000   0.0000   0.0000

          k = 0.2652 0.0884-0.0884 (  6602 PWs)   bands (ev):

   -14.7700 -14.7700 -14.7637 -14.7637 -14.7409 -14.7409 -14.6725 -14.6725
   -14.6510 -14.6510 -14.5164 -14.5164 -14.4742 -14.4742 -14.4457 -14.4457
   -14.4231 -14.4231 -14.4112 -14.4112  -2.8599  -2.8599   3.0173   3.0173
     5.6614   5.6614   5.7665   5.7665   8.0864   8.0864   8.6876   8.6876
    10.3926  10.3926  10.5983  10.5983

     occupation numbers 
     1.0000   1.0000   1.0000   1.0000   1.0000   1.0000   1.0000   1.0000
     1.0000   1.0000   1.0000   1.0000   1.0000   1.0000   1.0000   1.0000
     1.0000   1.0000   1.0000   1.0000   1.0000   1.0000   1.0000   1.0000
     1.0000   1.0000   1.0000   1.0000   0.0000   0.0000   0.0000   0.0000
     0.0000   0.0000   0.0000   0.0000

          k = 0.3094 0.1326-0.1326 (  6622 PWs)   bands (ev):

   -14.7774 -14.7774 -14.7687 -14.7687 -14.7322 -14.7322 -14.6634 -14.6634
   -14.6419 -14.6419 -14.5244 -14.5244 -14.4838 -14.4838 -14.4554 -14.4554
   -14.4160 -14.4160 -14.4034 -14.4034  -2.6134  -2.6134   2.3170   2.3170
     5.3740   5.3740   5.6130   5.6130   7.9423   7.9423   9.0754   9.0754
    10.5592  10.5592  10.9014  10.9014

     occupation numbers 
     1.0000   1.0000   1.0000   1.0000   1.0000   1.0000   1.0000   1.0000
     1.0000   1.0000   1.0000   1.0000   1.0000   1.0000   1.0000   1.0000
     1.0000   1.0000   1.0000   1.0000   1.0000   1.0000   1.0000   1.0000
     1.0000   1.0000   1.0000   1.0000   0.0000   0.0000   0.0000   0.0000
     0.0000   0.0000   0.0000   0.0000

          k = 0.3536 0.1768-0.1768 (  6618 PWs)   bands (ev):

   -14.7832 -14.7832 -14.7730 -14.7730 -14.7230 -14.7230 -14.6548 -14.6548
   -14.6361 -14.6361 -14.5282 -14.5282 -14.4928 -14.4928 -14.4661 -14.4661
   -14.4100 -14.4100 -14.3971 -14.3971  -2.3268  -2.3268   1.6565   1.6565
     5.1204   5.1204   5.5150   5.5150   7.7974   7.7974   9.4011   9.4011
    10.5935  10.5935  11.2506  11.2506

     occupation numbers 
     1.0000   1.0000   1.0000   1.0000   1.0000   1.0000   1.0000   1.0000
     1.0000   1.0000   1.0000   1.0000   1.0000   1.0000   1.0000   1.0000
     1.0000   1.0000   1.0000   1.0000   1.0000   1.0000   1.0000   1.0000
     1.0000   1.0000   1.0000   1.0000   0.0000   0.0000   0.0000   0.0000
     0.0000   0.0000   0.0000   0.0000

          k = 0.3977 0.2210-0.2210 (  6627 PWs)   bands (ev):

   -14.7872 -14.7872 -14.7763 -14.7763 -14.7146 -14.7146 -14.6473 -14.6473
   -14.6346 -14.6346 -14.5271 -14.5271 -14.5010 -14.5010 -14.4764 -14.4764
   -14.4052 -14.4052 -14.3928 -14.3928  -2.0358  -2.0358   1.0981   1.0981
     4.9180   4.9180   5.4768   5.4768   7.6798   7.6798   9.5964   9.5964
    10.5359  10.5359  11.7670  11.7670

     occupation numbers 
     1.0000   1.0000   1.0000   1.0000   1.0000   1.0000   1.0000   1.0000
     1.0000   1.0000   1.0000   1.0000   1.0000   1.0000   1.0000   1.0000
     1.0000   1.0000   1.0000   1.0000   1.0000   1.0000   1.0000   1.0000
     1.0000   1.0000   1.0000   1.0000   0.0000   0.0000   0.0000   0.0000
     0.0000   0.0000   0.0000   0.0000

          k =-0.2652-0.4419 0.4419 (  6608 PWs)   bands (ev):

   -14.7892 -14.7892 -14.7788 -14.7788 -14.7084 -14.7084 -14.6412 -14.6412
   -14.6370 -14.6370 -14.5214 -14.5214 -14.5081 -14.5081 -14.4850 -14.4850
   -14.4016 -14.4016 -14.3909 -14.3909  -1.8168  -1.8168   0.7323   0.7323
     4.7754   4.7754   5.4993   5.4993   7.6024   7.6024   9.7110   9.7110
    10.4353  10.4353  12.3324  12.3324

     occupation numbers 
     1.0000   1.0000   1.0000   1.0000   1.0000   1.0000   1.0000   1.0000
     1.0000   1.0000   1.0000   1.0000   1.0000   1.0000   1.0000   1.0000
     1.0000   1.0000   1.0000   1.0000   1.0000   1.0000   1.0000   1.0000
     1.0000   1.0000   1.0000   1.0000   0.0000   0.0000   0.0000   0.0000
     0.0000   0.0000   0.0000   0.0000

          k =-0.2210-0.3977 0.3977 (  6620 PWs)   bands (ev):

   -14.7891 -14.7891 -14.7803 -14.7803 -14.7057 -14.7057 -14.6421 -14.6421
   -14.6370 -14.6370 -14.5137 -14.5137 -14.5122 -14.5122 -14.4906 -14.4906
   -14.3993 -14.3993 -14.3914 -14.3914  -1.7812  -1.7812   0.6770   0.6770
     4.6983   4.6983   5.5808   5.5808   7.5697   7.5697   9.8077   9.8077
    10.3200  10.3200  12.6336  12.6336

     occupation numbers 
     1.0000   1.0000   1.0000   1.0000   1.0000   1.0000   1.0000   1.0000
     1.0000   1.0000   1.0000   1.0000   1.0000   1.0000   1.0000   1.0000
     1.0000   1.0000   1.0000   1.0000   1.0000   1.0000   1.0000   1.0000
     1.0000   1.0000   1.0000   1.0000   0.0000   0.0000   0.0000   0.0000
     0.0000   0.0000   0.0000   0.0000

          k =-0.1768-0.3536 0.3536 (  6625 PWs)   bands (ev):

   -14.7868 -14.7868 -14.7806 -14.7806 -14.7073 -14.7073 -14.6486 -14.6486
   -14.6356 -14.6356 -14.5168 -14.5168 -14.5017 -14.5017 -14.4917 -14.4917
   -14.3985 -14.3985 -14.3946 -14.3946  -1.9538  -1.9538   0.9568   0.9568
     4.6923   4.6923   5.7167   5.7167   7.5810   7.5810   9.9085   9.9085
    10.1929  10.1929  12.3877  12.3877

     occupation numbers 
     1.0000   1.0000   1.0000   1.0000   1.0000   1.0000   1.0000   1.0000
     1.0000   1.0000   1.0000   1.0000   1.0000   1.0000   1.0000   1.0000
     1.0000   1.0000   1.0000   1.0000   1.0000   1.0000   1.0000   1.0000
     1.0000   1.0000   1.0000   1.0000   0.0000   0.0000   0.0000   0.0000
     0.0000   0.0000   0.0000   0.0000

          k =-0.1326-0.3094 0.3094 (  6612 PWs)   bands (ev):

   -14.7826 -14.7826 -14.7797 -14.7797 -14.7129 -14.7129 -14.6554 -14.6554
   -14.6380 -14.6380 -14.5162 -14.5162 -14.4963 -14.4963 -14.4831 -14.4831
   -14.4002 -14.4002 -14.3992 -14.3992  -2.2326  -2.2326   1.4641   1.4641
     4.7637   4.7637   5.8988   5.8988   7.6291   7.6291   9.9907   9.9907
    10.0355  10.0355  11.7379  11.7380

     occupation numbers 
     1.0000   1.0000   1.0000   1.0000   1.0000   1.0000   1.0000   1.0000
     1.0000   1.0000   1.0000   1.0000   1.0000   1.0000   1.0000   1.0000
     1.0000   1.0000   1.0000   1.0000   1.0000   1.0000   1.0000   1.0000
     1.0000   1.0000   1.0000   1.0000   0.0000   0.0000   0.0000   0.0000
     0.0000   0.0000   0.0000   0.0000

          k =-0.0884-0.2652 0.2652 (  6627 PWs)   bands (ev):

   -14.7771 -14.7771 -14.7765 -14.7765 -14.7211 -14.7211 -14.6625 -14.6625
   -14.6445 -14.6445 -14.5116 -14.5116 -14.4927 -14.4927 -14.4699 -14.4699
   -14.4082 -14.4082 -14.4018 -14.4018  -2.5257  -2.5257   2.0920   2.0920
     4.9221   4.9221   6.1133   6.1133   7.6957   7.6957   9.8234   9.8234
     9.9589   9.9589  11.1336  11.1336

     occupation numbers 
     1.0000   1.0000   1.0000   1.0000   1.0000   1.0000   1.0000   1.0000
     1.0000   1.0000   1.0000   1.0000   1.0000   1.0000   1.0000   1.0000
     1.0000   1.0000   1.0000   1.0000   1.0000   1.0000   1.0000   1.0000
     1.0000   1.0000   1.0000   1.0000   0.0000   0.0000   0.0000   0.0000
     0.0000   0.0000   0.0000   0.0000

          k =-0.0442-0.2210 0.2210 (  6614 PWs)   bands (ev):

   -14.7730 -14.7730 -14.7692 -14.7692 -14.7301 -14.7301 -14.6699 -14.6699
   -14.6542 -14.6542 -14.5033 -14.5033 -14.4871 -14.4871 -14.4571 -14.4571
   -14.4179 -14.4179 -14.4061 -14.4061  -2.7872  -2.7872   2.7670   2.7670
     5.1827   5.1827   6.3363   6.3363   7.7362   7.7362   9.5620   9.5620
     9.6948   9.6948  10.7666  10.7666

     occupation numbers 
     1.0000   1.0000   1.0000   1.0000   1.0000   1.0000   1.0000   1.0000
     1.0000   1.0000   1.0000   1.0000   1.0000   1.0000   1.0000   1.0000
     1.0000   1.0000   1.0000   1.0000   1.0000   1.0000   1.0000   1.0000
     1.0000   1.0000   1.0000   1.0000   0.0000   0.0000   0.0000   0.0000
     0.0000   0.0000   0.0000   0.0000

          k = 0.0000-0.1768 0.1768 (  6579 PWs)   bands (ev):

   -14.7674 -14.7674 -14.7617 -14.7617 -14.7381 -14.7381 -14.6774 -14.6774
   -14.6657 -14.6657 -14.4927 -14.4927 -14.4798 -14.4798 -14.4471 -14.4471
   -14.4282 -14.4282 -14.4121 -14.4121  -2.9963  -2.9963   3.4207   3.4207
     5.5668   5.5668   6.5267   6.5267   7.6582   7.6582   9.3123   9.3123
     9.3802   9.3802  10.4420  10.4420

     occupation numbers 
     1.0000   1.0000   1.0000   1.0000   1.0000   1.0000   1.0000   1.0000
     1.0000   1.0000   1.0000   1.0000   1.0000   1.0000   1.0000   1.0000
     1.0000   1.0000   1.0000   1.0000   1.0000   1.0000   1.0000   1.0000
     1.0000   1.0000   1.0000   1.0000   0.0000   0.0000   0.0000   0.0000
     0.0000   0.0000   0.0000   0.0000

          k = 0.2652 0.0000 0.0000 (  6587 PWs)   bands (ev):

   -14.7613 -14.7613 -14.7613 -14.7613 -14.7523 -14.7523 -14.6763 -14.6763
   -14.6498 -14.6498 -14.5210 -14.5210 -14.4679 -14.4679 -14.4281 -14.4281
   -14.4281 -14.4281 -14.4237 -14.4237  -2.9457  -2.9457   3.3795   3.3795
     5.7336   5.7336   5.7336   5.7336   8.0418   8.0418   8.5430   8.5430
    10.5057  10.5057  10.5057  10.5057

     occupation numbers 
     1.0000   1.0000   1.0000   1.0000   1.0000   1.0000   1.0000   1.0000
     1.0000   1.0000   1.0000   1.0000   1.0000   1.0000   1.0000   1.0000
     1.0000   1.0000   1.0000   1.0000   1.0000   1.0000   1.0000   1.0000
     1.0000   1.0000   1.0000   1.0000   0.0000   0.0000   0.0000   0.0000
     0.0000   0.0000   0.0000   0.0000

          k = 0.3094 0.0442-0.0442 (  6599 PWs)   bands (ev):

   -14.7687 -14.7687 -14.7658 -14.7658 -14.7463 -14.7463 -14.6682 -14.6682
   -14.6371 -14.6371 -14.5349 -14.5349 -14.4763 -14.4763 -14.4344 -14.4344
   -14.4215 -14.4215 -14.4147 -14.4147  -2.7758  -2.7758   2.8766   2.8766
     5.4708   5.4708   5.5301   5.5301   8.0257   8.0257   8.6419   8.6419
    10.8222  10.8222  10.8614  10.8614

     occupation numbers 
     1.0000   1.0000   1.0000   1.0000   1.0000   1.0000   1.0000   1.0000
     1.0000   1.0000   1.0000   1.0000   1.0000   1.0000   1.0000   1.0000
     1.0000   1.0000   1.0000   1.0000   1.0000   1.0000   1.0000   1.0000
     1.0000   1.0000   1.0000   1.0000   0.0000   0.0000   0.0000   0.0000
     0.0000   0.0000   0.0000   0.0000

          k = 0.3536 0.0884-0.0884 (  6615 PWs)   bands (ev):

   -14.7777 -14.7777 -14.7705 -14.7705 -14.7359 -14.7359 -14.6588 -14.6588
   -14.6262 -14.6262 -14.5458 -14.5458 -14.4862 -14.4862 -14.4464 -14.4464
   -14.4144 -14.4144 -14.4040 -14.4040  -2.5464  -2.5464   2.2865   2.2865
     5.1455   5.1455   5.3741   5.3741   8.1221   8.1221   8.7863   8.7863
    10.8699  10.8699  11.0948  11.0948

     occupation numbers 
     1.0000   1.0000   1.0000   1.0000   1.0000   1.0000   1.0000   1.0000
     1.0000   1.0000   1.0000   1.0000   1.0000   1.0000   1.0000   1.0000
     1.0000   1.0000   1.0000   1.0000   1.0000   1.0000   1.0000   1.0000
     1.0000   1.0000   1.0000   1.0000   0.0000   0.0000   0.0000   0.0000
     0.0000   0.0000   0.0000   0.0000

          k = 0.3977 0.1326-0.1326 (  6630 PWs)   bands (ev):

   -14.7857 -14.7857 -14.7748 -14.7748 -14.7236 -14.7236 -14.6492 -14.6492
   -14.6189 -14.6189 -14.5522 -14.5522 -14.4964 -14.4964 -14.4601 -14.4601
   -14.4081 -14.4081 -14.3948 -14.3948  -2.2696  -2.2696   1.6853   1.6853
     4.8226   4.8226   5.2755   5.2755   8.0940   8.0940   9.1717   9.1717
    10.8616  10.8616  11.1706  11.1706

     occupation numbers 
     1.0000   1.0000   1.0000   1.0000   1.0000   1.0000   1.0000   1.0000
     1.0000   1.0000   1.0000   1.0000   1.0000   1.0000   1.0000   1.0000
     1.0000   1.0000   1.0000   1.0000   1.0000   1.0000   1.0000   1.0000
     1.0000   1.0000   1.0000   1.0000   0.0000   0.0000   0.0000   0.0000
     0.0000   0.0000   0.0000   0.0000

          k = 0.4419 0.1768-0.1768 (  6633 PWs)   bands (ev):

   -14.7920 -14.7920 -14.7784 -14.7784 -14.7113 -14.7113 -14.6402 -14.6402
   -14.6166 -14.6166 -14.5527 -14.5527 -14.5064 -14.5064 -14.4740 -14.4740
   -14.4027 -14.4027 -14.3877 -14.3877  -1.9722  -1.9722   1.1373   1.1373
     4.5459   4.5459   5.2393   5.2393   8.0173   8.0173   9.5904   9.5904
    11.0324  11.0324  11.1190  11.1190

     occupation numbers 
     1.0000   1.0000   1.0000   1.0000   1.0000   1.0000   1.0000   1.0000
     1.0000   1.0000   1.0000   1.0000   1.0000   1.0000   1.0000   1.0000
     1.0000   1.0000   1.0000   1.0000   1.0000   1.0000   1.0000   1.0000
     1.0000   1.0000   1.0000   1.0000   0.0000   0.0000   0.0000   0.0000
     0.0000   0.0000   0.0000   0.0000

          k =-0.2210-0.4861 0.4861 (  6630 PWs)   bands (ev):

   -14.7961 -14.7961 -14.7813 -14.7813 -14.7010 -14.7010 -14.6321 -14.6321
   -14.6197 -14.6197 -14.5472 -14.5472 -14.5157 -14.5157 -14.4860 -14.4860
   -14.3986 -14.3986 -14.3833 -14.3833  -1.7146  -1.7146   0.7244   0.7244
     4.3359   4.3359   5.2668   5.2668   7.9597   7.9597   9.8419   9.8419
    10.9962  10.9962  11.5157  11.5157

     occupation numbers 
     1.0000   1.0000   1.0000   1.0000   1.0000   1.0000   1.0000   1.0000
     1.0000   1.0000   1.0000   1.0000   1.0000   1.0000   1.0000   1.0000
     1.0000   1.0000   1.0000   1.0000   1.0000   1.0000   1.0000   1.0000
     1.0000   1.0000   1.0000   1.0000   0.0000   0.0000   0.0000   0.0000
     0.0000   0.0000   0.0000   0.0000

          k =-0.1768-0.4419 0.4419 (  6636 PWs)   bands (ev):

   -14.7976 -14.7976 -14.7832 -14.7832 -14.6944 -14.6944 -14.6272 -14.6272
   -14.6259 -14.6259 -14.5365 -14.5365 -14.5236 -14.5236 -14.4945 -14.4945
   -14.3958 -14.3958 -14.3819 -14.3819  -1.6090  -1.6090   0.5694   0.5694
     4.2037   4.2037   5.3562   5.3562   7.9394   7.9394   9.9688   9.9688
    10.8397  10.8397  12.1614  12.1614

     occupation numbers 
     1.0000   1.0000   1.0000   1.0000   1.0000   1.0000   1.0000   1.0000
     1.0000   1.0000   1.0000   1.0000   1.0000   1.0000   1.0000   1.0000
     1.0000   1.0000   1.0000   1.0000   1.0000   1.0000   1.0000   1.0000
     1.0000   1.0000   1.0000   1.0000   0.0000   0.0000   0.0000   0.0000
     0.0000   0.0000   0.0000   0.0000

          k =-0.1326-0.3977 0.3977 (  6629 PWs)   bands (ev):

   -14.7963 -14.7963 -14.7840 -14.7840 -14.6930 -14.6930 -14.6374 -14.6374
   -14.6228 -14.6228 -14.5286 -14.5286 -14.5218 -14.5218 -14.4989 -14.4989
   -14.3944 -14.3944 -14.3838 -14.3838  -1.7288  -1.7288   0.7470   0.7470
     4.1588   4.1588   5.5024   5.5024   7.9555   7.9555  10.0728  10.0728
    10.6577  10.6577  12.2742  12.2742

     occupation numbers 
     1.0000   1.0000   1.0000   1.0000   1.0000   1.0000   1.0000   1.0000
     1.0000   1.0000   1.0000   1.0000   1.0000   1.0000   1.0000   1.0000
     1.0000   1.0000   1.0000   1.0000   1.0000   1.0000   1.0000   1.0000
     1.0000   1.0000   1.0000   1.0000   0.0000   0.0000   0.0000   0.0000
     0.0000   0.0000   0.0000   0.0000

          k =-0.0884-0.3536 0.3536 (  6616 PWs)   bands (ev):

   -14.7923 -14.7923 -14.7835 -14.7835 -14.6974 -14.6974 -14.6477 -14.6477
   -14.6244 -14.6244 -14.5289 -14.5289 -14.5044 -14.5044 -14.4998 -14.4998
   -14.3947 -14.3947 -14.3890 -14.3890  -1.9914  -1.9914   1.1664   1.1664
     4.2137   4.2137   5.6961   5.6961   7.9946   7.9946  10.1806  10.1806
    10.4349  10.4349  11.5979  11.5979

     occupation numbers 
     1.0000   1.0000   1.0000   1.0000   1.0000   1.0000   1.0000   1.0000
     1.0000   1.0000   1.0000   1.0000   1.0000   1.0000   1.0000   1.0000
     1.0000   1.0000   1.0000   1.0000   1.0000   1.0000   1.0000   1.0000
     1.0000   1.0000   1.0000   1.0000   0.0000   0.0000   0.0000   0.0000
     0.0000   0.0000   0.0000   0.0000

          k =-0.0442-0.3094 0.3094 (  6612 PWs)   bands (ev):

   -14.7859 -14.7859 -14.7815 -14.7815 -14.7069 -14.7069 -14.6564 -14.6564
   -14.6313 -14.6313 -14.5239 -14.5239 -14.4978 -14.4978 -14.4863 -14.4863
   -14.3972 -14.3972 -14.3968 -14.3968  -2.2879  -2.2879   1.6986   1.6986
     4.3871   4.3871   5.9209   5.9209   8.0232   8.0232  10.1541  10.1541
    10.2127  10.2127  10.9832  10.9832

     occupation numbers 
     1.0000   1.0000   1.0000   1.0000   1.0000   1.0000   1.0000   1.0000
     1.0000   1.0000   1.0000   1.0000   1.0000   1.0000   1.0000   1.0000
     1.0000   1.0000   1.0000   1.0000   1.0000   1.0000   1.0000   1.0000
     1.0000   1.0000   1.0000   1.0000   0.0000   0.0000   0.0000   0.0000
     0.0000   0.0000   0.0000   0.0000

          k = 0.0000-0.2652 0.2652 (  6603 PWs)   bands (ev):

   -14.7779 -14.7779 -14.7778 -14.7778 -14.7189 -14.7189 -14.6637 -14.6637
   -14.6419 -14.6419 -14.5148 -14.5148 -14.4934 -14.4934 -14.4696 -14.4696
   -14.4076 -14.4076 -14.4006 -14.4006  -2.5615  -2.5615   2.2533   2.2533
     4.7038   4.7038   6.1494   6.1494   7.9696   7.9696   9.8376   9.8376
     9.9556   9.9556  10.8013  10.8013

     occupation numbers 
     1.0000   1.0000   1.0000   1.0000   1.0000   1.0000   1.0000   1.0000
     1.0000   1.0000   1.0000   1.0000   1.0000   1.0000   1.0000   1.0000
     1.0000   1.0000   1.0000   1.0000   1.0000   1.0000   1.0000   1.0000
     1.0000   1.0000   1.0000   1.0000   0.0000   0.0000   0.0000   0.0000
     0.0000   0.0000   0.0000   0.0000

          k = 0.3536 0.0000 0.0000 (  6606 PWs)   bands (ev):

   -14.7694 -14.7694 -14.7694 -14.7694 -14.7475 -14.7475 -14.6604 -14.6604
   -14.6225 -14.6225 -14.5521 -14.5521 -14.4832 -14.4832 -14.4287 -14.4287
   -14.4165 -14.4165 -14.4165 -14.4165  -2.6258  -2.6258   2.5334   2.5334
     5.3200   5.3200   5.3200   5.3200   7.7491   7.7491   8.6996   8.6996
    11.3106  11.3106  11.3106  11.3106

     occupation numbers 
     1.0000   1.0000   1.0000   1.0000   1.0000   1.0000   1.0000   1.0000
     1.0000   1.0000   1.0000   1.0000   1.0000   1.0000   1.0000   1.0000
     1.0000   1.0000   1.0000   1.0000   1.0000   1.0000   1.0000   1.0000
     1.0000   1.0000   1.0000   1.0000   0.0000   0.0000   0.0000   0.0000
     0.0000   0.0000   0.0000   0.0000

          k = 0.3977 0.0442-0.0442 (  6613 PWs)   bands (ev):

   -14.7762 -14.7762 -14.7736 -14.7736 -14.7394 -14.7394 -14.6509 -14.6509
   -14.6093 -14.6093 -14.5664 -14.5664 -14.4927 -14.4927 -14.4390 -14.4390
   -14.4104 -14.4104 -14.4067 -14.4067  -2.4141  -2.4141   2.0681   2.0681
     5.0658   5.0658   5.1562   5.1562   7.7732   7.7732   8.6608   8.6608
    11.4322  11.4322  11.6507  11.6507

     occupation numbers 
     1.0000   1.0000   1.0000   1.0000   1.0000   1.0000   1.0000   1.0000
     1.0000   1.0000   1.0000   1.0000   1.0000   1.0000   1.0000   1.0000
     1.0000   1.0000   1.0000   1.0000   1.0000   1.0000   1.0000   1.0000
     1.0000   1.0000   1.0000   1.0000   0.0000   0.0000   0.0000   0.0000
     0.0000   0.0000   0.0000   0.0000

          k = 0.4419 0.0884-0.0884 (  6614 PWs)   bands (ev):

   -14.7850 -14.7850 -14.7775 -14.7775 -14.7260 -14.7260 -14.6408 -14.6408
   -14.5994 -14.5994 -14.5762 -14.5762 -14.5033 -14.5033 -14.4543 -14.4543
   -14.4045 -14.4045 -14.3957 -14.3957  -2.1498  -2.1498   1.5561   1.5561
     4.7231   4.7231   5.0501   5.0501   7.9211   7.9211   8.7952   8.7952
    11.2872  11.2872  11.8129  11.8129

     occupation numbers 
     1.0000   1.0000   1.0000   1.0000   1.0000   1.0000   1.0000   1.0000
     1.0000   1.0000   1.0000   1.0000   1.0000   1.0000   1.0000   1.0000
     1.0000   1.0000   1.0000   1.0000   1.0000   1.0000   1.0000   1.0000
     1.0000   1.0000   1.0000   1.0000   0.0000   0.0000   0.0000   0.0000
     0.0000   0.0000   0.0000   0.0000

          k = 0.4861 0.1326-0.1326 (  6637 PWs)   bands (ev):

   -14.7931 -14.7931 -14.7810 -14.7810 -14.7109 -14.7109 -14.6306 -14.6306
   -14.5959 -14.5959 -14.5788 -14.5788 -14.5143 -14.5143 -14.4709 -14.4709
   -14.3994 -14.3994 -14.3863 -14.3863  -1.8523  -1.8523   1.0561   1.0561
     4.3800   4.3800   5.0075   5.0075   7.9641   7.9641   9.2596   9.2596
    11.1522  11.1522  11.8018  11.8018

     occupation numbers 
     1.0000   1.0000   1.0000   1.0000   1.0000   1.0000   1.0000   1.0000
     1.0000   1.0000   1.0000   1.0000   1.0000   1.0000   1.0000   1.0000
     1.0000   1.0000   1.0000   1.0000   1.0000   1.0000   1.0000   1.0000
     1.0000   1.0000   1.0000   1.0000   0.0000   0.0000   0.0000   0.0000
     0.0000   0.0000   0.0000   0.0000

          k =-0.1768-0.5303 0.5303 (  6630 PWs)   bands (ev):

   -14.7993 -14.7993 -14.7838 -14.7838 -14.6970 -14.6970 -14.6211 -14.6211
   -14.5982 -14.5982 -14.5749 -14.5749 -14.5251 -14.5251 -14.4858 -14.4858
   -14.3953 -14.3953 -14.3794 -14.3794  -1.5676  -1.5676   0.6362   0.6362
     4.0942   4.0942   5.0304   5.0304   7.9613   7.9613   9.8864   9.8864
    11.1264  11.1264  11.6768  11.6768

     occupation numbers 
     1.0000   1.0000   1.0000   1.0000   1.0000   1.0000   1.0000   1.0000
     1.0000   1.0000   1.0000   1.0000   1.0000   1.0000   1.0000   1.0000
     1.0000   1.0000   1.0000   1.0000   1.0000   1.0000   1.0000   1.0000
[...]

     occupation numbers 
     1.0000   1.0000   1.0000   1.0000   1.0000   1.0000   1.0000   1.0000
     1.0000   1.0000   1.0000   1.0000   1.0000   1.0000   1.0000   1.0000
     1.0000   1.0000   1.0000   1.0000   1.0000   1.0000   1.0000   1.0000
     1.0000   1.0000   1.0000   1.0000   0.0000   0.0000   0.0000   0.0000
     0.0000   0.0000   0.0000   0.0000

          k =-0.1326-0.3977 0.5745 (  6631 PWs)   bands (ev):

   -14.8032 -14.8032 -14.7905 -14.7905 -14.6765 -14.6765 -14.6154 -14.6154
   -14.5950 -14.5950 -14.5722 -14.5722 -14.5374 -14.5374 -14.5062 -14.5062
   -14.3876 -14.3876 -14.3751 -14.3751  -1.3103  -1.3103   0.3390   0.3390
     3.8582   3.8582   4.8323   4.8323   8.6510   8.6510   9.8881   9.8881
    11.1636  11.1636  11.8671  11.8671

     occupation numbers 
     1.0000   1.0000   1.0000   1.0000   1.0000   1.0000   1.0000   1.0000
     1.0000   1.0000   1.0000   1.0000   1.0000   1.0000   1.0000   1.0000
     1.0000   1.0000   1.0000   1.0000   1.0000   1.0000   1.0000   1.0000
     1.0000   1.0000   1.0000   1.0000   0.0000   0.0000   0.0000   0.0000
     0.0000   0.0000   0.0000   0.0000

          k =-0.0884-0.3536 0.5303 (  6626 PWs)   bands (ev):

   -14.8031 -14.8031 -14.7905 -14.7905 -14.6759 -14.6759 -14.6184 -14.6184
   -14.5964 -14.5964 -14.5681 -14.5681 -14.5368 -14.5368 -14.5073 -14.5073
   -14.3875 -14.3875 -14.3754 -14.3754  -1.3649  -1.3649   0.4083   0.4083
     3.8247   3.8247   4.9018   4.9018   8.6993   8.6993   9.8761   9.8761
    11.2312  11.2312  11.8276  11.8276

     occupation numbers 
     1.0000   1.0000   1.0000   1.0000   1.0000   1.0000   1.0000   1.0000
     1.0000   1.0000   1.0000   1.0000   1.0000   1.0000   1.0000   1.0000
     1.0000   1.0000   1.0000   1.0000   1.0000   1.0000   1.0000   1.0000
     1.0000   1.0000   1.0000   1.0000   0.0000   0.0000   0.0000   0.0000
     0.0000   0.0000   0.0000   0.0000

          k =-0.0442-0.3094 0.4861 (  6627 PWs)   bands (ev):

   -14.7998 -14.7998 -14.7895 -14.7895 -14.6829 -14.6829 -14.6289 -14.6289
   -14.5987 -14.5987 -14.5656 -14.5656 -14.5237 -14.5237 -14.5029 -14.5029
   -14.3887 -14.3887 -14.3795 -14.3795  -1.6092  -1.6092   0.7279   0.7279
     3.8966   3.8966   5.0452   5.0452   8.7549   8.7549   9.7659   9.7659
    10.6380  10.6380  12.0636  12.0636

     occupation numbers 
     1.0000   1.0000   1.0000   1.0000   1.0000   1.0000   1.0000   1.0000
     1.0000   1.0000   1.0000   1.0000   1.0000   1.0000   1.0000   1.0000
     1.0000   1.0000   1.0000   1.0000   1.0000   1.0000   1.0000   1.0000
     1.0000   1.0000   1.0000   1.0000   0.0000   0.0000   0.0000   0.0000
     0.0000   0.0000   0.0000   0.0000

          k = 0.0000-0.2652 0.4419 (  6629 PWs)   bands (ev):

   -14.7936 -14.7936 -14.7871 -14.7871 -14.6958 -14.6958 -14.6397 -14.6397
   -14.6063 -14.6063 -14.5596 -14.5596 -14.5087 -14.5087 -14.4923 -14.4923
   -14.3914 -14.3914 -14.3871 -14.3871  -1.9079  -1.9079   1.1470   1.1470
     4.0930   4.0930   5.2370   5.2370   8.7581   8.7581   9.4139   9.4139
    10.4553  10.4553  11.8362  11.8362

     occupation numbers 
     1.0000   1.0000   1.0000   1.0000   1.0000   1.0000   1.0000   1.0000
     1.0000   1.0000   1.0000   1.0000   1.0000   1.0000   1.0000   1.0000
     1.0000   1.0000   1.0000   1.0000   1.0000   1.0000   1.0000   1.0000
     1.0000   1.0000   1.0000   1.0000   0.0000   0.0000   0.0000   0.0000
     0.0000   0.0000   0.0000   0.0000

          k =-0.1768-0.5303 0.7071 (  6646 PWs)   bands (ev):

   -14.7918 -14.7918 -14.7900 -14.7900 -14.6994 -14.6994 -14.6199 -14.6199
   -14.6013 -14.6013 -14.5747 -14.5747 -14.5251 -14.5251 -14.4817 -14.4817
   -14.3886 -14.3886 -14.3874 -14.3874  -1.6163  -1.6163   0.7660   0.7660
     4.2680   4.2680   4.7049   4.7049   8.3816   8.3816   8.7404   8.7404
    11.1610  11.1610  12.8017  12.8017

     occupation numbers 
     1.0000   1.0000   1.0000   1.0000   1.0000   1.0000   1.0000   1.0000
     1.0000   1.0000   1.0000   1.0000   1.0000   1.0000   1.0000   1.0000
     1.0000   1.0000   1.0000   1.0000   1.0000   1.0000   1.0000   1.0000
     1.0000   1.0000   1.0000   1.0000   0.0000   0.0000   0.0000   0.0000
     0.0000   0.0000   0.0000   0.0000

          k =-0.1326-0.4861 0.6629 (  6645 PWs)   bands (ev):

   -14.7986 -14.7986 -14.7923 -14.7923 -14.6819 -14.6819 -14.6098 -14.6098
   -14.6060 -14.6060 -14.5685 -14.5685 -14.5375 -14.5375 -14.4991 -14.4991
   -14.3857 -14.3857 -14.3795 -14.3795  -1.3119  -1.3119   0.3822   0.3822
     4.0354   4.0354   4.5818   4.5818   8.5492   8.5492   9.2193   9.2193
    10.9822  10.9822  12.7500  12.7500

     occupation numbers 
     1.0000   1.0000   1.0000   1.0000   1.0000   1.0000   1.0000   1.0000
     1.0000   1.0000   1.0000   1.0000   1.0000   1.0000   1.0000   1.0000
     1.0000   1.0000   1.0000   1.0000   1.0000   1.0000   1.0000   1.0000
     1.0000   1.0000   1.0000   1.0000   0.0000   0.0000   0.0000   0.0000
     0.0000   0.0000   0.0000   0.0000

          k =-0.0884-0.4419 0.6187 (  6640 PWs)   bands (ev):

   -14.8037 -14.8037 -14.7933 -14.7933 -14.6692 -14.6692 -14.6057 -14.6057
   -14.5981 -14.5981 -14.5705 -14.5705 -14.5487 -14.5487 -14.5109 -14.5109
   -14.3843 -14.3843 -14.3741 -14.3741  -1.0734  -1.0734   0.1065   0.1065
     3.8350   3.8350   4.5720   4.5720   8.6064   8.6064   9.9534   9.9534
    10.8738  10.8738  12.1579  12.1579

     occupation numbers 
     1.0000   1.0000   1.0000   1.0000   1.0000   1.0000   1.0000   1.0000
     1.0000   1.0000   1.0000   1.0000   1.0000   1.0000   1.0000   1.0000
     1.0000   1.0000   1.0000   1.0000   1.0000   1.0000   1.0000   1.0000
     1.0000   1.0000   1.0000   1.0000   0.0000   0.0000   0.0000   0.0000
     0.0000   0.0000   0.0000   0.0000

          k =-0.0442-0.3977 0.5745 (  6643 PWs)   bands (ev):

   -14.8056 -14.8056 -14.7933 -14.7933 -14.6660 -14.6660 -14.6021 -14.6021
   -14.5900 -14.5900 -14.5782 -14.5782 -14.5532 -14.5532 -14.5138 -14.5138
   -14.3842 -14.3842 -14.3722 -14.3722  -1.0753  -1.0753   0.1113   0.1113
     3.7210   3.7210   4.6615   4.6615   8.6868   8.6868  10.4234  10.4234
    11.0951  11.0951  11.4171  11.4171

     occupation numbers 
     1.0000   1.0000   1.0000   1.0000   1.0000   1.0000   1.0000   1.0000
     1.0000   1.0000   1.0000   1.0000   1.0000   1.0000   1.0000   1.0000
     1.0000   1.0000   1.0000   1.0000   1.0000   1.0000   1.0000   1.0000
     1.0000   1.0000   1.0000   1.0000   0.0000   0.0000   0.0000   0.0000
     0.0000   0.0000   0.0000   0.0000

          k = 0.0000-0.3536 0.5303 (  6634 PWs)   bands (ev):

   -14.8042 -14.8042 -14.7921 -14.7921 -14.6712 -14.6712 -14.6141 -14.6141
   -14.5871 -14.5871 -14.5777 -14.5777 -14.5426 -14.5426 -14.5104 -14.5104
   -14.3855 -14.3855 -14.3742 -14.3742  -1.3111  -1.3111   0.3803   0.3803
     3.7332   3.7332   4.8282   4.8282   8.7702   8.7702  10.2811  10.2811
    10.7097  10.7097  11.9168  11.9168

     occupation numbers 
     1.0000   1.0000   1.0000   1.0000   1.0000   1.0000   1.0000   1.0000
     1.0000   1.0000   1.0000   1.0000   1.0000   1.0000   1.0000   1.0000
     1.0000   1.0000   1.0000   1.0000   1.0000   1.0000   1.0000   1.0000
     1.0000   1.0000   1.0000   1.0000   0.0000   0.0000   0.0000   0.0000
     0.0000   0.0000   0.0000   0.0000

          k =-0.0884-0.5303 0.7071 (  6627 PWs)   bands (ev):

   -14.7953 -14.7953 -14.7941 -14.7941 -14.6801 -14.6801 -14.6300 -14.6300
   -14.5969 -14.5969 -14.5481 -14.5481 -14.5479 -14.5479 -14.5000 -14.5000
   -14.3835 -14.3835 -14.3824 -14.3824  -1.0893  -1.0893   0.1149   0.1149
     4.1951   4.1951   4.4124   4.4124   8.3478   8.3478   8.5566   8.5566
    11.8385  11.8385  13.0816  13.0816

     occupation numbers 
     1.0000   1.0000   1.0000   1.0000   1.0000   1.0000   1.0000   1.0000
     1.0000   1.0000   1.0000   1.0000   1.0000   1.0000   1.0000   1.0000
     1.0000   1.0000   1.0000   1.0000   1.0000   1.0000   1.0000   1.0000
     1.0000   1.0000   1.0000   1.0000   0.0000   0.0000   0.0000   0.0000
     0.0000   0.0000   0.0000   0.0000

          k =-0.0442-0.4861 0.6629 (  6643 PWs)   bands (ev):

   -14.8010 -14.8010 -14.7952 -14.7952 -14.6632 -14.6632 -14.6308 -14.6308
   -14.5865 -14.5865 -14.5607 -14.5607 -14.5461 -14.5461 -14.5161 -14.5161
   -14.3821 -14.3821 -14.3764 -14.3764  -0.8052  -0.8052  -0.1851  -0.1851
     3.9818   3.9818   4.3700   4.3700   8.4945   8.4945   9.1632   9.1632
    11.6538  11.6538  12.3714  12.3714

     occupation numbers 
     1.0000   1.0000   1.0000   1.0000   1.0000   1.0000   1.0000   1.0000
     1.0000   1.0000   1.0000   1.0000   1.0000   1.0000   1.0000   1.0000
     1.0000   1.0000   1.0000   1.0000   1.0000   1.0000   1.0000   1.0000
     1.0000   1.0000   1.0000   1.0000   0.0000   0.0000   0.0000   0.0000
     0.0000   0.0000   0.0000   0.0000

          k = 0.0000-0.4419 0.6187 (  6651 PWs)   bands (ev):

   -14.8049 -14.8049 -14.7948 -14.7948 -14.6602 -14.6602 -14.6147 -14.6147
   -14.5857 -14.5857 -14.5649 -14.5649 -14.5594 -14.5594 -14.5185 -14.5185
   -14.3825 -14.3825 -14.3726 -14.3726  -0.8071  -0.8071  -0.1739  -0.1739
     3.7861   3.7861   4.4753   4.4753   8.5846   8.5846   9.9882   9.9882
    11.4917  11.4917  11.5075  11.5075

     occupation numbers 
     1.0000   1.0000   1.0000   1.0000   1.0000   1.0000   1.0000   1.0000
     1.0000   1.0000   1.0000   1.0000   1.0000   1.0000   1.0000   1.0000
     1.0000   1.0000   1.0000   1.0000   1.0000   1.0000   1.0000   1.0000
     1.0000   1.0000   1.0000   1.0000   0.0000   0.0000   0.0000   0.0000
     0.0000   0.0000   0.0000   0.0000

          k =-0.7071 0.1768 0.0000 (  6638 PWs)   bands (ev):

   -14.7961 -14.7961 -14.7960 -14.7960 -14.6572 -14.6572 -14.6561 -14.6561
   -14.5751 -14.5751 -14.5698 -14.5698 -14.5232 -14.5232 -14.5221 -14.5221
   -14.3812 -14.3812 -14.3811 -14.3811  -0.5088  -0.5088  -0.5073  -0.5073
     4.2421   4.2421   4.2421   4.2421   8.4102   8.4102   8.4104   8.4104
    12.5656  12.5656  12.5656  12.5656

     occupation numbers 
     1.0000   1.0000   1.0000   1.0000   1.0000   1.0000   1.0000   1.0000
     1.0000   1.0000   1.0000   1.0000   1.0000   1.0000   1.0000   1.0000
     1.0000   1.0000   1.0000   1.0000   1.0000   1.0000   1.0000   1.0000
     1.0000   1.0000   1.0000   1.0000   0.0000   0.0000   0.0000   0.0000
     0.0000   0.0000   0.0000   0.0000

          k =-0.1768-0.4419 0.7071 (  6639 PWs)   bands (ev):

   -14.7987 -14.7987 -14.7925 -14.7925 -14.6813 -14.6813 -14.6203 -14.6203
   -14.5885 -14.5885 -14.5819 -14.5819 -14.5291 -14.5291 -14.5015 -14.5015
   -14.3856 -14.3856 -14.3801 -14.3801  -1.4822  -1.4822   0.5932   0.5932
     3.9548   3.9548   4.7397   4.7397   9.1549   9.1549   9.2739   9.2739
    10.4100  10.4100  12.5291  12.5291

     occupation numbers 
     1.0000   1.0000   1.0000   1.0000   1.0000   1.0000   1.0000   1.0000
     1.0000   1.0000   1.0000   1.0000   1.0000   1.0000   1.0000   1.0000
     1.0000   1.0000   1.0000   1.0000   1.0000   1.0000   1.0000   1.0000
     1.0000   1.0000   1.0000   1.0000   0.0000   0.0000   0.0000   0.0000
     0.0000   0.0000   0.0000   0.0000

          k =-0.1326-0.3977 0.6629 (  6637 PWs)   bands (ev):

   -14.8031 -14.8031 -14.7946 -14.7946 -14.6676 -14.6676 -14.6099 -14.6099
   -14.5927 -14.5927 -14.5764 -14.5764 -14.5434 -14.5434 -14.5131 -14.5131
   -14.3832 -14.3832 -14.3750 -14.3750  -1.1981  -1.1981   0.2544   0.2544
     3.8263   3.8263   4.5827   4.5827   9.1785   9.1785   9.7691   9.7691
    10.5236  10.5236  12.0434  12.0434

     occupation numbers 
     1.0000   1.0000   1.0000   1.0000   1.0000   1.0000   1.0000   1.0000
     1.0000   1.0000   1.0000   1.0000   1.0000   1.0000   1.0000   1.0000
     1.0000   1.0000   1.0000   1.0000   1.0000   1.0000   1.0000   1.0000
     1.0000   1.0000   1.0000   1.0000   0.0000   0.0000   0.0000   0.0000
     0.0000   0.0000   0.0000   0.0000

          k =-0.0884-0.3536 0.6187 (  6652 PWs)   bands (ev):

   -14.8047 -14.8047 -14.7952 -14.7952 -14.6622 -14.6622 -14.6060 -14.6060
   -14.5907 -14.5907 -14.5770 -14.5770 -14.5500 -14.5500 -14.5172 -14.5172
   -14.3825 -14.3825 -14.3731 -14.3731  -1.0599  -1.0599   0.0968   0.0968
     3.7855   3.7855   4.5253   4.5253   9.1783   9.1783   9.8862   9.8862
    11.0614  11.0614  11.3500  11.3500

     occupation numbers 
     1.0000   1.0000   1.0000   1.0000   1.0000   1.0000   1.0000   1.0000
     1.0000   1.0000   1.0000   1.0000   1.0000   1.0000   1.0000   1.0000
     1.0000   1.0000   1.0000   1.0000   1.0000   1.0000   1.0000   1.0000
     1.0000   1.0000   1.0000   1.0000   0.0000   0.0000   0.0000   0.0000
     0.0000   0.0000   0.0000   0.0000

          k =-0.0884-0.4419 0.7071 (  6650 PWs)   bands (ev):

   -14.8010 -14.8010 -14.7973 -14.7973 -14.6627 -14.6627 -14.6147 -14.6147
   -14.5984 -14.5984 -14.5592 -14.5592 -14.5515 -14.5515 -14.5166 -14.5166
   -14.3802 -14.3802 -14.3766 -14.3766  -1.0056  -1.0056   0.0448   0.0448
     3.9460   3.9460   4.3422   4.3422   9.2133   9.2133   9.2609   9.2609
    10.7996  10.7996  12.2088  12.2088

     occupation numbers 
     1.0000   1.0000   1.0000   1.0000   1.0000   1.0000   1.0000   1.0000
     1.0000   1.0000   1.0000   1.0000   1.0000   1.0000   1.0000   1.0000
     1.0000   1.0000   1.0000   1.0000   1.0000   1.0000   1.0000   1.0000
     1.0000   1.0000   1.0000   1.0000   0.0000   0.0000   0.0000   0.0000
     0.0000   0.0000   0.0000   0.0000

          k =-0.0442-0.3977 0.6629 (  6651 PWs)   bands (ev):

   -14.8038 -14.8038 -14.7985 -14.7985 -14.6501 -14.6501 -14.6163 -14.6163
   -14.5895 -14.5895 -14.5647 -14.5647 -14.5556 -14.5556 -14.5271 -14.5271
   -14.3788 -14.3788 -14.3736 -14.3736  -0.7854  -0.7854  -0.1845  -0.1845
     3.8633   3.8633   4.2608   4.2608   9.2987   9.2987   9.9755   9.9755
    10.7145  10.7145  11.3405  11.3405

     occupation numbers 
     1.0000   1.0000   1.0000   1.0000   1.0000   1.0000   1.0000   1.0000
     1.0000   1.0000   1.0000   1.0000   1.0000   1.0000   1.0000   1.0000
     1.0000   1.0000   1.0000   1.0000   1.0000   1.0000   1.0000   1.0000
     1.0000   1.0000   1.0000   1.0000   0.0000   0.0000   0.0000   0.0000
     0.0000   0.0000   0.0000   0.0000

          k =-0.0000-0.3536 0.6187 (  6657 PWs)   bands (ev):

   -14.8046 -14.8046 -14.7975 -14.7975 -14.6540 -14.6540 -14.6060 -14.6060
   -14.5957 -14.5957 -14.5643 -14.5643 -14.5595 -14.5595 -14.5237 -14.5237
   -14.3799 -14.3799 -14.3730 -14.3730  -0.9073  -0.9073  -0.0546  -0.0546
     3.7971   3.7971   4.3657   4.3657   9.3545   9.3545  10.1570  10.1570
    10.6022  10.6022  11.2425  11.2425

     occupation numbers 
     1.0000   1.0000   1.0000   1.0000   1.0000   1.0000   1.0000   1.0000
     1.0000   1.0000   1.0000   1.0000   1.0000   1.0000   1.0000   1.0000
     1.0000   1.0000   1.0000   1.0000   1.0000   1.0000   1.0000   1.0000
     1.0000   1.0000   1.0000   1.0000   0.0000   0.0000   0.0000   0.0000
     0.0000   0.0000   0.0000   0.0000

          k =-0.7071 0.2652 0.0000 (  6650 PWs)   bands (ev):

   -14.8005 -14.8005 -14.8004 -14.8004 -14.6408 -14.6408 -14.6394 -14.6394
   -14.5777 -14.5777 -14.5724 -14.5724 -14.5372 -14.5372 -14.5357 -14.5357
   -14.3769 -14.3769 -14.3768 -14.3768  -0.4926  -0.4926  -0.4912  -0.4912
     4.0744   4.0744   4.0745   4.0745   9.2245   9.2245   9.2248   9.2248
    11.4759  11.4759  11.4760  11.4760

     occupation numbers 
     1.0000   1.0000   1.0000   1.0000   1.0000   1.0000   1.0000   1.0000
     1.0000   1.0000   1.0000   1.0000   1.0000   1.0000   1.0000   1.0000
     1.0000   1.0000   1.0000   1.0000   1.0000   1.0000   1.0000   1.0000
     1.0000   1.0000   1.0000   1.0000   0.0000   0.0000   0.0000   0.0000
     0.0000   0.0000   0.0000   0.0000

          k =-0.7071 0.3536 0.0000 (  6652 PWs)   bands (ev):

   -14.8022 -14.8022 -14.8021 -14.8021 -14.6326 -14.6326 -14.6309 -14.6309
   -14.5801 -14.5801 -14.5748 -14.5748 -14.5433 -14.5433 -14.5416 -14.5416
   -14.3752 -14.3752 -14.3751 -14.3751  -0.4859  -0.4859  -0.4844  -0.4844
     4.0109   4.0109   4.0110   4.0110   9.9047   9.9047   9.9053   9.9053
    10.6989  10.6989  10.6993  10.6993

     occupation numbers 
     1.0000   1.0000   1.0000   1.0000   1.0000   1.0000   1.0000   1.0000
     1.0000   1.0000   1.0000   1.0000   1.0000   1.0000   1.0000   1.0000
     1.0000   1.0000   1.0000   1.0000   1.0000   1.0000   1.0000   1.0000
     1.0000   1.0000   1.0000   1.0000   0.0000   0.0000   0.0000   0.0000
     0.0000   0.0000   0.0000   0.0000

     the Fermi energy is     6.7570 ev

!    total energy              =    -873.10634529 Ry
     Harris-Foulkes estimate   =    -873.10634536 Ry
     estimated scf accuracy    <       0.00000041 Ry

     total all-electron energy =    -24698.428654 Ry

     The total energy is the sum of the following terms:

     one-electron contribution =    -154.01980432 Ry
     hartree contribution      =      95.49604856 Ry
     xc contribution           =     -95.18465176 Ry
     ewald contribution        =    -167.52979533 Ry
     one-center paw contrib.   =    -551.86814234 Ry
     smearing contrib. (-TS)   =      -0.00000010 Ry

     convergence has been achieved in   5 iterations

     Writing output data file Sn.save
 
     init_run     :      8.87s CPU      9.65s WALL (       1 calls)
     electrons    :    169.47s CPU    183.24s WALL (       1 calls)

     Called by init_run:
     wfcinit      :      8.56s CPU      9.24s WALL (       1 calls)
     potinit      :      0.10s CPU      0.12s WALL (       1 calls)

     Called by electrons:
     c_bands      :    144.11s CPU    155.94s WALL (       6 calls)
     sum_band     :     24.82s CPU     26.67s WALL (       6 calls)
     v_of_rho     :      0.06s CPU      0.07s WALL (       6 calls)
     v_h          :      0.00s CPU      0.01s WALL (       6 calls)
     v_xc         :      0.05s CPU      0.07s WALL (       6 calls)
     newd         :      0.07s CPU      0.09s WALL (       6 calls)
     PAW_pot      :      0.46s CPU      0.52s WALL (       6 calls)
     mix_rho      :      0.02s CPU      0.03s WALL (       6 calls)

     Called by c_bands:
     init_us_2    :      0.25s CPU      0.34s WALL (    1885 calls)
     cegterg      :    141.63s CPU    153.18s WALL (     870 calls)

     Called by sum_band:
     sum_band:bec :      0.08s CPU      0.08s WALL (     870 calls)
     addusdens    :      0.07s CPU      0.09s WALL (       6 calls)

     Called by *egterg:
     h_psi        :    123.89s CPU    132.88s WALL (    3133 calls)
     s_psi        :      1.35s CPU      1.36s WALL (    3133 calls)
     g_psi        :      0.28s CPU      0.28s WALL (    2118 calls)
     cdiaghg      :      8.16s CPU      8.33s WALL (    2843 calls)
     cegterg:over :      7.05s CPU      7.08s WALL (    2118 calls)
     cegterg:upda :      2.32s CPU      2.33s WALL (    2118 calls)
     cegterg:last :      1.16s CPU      1.16s WALL (     870 calls)

     Called by h_psi:
     h_psi:vloc   :    118.70s CPU    127.55s WALL (    3133 calls)
     h_psi:vnl    :      4.94s CPU      5.06s WALL (    3133 calls)
     add_vuspsi   :      1.43s CPU      1.45s WALL (    3133 calls)

     General routines
     calbec       :      4.72s CPU      4.85s WALL (    4003 calls)
     fft          :      0.09s CPU      0.10s WALL (     116 calls)
     fftw         :    134.75s CPU    144.96s WALL (  395928 calls)
     davcio       :      0.06s CPU      0.39s WALL (     145 calls)
 
     Parallel routines
     fft_scatter  :     85.64s CPU     92.03s WALL (  396044 calls)

     PAW routines
     PAW_pot      :      0.46s CPU      0.52s WALL (       6 calls)
     PAW_symme    :      0.01s CPU      0.01s WALL (      12 calls)
 
     PWSCF        :  2m59.62s CPU     3m14.65s WALL

 
   This run was terminated on:  23: 1:17  16Mar2020            

=------------------------------------------------------------------------------=
   JOB DONE.
=------------------------------------------------------------------------------=
