
     Program PWSCF v.5.4.0 starts on 17Mar2020 at 11:39:11 

     This program is part of the open-source Quantum ESPRESSO suite
     for quantum simulation of materials; please cite
         "P. Giannozzi et al., J. Phys.:Condens. Matter 21 395502 (2009);
          URL http://www.quantum-espresso.org", 
     in publications or presentations arising from this work. More details at
     http://www.quantum-espresso.org/quote

     Parallel version (MPI & OpenMP), running on      16 processor cores
     Number of MPI processes:                16
     Threads/MPI process:                     1
     R & G space division:  proc/nbgrp/npool/nimage =      16
     Waiting for input...
     Reading input from standard input
Warning: card &IONS ignored
Warning: card / ignored
Warning: card &CELL ignored
Warning: card / ignored

     Current dimensions of program PWSCF are:
     Max number of different atomic species (ntypx) = 10
     Max number of k-points (npk) =  40000
     Max angular momentum in pseudopotentials (lmaxx) =  3
               file Sn.pbe-dn-kjpaw_psl.0.2.UPF: wavefunction(s)  5P 4D renormalized
     Message from routine setup:
     At least one non s.o. pseudo

     Subspace diagonalization in iterative solution of the eigenvalue problem:
     a serial algorithm will be used

 
     Parallelization info
     --------------------
     sticks:   dense  smooth     PW     G-vecs:    dense   smooth      PW
     Min         143     143     40                 4531     4531     683
     Max         145     145     41                 4532     4532     687
     Sum        2299    2299    649                72497    72497   10969
 

     Title: 
     Sn                                                                         


     bravais-lattice index     =            0
     lattice parameter (alat)  =       8.9127  a.u.
     unit-cell volume          =     500.6268 (a.u.)^3
     number of atoms/cell      =            2
     number of atomic types    =            1
     number of electrons       =        28.00
     number of Kohn-Sham states=           36
     kinetic-energy cutoff     =     105.0000  Ry
     charge density cutoff     =     420.0000  Ry
     convergence threshold     =      1.0E-06
     mixing beta               =       0.7000
     number of iterations used =            8  plain     mixing
     Exchange-correlation      =  SLA  PW   PBX  PBC ( 1  4  3  4 0 0)
     Non magnetic calculation with spin-orbit


     celldm(1)=   8.912709  celldm(2)=   0.000000  celldm(3)=   0.000000
     celldm(4)=   0.000000  celldm(5)=   0.000000  celldm(6)=   0.000000

     crystal axes: (cart. coord. in units of alat)
               a(1) = (   0.000000   0.707107   0.707107 )  
               a(2) = (   0.707107   0.000000   0.707107 )  
               a(3) = (   0.707107   0.707107   0.000000 )  

     reciprocal axes: (cart. coord. in units 2 pi/alat)
               b(1) = ( -0.707107  0.707107  0.707107 )  
               b(2) = (  0.707107 -0.707107  0.707107 )  
               b(3) = (  0.707107  0.707107 -0.707107 )  


     PseudoPot. # 1 for Sn read from file:
     ../PseudopotentialDatabase/Sn.pbe-dn-kjpaw_psl.0.2.UPF
     MD5 check sum: b79c227927c2421b8b427190f2e58519
     Pseudo is Projector augmented-wave + core cor, Zval = 14.0
     Generated using "atomic" code by A. Dal Corso  v.5.0.2 svn rev. 9415
     Shape of augmentation charge: BESSEL
     Using radial grid of 1243 points,  6 beta functions with: 
                l(1) =   0
                l(2) =   0
                l(3) =   1
                l(4) =   1
                l(5) =   2
                l(6) =   2
     Q(r) pseudized with 0 coefficients 


     atomic species   valence    mass     pseudopotential
        Sn            14.00   118.71000     Sn( 1.00)

     48 Sym. Ops., with inversion, found (24 have fractional translation)


                                    s                        frac. trans.

      isym =  1     identity                                     

 cryst.   s( 1) = (     1          0          0      )
                  (     0          1          0      )
                  (     0          0          1      )

 cart.    s( 1) = (  1.0000000  0.0000000  0.0000000 )
                  (  0.0000000  1.0000000  0.0000000 )
                  (  0.0000000  0.0000000  1.0000000 )


      isym =  2     180 deg rotation - cart. axis [0,0,1]        

 cryst.   s( 2) = (     0          1         -1      )
                  (     1          0         -1      )
                  (     0          0         -1      )

 cart.    s( 2) = ( -1.0000000  0.0000000  0.0000000 )
                  (  0.0000000 -1.0000000  0.0000000 )
                  (  0.0000000  0.0000000  1.0000000 )


      isym =  3     180 deg rotation - cart. axis [0,1,0]        

 cryst.   s( 3) = (     0         -1          1      )
                  (     0         -1          0      )
                  (     1         -1          0      )

 cart.    s( 3) = ( -1.0000000  0.0000000  0.0000000 )
                  (  0.0000000  1.0000000  0.0000000 )
                  (  0.0000000  0.0000000 -1.0000000 )


      isym =  4     180 deg rotation - cart. axis [1,0,0]        

 cryst.   s( 4) = (    -1          0          0      )
                  (    -1          0          1      )
                  (    -1          1          0      )

 cart.    s( 4) = (  1.0000000  0.0000000  0.0000000 )
                  (  0.0000000 -1.0000000  0.0000000 )
                  (  0.0000000  0.0000000 -1.0000000 )


      isym =  5     180 deg rotation - cart. axis [1,1,0]        

 cryst.   s( 5) = (    -1          0          1      )    f =( -0.2500000 )
                  (     0         -1          1      )       ( -0.2500000 )
                  (     0          0          1      )       ( -0.2500000 )

 cart.    s( 5) = (  0.0000000  1.0000000  0.0000000 )    f =( -0.3535534 )
                  (  1.0000000  0.0000000  0.0000000 )       ( -0.3535534 )
                  (  0.0000000  0.0000000 -1.0000000 )       ( -0.3535534 )


      isym =  6     180 deg rotation - cart. axis [1,-1,0]       

 cryst.   s( 6) = (     0         -1          0      )    f =( -0.2500000 )
                  (    -1          0          0      )       ( -0.2500000 )
                  (     0          0         -1      )       ( -0.2500000 )

 cart.    s( 6) = (  0.0000000 -1.0000000  0.0000000 )    f =( -0.3535534 )
                  ( -1.0000000  0.0000000  0.0000000 )       ( -0.3535534 )
                  (  0.0000000  0.0000000 -1.0000000 )       ( -0.3535534 )


      isym =  7      90 deg rotation - cart. axis [0,0,-1]       

 cryst.   s( 7) = (     0          1          0      )    f =( -0.2500000 )
                  (     0          1         -1      )       ( -0.2500000 )
                  (    -1          1          0      )       ( -0.2500000 )

 cart.    s( 7) = (  0.0000000  1.0000000  0.0000000 )    f =( -0.3535534 )
                  ( -1.0000000  0.0000000  0.0000000 )       ( -0.3535534 )
                  (  0.0000000  0.0000000  1.0000000 )       ( -0.3535534 )


      isym =  8      90 deg rotation - cart. axis [0,0,1]        

 cryst.   s( 8) = (     1          0         -1      )    f =( -0.2500000 )
                  (     1          0          0      )       ( -0.2500000 )
                  (     1         -1          0      )       ( -0.2500000 )

 cart.    s( 8) = (  0.0000000 -1.0000000  0.0000000 )    f =( -0.3535534 )
                  (  1.0000000  0.0000000  0.0000000 )       ( -0.3535534 )
                  (  0.0000000  0.0000000  1.0000000 )       ( -0.3535534 )


      isym =  9     180 deg rotation - cart. axis [1,0,1]        

 cryst.   s( 9) = (    -1          1          0      )    f =( -0.2500000 )
                  (     0          1          0      )       ( -0.2500000 )
                  (     0          1         -1      )       ( -0.2500000 )

 cart.    s( 9) = (  0.0000000  0.0000000  1.0000000 )    f =( -0.3535534 )
                  (  0.0000000 -1.0000000  0.0000000 )       ( -0.3535534 )
                  (  1.0000000  0.0000000  0.0000000 )       ( -0.3535534 )


      isym = 10     180 deg rotation - cart. axis [-1,0,1]       

 cryst.   s(10) = (     0          0         -1      )    f =( -0.2500000 )
                  (     0         -1          0      )       ( -0.2500000 )
                  (    -1          0          0      )       ( -0.2500000 )

 cart.    s(10) = (  0.0000000  0.0000000 -1.0000000 )    f =( -0.3535534 )
                  (  0.0000000 -1.0000000  0.0000000 )       ( -0.3535534 )
                  ( -1.0000000  0.0000000  0.0000000 )       ( -0.3535534 )


      isym = 11      90 deg rotation - cart. axis [0,1,0]        

 cryst.   s(11) = (     0          0          1      )    f =( -0.2500000 )
                  (    -1          0          1      )       ( -0.2500000 )
                  (     0         -1          1      )       ( -0.2500000 )

 cart.    s(11) = (  0.0000000  0.0000000  1.0000000 )    f =( -0.3535534 )
                  (  0.0000000  1.0000000  0.0000000 )       ( -0.3535534 )
                  ( -1.0000000  0.0000000  0.0000000 )       ( -0.3535534 )


      isym = 12      90 deg rotation - cart. axis [0,-1,0]       

 cryst.   s(12) = (     1         -1          0      )    f =( -0.2500000 )
                  (     1          0         -1      )       ( -0.2500000 )
                  (     1          0          0      )       ( -0.2500000 )

 cart.    s(12) = (  0.0000000  0.0000000 -1.0000000 )    f =( -0.3535534 )
                  (  0.0000000  1.0000000  0.0000000 )       ( -0.3535534 )
                  (  1.0000000  0.0000000  0.0000000 )       ( -0.3535534 )


      isym = 13     180 deg rotation - cart. axis [0,1,1]        

 cryst.   s(13) = (     1          0          0      )    f =( -0.2500000 )
                  (     1         -1          0      )       ( -0.2500000 )
                  (     1          0         -1      )       ( -0.2500000 )

 cart.    s(13) = ( -1.0000000  0.0000000  0.0000000 )    f =( -0.3535534 )
                  (  0.0000000  0.0000000  1.0000000 )       ( -0.3535534 )
                  (  0.0000000  1.0000000  0.0000000 )       ( -0.3535534 )


      isym = 14     180 deg rotation - cart. axis [0,1,-1]       

 cryst.   s(14) = (    -1          0          0      )    f =( -0.2500000 )
                  (     0          0         -1      )       ( -0.2500000 )
                  (     0         -1          0      )       ( -0.2500000 )

 cart.    s(14) = ( -1.0000000  0.0000000  0.0000000 )    f =( -0.3535534 )
                  (  0.0000000  0.0000000 -1.0000000 )       ( -0.3535534 )
                  (  0.0000000 -1.0000000  0.0000000 )       ( -0.3535534 )


      isym = 15      90 deg rotation - cart. axis [-1,0,0]       

 cryst.   s(15) = (     0         -1          1      )    f =( -0.2500000 )
                  (     0          0          1      )       ( -0.2500000 )
                  (    -1          0          1      )       ( -0.2500000 )

 cart.    s(15) = (  1.0000000  0.0000000  0.0000000 )    f =( -0.3535534 )
                  (  0.0000000  0.0000000  1.0000000 )       ( -0.3535534 )
                  (  0.0000000 -1.0000000  0.0000000 )       ( -0.3535534 )


      isym = 16      90 deg rotation - cart. axis [1,0,0]        

 cryst.   s(16) = (     0          1         -1      )    f =( -0.2500000 )
                  (    -1          1          0      )       ( -0.2500000 )
                  (     0          1          0      )       ( -0.2500000 )

 cart.    s(16) = (  1.0000000  0.0000000  0.0000000 )    f =( -0.3535534 )
                  (  0.0000000  0.0000000 -1.0000000 )       ( -0.3535534 )
                  (  0.0000000  1.0000000  0.0000000 )       ( -0.3535534 )


      isym = 17     120 deg rotation - cart. axis [-1,-1,-1]     

 cryst.   s(17) = (     0          0          1      )
                  (     1          0          0      )
                  (     0          1          0      )

 cart.    s(17) = (  0.0000000  1.0000000  0.0000000 )
                  (  0.0000000  0.0000000  1.0000000 )
                  (  1.0000000  0.0000000  0.0000000 )


      isym = 18     120 deg rotation - cart. axis [-1,1,1]       

 cryst.   s(18) = (     1         -1          0      )
                  (     0         -1          1      )
                  (     0         -1          0      )

 cart.    s(18) = (  0.0000000 -1.0000000  0.0000000 )
                  (  0.0000000  0.0000000  1.0000000 )
                  ( -1.0000000  0.0000000  0.0000000 )


      isym = 19     120 deg rotation - cart. axis [1,1,-1]       

 cryst.   s(19) = (    -1          1          0      )
                  (    -1          0          0      )
                  (    -1          0          1      )

 cart.    s(19) = (  0.0000000  1.0000000  0.0000000 )
                  (  0.0000000  0.0000000 -1.0000000 )
                  ( -1.0000000  0.0000000  0.0000000 )


      isym = 20     120 deg rotation - cart. axis [1,-1,1]       

 cryst.   s(20) = (     0          0         -1      )
                  (     0          1         -1      )
                  (     1          0         -1      )

 cart.    s(20) = (  0.0000000 -1.0000000  0.0000000 )
                  (  0.0000000  0.0000000 -1.0000000 )
                  (  1.0000000  0.0000000  0.0000000 )


      isym = 21     120 deg rotation - cart. axis [1,1,1]        

 cryst.   s(21) = (     0          1          0      )
                  (     0          0          1      )
                  (     1          0          0      )

 cart.    s(21) = (  0.0000000  0.0000000  1.0000000 )
                  (  1.0000000  0.0000000  0.0000000 )
                  (  0.0000000  1.0000000  0.0000000 )


      isym = 22     120 deg rotation - cart. axis [-1,1,-1]      

 cryst.   s(22) = (    -1          0          1      )
                  (    -1          1          0      )
                  (    -1          0          0      )

 cart.    s(22) = (  0.0000000  0.0000000  1.0000000 )
                  ( -1.0000000  0.0000000  0.0000000 )
                  (  0.0000000 -1.0000000  0.0000000 )


      isym = 23     120 deg rotation - cart. axis [1,-1,-1]      

 cryst.   s(23) = (     1          0         -1      )
                  (     0          0         -1      )
                  (     0          1         -1      )

 cart.    s(23) = (  0.0000000  0.0000000 -1.0000000 )
                  ( -1.0000000  0.0000000  0.0000000 )
                  (  0.0000000  1.0000000  0.0000000 )


      isym = 24     120 deg rotation - cart. axis [-1,-1,1]      

 cryst.   s(24) = (     0         -1          0      )
                  (     1         -1          0      )
                  (     0         -1          1      )

 cart.    s(24) = (  0.0000000  0.0000000 -1.0000000 )
                  (  1.0000000  0.0000000  0.0000000 )
                  (  0.0000000 -1.0000000  0.0000000 )


      isym = 25     inversion                                    

 cryst.   s(25) = (    -1          0          0      )    f =( -0.2500000 )
                  (     0         -1          0      )       ( -0.2500000 )
                  (     0          0         -1      )       ( -0.2500000 )

 cart.    s(25) = ( -1.0000000  0.0000000  0.0000000 )    f =( -0.3535534 )
                  (  0.0000000 -1.0000000  0.0000000 )       ( -0.3535534 )
                  (  0.0000000  0.0000000 -1.0000000 )       ( -0.3535534 )


      isym = 26     inv. 180 deg rotation - cart. axis [0,0,1]   

 cryst.   s(26) = (     0         -1          1      )    f =( -0.2500000 )
                  (    -1          0          1      )       ( -0.2500000 )
                  (     0          0          1      )       ( -0.2500000 )

 cart.    s(26) = (  1.0000000  0.0000000  0.0000000 )    f =( -0.3535534 )
                  (  0.0000000  1.0000000  0.0000000 )       ( -0.3535534 )
                  (  0.0000000  0.0000000 -1.0000000 )       ( -0.3535534 )


      isym = 27     inv. 180 deg rotation - cart. axis [0,1,0]   

 cryst.   s(27) = (     0          1         -1      )    f =( -0.2500000 )
                  (     0          1          0      )       ( -0.2500000 )
                  (    -1          1          0      )       ( -0.2500000 )

 cart.    s(27) = (  1.0000000  0.0000000  0.0000000 )    f =( -0.3535534 )
                  (  0.0000000 -1.0000000  0.0000000 )       ( -0.3535534 )
                  (  0.0000000  0.0000000  1.0000000 )       ( -0.3535534 )


      isym = 28     inv. 180 deg rotation - cart. axis [1,0,0]   

 cryst.   s(28) = (     1          0          0      )    f =( -0.2500000 )
                  (     1          0         -1      )       ( -0.2500000 )
                  (     1         -1          0      )       ( -0.2500000 )

 cart.    s(28) = ( -1.0000000  0.0000000  0.0000000 )    f =( -0.3535534 )
                  (  0.0000000  1.0000000  0.0000000 )       ( -0.3535534 )
                  (  0.0000000  0.0000000  1.0000000 )       ( -0.3535534 )


      isym = 29     inv. 180 deg rotation - cart. axis [1,1,0]   

 cryst.   s(29) = (     1          0         -1      )
                  (     0          1         -1      )
                  (     0          0         -1      )

 cart.    s(29) = (  0.0000000 -1.0000000  0.0000000 )
                  ( -1.0000000  0.0000000  0.0000000 )
                  (  0.0000000  0.0000000  1.0000000 )


      isym = 30     inv. 180 deg rotation - cart. axis [1,-1,0]  

 cryst.   s(30) = (     0          1          0      )
                  (     1          0          0      )
                  (     0          0          1      )

 cart.    s(30) = (  0.0000000  1.0000000  0.0000000 )
                  (  1.0000000  0.0000000  0.0000000 )
                  (  0.0000000  0.0000000  1.0000000 )


      isym = 31     inv.  90 deg rotation - cart. axis [0,0,-1]  

 cryst.   s(31) = (     0         -1          0      )
                  (     0         -1          1      )
                  (     1         -1          0      )

 cart.    s(31) = (  0.0000000 -1.0000000  0.0000000 )
                  (  1.0000000  0.0000000  0.0000000 )
                  (  0.0000000  0.0000000 -1.0000000 )


      isym = 32     inv.  90 deg rotation - cart. axis [0,0,1]   

 cryst.   s(32) = (    -1          0          1      )
                  (    -1          0          0      )
                  (    -1          1          0      )

 cart.    s(32) = (  0.0000000  1.0000000  0.0000000 )
                  ( -1.0000000  0.0000000  0.0000000 )
                  (  0.0000000  0.0000000 -1.0000000 )


      isym = 33     inv. 180 deg rotation - cart. axis [1,0,1]   

 cryst.   s(33) = (     1         -1          0      )
                  (     0         -1          0      )
                  (     0         -1          1      )

 cart.    s(33) = (  0.0000000  0.0000000 -1.0000000 )
                  (  0.0000000  1.0000000  0.0000000 )
                  ( -1.0000000  0.0000000  0.0000000 )


      isym = 34     inv. 180 deg rotation - cart. axis [-1,0,1]  

 cryst.   s(34) = (     0          0          1      )
                  (     0          1          0      )
                  (     1          0          0      )

 cart.    s(34) = (  0.0000000  0.0000000  1.0000000 )
                  (  0.0000000  1.0000000  0.0000000 )
                  (  1.0000000  0.0000000  0.0000000 )


      isym = 35     inv.  90 deg rotation - cart. axis [0,1,0]   

 cryst.   s(35) = (     0          0         -1      )
                  (     1          0         -1      )
                  (     0          1         -1      )

 cart.    s(35) = (  0.0000000  0.0000000 -1.0000000 )
                  (  0.0000000 -1.0000000  0.0000000 )
                  (  1.0000000  0.0000000  0.0000000 )


      isym = 36     inv.  90 deg rotation - cart. axis [0,-1,0]  

 cryst.   s(36) = (    -1          1          0      )
                  (    -1          0          1      )
                  (    -1          0          0      )

 cart.    s(36) = (  0.0000000  0.0000000  1.0000000 )
                  (  0.0000000 -1.0000000  0.0000000 )
                  ( -1.0000000  0.0000000  0.0000000 )


      isym = 37     inv. 180 deg rotation - cart. axis [0,1,1]   

 cryst.   s(37) = (    -1          0          0      )
                  (    -1          1          0      )
                  (    -1          0          1      )

 cart.    s(37) = (  1.0000000  0.0000000  0.0000000 )
                  (  0.0000000  0.0000000 -1.0000000 )
                  (  0.0000000 -1.0000000  0.0000000 )


      isym = 38     inv. 180 deg rotation - cart. axis [0,1,-1]  

 cryst.   s(38) = (     1          0          0      )
                  (     0          0          1      )
                  (     0          1          0      )

 cart.    s(38) = (  1.0000000  0.0000000  0.0000000 )
                  (  0.0000000  0.0000000  1.0000000 )
                  (  0.0000000  1.0000000  0.0000000 )


      isym = 39     inv.  90 deg rotation - cart. axis [-1,0,0]  

 cryst.   s(39) = (     0          1         -1      )
                  (     0          0         -1      )
                  (     1          0         -1      )

 cart.    s(39) = ( -1.0000000  0.0000000  0.0000000 )
                  (  0.0000000  0.0000000 -1.0000000 )
                  (  0.0000000  1.0000000  0.0000000 )


      isym = 40     inv.  90 deg rotation - cart. axis [1,0,0]   

 cryst.   s(40) = (     0         -1          1      )
                  (     1         -1          0      )
                  (     0         -1          0      )

 cart.    s(40) = ( -1.0000000  0.0000000  0.0000000 )
                  (  0.0000000  0.0000000  1.0000000 )
                  (  0.0000000 -1.0000000  0.0000000 )


      isym = 41     inv. 120 deg rotation - cart. axis [-1,-1,-1]

 cryst.   s(41) = (     0          0         -1      )    f =( -0.2500000 )
                  (    -1          0          0      )       ( -0.2500000 )
                  (     0         -1          0      )       ( -0.2500000 )

 cart.    s(41) = (  0.0000000 -1.0000000  0.0000000 )    f =( -0.3535534 )
                  (  0.0000000  0.0000000 -1.0000000 )       ( -0.3535534 )
                  ( -1.0000000  0.0000000  0.0000000 )       ( -0.3535534 )


      isym = 42     inv. 120 deg rotation - cart. axis [-1,1,1]  

 cryst.   s(42) = (    -1          1          0      )    f =( -0.2500000 )
                  (     0          1         -1      )       ( -0.2500000 )
                  (     0          1          0      )       ( -0.2500000 )

 cart.    s(42) = (  0.0000000  1.0000000  0.0000000 )    f =( -0.3535534 )
                  (  0.0000000  0.0000000 -1.0000000 )       ( -0.3535534 )
                  (  1.0000000  0.0000000  0.0000000 )       ( -0.3535534 )


      isym = 43     inv. 120 deg rotation - cart. axis [1,1,-1]  

 cryst.   s(43) = (     1         -1          0      )    f =( -0.2500000 )
                  (     1          0          0      )       ( -0.2500000 )
                  (     1          0         -1      )       ( -0.2500000 )

 cart.    s(43) = (  0.0000000 -1.0000000  0.0000000 )    f =( -0.3535534 )
                  (  0.0000000  0.0000000  1.0000000 )       ( -0.3535534 )
                  (  1.0000000  0.0000000  0.0000000 )       ( -0.3535534 )


      isym = 44     inv. 120 deg rotation - cart. axis [1,-1,1]  

 cryst.   s(44) = (     0          0          1      )    f =( -0.2500000 )
                  (     0         -1          1      )       ( -0.2500000 )
                  (    -1          0          1      )       ( -0.2500000 )

 cart.    s(44) = (  0.0000000  1.0000000  0.0000000 )    f =( -0.3535534 )
                  (  0.0000000  0.0000000  1.0000000 )       ( -0.3535534 )
                  ( -1.0000000  0.0000000  0.0000000 )       ( -0.3535534 )


      isym = 45     inv. 120 deg rotation - cart. axis [1,1,1]   

 cryst.   s(45) = (     0         -1          0      )    f =( -0.2500000 )
                  (     0          0         -1      )       ( -0.2500000 )
                  (    -1          0          0      )       ( -0.2500000 )

 cart.    s(45) = (  0.0000000  0.0000000 -1.0000000 )    f =( -0.3535534 )
                  ( -1.0000000  0.0000000  0.0000000 )       ( -0.3535534 )
                  (  0.0000000 -1.0000000  0.0000000 )       ( -0.3535534 )


      isym = 46     inv. 120 deg rotation - cart. axis [-1,1,-1] 

 cryst.   s(46) = (     1          0         -1      )    f =( -0.2500000 )
                  (     1         -1          0      )       ( -0.2500000 )
                  (     1          0          0      )       ( -0.2500000 )

 cart.    s(46) = (  0.0000000  0.0000000 -1.0000000 )    f =( -0.3535534 )
                  (  1.0000000  0.0000000  0.0000000 )       ( -0.3535534 )
                  (  0.0000000  1.0000000  0.0000000 )       ( -0.3535534 )


      isym = 47     inv. 120 deg rotation - cart. axis [1,-1,-1] 

 cryst.   s(47) = (    -1          0          1      )    f =( -0.2500000 )
                  (     0          0          1      )       ( -0.2500000 )
                  (     0         -1          1      )       ( -0.2500000 )

 cart.    s(47) = (  0.0000000  0.0000000  1.0000000 )    f =( -0.3535534 )
                  (  1.0000000  0.0000000  0.0000000 )       ( -0.3535534 )
                  (  0.0000000 -1.0000000  0.0000000 )       ( -0.3535534 )


      isym = 48     inv. 120 deg rotation - cart. axis [-1,-1,1] 

 cryst.   s(48) = (     0          1          0      )    f =( -0.2500000 )
                  (    -1          1          0      )       ( -0.2500000 )
                  (     0          1         -1      )       ( -0.2500000 )

 cart.    s(48) = (  0.0000000  0.0000000  1.0000000 )    f =( -0.3535534 )
                  ( -1.0000000  0.0000000  0.0000000 )       ( -0.3535534 )
                  (  0.0000000  1.0000000  0.0000000 )       ( -0.3535534 )


   Cartesian axes

     site n.     atom                  positions (alat units)
         1           Sn  tau(   1) = (   0.0000000   0.0000000   0.0000000  )
         2           Sn  tau(   2) = (   0.3535534   0.3535534   0.3535534  )

   Crystallographic axes

     site n.     atom                  positions (cryst. coord.)
         1           Sn  tau(   1) = (  0.0000000  0.0000000  0.0000000  )
         2           Sn  tau(   2) = (  0.2500000  0.2500000  0.2500000  )

     number of k points=   145  gaussian smearing, width (Ry)=  0.0001
                       cart. coord. in units 2pi/alat
        k(    1) = (   0.0000000   0.0000000   0.0000000), wk =   0.0002441
        k(    2) = (   0.0441942   0.0441942  -0.0441942), wk =   0.0019531
        k(    3) = (   0.0883883   0.0883883  -0.0883883), wk =   0.0019531
        k(    4) = (   0.1325825   0.1325825  -0.1325825), wk =   0.0019531
        k(    5) = (   0.1767767   0.1767767  -0.1767767), wk =   0.0019531
        k(    6) = (   0.2209709   0.2209709  -0.2209709), wk =   0.0019531
        k(    7) = (   0.2651650   0.2651650  -0.2651650), wk =   0.0019531
        k(    8) = (   0.3093592   0.3093592  -0.3093592), wk =   0.0019531
        k(    9) = (  -0.3535534  -0.3535534   0.3535534), wk =   0.0009766
        k(   10) = (   0.0883883   0.0000000   0.0000000), wk =   0.0014648
        k(   11) = (   0.1325825   0.0441942  -0.0441942), wk =   0.0058594
        k(   12) = (   0.1767767   0.0883883  -0.0883883), wk =   0.0058594
        k(   13) = (   0.2209709   0.1325825  -0.1325825), wk =   0.0058594
        k(   14) = (   0.2651650   0.1767767  -0.1767767), wk =   0.0058594
        k(   15) = (   0.3093592   0.2209709  -0.2209709), wk =   0.0058594
        k(   16) = (   0.3535534   0.2651650  -0.2651650), wk =   0.0058594
        k(   17) = (  -0.3093592  -0.3977476   0.3977476), wk =   0.0058594
        k(   18) = (  -0.2651650  -0.3535534   0.3535534), wk =   0.0058594
        k(   19) = (  -0.2209709  -0.3093592   0.3093592), wk =   0.0058594
        k(   20) = (  -0.1767767  -0.2651650   0.2651650), wk =   0.0058594
        k(   21) = (  -0.1325825  -0.2209709   0.2209709), wk =   0.0058594
        k(   22) = (  -0.0883883  -0.1767767   0.1767767), wk =   0.0058594
        k(   23) = (  -0.0441942  -0.1325825   0.1325825), wk =   0.0058594
        k(   24) = (   0.0000000  -0.0883883   0.0883883), wk =   0.0029297
        k(   25) = (   0.1767767   0.0000000   0.0000000), wk =   0.0014648
        k(   26) = (   0.2209709   0.0441942  -0.0441942), wk =   0.0058594
        k(   27) = (   0.2651650   0.0883883  -0.0883883), wk =   0.0058594
        k(   28) = (   0.3093592   0.1325825  -0.1325825), wk =   0.0058594
        k(   29) = (   0.3535534   0.1767767  -0.1767767), wk =   0.0058594
        k(   30) = (   0.3977476   0.2209709  -0.2209709), wk =   0.0058594
        k(   31) = (  -0.2651650  -0.4419417   0.4419417), wk =   0.0058594
        k(   32) = (  -0.2209709  -0.3977476   0.3977476), wk =   0.0058594
        k(   33) = (  -0.1767767  -0.3535534   0.3535534), wk =   0.0058594
        k(   34) = (  -0.1325825  -0.3093592   0.3093592), wk =   0.0058594
        k(   35) = (  -0.0883883  -0.2651650   0.2651650), wk =   0.0058594
        k(   36) = (  -0.0441942  -0.2209709   0.2209709), wk =   0.0058594
        k(   37) = (   0.0000000  -0.1767767   0.1767767), wk =   0.0029297
        k(   38) = (   0.2651650   0.0000000   0.0000000), wk =   0.0014648
        k(   39) = (   0.3093592   0.0441942  -0.0441942), wk =   0.0058594
        k(   40) = (   0.3535534   0.0883883  -0.0883883), wk =   0.0058594
        k(   41) = (   0.3977476   0.1325825  -0.1325825), wk =   0.0058594
        k(   42) = (   0.4419417   0.1767767  -0.1767767), wk =   0.0058594
        k(   43) = (  -0.2209709  -0.4861359   0.4861359), wk =   0.0058594
        k(   44) = (  -0.1767767  -0.4419417   0.4419417), wk =   0.0058594
        k(   45) = (  -0.1325825  -0.3977476   0.3977476), wk =   0.0058594
        k(   46) = (  -0.0883883  -0.3535534   0.3535534), wk =   0.0058594
        k(   47) = (  -0.0441942  -0.3093592   0.3093592), wk =   0.0058594
        k(   48) = (   0.0000000  -0.2651650   0.2651650), wk =   0.0029297
        k(   49) = (   0.3535534   0.0000000   0.0000000), wk =   0.0014648
        k(   50) = (   0.3977476   0.0441942  -0.0441942), wk =   0.0058594
        k(   51) = (   0.4419417   0.0883883  -0.0883883), wk =   0.0058594
        k(   52) = (   0.4861359   0.1325825  -0.1325825), wk =   0.0058594
        k(   53) = (  -0.1767767  -0.5303301   0.5303301), wk =   0.0058594
        k(   54) = (  -0.1325825  -0.4861359   0.4861359), wk =   0.0058594
        k(   55) = (  -0.0883883  -0.4419417   0.4419417), wk =   0.0058594
        k(   56) = (  -0.0441942  -0.3977476   0.3977476), wk =   0.0058594
        k(   57) = (   0.0000000  -0.3535534   0.3535534), wk =   0.0029297
        k(   58) = (   0.4419417   0.0000000   0.0000000), wk =   0.0014648
        k(   59) = (   0.4861359   0.0441942  -0.0441942), wk =   0.0058594
        k(   60) = (   0.5303301   0.0883883  -0.0883883), wk =   0.0058594
        k(   61) = (  -0.1325825  -0.5745243   0.5745243), wk =   0.0058594
        k(   62) = (  -0.0883883  -0.5303301   0.5303301), wk =   0.0058594
        k(   63) = (  -0.0441942  -0.4861359   0.4861359), wk =   0.0058594
        k(   64) = (   0.0000000  -0.4419417   0.4419417), wk =   0.0029297
        k(   65) = (   0.5303301   0.0000000   0.0000000), wk =   0.0014648
        k(   66) = (   0.5745243   0.0441942  -0.0441942), wk =   0.0058594
        k(   67) = (  -0.0883883  -0.6187184   0.6187184), wk =   0.0058594
        k(   68) = (  -0.0441942  -0.5745243   0.5745243), wk =   0.0058594
        k(   69) = (   0.0000000  -0.5303301   0.5303301), wk =   0.0029297
        k(   70) = (   0.6187184   0.0000000   0.0000000), wk =   0.0014648
        k(   71) = (  -0.0441942  -0.6629126   0.6629126), wk =   0.0058594
        k(   72) = (   0.0000000  -0.6187184   0.6187184), wk =   0.0029297
        k(   73) = (  -0.7071068   0.0000000   0.0000000), wk =   0.0007324
        k(   74) = (   0.1767767   0.0883883   0.0000000), wk =   0.0058594
        k(   75) = (   0.2209709   0.1325825  -0.0441942), wk =   0.0117188
        k(   76) = (   0.2651650   0.1767767  -0.0883883), wk =   0.0117188
        k(   77) = (   0.3093592   0.2209709  -0.1325825), wk =   0.0117188
        k(   78) = (   0.3535534   0.2651650  -0.1767767), wk =   0.0117188
        k(   79) = (  -0.3093592  -0.3977476   0.4861359), wk =   0.0117188
        k(   80) = (  -0.2651650  -0.3535534   0.4419417), wk =   0.0058594
        k(   81) = (   0.2651650   0.0883883   0.0000000), wk =   0.0058594
        k(   82) = (   0.3093592   0.1325825  -0.0441942), wk =   0.0117188
        k(   83) = (   0.3535534   0.1767767  -0.0883883), wk =   0.0117188
        k(   84) = (   0.3977476   0.2209709  -0.1325825), wk =   0.0117188
        k(   85) = (  -0.2651650  -0.4419417   0.5303301), wk =   0.0117188
        k(   86) = (  -0.2209709  -0.3977476   0.4861359), wk =   0.0117188
        k(   87) = (  -0.1767767  -0.3535534   0.4419417), wk =   0.0117188
        k(   88) = (  -0.1325825  -0.3093592   0.3977476), wk =   0.0117188
        k(   89) = (  -0.0883883  -0.2651650   0.3535534), wk =   0.0117188
        k(   90) = (  -0.0441942  -0.2209709   0.3093592), wk =   0.0117188
        k(   91) = (   0.0000000  -0.1767767   0.2651650), wk =   0.0058594
        k(   92) = (   0.3535534   0.0883883   0.0000000), wk =   0.0058594
        k(   93) = (   0.3977476   0.1325825  -0.0441942), wk =   0.0117188
        k(   94) = (   0.4419417   0.1767767  -0.0883883), wk =   0.0117188
        k(   95) = (  -0.2209709  -0.4861359   0.5745243), wk =   0.0117188
        k(   96) = (  -0.1767767  -0.4419417   0.5303301), wk =   0.0117188
        k(   97) = (  -0.1325825  -0.3977476   0.4861359), wk =   0.0117188
        k(   98) = (  -0.0883883  -0.3535534   0.4419417), wk =   0.0117188
        k(   99) = (  -0.0441942  -0.3093592   0.3977476), wk =   0.0117188
        k(  100) = (   0.0000000  -0.2651650   0.3535534), wk =   0.0058594
        k(  101) = (   0.4419417   0.0883883   0.0000000), wk =   0.0058594
        k(  102) = (   0.4861359   0.1325825  -0.0441942), wk =   0.0117188
        k(  103) = (  -0.1767767  -0.5303301   0.6187184), wk =   0.0117188
        k(  104) = (  -0.1325825  -0.4861359   0.5745243), wk =   0.0117188
        k(  105) = (  -0.0883883  -0.4419417   0.5303301), wk =   0.0117188
        k(  106) = (  -0.0441942  -0.3977476   0.4861359), wk =   0.0117188
        k(  107) = (   0.0000000  -0.3535534   0.4419417), wk =   0.0058594
        k(  108) = (   0.5303301   0.0883883   0.0000000), wk =   0.0058594
        k(  109) = (  -0.1325825  -0.5745243   0.6629126), wk =   0.0117188
        k(  110) = (  -0.0883883  -0.5303301   0.6187184), wk =   0.0117188
        k(  111) = (  -0.0441942  -0.4861359   0.5745243), wk =   0.0117188
        k(  112) = (   0.0000000  -0.4419417   0.5303301), wk =   0.0058594
        k(  113) = (  -0.0883883  -0.6187184   0.7071068), wk =   0.0058594
        k(  114) = (  -0.0441942  -0.5745243   0.6629126), wk =   0.0117188
        k(  115) = (  -0.0000000  -0.5303301   0.6187184), wk =   0.0058594
        k(  116) = (  -0.7071068   0.0883883   0.0000000), wk =   0.0029297
        k(  117) = (   0.3535534   0.1767767   0.0000000), wk =   0.0058594
        k(  118) = (   0.3977476   0.2209709  -0.0441942), wk =   0.0117188
        k(  119) = (  -0.2651650  -0.4419417   0.6187184), wk =   0.0117188
        k(  120) = (  -0.2209709  -0.3977476   0.5745243), wk =   0.0117188
        k(  121) = (  -0.1767767  -0.3535534   0.5303301), wk =   0.0058594
        k(  122) = (   0.4419417   0.1767767   0.0000000), wk =   0.0058594
        k(  123) = (  -0.2209709  -0.4861359   0.6629126), wk =   0.0117188
        k(  124) = (  -0.1767767  -0.4419417   0.6187184), wk =   0.0117188
        k(  125) = (  -0.1325825  -0.3977476   0.5745243), wk =   0.0117188
        k(  126) = (  -0.0883883  -0.3535534   0.5303301), wk =   0.0117188
        k(  127) = (  -0.0441942  -0.3093592   0.4861359), wk =   0.0117188
        k(  128) = (   0.0000000  -0.2651650   0.4419417), wk =   0.0058594
        k(  129) = (  -0.1767767  -0.5303301   0.7071068), wk =   0.0058594
        k(  130) = (  -0.1325825  -0.4861359   0.6629126), wk =   0.0117188
        k(  131) = (  -0.0883883  -0.4419417   0.6187184), wk =   0.0117188
        k(  132) = (  -0.0441942  -0.3977476   0.5745243), wk =   0.0117188
        k(  133) = (   0.0000000  -0.3535534   0.5303301), wk =   0.0058594
        k(  134) = (  -0.0883883  -0.5303301   0.7071068), wk =   0.0058594
        k(  135) = (  -0.0441942  -0.4861359   0.6629126), wk =   0.0117188
        k(  136) = (   0.0000000  -0.4419417   0.6187184), wk =   0.0058594
        k(  137) = (  -0.7071068   0.1767767   0.0000000), wk =   0.0029297
        k(  138) = (  -0.1767767  -0.4419417   0.7071068), wk =   0.0058594
        k(  139) = (  -0.1325825  -0.3977476   0.6629126), wk =   0.0117188
        k(  140) = (  -0.0883883  -0.3535534   0.6187184), wk =   0.0058594
        k(  141) = (  -0.0883883  -0.4419417   0.7071068), wk =   0.0058594
        k(  142) = (  -0.0441942  -0.3977476   0.6629126), wk =   0.0117188
        k(  143) = (  -0.0000000  -0.3535534   0.6187184), wk =   0.0058594
        k(  144) = (  -0.7071068   0.2651650   0.0000000), wk =   0.0029297
        k(  145) = (  -0.7071068   0.3535534   0.0000000), wk =   0.0014648

                       cryst. coord.
        k(    1) = (   0.0000000   0.0000000   0.0000000), wk =   0.0002441
        k(    2) = (   0.0000000   0.0000000   0.0625000), wk =   0.0019531
        k(    3) = (   0.0000000   0.0000000   0.1250000), wk =   0.0019531
        k(    4) = (   0.0000000   0.0000000   0.1875000), wk =   0.0019531
        k(    5) = (   0.0000000   0.0000000   0.2500000), wk =   0.0019531
        k(    6) = (   0.0000000   0.0000000   0.3125000), wk =   0.0019531
        k(    7) = (   0.0000000   0.0000000   0.3750000), wk =   0.0019531
        k(    8) = (   0.0000000   0.0000000   0.4375000), wk =   0.0019531
        k(    9) = (   0.0000000   0.0000000  -0.5000000), wk =   0.0009766
        k(   10) = (   0.0000000   0.0625000   0.0625000), wk =   0.0014648
        k(   11) = (   0.0000000   0.0625000   0.1250000), wk =   0.0058594
        k(   12) = (   0.0000000   0.0625000   0.1875000), wk =   0.0058594
        k(   13) = (   0.0000000   0.0625000   0.2500000), wk =   0.0058594
        k(   14) = (   0.0000000   0.0625000   0.3125000), wk =   0.0058594
        k(   15) = (   0.0000000   0.0625000   0.3750000), wk =   0.0058594
        k(   16) = (   0.0000000   0.0625000   0.4375000), wk =   0.0058594
        k(   17) = (   0.0000000   0.0625000  -0.5000000), wk =   0.0058594
        k(   18) = (   0.0000000   0.0625000  -0.4375000), wk =   0.0058594
        k(   19) = (   0.0000000   0.0625000  -0.3750000), wk =   0.0058594
        k(   20) = (   0.0000000   0.0625000  -0.3125000), wk =   0.0058594
        k(   21) = (   0.0000000   0.0625000  -0.2500000), wk =   0.0058594
        k(   22) = (   0.0000000   0.0625000  -0.1875000), wk =   0.0058594
        k(   23) = (   0.0000000   0.0625000  -0.1250000), wk =   0.0058594
        k(   24) = (   0.0000000   0.0625000  -0.0625000), wk =   0.0029297
        k(   25) = (   0.0000000   0.1250000   0.1250000), wk =   0.0014648
        k(   26) = (   0.0000000   0.1250000   0.1875000), wk =   0.0058594
        k(   27) = (   0.0000000   0.1250000   0.2500000), wk =   0.0058594
        k(   28) = (   0.0000000   0.1250000   0.3125000), wk =   0.0058594
        k(   29) = (   0.0000000   0.1250000   0.3750000), wk =   0.0058594
        k(   30) = (   0.0000000   0.1250000   0.4375000), wk =   0.0058594
        k(   31) = (   0.0000000   0.1250000  -0.5000000), wk =   0.0058594
        k(   32) = (   0.0000000   0.1250000  -0.4375000), wk =   0.0058594
        k(   33) = (   0.0000000   0.1250000  -0.3750000), wk =   0.0058594
        k(   34) = (   0.0000000   0.1250000  -0.3125000), wk =   0.0058594
        k(   35) = (   0.0000000   0.1250000  -0.2500000), wk =   0.0058594
        k(   36) = (   0.0000000   0.1250000  -0.1875000), wk =   0.0058594
        k(   37) = (   0.0000000   0.1250000  -0.1250000), wk =   0.0029297
        k(   38) = (   0.0000000   0.1875000   0.1875000), wk =   0.0014648
        k(   39) = (   0.0000000   0.1875000   0.2500000), wk =   0.0058594
        k(   40) = (   0.0000000   0.1875000   0.3125000), wk =   0.0058594
        k(   41) = (   0.0000000   0.1875000   0.3750000), wk =   0.0058594
        k(   42) = (   0.0000000   0.1875000   0.4375000), wk =   0.0058594
        k(   43) = (   0.0000000   0.1875000  -0.5000000), wk =   0.0058594
        k(   44) = (   0.0000000   0.1875000  -0.4375000), wk =   0.0058594
        k(   45) = (   0.0000000   0.1875000  -0.3750000), wk =   0.0058594
        k(   46) = (   0.0000000   0.1875000  -0.3125000), wk =   0.0058594
        k(   47) = (   0.0000000   0.1875000  -0.2500000), wk =   0.0058594
        k(   48) = (   0.0000000   0.1875000  -0.1875000), wk =   0.0029297
        k(   49) = (   0.0000000   0.2500000   0.2500000), wk =   0.0014648
        k(   50) = (   0.0000000   0.2500000   0.3125000), wk =   0.0058594
        k(   51) = (   0.0000000   0.2500000   0.3750000), wk =   0.0058594
        k(   52) = (   0.0000000   0.2500000   0.4375000), wk =   0.0058594
        k(   53) = (   0.0000000   0.2500000  -0.5000000), wk =   0.0058594
        k(   54) = (   0.0000000   0.2500000  -0.4375000), wk =   0.0058594
        k(   55) = (   0.0000000   0.2500000  -0.3750000), wk =   0.0058594
        k(   56) = (   0.0000000   0.2500000  -0.3125000), wk =   0.0058594
        k(   57) = (   0.0000000   0.2500000  -0.2500000), wk =   0.0029297
        k(   58) = (   0.0000000   0.3125000   0.3125000), wk =   0.0014648
        k(   59) = (   0.0000000   0.3125000   0.3750000), wk =   0.0058594
        k(   60) = (   0.0000000   0.3125000   0.4375000), wk =   0.0058594
        k(   61) = (   0.0000000   0.3125000  -0.5000000), wk =   0.0058594
        k(   62) = (   0.0000000   0.3125000  -0.4375000), wk =   0.0058594
        k(   63) = (   0.0000000   0.3125000  -0.3750000), wk =   0.0058594
        k(   64) = (   0.0000000   0.3125000  -0.3125000), wk =   0.0029297
        k(   65) = (   0.0000000   0.3750000   0.3750000), wk =   0.0014648
        k(   66) = (   0.0000000   0.3750000   0.4375000), wk =   0.0058594
        k(   67) = (   0.0000000   0.3750000  -0.5000000), wk =   0.0058594
        k(   68) = (   0.0000000   0.3750000  -0.4375000), wk =   0.0058594
        k(   69) = (   0.0000000   0.3750000  -0.3750000), wk =   0.0029297
        k(   70) = (   0.0000000   0.4375000   0.4375000), wk =   0.0014648
        k(   71) = (   0.0000000   0.4375000  -0.5000000), wk =   0.0058594
        k(   72) = (   0.0000000   0.4375000  -0.4375000), wk =   0.0029297
        k(   73) = (   0.0000000  -0.5000000  -0.5000000), wk =   0.0007324
        k(   74) = (   0.0625000   0.1250000   0.1875000), wk =   0.0058594
        k(   75) = (   0.0625000   0.1250000   0.2500000), wk =   0.0117188
        k(   76) = (   0.0625000   0.1250000   0.3125000), wk =   0.0117188
        k(   77) = (   0.0625000   0.1250000   0.3750000), wk =   0.0117188
        k(   78) = (   0.0625000   0.1250000   0.4375000), wk =   0.0117188
        k(   79) = (   0.0625000   0.1250000  -0.5000000), wk =   0.0117188
        k(   80) = (   0.0625000   0.1250000  -0.4375000), wk =   0.0058594
        k(   81) = (   0.0625000   0.1875000   0.2500000), wk =   0.0058594
        k(   82) = (   0.0625000   0.1875000   0.3125000), wk =   0.0117188
        k(   83) = (   0.0625000   0.1875000   0.3750000), wk =   0.0117188
        k(   84) = (   0.0625000   0.1875000   0.4375000), wk =   0.0117188
        k(   85) = (   0.0625000   0.1875000  -0.5000000), wk =   0.0117188
        k(   86) = (   0.0625000   0.1875000  -0.4375000), wk =   0.0117188
        k(   87) = (   0.0625000   0.1875000  -0.3750000), wk =   0.0117188
        k(   88) = (   0.0625000   0.1875000  -0.3125000), wk =   0.0117188
        k(   89) = (   0.0625000   0.1875000  -0.2500000), wk =   0.0117188
        k(   90) = (   0.0625000   0.1875000  -0.1875000), wk =   0.0117188
        k(   91) = (   0.0625000   0.1875000  -0.1250000), wk =   0.0058594
        k(   92) = (   0.0625000   0.2500000   0.3125000), wk =   0.0058594
        k(   93) = (   0.0625000   0.2500000   0.3750000), wk =   0.0117188
        k(   94) = (   0.0625000   0.2500000   0.4375000), wk =   0.0117188
        k(   95) = (   0.0625000   0.2500000  -0.5000000), wk =   0.0117188
        k(   96) = (   0.0625000   0.2500000  -0.4375000), wk =   0.0117188
        k(   97) = (   0.0625000   0.2500000  -0.3750000), wk =   0.0117188
        k(   98) = (   0.0625000   0.2500000  -0.3125000), wk =   0.0117188
        k(   99) = (   0.0625000   0.2500000  -0.2500000), wk =   0.0117188
        k(  100) = (   0.0625000   0.2500000  -0.1875000), wk =   0.0058594
        k(  101) = (   0.0625000   0.3125000   0.3750000), wk =   0.0058594
        k(  102) = (   0.0625000   0.3125000   0.4375000), wk =   0.0117188
        k(  103) = (   0.0625000   0.3125000  -0.5000000), wk =   0.0117188
        k(  104) = (   0.0625000   0.3125000  -0.4375000), wk =   0.0117188
        k(  105) = (   0.0625000   0.3125000  -0.3750000), wk =   0.0117188
        k(  106) = (   0.0625000   0.3125000  -0.3125000), wk =   0.0117188
        k(  107) = (   0.0625000   0.3125000  -0.2500000), wk =   0.0058594
        k(  108) = (   0.0625000   0.3750000   0.4375000), wk =   0.0058594
        k(  109) = (   0.0625000   0.3750000  -0.5000000), wk =   0.0117188
        k(  110) = (   0.0625000   0.3750000  -0.4375000), wk =   0.0117188
        k(  111) = (   0.0625000   0.3750000  -0.3750000), wk =   0.0117188
        k(  112) = (   0.0625000   0.3750000  -0.3125000), wk =   0.0058594
        k(  113) = (   0.0625000   0.4375000  -0.5000000), wk =   0.0058594
        k(  114) = (   0.0625000   0.4375000  -0.4375000), wk =   0.0117188
        k(  115) = (   0.0625000   0.4375000  -0.3750000), wk =   0.0058594
        k(  116) = (   0.0625000  -0.5000000  -0.4375000), wk =   0.0029297
        k(  117) = (   0.1250000   0.2500000   0.3750000), wk =   0.0058594
        k(  118) = (   0.1250000   0.2500000   0.4375000), wk =   0.0117188
        k(  119) = (   0.1250000   0.2500000  -0.5000000), wk =   0.0117188
        k(  120) = (   0.1250000   0.2500000  -0.4375000), wk =   0.0117188
        k(  121) = (   0.1250000   0.2500000  -0.3750000), wk =   0.0058594
        k(  122) = (   0.1250000   0.3125000   0.4375000), wk =   0.0058594
        k(  123) = (   0.1250000   0.3125000  -0.5000000), wk =   0.0117188
        k(  124) = (   0.1250000   0.3125000  -0.4375000), wk =   0.0117188
        k(  125) = (   0.1250000   0.3125000  -0.3750000), wk =   0.0117188
        k(  126) = (   0.1250000   0.3125000  -0.3125000), wk =   0.0117188
        k(  127) = (   0.1250000   0.3125000  -0.2500000), wk =   0.0117188
        k(  128) = (   0.1250000   0.3125000  -0.1875000), wk =   0.0058594
        k(  129) = (   0.1250000   0.3750000  -0.5000000), wk =   0.0058594
        k(  130) = (   0.1250000   0.3750000  -0.4375000), wk =   0.0117188
        k(  131) = (   0.1250000   0.3750000  -0.3750000), wk =   0.0117188
        k(  132) = (   0.1250000   0.3750000  -0.3125000), wk =   0.0117188
        k(  133) = (   0.1250000   0.3750000  -0.2500000), wk =   0.0058594
        k(  134) = (   0.1250000   0.4375000  -0.4375000), wk =   0.0058594
        k(  135) = (   0.1250000   0.4375000  -0.3750000), wk =   0.0117188
        k(  136) = (   0.1250000   0.4375000  -0.3125000), wk =   0.0058594
        k(  137) = (   0.1250000  -0.5000000  -0.3750000), wk =   0.0029297
        k(  138) = (   0.1875000   0.3750000  -0.4375000), wk =   0.0058594
        k(  139) = (   0.1875000   0.3750000  -0.3750000), wk =   0.0117188
        k(  140) = (   0.1875000   0.3750000  -0.3125000), wk =   0.0058594
        k(  141) = (   0.1875000   0.4375000  -0.3750000), wk =   0.0058594
        k(  142) = (   0.1875000   0.4375000  -0.3125000), wk =   0.0117188
        k(  143) = (   0.1875000   0.4375000  -0.2500000), wk =   0.0058594
        k(  144) = (   0.1875000  -0.5000000  -0.3125000), wk =   0.0029297
        k(  145) = (   0.2500000  -0.5000000  -0.2500000), wk =   0.0014648

     Dense  grid:    72497 G-vectors     FFT dimensions: (  60,  60,  60)

     Largest allocated arrays     est. size (Mb)     dimensions
        Kohn-Sham Wavefunctions         0.64 Mb     (    1162,   36)
        NL pseudopotentials             0.32 Mb     (     581,   36)
        Each V/rho on FFT grid          0.22 Mb     (   14400)
        Each G-vector array             0.03 Mb     (    4532)
        G-vector shells                 0.00 Mb     (     549)
     Largest temporary arrays     est. size (Mb)     dimensions
        Auxiliary wavefunctions         2.55 Mb     (    1162,  144)
        Each subspace H/S matrix        0.32 Mb     (     144,  144)
        Each <psi_i|beta_j> matrix      0.04 Mb     (      36,   2,   36)
        Arrays for rho mixing           1.76 Mb     (   14400,    8)

     Check: negative/imaginary core charge=   -0.000012    0.000000

     Initial potential from superposition of free atoms

     starting charge   27.99723, renormalised to   28.00000
     Starting wfc are   36 randomized atomic wfcs
     Checking if some PAW data can be deallocated... 

     total cpu time spent up to now is       11.3 secs

     Self-consistent Calculation

     iteration #  1     ecut=   105.00 Ry     beta=0.70
     Davidson diagonalization with overlap
     ethr =  1.00E-02,  avg # of iterations =  4.0

     Threshold (ethr) on eigenvalues was too large:
     Diagonalizing with lowered threshold

     Davidson diagonalization with overlap
     ethr =  4.85E-05,  avg # of iterations =  4.2

     total cpu time spent up to now is      102.0 secs

     total energy              =    -884.12523255 Ry
     Harris-Foulkes estimate   =    -884.12877495 Ry
     estimated scf accuracy    <       0.02322677 Ry

     iteration #  2     ecut=   105.00 Ry     beta=0.70
     Davidson diagonalization with overlap
     ethr =  8.30E-05,  avg # of iterations =  1.0

     total cpu time spent up to now is      130.3 secs

     total energy              =    -884.12553592 Ry
     Harris-Foulkes estimate   =    -884.12568836 Ry
     estimated scf accuracy    <       0.00140342 Ry

     iteration #  3     ecut=   105.00 Ry     beta=0.70
     Davidson diagonalization with overlap
     ethr =  5.01E-06,  avg # of iterations =  2.7

     total cpu time spent up to now is      164.6 secs

     total energy              =    -884.12570612 Ry
     Harris-Foulkes estimate   =    -884.12572128 Ry
     estimated scf accuracy    <       0.00002864 Ry

     iteration #  4     ecut=   105.00 Ry     beta=0.70
     Davidson diagonalization with overlap
     ethr =  1.02E-07,  avg # of iterations =  4.0

     total cpu time spent up to now is      210.2 secs

     total energy              =    -884.12575706 Ry
     Harris-Foulkes estimate   =    -884.12575749 Ry
     estimated scf accuracy    <       0.00000459 Ry

     iteration #  5     ecut=   105.00 Ry     beta=0.70
     Davidson diagonalization with overlap
     ethr =  1.64E-08,  avg # of iterations =  2.0

     total cpu time spent up to now is      247.3 secs

     End of self-consistent calculation

          k = 0.0000 0.0000 0.0000 (  9185 PWs)   bands (ev):

   -14.0298 -14.0298 -14.0298 -14.0298 -14.0298 -14.0298 -13.9799 -13.9799
   -13.9799 -13.9799 -13.7336 -13.7336 -13.7336 -13.7336 -13.7336 -13.7336
   -13.7313 -13.7313 -13.7313 -13.7313  -2.5539  -2.5539   6.3308   6.3308
     7.6180   7.6180   7.6180   7.6180   7.6180   7.6180   9.6834   9.6834
     9.6834   9.6834   9.6834   9.6834

     occupation numbers 
     1.0000   1.0000   1.0000   1.0000   1.0000   1.0000   1.0000   1.0000
     1.0000   1.0000   1.0000   1.0000   1.0000   1.0000   1.0000   1.0000
     1.0000   1.0000   1.0000   1.0000   1.0000   1.0000   1.0000   1.0000
     0.0000   0.0000   0.0000   0.0000   0.0000   0.0000   0.0000   0.0000
     0.0000   0.0000   0.0000   0.0000

          k = 0.0442 0.0442-0.0442 (  9164 PWs)   bands (ev):

   -14.0324 -14.0324 -14.0324 -14.0324 -14.0290 -14.0290 -13.9764 -13.9764
   -13.9764 -13.9764 -13.7430 -13.7430 -13.7430 -13.7430 -13.7345 -13.7345
   -13.7224 -13.7224 -13.7224 -13.7224  -2.5192  -2.5192   5.9367   5.9367
     7.5455   7.5455   7.5455   7.5455   7.7991   7.7991   9.7784   9.7784
     9.7784   9.7784   9.8139   9.8139

     occupation numbers 
     1.0000   1.0000   1.0000   1.0000   1.0000   1.0000   1.0000   1.0000
     1.0000   1.0000   1.0000   1.0000   1.0000   1.0000   1.0000   1.0000
     1.0000   1.0000   1.0000   1.0000   1.0000   1.0000   1.0000   1.0000
     0.0281   0.0281   0.0281   0.0281   0.0000   0.0000   0.0000   0.0000
     0.0000   0.0000   0.0000   0.0000

          k = 0.0884 0.0884-0.0884 (  9125 PWs)   bands (ev):

   -14.0381 -14.0381 -14.0381 -14.0381 -14.0266 -14.0266 -13.9682 -13.9682
   -13.9682 -13.9682 -13.7535 -13.7535 -13.7535 -13.7535 -13.7373 -13.7373
   -13.7136 -13.7136 -13.7136 -13.7136  -2.4159  -2.4159   5.1762   5.1762
     7.3679   7.3679   7.3679   7.3679   7.9286   7.9286  10.0129  10.0129
    10.0129  10.0129  10.2490  10.2490

     occupation numbers 
     1.0000   1.0000   1.0000   1.0000   1.0000   1.0000   1.0000   1.0000
     1.0000   1.0000   1.0000   1.0000   1.0000   1.0000   1.0000   1.0000
     1.0000   1.0000   1.0000   1.0000   1.0000   1.0000   1.0000   1.0000
     1.0000   1.0000   1.0000   1.0000   0.0000   0.0000   0.0000   0.0000
     0.0000   0.0000   0.0000   0.0000

          k = 0.1326 0.1326-0.1326 (  9126 PWs)   bands (ev):

   -14.0444 -14.0444 -14.0444 -14.0444 -14.0230 -14.0230 -13.9583 -13.9583
   -13.9583 -13.9583 -13.7632 -13.7632 -13.7632 -13.7632 -13.7415 -13.7415
   -13.7061 -13.7061 -13.7061 -13.7061  -2.2469  -2.2469   4.3466   4.3466
     7.1530   7.1530   7.1530   7.1530   7.8656   7.8656  10.2886  10.2886
    10.2886  10.2886  10.9313  10.9313

     occupation numbers 
     1.0000   1.0000   1.0000   1.0000   1.0000   1.0000   1.0000   1.0000
     1.0000   1.0000   1.0000   1.0000   1.0000   1.0000   1.0000   1.0000
     1.0000   1.0000   1.0000   1.0000   1.0000   1.0000   1.0000   1.0000
     1.0000   1.0000   1.0000   1.0000   0.0000   0.0000   0.0000   0.0000
     0.0000   0.0000   0.0000   0.0000

          k = 0.1768 0.1768-0.1768 (  9102 PWs)   bands (ev):

   -14.0499 -14.0499 -14.0499 -14.0499 -14.0187 -14.0187 -13.9489 -13.9489
   -13.9489 -13.9489 -13.7715 -13.7715 -13.7715 -13.7715 -13.7466 -13.7466
   -13.7001 -13.7001 -13.7001 -13.7001  -2.0186  -2.0186   3.5351   3.5351
     6.9462   6.9462   6.9462   6.9462   7.7261   7.7261  10.5193  10.5193
    10.5193  10.5193  11.7416  11.7416

     occupation numbers 
     1.0000   1.0000   1.0000   1.0000   1.0000   1.0000   1.0000   1.0000
     1.0000   1.0000   1.0000   1.0000   1.0000   1.0000   1.0000   1.0000
     1.0000   1.0000   1.0000   1.0000   1.0000   1.0000   1.0000   1.0000
     1.0000   1.0000   1.0000   1.0000   0.0000   0.0000   0.0000   0.0000
     0.0000   0.0000   0.0000   0.0000

          k = 0.2210 0.2210-0.2210 (  9108 PWs)   bands (ev):

   -14.0540 -14.0540 -14.0540 -14.0540 -14.0143 -14.0143 -13.9412 -13.9412
   -13.9412 -13.9412 -13.7778 -13.7778 -13.7778 -13.7778 -13.7518 -13.7518
   -13.6957 -13.6957 -13.6957 -13.6957  -1.7439  -1.7439   2.7871   2.7871
     6.7714   6.7714   6.7714   6.7714   7.5844   7.5844  10.6589  10.6589
    10.6589  10.6589  12.6073  12.6073

     occupation numbers 
     1.0000   1.0000   1.0000   1.0000   1.0000   1.0000   1.0000   1.0000
     1.0000   1.0000   1.0000   1.0000   1.0000   1.0000   1.0000   1.0000
     1.0000   1.0000   1.0000   1.0000   1.0000   1.0000   1.0000   1.0000
     1.0000   1.0000   1.0000   1.0000   0.0000   0.0000   0.0000   0.0000
     0.0000   0.0000   0.0000   0.0000

          k = 0.2652 0.2652-0.2652 (  9120 PWs)   bands (ev):

   -14.0568 -14.0568 -14.0568 -14.0568 -14.0104 -14.0104 -13.9358 -13.9358
   -13.9358 -13.9358 -13.7820 -13.7820 -13.7820 -13.7820 -13.7563 -13.7563
   -13.6928 -13.6928 -13.6928 -13.6928  -1.4510  -1.4510   2.1473   2.1473
     6.6407   6.6407   6.6407   6.6407   7.4717   7.4717  10.7156  10.7156
    10.7156  10.7156  13.2810  13.2810

     occupation numbers 
     1.0000   1.0000   1.0000   1.0000   1.0000   1.0000   1.0000   1.0000
     1.0000   1.0000   1.0000   1.0000   1.0000   1.0000   1.0000   1.0000
     1.0000   1.0000   1.0000   1.0000   1.0000   1.0000   1.0000   1.0000
     1.0000   1.0000   1.0000   1.0000   1.0000   1.0000   0.0000   0.0000
     0.0000   0.0000   0.0000   0.0000

          k = 0.3094 0.3094-0.3094 (  9075 PWs)   bands (ev):

   -14.0583 -14.0583 -14.0583 -14.0583 -14.0077 -14.0077 -13.9327 -13.9327
   -13.9327 -13.9327 -13.7843 -13.7843 -13.7843 -13.7843 -13.7593 -13.7593
   -13.6911 -13.6911 -13.6911 -13.6911  -1.1998  -1.1998   1.6848   1.6848
     6.5602   6.5602   6.5602   6.5602   7.4008   7.4008  10.7278  10.7278
    10.7278  10.7278  13.3156  13.3156

     occupation numbers 
     1.0000   1.0000   1.0000   1.0000   1.0000   1.0000   1.0000   1.0000
     1.0000   1.0000   1.0000   1.0000   1.0000   1.0000   1.0000   1.0000
     1.0000   1.0000   1.0000   1.0000   1.0000   1.0000   1.0000   1.0000
     1.0000   1.0000   1.0000   1.0000   1.0000   1.0000   0.0000   0.0000
     0.0000   0.0000   0.0000   0.0000

          k =-0.3536-0.3536 0.3536 (  9030 PWs)   bands (ev):

   -14.0588 -14.0588 -14.0588 -14.0588 -14.0068 -14.0068 -13.9317 -13.9317
   -13.9317 -13.9317 -13.7850 -13.7850 -13.7850 -13.7850 -13.7604 -13.7604
   -13.6906 -13.6906 -13.6906 -13.6906  -1.0937  -1.0937   1.5078   1.5078
     6.5331   6.5331   6.5331   6.5331   7.3767   7.3767  10.7280  10.7280
    10.7280  10.7280  13.2914  13.2914

     occupation numbers 
     1.0000   1.0000   1.0000   1.0000   1.0000   1.0000   1.0000   1.0000
     1.0000   1.0000   1.0000   1.0000   1.0000   1.0000   1.0000   1.0000
     1.0000   1.0000   1.0000   1.0000   1.0000   1.0000   1.0000   1.0000
     1.0000   1.0000   1.0000   1.0000   1.0000   1.0000   0.0000   0.0000
     0.0000   0.0000   0.0000   0.0000

          k = 0.0884 0.0000 0.0000 (  9169 PWs)   bands (ev):

   -14.0319 -14.0319 -14.0317 -14.0317 -14.0317 -14.0317 -13.9774 -13.9774
   -13.9730 -13.9730 -13.7523 -13.7523 -13.7337 -13.7337 -13.7311 -13.7311
   -13.7311 -13.7311 -13.7182 -13.7182  -2.5076  -2.5076   5.8566   5.8566
     7.4125   7.4125   7.4125   7.4125   8.0730   8.0730   9.5396   9.5396
     9.9486   9.9486   9.9486   9.9486

     occupation numbers 
     1.0000   1.0000   1.0000   1.0000   1.0000   1.0000   1.0000   1.0000
     1.0000   1.0000   1.0000   1.0000   1.0000   1.0000   1.0000   1.0000
     1.0000   1.0000   1.0000   1.0000   1.0000   1.0000   1.0000   1.0000
     1.0000   1.0000   1.0000   1.0000   0.0000   0.0000   0.0000   0.0000
     0.0000   0.0000   0.0000   0.0000

          k = 0.1326 0.0442-0.0442 (  9131 PWs)   bands (ev):

   -14.0380 -14.0380 -14.0354 -14.0354 -14.0294 -14.0294 -13.9722 -13.9722
   -13.9645 -13.9645 -13.7636 -13.7636 -13.7431 -13.7431 -13.7312 -13.7312
   -13.7220 -13.7220 -13.7114 -13.7114  -2.4269  -2.4269   5.2928   5.2928
     7.2045   7.2045   7.2357   7.2357   8.3256   8.3256   9.5392   9.5392
    10.2320  10.2320  10.3066  10.3066

     occupation numbers 
     1.0000   1.0000   1.0000   1.0000   1.0000   1.0000   1.0000   1.0000
     1.0000   1.0000   1.0000   1.0000   1.0000   1.0000   1.0000   1.0000
     1.0000   1.0000   1.0000   1.0000   1.0000   1.0000   1.0000   1.0000
     1.0000   1.0000   1.0000   1.0000   0.0000   0.0000   0.0000   0.0000
     0.0000   0.0000   0.0000   0.0000

          k = 0.1768 0.0884-0.0884 (  9109 PWs)   bands (ev):

   -14.0451 -14.0451 -14.0411 -14.0411 -14.0254 -14.0254 -13.9637 -13.9637
   -13.9541 -13.9541 -13.7742 -13.7742 -13.7532 -13.7532 -13.7350 -13.7350
   -13.7133 -13.7133 -13.7038 -13.7038  -2.2794  -2.2794   4.5392   4.5392
     6.9820   6.9820   7.0183   7.0183   8.3441   8.3441   9.7661   9.7661
    10.5382  10.5382  10.8606  10.8606

     occupation numbers 
     1.0000   1.0000   1.0000   1.0000   1.0000   1.0000   1.0000   1.0000
     1.0000   1.0000   1.0000   1.0000   1.0000   1.0000   1.0000   1.0000
     1.0000   1.0000   1.0000   1.0000   1.0000   1.0000   1.0000   1.0000
     1.0000   1.0000   1.0000   1.0000   0.0000   0.0000   0.0000   0.0000
     0.0000   0.0000   0.0000   0.0000

          k = 0.2210 0.1326-0.1326 (  9107 PWs)   bands (ev):

   -14.0517 -14.0517 -14.0468 -14.0468 -14.0200 -14.0200 -13.9544 -13.9544
   -13.9440 -13.9440 -13.7831 -13.7831 -13.7624 -13.7624 -13.7410 -13.7410
   -13.7060 -13.7060 -13.6971 -13.6971  -2.0699  -2.0699   3.7510   3.7510
     6.7777   6.7777   6.7817   6.7817   8.2296   8.2296  10.0782  10.0782
    10.7859  10.7859  11.5078  11.5078

     occupation numbers 
     1.0000   1.0000   1.0000   1.0000   1.0000   1.0000   1.0000   1.0000
     1.0000   1.0000   1.0000   1.0000   1.0000   1.0000   1.0000   1.0000
     1.0000   1.0000   1.0000   1.0000   1.0000   1.0000   1.0000   1.0000
     1.0000   1.0000   1.0000   1.0000   0.0000   0.0000   0.0000   0.0000
     0.0000   0.0000   0.0000   0.0000

          k = 0.2652 0.1768-0.1768 (  9106 PWs)   bands (ev):

   -14.0570 -14.0570 -14.0516 -14.0516 -14.0141 -14.0141 -13.9458 -13.9458
   -13.9358 -13.9358 -13.7893 -13.7893 -13.7705 -13.7705 -13.7481 -13.7481
   -13.7000 -13.7000 -13.6918 -13.6918  -1.8085  -1.8085   2.9974   2.9974
     6.5523   6.5523   6.6225   6.6225   8.0844   8.0844  10.3386  10.3386
    10.9240  10.9240  12.1885  12.1885

     occupation numbers 
     1.0000   1.0000   1.0000   1.0000   1.0000   1.0000   1.0000   1.0000
     1.0000   1.0000   1.0000   1.0000   1.0000   1.0000   1.0000   1.0000
     1.0000   1.0000   1.0000   1.0000   1.0000   1.0000   1.0000   1.0000
     1.0000   1.0000   1.0000   1.0000   0.0000   0.0000   0.0000   0.0000
     0.0000   0.0000   0.0000   0.0000

          k = 0.3094 0.2210-0.2210 (  9101 PWs)   bands (ev):

   -14.0606 -14.0606 -14.0553 -14.0553 -14.0084 -14.0084 -13.9387 -13.9387
   -13.9305 -13.9305 -13.7922 -13.7922 -13.7772 -13.7772 -13.7551 -13.7551
   -13.6954 -13.6954 -13.6882 -13.6882  -1.5168  -1.5168   2.3271   2.3271
     6.3639   6.3639   6.5141   6.5141   7.9549   7.9549  10.4978  10.4978
    10.9555  10.9555  12.8606  12.8606

     occupation numbers 
     1.0000   1.0000   1.0000   1.0000   1.0000   1.0000   1.0000   1.0000
     1.0000   1.0000   1.0000   1.0000   1.0000   1.0000   1.0000   1.0000
     1.0000   1.0000   1.0000   1.0000   1.0000   1.0000   1.0000   1.0000
     1.0000   1.0000   1.0000   1.0000   0.0000   0.0000   0.0000   0.0000
     0.0000   0.0000   0.0000   0.0000

          k = 0.3536 0.2652-0.2652 (  9086 PWs)   bands (ev):

   -14.0627 -14.0627 -14.0579 -14.0579 -14.0039 -14.0039 -13.9333 -13.9333
   -13.9284 -13.9284 -13.7919 -13.7919 -13.7826 -13.7826 -13.7612 -13.7612
   -13.6921 -13.6921 -13.6862 -13.6862  -1.2415  -1.2415   1.8013   1.8013
     6.2233   6.2233   6.4611   6.4611   7.8605   7.8605  10.5848  10.5848
    10.9219  10.9219  13.3025  13.3026

     occupation numbers 
     1.0000   1.0000   1.0000   1.0000   1.0000   1.0000   1.0000   1.0000
     1.0000   1.0000   1.0000   1.0000   1.0000   1.0000   1.0000   1.0000
     1.0000   1.0000   1.0000   1.0000   1.0000   1.0000   1.0000   1.0000
     1.0000   1.0000   1.0000   1.0000   0.0000   0.0000   0.0000   0.0000
     0.0000   0.0000   0.0000   0.0000

          k =-0.3094-0.3977 0.3977 (  9074 PWs)   bands (ev):

   -14.0633 -14.0633 -14.0595 -14.0595 -14.0014 -14.0014 -13.9296 -13.9296
   -13.9289 -13.9289 -13.7891 -13.7891 -13.7867 -13.7867 -13.7650 -13.7650
   -13.6898 -13.6898 -13.6859 -13.6859  -1.0740  -1.0740   1.5186   1.5186
     6.1365   6.1365   6.4648   6.4648   7.8095   7.8095  10.6457  10.6457
    10.8639  10.8640  13.4015  13.4015

     occupation numbers 
     1.0000   1.0000   1.0000   1.0000   1.0000   1.0000   1.0000   1.0000
     1.0000   1.0000   1.0000   1.0000   1.0000   1.0000   1.0000   1.0000
     1.0000   1.0000   1.0000   1.0000   1.0000   1.0000   1.0000   1.0000
     1.0000   1.0000   1.0000   1.0000   0.0000   0.0000   0.0000   0.0000
     0.0000   0.0000   0.0000   0.0000

          k =-0.2652-0.3536 0.3536 (  9078 PWs)   bands (ev):

   -14.0624 -14.0624 -14.0601 -14.0601 -14.0015 -14.0015 -13.9315 -13.9315
   -13.9279 -13.9279 -13.7894 -13.7894 -13.7850 -13.7850 -13.7655 -13.7655
   -13.6886 -13.6886 -13.6873 -13.6873  -1.1109  -1.1109   1.5788   1.5788
     6.1073   6.1073   6.5243   6.5243   7.8052   7.8052  10.7057  10.7057
    10.8016  10.8016  13.4140  13.4140

     occupation numbers 
     1.0000   1.0000   1.0000   1.0000   1.0000   1.0000   1.0000   1.0000
     1.0000   1.0000   1.0000   1.0000   1.0000   1.0000   1.0000   1.0000
     1.0000   1.0000   1.0000   1.0000   1.0000   1.0000   1.0000   1.0000
     1.0000   1.0000   1.0000   1.0000   0.0000   0.0000   0.0000   0.0000
     0.0000   0.0000   0.0000   0.0000

          k =-0.2210-0.3094 0.3094 (  9091 PWs)   bands (ev):

   -14.0602 -14.0602 -14.0597 -14.0597 -14.0042 -14.0042 -13.9357 -13.9357
   -13.9286 -13.9286 -13.7901 -13.7901 -13.7811 -13.7811 -13.7619 -13.7619
   -13.6902 -13.6902 -13.6888 -13.6888  -1.3274  -1.3274   1.9564   1.9564
     6.1378   6.1378   6.6364   6.6364   7.8468   7.8468  10.7310  10.7310
    10.7616  10.7616  13.2924  13.2924

     occupation numbers 
     1.0000   1.0000   1.0000   1.0000   1.0000   1.0000   1.0000   1.0000
     1.0000   1.0000   1.0000   1.0000   1.0000   1.0000   1.0000   1.0000
     1.0000   1.0000   1.0000   1.0000   1.0000   1.0000   1.0000   1.0000
     1.0000   1.0000   1.0000   1.0000   0.0000   0.0000   0.0000   0.0000
     0.0000   0.0000   0.0000   0.0000

          k =-0.1768-0.2652 0.2652 (  9106 PWs)   bands (ev):

   -14.0579 -14.0579 -14.0567 -14.0567 -14.0088 -14.0088 -13.9414 -13.9414
   -13.9324 -13.9324 -13.7881 -13.7881 -13.7770 -13.7770 -13.7552 -13.7552
   -13.6948 -13.6948 -13.6903 -13.6903  -1.6159  -1.6159   2.5391   2.5391
     6.2295   6.2295   6.7954   6.7954   7.9300   7.9300  10.6276  10.6276
    10.7793  10.7793  12.7127  12.7127

     occupation numbers 
     1.0000   1.0000   1.0000   1.0000   1.0000   1.0000   1.0000   1.0000
     1.0000   1.0000   1.0000   1.0000   1.0000   1.0000   1.0000   1.0000
     1.0000   1.0000   1.0000   1.0000   1.0000   1.0000   1.0000   1.0000
     1.0000   1.0000   1.0000   1.0000   0.0000   0.0000   0.0000   0.0000
     0.0000   0.0000   0.0000   0.0000

          k =-0.1326-0.2210 0.2210 (  9116 PWs)   bands (ev):

   -14.0546 -14.0546 -14.0518 -14.0518 -14.0146 -14.0146 -13.9485 -13.9485
   -13.9392 -13.9392 -13.7830 -13.7830 -13.7717 -13.7717 -13.7470 -13.7470
   -13.7009 -13.7009 -13.6935 -13.6935  -1.9009  -1.9009   3.2417   3.2417
     6.3830   6.3830   6.9915   6.9915   8.0426   8.0426  10.4602  10.4602
    10.6917  10.6917  11.9809  11.9809

     occupation numbers 
     1.0000   1.0000   1.0000   1.0000   1.0000   1.0000   1.0000   1.0000
     1.0000   1.0000   1.0000   1.0000   1.0000   1.0000   1.0000   1.0000
     1.0000   1.0000   1.0000   1.0000   1.0000   1.0000   1.0000   1.0000
     1.0000   1.0000   1.0000   1.0000   0.0000   0.0000   0.0000   0.0000
     0.0000   0.0000   0.0000   0.0000

          k =-0.0884-0.1768 0.1768 (  9112 PWs)   bands (ev):

   -14.0497 -14.0497 -14.0457 -14.0457 -14.0205 -14.0205 -13.9570 -13.9569
   -13.9486 -13.9486 -13.7751 -13.7751 -13.7647 -13.7647 -13.7390 -13.7390
   -13.7085 -13.7085 -13.6984 -13.6984  -2.1465  -2.1465   4.0094   4.0094
     6.5978   6.5978   7.2070   7.2070   8.1553   8.1553  10.2243  10.2243
    10.4368  10.4368  11.3238  11.3238

     occupation numbers 
     1.0000   1.0000   1.0000   1.0000   1.0000   1.0000   1.0000   1.0000
     1.0000   1.0000   1.0000   1.0000   1.0000   1.0000   1.0000   1.0000
     1.0000   1.0000   1.0000   1.0000   1.0000   1.0000   1.0000   1.0000
     1.0000   1.0000   1.0000   1.0000   0.0000   0.0000   0.0000   0.0000
     0.0000   0.0000   0.0000   0.0000

          k =-0.0442-0.1326 0.1326 (  9122 PWs)   bands (ev):

   -14.0437 -14.0437 -14.0391 -14.0391 -14.0256 -14.0256 -13.9658 -13.9658
   -13.9593 -13.9593 -13.7653 -13.7653 -13.7564 -13.7564 -13.7320 -13.7320
   -13.7174 -13.7174 -13.7050 -13.7050  -2.3361  -2.3361   4.7886   4.7886
     6.8734   6.8734   7.4093   7.4093   8.1986   8.1986   9.9700   9.9700
    10.0808  10.0808  10.7498  10.7498

     occupation numbers 
     1.0000   1.0000   1.0000   1.0000   1.0000   1.0000   1.0000   1.0000
     1.0000   1.0000   1.0000   1.0000   1.0000   1.0000   1.0000   1.0000
     1.0000   1.0000   1.0000   1.0000   1.0000   1.0000   1.0000   1.0000
     1.0000   1.0000   1.0000   1.0000   0.0000   0.0000   0.0000   0.0000
     0.0000   0.0000   0.0000   0.0000

          k = 0.0000-0.0884 0.0884 (  9153 PWs)   bands (ev):

   -14.0372 -14.0372 -14.0336 -14.0336 -14.0288 -14.0288 -13.9733 -13.9733
   -13.9694 -13.9694 -13.7543 -13.7543 -13.7476 -13.7476 -13.7285 -13.7285
   -13.7255 -13.7255 -13.7131 -13.7131  -2.4616  -2.4616   5.4915   5.4915
     7.2085   7.2085   7.5428   7.5428   8.0591   8.0591   9.7909   9.7909
     9.8323   9.8323  10.2259  10.2259

     occupation numbers 
     1.0000   1.0000   1.0000   1.0000   1.0000   1.0000   1.0000   1.0000
     1.0000   1.0000   1.0000   1.0000   1.0000   1.0000   1.0000   1.0000
     1.0000   1.0000   1.0000   1.0000   1.0000   1.0000   1.0000   1.0000
     1.0000   1.0000   0.7959   0.7959   0.0000   0.0000   0.0000   0.0000
     0.0000   0.0000   0.0000   0.0000

          k = 0.1768 0.0000 0.0000 (  9125 PWs)   bands (ev):

   -14.0368 -14.0368 -14.0368 -14.0368 -14.0348 -14.0348 -13.9702 -13.9702
   -13.9557 -13.9557 -13.7769 -13.7769 -13.7406 -13.7406 -13.7240 -13.7240
   -13.7240 -13.7240 -13.7102 -13.7102  -2.3689  -2.3689   5.0430   5.0430
     6.9818   6.9818   6.9818   6.9818   8.7945   8.7945   9.2204   9.2204
    10.5565  10.5565  10.5565  10.5565

     occupation numbers 
     1.0000   1.0000   1.0000   1.0000   1.0000   1.0000   1.0000   1.0000
     1.0000   1.0000   1.0000   1.0000   1.0000   1.0000   1.0000   1.0000
     1.0000   1.0000   1.0000   1.0000   1.0000   1.0000   1.0000   1.0000
     1.0000   1.0000   1.0000   1.0000   0.0000   0.0000   0.0000   0.0000
     0.0000   0.0000   0.0000   0.0000

          k = 0.2210 0.0442-0.0442 (  9123 PWs)   bands (ev):

   -14.0443 -14.0443 -14.0411 -14.0411 -14.0307 -14.0307 -13.9635 -13.9635
   -13.9446 -13.9446 -13.7897 -13.7897 -13.7484 -13.7484 -13.7243 -13.7243
   -13.7169 -13.7169 -13.7049 -13.7049  -2.2432  -2.2432   4.4998   4.4998
     6.7386   6.7386   6.7544   6.7544   8.9778   8.9778   9.2154   9.2154
    10.9036  10.9036  10.9863  10.9863

     occupation numbers 
     1.0000   1.0000   1.0000   1.0000   1.0000   1.0000   1.0000   1.0000
     1.0000   1.0000   1.0000   1.0000   1.0000   1.0000   1.0000   1.0000
     1.0000   1.0000   1.0000   1.0000   1.0000   1.0000   1.0000   1.0000
     1.0000   1.0000   1.0000   1.0000   0.0000   0.0000   0.0000   0.0000
     0.0000   0.0000   0.0000   0.0000

          k = 0.2652 0.0884-0.0884 (  9106 PWs)   bands (ev):

   -14.0525 -14.0525 -14.0464 -14.0464 -14.0236 -14.0236 -13.9547 -13.9547
   -13.9336 -13.9336 -13.8006 -13.8006 -13.7581 -13.7581 -13.7310 -13.7310
   -13.7089 -13.7089 -13.6968 -13.6968  -2.0535  -2.0535   3.8238   3.8238
     6.4582   6.4582   6.5551   6.5551   8.9048   8.9048   9.5085   9.5085
    11.1930  11.1930  11.4238  11.4238

     occupation numbers 
     1.0000   1.0000   1.0000   1.0000   1.0000   1.0000   1.0000   1.0000
     1.0000   1.0000   1.0000   1.0000   1.0000   1.0000   1.0000   1.0000
     1.0000   1.0000   1.0000   1.0000   1.0000   1.0000   1.0000   1.0000
     1.0000   1.0000   1.0000   1.0000   0.0000   0.0000   0.0000   0.0000
     0.0000   0.0000   0.0000   0.0000

          k = 0.3094 0.1326-0.1326 (  9109 PWs)   bands (ev):

   -14.0599 -14.0599 -14.0514 -14.0514 -14.0150 -14.0150 -13.9456 -13.9456
   -13.9245 -13.9245 -13.8085 -13.8085 -13.7676 -13.7676 -13.7405 -13.7405
   -13.7018 -13.7018 -13.6891 -13.6891  -1.8077  -1.8077   3.1221   3.1221
     6.1749   6.1749   6.4017   6.4017   8.7632   8.7632   9.8922   9.8922
    11.3619  11.3619  11.7490  11.7490

     occupation numbers 
     1.0000   1.0000   1.0000   1.0000   1.0000   1.0000   1.0000   1.0000
     1.0000   1.0000   1.0000   1.0000   1.0000   1.0000   1.0000   1.0000
     1.0000   1.0000   1.0000   1.0000   1.0000   1.0000   1.0000   1.0000
     1.0000   1.0000   1.0000   1.0000   0.0000   0.0000   0.0000   0.0000
     0.0000   0.0000   0.0000   0.0000

          k = 0.3536 0.1768-0.1768 (  9103 PWs)   bands (ev):

   -14.0657 -14.0657 -14.0556 -14.0556 -14.0058 -14.0058 -13.9371 -13.9371
   -13.9188 -13.9188 -13.8122 -13.8122 -13.7765 -13.7765 -13.7510 -13.7510
   -13.6959 -13.6959 -13.6829 -13.6829  -1.5220  -1.5220   2.4612   2.4612
     5.9236   5.9236   6.3035   6.3035   8.6200   8.6200  10.2175  10.2175
    11.3986  11.3986  12.1103  12.1103

     occupation numbers 
     1.0000   1.0000   1.0000   1.0000   1.0000   1.0000   1.0000   1.0000
     1.0000   1.0000   1.0000   1.0000   1.0000   1.0000   1.0000   1.0000
     1.0000   1.0000   1.0000   1.0000   1.0000   1.0000   1.0000   1.0000
     1.0000   1.0000   1.0000   1.0000   0.0000   0.0000   0.0000   0.0000
     0.0000   0.0000   0.0000   0.0000

          k = 0.3977 0.2210-0.2210 (  9085 PWs)   bands (ev):

   -14.0697 -14.0697 -14.0590 -14.0590 -13.9975 -13.9975 -13.9297 -13.9297
   -13.9172 -13.9172 -13.8111 -13.8111 -13.7846 -13.7846 -13.7612 -13.7612
   -13.6911 -13.6911 -13.6787 -13.6787  -1.2321  -1.2321   1.9033   1.9033
     5.7223   5.7223   6.2649   6.2649   8.5035   8.5035  10.4176  10.4176
    11.3428  11.3428  12.6302  12.6302

     occupation numbers 
     1.0000   1.0000   1.0000   1.0000   1.0000   1.0000   1.0000   1.0000
     1.0000   1.0000   1.0000   1.0000   1.0000   1.0000   1.0000   1.0000
     1.0000   1.0000   1.0000   1.0000   1.0000   1.0000   1.0000   1.0000
     1.0000   1.0000   1.0000   1.0000   0.0000   0.0000   0.0000   0.0000
     0.0000   0.0000   0.0000   0.0000

          k =-0.2652-0.4419 0.4419 (  9073 PWs)   bands (ev):

   -14.0717 -14.0717 -14.0614 -14.0614 -13.9915 -13.9915 -13.9237 -13.9237
   -13.9195 -13.9195 -13.8053 -13.8053 -13.7917 -13.7917 -13.7696 -13.7696
   -13.6876 -13.6876 -13.6769 -13.6769  -1.0140  -1.0140   1.5382   1.5382
     5.5802   5.5802   6.2870   6.2870   8.4266   8.4266  10.5378  10.5378
    11.2430  11.2430  13.2014  13.2014

     occupation numbers 
     1.0000   1.0000   1.0000   1.0000   1.0000   1.0000   1.0000   1.0000
     1.0000   1.0000   1.0000   1.0000   1.0000   1.0000   1.0000   1.0000
     1.0000   1.0000   1.0000   1.0000   1.0000   1.0000   1.0000   1.0000
     1.0000   1.0000   1.0000   1.0000   0.0000   0.0000   0.0000   0.0000
     0.0000   0.0000   0.0000   0.0000

          k =-0.2210-0.3977 0.3977 (  9078 PWs)   bands (ev):

   -14.0715 -14.0715 -14.0628 -14.0628 -13.9888 -13.9888 -13.9246 -13.9246
   -13.9195 -13.9195 -13.7974 -13.7974 -13.7961 -13.7961 -13.7753 -13.7753
   -13.6853 -13.6853 -13.6775 -13.6775  -0.9787  -0.9787   1.4830   1.4830
     5.5032   5.5032   6.3680   6.3680   8.3939   8.3939  10.6379  10.6379
    11.1273  11.1273  13.5097  13.5097

     occupation numbers 
     1.0000   1.0000   1.0000   1.0000   1.0000   1.0000   1.0000   1.0000
     1.0000   1.0000   1.0000   1.0000   1.0000   1.0000   1.0000   1.0000
     1.0000   1.0000   1.0000   1.0000   1.0000   1.0000   1.0000   1.0000
     1.0000   1.0000   1.0000   1.0000   0.0000   0.0000   0.0000   0.0000
     0.0000   0.0000   0.0000   0.0000

          k =-0.1768-0.3536 0.3536 (  9069 PWs)   bands (ev):

   -14.0693 -14.0693 -14.0631 -14.0631 -13.9904 -13.9904 -13.9309 -13.9309
   -13.9181 -13.9181 -13.8005 -13.8005 -13.7854 -13.7854 -13.7767 -13.7767
   -13.6844 -13.6844 -13.6806 -13.6806  -1.1505  -1.1505   1.7622   1.7622
     5.4968   5.4968   6.5034   6.5034   8.4045   8.4045  10.7397  10.7397
    10.9987  10.9987  13.2501  13.2501

     occupation numbers 
     1.0000   1.0000   1.0000   1.0000   1.0000   1.0000   1.0000   1.0000
     1.0000   1.0000   1.0000   1.0000   1.0000   1.0000   1.0000   1.0000
     1.0000   1.0000   1.0000   1.0000   1.0000   1.0000   1.0000   1.0000
     1.0000   1.0000   1.0000   1.0000   0.0000   0.0000   0.0000   0.0000
     0.0000   0.0000   0.0000   0.0000

          k =-0.1326-0.3094 0.3094 (  9093 PWs)   bands (ev):

   -14.0651 -14.0651 -14.0621 -14.0621 -13.9959 -13.9959 -13.9378 -13.9378
   -13.9205 -13.9205 -13.8000 -13.8000 -13.7803 -13.7803 -13.7679 -13.7679
   -13.6862 -13.6862 -13.6850 -13.6850  -1.4282  -1.4282   2.2689   2.2689
     5.5675   5.5675   6.6849   6.6849   8.4509   8.4509  10.8205  10.8205
    10.8389  10.8389  12.5951  12.5952

     occupation numbers 
     1.0000   1.0000   1.0000   1.0000   1.0000   1.0000   1.0000   1.0000
     1.0000   1.0000   1.0000   1.0000   1.0000   1.0000   1.0000   1.0000
     1.0000   1.0000   1.0000   1.0000   1.0000   1.0000   1.0000   1.0000
     1.0000   1.0000   1.0000   1.0000   0.0000   0.0000   0.0000   0.0000
     0.0000   0.0000   0.0000   0.0000

          k =-0.0884-0.2652 0.2652 (  9105 PWs)   bands (ev):

   -14.0596 -14.0596 -14.0592 -14.0592 -14.0041 -14.0041 -13.9448 -13.9448
   -13.9270 -13.9270 -13.7955 -13.7955 -13.7769 -13.7769 -13.7546 -13.7546
   -13.6941 -13.6941 -13.6874 -13.6874  -1.7203  -1.7203   2.8968   2.8968
     5.7246   5.7246   6.8988   6.8988   8.5146   8.5146  10.6243  10.6243
    10.7881  10.7881  11.9841  11.9841

     occupation numbers 
     1.0000   1.0000   1.0000   1.0000   1.0000   1.0000   1.0000   1.0000
     1.0000   1.0000   1.0000   1.0000   1.0000   1.0000   1.0000   1.0000
     1.0000   1.0000   1.0000   1.0000   1.0000   1.0000   1.0000   1.0000
     1.0000   1.0000   1.0000   1.0000   0.0000   0.0000   0.0000   0.0000
     0.0000   0.0000   0.0000   0.0000

          k =-0.0442-0.2210 0.2210 (  9101 PWs)   bands (ev):

   -14.0554 -14.0554 -14.0519 -14.0519 -14.0130 -14.0130 -13.9522 -13.9522
   -13.9367 -13.9367 -13.7874 -13.7874 -13.7715 -13.7715 -13.7419 -13.7419
   -13.7038 -13.7038 -13.6916 -13.6916  -1.9810  -1.9810   3.5727   3.5727
     5.9830   5.9830   7.1213   7.1213   8.5510   8.5510  10.3613  10.3613
    10.5292  10.5292  11.5981  11.5981

     occupation numbers 
     1.0000   1.0000   1.0000   1.0000   1.0000   1.0000   1.0000   1.0000
     1.0000   1.0000   1.0000   1.0000   1.0000   1.0000   1.0000   1.0000
     1.0000   1.0000   1.0000   1.0000   1.0000   1.0000   1.0000   1.0000
     1.0000   1.0000   1.0000   1.0000   0.0000   0.0000   0.0000   0.0000
     0.0000   0.0000   0.0000   0.0000

          k = 0.0000-0.1768 0.1768 (  9107 PWs)   bands (ev):

   -14.0499 -14.0499 -14.0444 -14.0444 -14.0209 -14.0209 -13.9596 -13.9596
   -13.9481 -13.9481 -13.7769 -13.7769 -13.7644 -13.7644 -13.7319 -13.7319
   -13.7141 -13.7141 -13.6976 -13.6976  -2.1895  -2.1895   4.2284   4.2284
     6.3635   6.3635   7.3114   7.3114   8.4699   8.4699  10.1110  10.1110
[...]

     occupation numbers 
     1.0000   1.0000   1.0000   1.0000   1.0000   1.0000   1.0000   1.0000
     1.0000   1.0000   1.0000   1.0000   1.0000   1.0000   1.0000   1.0000
     1.0000   1.0000   1.0000   1.0000   1.0000   1.0000   1.0000   1.0000
     1.0000   1.0000   1.0000   1.0000   0.0000   0.0000   0.0000   0.0000
     0.0000   0.0000   0.0000   0.0000

          k =-0.1326-0.3977 0.5745 (  9092 PWs)   bands (ev):

   -14.0856 -14.0856 -14.0729 -14.0729 -13.9596 -13.9596 -13.8981 -13.8981
   -13.8779 -13.8779 -13.8562 -13.8562 -13.8209 -13.8209 -13.7904 -13.7904
   -13.6737 -13.6737 -13.6612 -13.6612  -0.5082  -0.5082   1.1417   1.1417
     4.6664   4.6664   5.6278   5.6278   9.4782   9.4782  10.7234  10.7234
    12.0045  12.0045  12.6877  12.6877

     occupation numbers 
     1.0000   1.0000   1.0000   1.0000   1.0000   1.0000   1.0000   1.0000
     1.0000   1.0000   1.0000   1.0000   1.0000   1.0000   1.0000   1.0000
     1.0000   1.0000   1.0000   1.0000   1.0000   1.0000   1.0000   1.0000
     1.0000   1.0000   1.0000   1.0000   0.0000   0.0000   0.0000   0.0000
     0.0000   0.0000   0.0000   0.0000

          k =-0.0884-0.3536 0.5303 (  9078 PWs)   bands (ev):

   -14.0855 -14.0855 -14.0729 -14.0729 -13.9591 -13.9591 -13.9011 -13.9011
   -13.8792 -13.8792 -13.8520 -13.8520 -13.8204 -13.8204 -13.7914 -13.7914
   -13.6735 -13.6735 -13.6615 -13.6615  -0.5627  -0.5627   1.2109   1.2109
     4.6333   4.6333   5.6970   5.6970   9.5230   9.5230  10.7157  10.7157
    12.0678  12.0678  12.6488  12.6488

     occupation numbers 
     1.0000   1.0000   1.0000   1.0000   1.0000   1.0000   1.0000   1.0000
     1.0000   1.0000   1.0000   1.0000   1.0000   1.0000   1.0000   1.0000
     1.0000   1.0000   1.0000   1.0000   1.0000   1.0000   1.0000   1.0000
     1.0000   1.0000   1.0000   1.0000   0.0000   0.0000   0.0000   0.0000
     0.0000   0.0000   0.0000   0.0000

          k =-0.0442-0.3094 0.4861 (  9093 PWs)   bands (ev):

   -14.0822 -14.0822 -14.0719 -14.0719 -13.9661 -13.9661 -13.9114 -13.9114
   -13.8815 -13.8815 -13.8495 -13.8495 -13.8074 -13.8074 -13.7872 -13.7872
   -13.6746 -13.6746 -13.6656 -13.6656  -0.8062  -0.8062   1.5302   1.5302
     4.7046   4.7046   5.8396   5.8396   9.5746   9.5746  10.5991  10.5991
    11.4912  11.4912  12.8742  12.8742

     occupation numbers 
     1.0000   1.0000   1.0000   1.0000   1.0000   1.0000   1.0000   1.0000
     1.0000   1.0000   1.0000   1.0000   1.0000   1.0000   1.0000   1.0000
     1.0000   1.0000   1.0000   1.0000   1.0000   1.0000   1.0000   1.0000
     1.0000   1.0000   1.0000   1.0000   0.0000   0.0000   0.0000   0.0000
     0.0000   0.0000   0.0000   0.0000

          k = 0.0000-0.2652 0.4419 (  9101 PWs)   bands (ev):

   -14.0761 -14.0761 -14.0695 -14.0695 -13.9789 -13.9789 -13.9221 -13.9221
   -13.8891 -13.8891 -13.8435 -13.8435 -13.7923 -13.7923 -13.7769 -13.7769
   -13.6773 -13.6773 -13.6731 -13.6731  -1.1041  -1.1041   1.9494   1.9494
     4.8996   4.8996   6.0301   6.0301   9.5737   9.5737  10.2439  10.2439
    11.3154  11.3154  12.6481  12.6481

     occupation numbers 
     1.0000   1.0000   1.0000   1.0000   1.0000   1.0000   1.0000   1.0000
     1.0000   1.0000   1.0000   1.0000   1.0000   1.0000   1.0000   1.0000
     1.0000   1.0000   1.0000   1.0000   1.0000   1.0000   1.0000   1.0000
     1.0000   1.0000   1.0000   1.0000   0.0000   0.0000   0.0000   0.0000
     0.0000   0.0000   0.0000   0.0000

          k =-0.1768-0.5303 0.7071 (  9105 PWs)   bands (ev):

   -14.0743 -14.0743 -14.0725 -14.0725 -13.9822 -13.9822 -13.9025 -13.9025
   -13.8846 -13.8846 -13.8583 -13.8583 -13.8086 -13.8086 -13.7661 -13.7661
   -13.6746 -13.6746 -13.6735 -13.6735  -0.8129  -0.8129   1.5678   1.5678
     5.0700   5.0700   5.5007   5.5007   9.2217   9.2217   9.5765   9.5765
    12.0014  12.0014  13.6086  13.6086

     occupation numbers 
     1.0000   1.0000   1.0000   1.0000   1.0000   1.0000   1.0000   1.0000
     1.0000   1.0000   1.0000   1.0000   1.0000   1.0000   1.0000   1.0000
     1.0000   1.0000   1.0000   1.0000   1.0000   1.0000   1.0000   1.0000
     1.0000   1.0000   1.0000   1.0000   0.0000   0.0000   0.0000   0.0000
     0.0000   0.0000   0.0000   0.0000

          k =-0.1326-0.4861 0.6629 (  9092 PWs)   bands (ev):

   -14.0810 -14.0810 -14.0748 -14.0748 -13.9649 -13.9649 -13.8925 -13.8925
   -13.8892 -13.8892 -13.8521 -13.8521 -13.8209 -13.8209 -13.7833 -13.7833
   -13.6718 -13.6718 -13.6657 -13.6657  -0.5092  -0.5092   1.1838   1.1838
     4.8402   4.8402   5.3791   5.3791   9.3873   9.3873  10.0521  10.0521
    11.8270  11.8270  13.5621  13.5621

     occupation numbers 
     1.0000   1.0000   1.0000   1.0000   1.0000   1.0000   1.0000   1.0000
     1.0000   1.0000   1.0000   1.0000   1.0000   1.0000   1.0000   1.0000
     1.0000   1.0000   1.0000   1.0000   1.0000   1.0000   1.0000   1.0000
     1.0000   1.0000   1.0000   1.0000   0.0000   0.0000   0.0000   0.0000
     0.0000   0.0000   0.0000   0.0000

          k =-0.0884-0.4419 0.6187 (  9076 PWs)   bands (ev):

   -14.0860 -14.0860 -14.0758 -14.0758 -13.9523 -13.9523 -13.8888 -13.8888
   -13.8810 -13.8810 -13.8541 -13.8541 -13.8321 -13.8321 -13.7950 -13.7950
   -13.6704 -13.6704 -13.6602 -13.6602  -0.2715  -0.2715   0.9083   0.9083
     4.6423   4.6423   5.3697   5.3697   9.4421   9.4421  10.7795  10.7795
    11.7243  11.7243  12.9848  12.9848

     occupation numbers 
     1.0000   1.0000   1.0000   1.0000   1.0000   1.0000   1.0000   1.0000
     1.0000   1.0000   1.0000   1.0000   1.0000   1.0000   1.0000   1.0000
     1.0000   1.0000   1.0000   1.0000   1.0000   1.0000   1.0000   1.0000
     1.0000   1.0000   1.0000   1.0000   0.0000   0.0000   0.0000   0.0000
     0.0000   0.0000   0.0000   0.0000

          k =-0.0442-0.3977 0.5745 (  9080 PWs)   bands (ev):

   -14.0880 -14.0880 -14.0758 -14.0758 -13.9491 -13.9491 -13.8849 -13.8849
   -13.8731 -13.8731 -13.8619 -13.8619 -13.8366 -13.8366 -13.7978 -13.7978
   -13.6702 -13.6702 -13.6584 -13.6584  -0.2735  -0.2735   0.9132   0.9132
     4.5296   4.5296   5.4587   5.4587   9.5187   9.5187  11.2486  11.2486
    11.9401  11.9401  12.2572  12.2572

     occupation numbers 
     1.0000   1.0000   1.0000   1.0000   1.0000   1.0000   1.0000   1.0000
     1.0000   1.0000   1.0000   1.0000   1.0000   1.0000   1.0000   1.0000
     1.0000   1.0000   1.0000   1.0000   1.0000   1.0000   1.0000   1.0000
     1.0000   1.0000   1.0000   1.0000   0.0000   0.0000   0.0000   0.0000
     0.0000   0.0000   0.0000   0.0000

          k = 0.0000-0.3536 0.5303 (  9084 PWs)   bands (ev):

   -14.0865 -14.0865 -14.0746 -14.0746 -13.9544 -13.9544 -13.8968 -13.8968
   -13.8695 -13.8695 -13.8621 -13.8621 -13.8262 -13.8262 -13.7944 -13.7944
   -13.6715 -13.6715 -13.6603 -13.6603  -0.5088  -0.5088   1.1822   1.1822
     4.5420   4.5420   5.6243   5.6243   9.5964   9.5964  11.1068  11.1068
    11.5640  11.5640  12.7405  12.7405

     occupation numbers 
     1.0000   1.0000   1.0000   1.0000   1.0000   1.0000   1.0000   1.0000
     1.0000   1.0000   1.0000   1.0000   1.0000   1.0000   1.0000   1.0000
     1.0000   1.0000   1.0000   1.0000   1.0000   1.0000   1.0000   1.0000
     1.0000   1.0000   1.0000   1.0000   0.0000   0.0000   0.0000   0.0000
     0.0000   0.0000   0.0000   0.0000

          k =-0.0884-0.5303 0.7071 (  9081 PWs)   bands (ev):

   -14.0778 -14.0778 -14.0766 -14.0766 -13.9630 -13.9630 -13.9132 -13.9132
   -13.8796 -13.8796 -13.8317 -13.8317 -13.8314 -13.8314 -13.7842 -13.7842
   -13.6696 -13.6696 -13.6685 -13.6685  -0.2868  -0.2868   0.9164   0.9164
     4.9964   4.9964   5.2106   5.2106   9.1900   9.1900   9.3980   9.3980
    12.6750  12.6750  13.8977  13.8977

     occupation numbers 
     1.0000   1.0000   1.0000   1.0000   1.0000   1.0000   1.0000   1.0000
     1.0000   1.0000   1.0000   1.0000   1.0000   1.0000   1.0000   1.0000
     1.0000   1.0000   1.0000   1.0000   1.0000   1.0000   1.0000   1.0000
     1.0000   1.0000   1.0000   1.0000   0.0000   0.0000   0.0000   0.0000
     0.0000   0.0000   0.0000   0.0000

          k =-0.0442-0.4861 0.6629 (  9084 PWs)   bands (ev):

   -14.0834 -14.0834 -14.0776 -14.0776 -13.9462 -13.9462 -13.9141 -13.9141
   -13.8691 -13.8691 -13.8441 -13.8441 -13.8298 -13.8298 -13.8001 -13.8001
   -13.6682 -13.6682 -13.6625 -13.6625  -0.0033  -0.0033   0.6165   0.6165
     4.7864   4.7864   5.1692   5.1692   9.3349   9.3349  10.0002  10.0002
    12.4926  12.4926  13.2024  13.2024

     occupation numbers 
     1.0000   1.0000   1.0000   1.0000   1.0000   1.0000   1.0000   1.0000
     1.0000   1.0000   1.0000   1.0000   1.0000   1.0000   1.0000   1.0000
     1.0000   1.0000   1.0000   1.0000   1.0000   1.0000   1.0000   1.0000
     1.0000   1.0000   1.0000   1.0000   0.0000   0.0000   0.0000   0.0000
     0.0000   0.0000   0.0000   0.0000

          k = 0.0000-0.4419 0.6187 (  9074 PWs)   bands (ev):

   -14.0872 -14.0872 -14.0773 -14.0773 -13.9433 -13.9433 -13.8981 -13.8981
   -13.8683 -13.8683 -13.8483 -13.8483 -13.8430 -13.8430 -13.8024 -13.8024
   -13.6685 -13.6685 -13.6587 -13.6587  -0.0056  -0.0056   0.6279   0.6279
     4.5934   4.5934   5.2739   5.2739   9.4220   9.4220  10.8186  10.8186
    12.3346  12.3346  12.3454  12.3454

     occupation numbers 
     1.0000   1.0000   1.0000   1.0000   1.0000   1.0000   1.0000   1.0000
     1.0000   1.0000   1.0000   1.0000   1.0000   1.0000   1.0000   1.0000
     1.0000   1.0000   1.0000   1.0000   1.0000   1.0000   1.0000   1.0000
     1.0000   1.0000   1.0000   1.0000   0.0000   0.0000   0.0000   0.0000
     0.0000   0.0000   0.0000   0.0000

          k =-0.7071 0.1768 0.0000 (  9068 PWs)   bands (ev):

   -14.0785 -14.0785 -14.0785 -14.0785 -13.9397 -13.9397 -13.9397 -13.9397
   -13.8555 -13.8555 -13.8555 -13.8555 -13.8066 -13.8066 -13.8066 -13.8066
   -13.6673 -13.6673 -13.6673 -13.6673   0.2938   0.2938   0.2938   0.2938
     5.0421   5.0421   5.0421   5.0421   9.2531   9.2531   9.2531   9.2531
    13.3969  13.3969  13.3969  13.3969

     occupation numbers 
     1.0000   1.0000   1.0000   1.0000   1.0000   1.0000   1.0000   1.0000
     1.0000   1.0000   1.0000   1.0000   1.0000   1.0000   1.0000   1.0000
     1.0000   1.0000   1.0000   1.0000   1.0000   1.0000   1.0000   1.0000
     1.0000   1.0000   1.0000   1.0000   0.0000   0.0000   0.0000   0.0000
     0.0000   0.0000   0.0000   0.0000

          k =-0.1768-0.4419 0.7071 (  9092 PWs)   bands (ev):

   -14.0812 -14.0812 -14.0749 -14.0749 -13.9644 -13.9644 -13.9029 -13.9029
   -13.8709 -13.8709 -13.8663 -13.8663 -13.8126 -13.8126 -13.7858 -13.7858
   -13.6716 -13.6716 -13.6662 -13.6662  -0.6793  -0.6793   1.3950   1.3950
     4.7613   4.7613   5.5370   5.5370   9.9741   9.9741  10.1073  10.1073
    11.2685  11.2685  13.3380  13.3380

     occupation numbers 
     1.0000   1.0000   1.0000   1.0000   1.0000   1.0000   1.0000   1.0000
     1.0000   1.0000   1.0000   1.0000   1.0000   1.0000   1.0000   1.0000
     1.0000   1.0000   1.0000   1.0000   1.0000   1.0000   1.0000   1.0000
     1.0000   1.0000   1.0000   1.0000   0.0000   0.0000   0.0000   0.0000
     0.0000   0.0000   0.0000   0.0000

          k =-0.1326-0.3977 0.6629 (  9089 PWs)   bands (ev):

   -14.0854 -14.0854 -14.0770 -14.0770 -13.9507 -13.9507 -13.8926 -13.8926
   -13.8759 -13.8759 -13.8600 -13.8600 -13.8269 -13.8269 -13.7971 -13.7971
   -13.6692 -13.6692 -13.6611 -13.6611  -0.3960  -0.3960   1.0561   1.0561
     4.6339   4.6339   5.3815   5.3815   9.9998   9.9998  10.6007  10.6007
    11.3797  11.3797  12.8711  12.8711

     occupation numbers 
     1.0000   1.0000   1.0000   1.0000   1.0000   1.0000   1.0000   1.0000
     1.0000   1.0000   1.0000   1.0000   1.0000   1.0000   1.0000   1.0000
     1.0000   1.0000   1.0000   1.0000   1.0000   1.0000   1.0000   1.0000
     1.0000   1.0000   1.0000   1.0000   0.0000   0.0000   0.0000   0.0000
     0.0000   0.0000   0.0000   0.0000

          k =-0.0884-0.3536 0.6187 (  9086 PWs)   bands (ev):

   -14.0870 -14.0870 -14.0776 -14.0776 -13.9454 -13.9454 -13.8888 -13.8888
   -13.8738 -13.8738 -13.8607 -13.8607 -13.8334 -13.8334 -13.8012 -13.8012
   -13.6685 -13.6685 -13.6592 -13.6592  -0.2582  -0.2582   0.8987   0.8987
     4.5935   4.5935   5.3247   5.3247   9.9993   9.9993  10.7263  10.7263
    11.9007  11.9007  12.1926  12.1926

     occupation numbers 
     1.0000   1.0000   1.0000   1.0000   1.0000   1.0000   1.0000   1.0000
     1.0000   1.0000   1.0000   1.0000   1.0000   1.0000   1.0000   1.0000
     1.0000   1.0000   1.0000   1.0000   1.0000   1.0000   1.0000   1.0000
     1.0000   1.0000   1.0000   1.0000   0.0000   0.0000   0.0000   0.0000
     0.0000   0.0000   0.0000   0.0000

          k =-0.0884-0.4419 0.7071 (  9096 PWs)   bands (ev):

   -14.0834 -14.0834 -14.0797 -14.0797 -13.9458 -13.9458 -13.8980 -13.8980
   -13.8812 -13.8812 -13.8427 -13.8427 -13.8349 -13.8349 -13.8007 -13.8007
   -13.6663 -13.6663 -13.6628 -13.6628  -0.2035  -0.2035   0.8462   0.8462
     4.7515   4.7515   5.1431   5.1431  10.0485  10.0485  10.0904  10.0904
    11.6478  11.6478  13.0400  13.0400

     occupation numbers 
     1.0000   1.0000   1.0000   1.0000   1.0000   1.0000   1.0000   1.0000
     1.0000   1.0000   1.0000   1.0000   1.0000   1.0000   1.0000   1.0000
     1.0000   1.0000   1.0000   1.0000   1.0000   1.0000   1.0000   1.0000
     1.0000   1.0000   1.0000   1.0000   0.0000   0.0000   0.0000   0.0000
     0.0000   0.0000   0.0000   0.0000

          k =-0.0442-0.3977 0.6629 (  9069 PWs)   bands (ev):

   -14.0862 -14.0862 -14.0809 -14.0809 -13.9333 -13.9333 -13.8996 -13.8996
   -13.8722 -13.8722 -13.8482 -13.8482 -13.8391 -13.8391 -13.8110 -13.8110
   -13.6649 -13.6649 -13.6598 -13.6598   0.0162   0.0162   0.6170   0.6170
     4.6700   4.6700   5.0628   5.0628  10.1276  10.1276  10.7995  10.7995
    11.5680  11.5680  12.1831  12.1831

     occupation numbers 
     1.0000   1.0000   1.0000   1.0000   1.0000   1.0000   1.0000   1.0000
     1.0000   1.0000   1.0000   1.0000   1.0000   1.0000   1.0000   1.0000
     1.0000   1.0000   1.0000   1.0000   1.0000   1.0000   1.0000   1.0000
     1.0000   1.0000   1.0000   1.0000   0.0000   0.0000   0.0000   0.0000
     0.0000   0.0000   0.0000   0.0000

          k =-0.0000-0.3536 0.6187 (  9088 PWs)   bands (ev):

   -14.0870 -14.0870 -14.0799 -14.0799 -13.9371 -13.9371 -13.8894 -13.8894
   -13.8785 -13.8785 -13.8477 -13.8477 -13.8430 -13.8430 -13.8076 -13.8076
   -13.6660 -13.6660 -13.6591 -13.6591  -0.1057  -0.1057   0.7469   0.7469
     4.6046   4.6046   5.1668   5.1668  10.1777  10.1777  10.9811  10.9811
    11.4574  11.4574  12.0877  12.0877

     occupation numbers 
     1.0000   1.0000   1.0000   1.0000   1.0000   1.0000   1.0000   1.0000
     1.0000   1.0000   1.0000   1.0000   1.0000   1.0000   1.0000   1.0000
     1.0000   1.0000   1.0000   1.0000   1.0000   1.0000   1.0000   1.0000
     1.0000   1.0000   1.0000   1.0000   0.0000   0.0000   0.0000   0.0000
     0.0000   0.0000   0.0000   0.0000

          k =-0.7071 0.2652 0.0000 (  9078 PWs)   bands (ev):

   -14.0828 -14.0828 -14.0828 -14.0828 -13.9233 -13.9233 -13.9233 -13.9233
   -13.8581 -13.8581 -13.8581 -13.8581 -13.8203 -13.8203 -13.8203 -13.8203
   -13.6630 -13.6630 -13.6630 -13.6630   0.3096   0.3096   0.3096   0.3096
     4.8781   4.8781   4.8781   4.8781  10.0593  10.0593  10.0593  10.0593
    12.3166  12.3166  12.3166  12.3166

     occupation numbers 
     1.0000   1.0000   1.0000   1.0000   1.0000   1.0000   1.0000   1.0000
     1.0000   1.0000   1.0000   1.0000   1.0000   1.0000   1.0000   1.0000
     1.0000   1.0000   1.0000   1.0000   1.0000   1.0000   1.0000   1.0000
     1.0000   1.0000   1.0000   1.0000   0.0000   0.0000   0.0000   0.0000
     0.0000   0.0000   0.0000   0.0000

          k =-0.7071 0.3536 0.0000 (  9076 PWs)   bands (ev):

   -14.0845 -14.0845 -14.0845 -14.0845 -13.9150 -13.9150 -13.9150 -13.9150
   -13.8605 -13.8605 -13.8605 -13.8605 -13.8261 -13.8261 -13.8261 -13.8261
   -13.6613 -13.6613 -13.6613 -13.6613   0.3163   0.3163   0.3163   0.3163
     4.8159   4.8159   4.8159   4.8159  10.7239  10.7239  10.7239  10.7239
    11.5555  11.5555  11.5555  11.5555

     occupation numbers 
     1.0000   1.0000   1.0000   1.0000   1.0000   1.0000   1.0000   1.0000
     1.0000   1.0000   1.0000   1.0000   1.0000   1.0000   1.0000   1.0000
     1.0000   1.0000   1.0000   1.0000   1.0000   1.0000   1.0000   1.0000
     1.0000   1.0000   1.0000   1.0000   0.0000   0.0000   0.0000   0.0000
     0.0000   0.0000   0.0000   0.0000

     the Fermi energy is     7.5436 ev

!    total energy              =    -884.12575835 Ry
     Harris-Foulkes estimate   =    -884.12575832 Ry
     estimated scf accuracy    <       0.00000044 Ry

     total all-electron energy =    -24709.381362 Ry

     The total energy is the sum of the following terms:

     one-electron contribution =    -155.39363811 Ry
     hartree contribution      =      78.93636624 Ry
     xc contribution           =     -54.76803235 Ry
     ewald contribution        =    -167.52979533 Ry
     one-center paw contrib.   =    -585.37065864 Ry
     smearing contrib. (-TS)   =      -0.00000015 Ry

     convergence has been achieved in   5 iterations

     Writing output data file Sn.save
 
     init_run     :      9.23s CPU     10.88s WALL (       1 calls)
     electrons    :    203.17s CPU    236.05s WALL (       1 calls)

     Called by init_run:
     wfcinit      :      8.88s CPU     10.44s WALL (       1 calls)
     potinit      :      0.11s CPU      0.13s WALL (       1 calls)

     Called by electrons:
     c_bands      :    177.54s CPU    206.02s WALL (       6 calls)
     sum_band     :     25.07s CPU     29.29s WALL (       6 calls)
     v_of_rho     :      0.08s CPU      0.10s WALL (       6 calls)
     v_h          :      0.00s CPU      0.01s WALL (       6 calls)
     v_xc         :      0.07s CPU      0.09s WALL (       6 calls)
     newd         :      0.11s CPU      0.14s WALL (       6 calls)
     PAW_pot      :      0.44s CPU      0.52s WALL (       6 calls)
     mix_rho      :      0.03s CPU      0.06s WALL (       6 calls)

     Called by c_bands:
     init_us_2    :      0.58s CPU      0.69s WALL (    1885 calls)
     cegterg      :    171.39s CPU    199.59s WALL (     870 calls)

     Called by sum_band:
     sum_band:bec :      0.08s CPU      0.08s WALL (     870 calls)
     addusdens    :      0.16s CPU      0.21s WALL (       6 calls)

     Called by *egterg:
     h_psi        :    139.95s CPU    163.71s WALL (    3601 calls)
     s_psi        :      2.49s CPU      2.53s WALL (    3601 calls)
     g_psi        :      0.40s CPU      0.41s WALL (    2586 calls)
     cdiaghg      :     14.81s CPU     15.02s WALL (    3311 calls)
     cegterg:over :      7.97s CPU      8.02s WALL (    2586 calls)
     cegterg:upda :      5.10s CPU      5.14s WALL (    2586 calls)
     cegterg:last :      2.71s CPU      2.72s WALL (     989 calls)

     Called by h_psi:
     h_psi:vloc   :    133.62s CPU    157.01s WALL (    3601 calls)
     h_psi:vnl    :      5.88s CPU      6.18s WALL (    3601 calls)
     add_vuspsi   :      2.74s CPU      2.78s WALL (    3601 calls)

     General routines
     calbec       :      4.12s CPU      4.43s WALL (    4471 calls)
     fft          :      0.10s CPU      0.12s WALL (     116 calls)
     fftw         :    140.02s CPU    164.66s WALL (  442008 calls)
     davcio       :      0.08s CPU      0.44s WALL (     145 calls)
 
     Parallel routines
     fft_scatter  :     75.49s CPU     87.49s WALL (  442124 calls)

     PAW routines
     PAW_pot      :      0.44s CPU      0.52s WALL (       6 calls)
     PAW_symme    :      0.01s CPU      0.01s WALL (      12 calls)
 
     PWSCF        :  3m33.02s CPU     4m 8.00s WALL

 
   This run was terminated on:  11:43:19  17Mar2020            

=------------------------------------------------------------------------------=
   JOB DONE.
=------------------------------------------------------------------------------=
