
     Program PWSCF v.5.4.0 starts on 16Mar2020 at 22:54:39 

     This program is part of the open-source Quantum ESPRESSO suite
     for quantum simulation of materials; please cite
         "P. Giannozzi et al., J. Phys.:Condens. Matter 21 395502 (2009);
          URL http://www.quantum-espresso.org", 
     in publications or presentations arising from this work. More details at
     http://www.quantum-espresso.org/quote

     Parallel version (MPI & OpenMP), running on      16 processor cores
     Number of MPI processes:                16
     Threads/MPI process:                     1
     R & G space division:  proc/nbgrp/npool/nimage =      16
     Waiting for input...
     Reading input from standard input
Warning: card &IONS ignored
Warning: card / ignored
Warning: card &CELL ignored
Warning: card / ignored

     Current dimensions of program PWSCF are:
     Max number of different atomic species (ntypx) = 10
     Max number of k-points (npk) =  40000
     Max angular momentum in pseudopotentials (lmaxx) =  3
               file Sn.rel-pbesol-dn-kjpaw_psl.1.0.0.UPF: wavefunction(s)  5S 5P 5P 4D 4D renormalized

     Subspace diagonalization in iterative solution of the eigenvalue problem:
     a serial algorithm will be used

 
     Parallelization info
     --------------------
     sticks:   dense  smooth     PW     G-vecs:    dense   smooth      PW
     Min         122     122     34                 3603     3603     547
     Max         125     125     35                 3604     3604     551
     Sum        1969    1969    559                57655    57655    8801
 

     Title: 
     Sn                                                                         


     bravais-lattice index     =            0
     lattice parameter (alat)  =       8.9127  a.u.
     unit-cell volume          =     500.6268 (a.u.)^3
     number of atoms/cell      =            2
     number of atomic types    =            1
     number of electrons       =        28.00
     number of Kohn-Sham states=           36
     kinetic-energy cutoff     =      90.0000  Ry
     charge density cutoff     =     360.0000  Ry
     convergence threshold     =      1.0E-06
     mixing beta               =       0.7000
     number of iterations used =            8  plain     mixing
     Exchange-correlation      =  SLA  PW   PSX  PSC ( 1  4 10  8 0 0)
     Non magnetic calculation with spin-orbit


     celldm(1)=   8.912709  celldm(2)=   0.000000  celldm(3)=   0.000000
     celldm(4)=   0.000000  celldm(5)=   0.000000  celldm(6)=   0.000000

     crystal axes: (cart. coord. in units of alat)
               a(1) = (   0.000000   0.707107   0.707107 )  
               a(2) = (   0.707107   0.000000   0.707107 )  
               a(3) = (   0.707107   0.707107   0.000000 )  

     reciprocal axes: (cart. coord. in units 2 pi/alat)
               b(1) = ( -0.707107  0.707107  0.707107 )  
               b(2) = (  0.707107 -0.707107  0.707107 )  
               b(3) = (  0.707107  0.707107 -0.707107 )  


     PseudoPot. # 1 for Sn read from file:
     ../PseudopotentialDatabase/Sn.rel-pbesol-dn-kjpaw_psl.1.0.0.UPF
     MD5 check sum: e69eff64f15ae39ad43ef58bacbfdf88
     Pseudo is Projector augmented-wave + core cor, Zval = 14.0
     Generated using "atomic" code by A. Dal Corso  v.6.3
     Shape of augmentation charge: PSQ
     Using radial grid of 1243 points, 10 beta functions with: 
                l(1) =   0
                l(2) =   0
                l(3) =   1
                l(4) =   1
                l(5) =   1
                l(6) =   1
                l(7) =   2
                l(8) =   2
                l(9) =   2
               l(10) =   2
     Q(r) pseudized with 0 coefficients 


     atomic species   valence    mass     pseudopotential
        Sn            14.00   118.71000     Sn( 1.00)

     24 Sym. Ops. (no inversion) found
          (note: 24 additional sym.ops. were found but ignored
           their fractional translations are incommensurate with FFT grid)

                                    s                        frac. trans.

      isym =  1     identity                                     

 cryst.   s( 1) = (     1          0          0      )
                  (     0          1          0      )
                  (     0          0          1      )

 cart.    s( 1) = (  1.0000000  0.0000000  0.0000000 )
                  (  0.0000000  1.0000000  0.0000000 )
                  (  0.0000000  0.0000000  1.0000000 )


      isym =  2     180 deg rotation - cart. axis [0,0,1]        

 cryst.   s( 2) = (     0          1         -1      )
                  (     1          0         -1      )
                  (     0          0         -1      )

 cart.    s( 2) = ( -1.0000000  0.0000000  0.0000000 )
                  (  0.0000000 -1.0000000  0.0000000 )
                  (  0.0000000  0.0000000  1.0000000 )


      isym =  3     180 deg rotation - cart. axis [0,1,0]        

 cryst.   s( 3) = (     0         -1          1      )
                  (     0         -1          0      )
                  (     1         -1          0      )

 cart.    s( 3) = ( -1.0000000  0.0000000  0.0000000 )
                  (  0.0000000  1.0000000  0.0000000 )
                  (  0.0000000  0.0000000 -1.0000000 )


      isym =  4     180 deg rotation - cart. axis [1,0,0]        

 cryst.   s( 4) = (    -1          0          0      )
                  (    -1          0          1      )
                  (    -1          1          0      )

 cart.    s( 4) = (  1.0000000  0.0000000  0.0000000 )
                  (  0.0000000 -1.0000000  0.0000000 )
                  (  0.0000000  0.0000000 -1.0000000 )


      isym =  5     120 deg rotation - cart. axis [-1,-1,-1]     

 cryst.   s( 5) = (     0          0          1      )
                  (     1          0          0      )
                  (     0          1          0      )

 cart.    s( 5) = (  0.0000000  1.0000000  0.0000000 )
                  (  0.0000000  0.0000000  1.0000000 )
                  (  1.0000000  0.0000000  0.0000000 )


      isym =  6     120 deg rotation - cart. axis [-1,1,1]       

 cryst.   s( 6) = (     1         -1          0      )
                  (     0         -1          1      )
                  (     0         -1          0      )

 cart.    s( 6) = (  0.0000000 -1.0000000  0.0000000 )
                  (  0.0000000  0.0000000  1.0000000 )
                  ( -1.0000000  0.0000000  0.0000000 )


      isym =  7     120 deg rotation - cart. axis [1,1,-1]       

 cryst.   s( 7) = (    -1          1          0      )
                  (    -1          0          0      )
                  (    -1          0          1      )

 cart.    s( 7) = (  0.0000000  1.0000000  0.0000000 )
                  (  0.0000000  0.0000000 -1.0000000 )
                  ( -1.0000000  0.0000000  0.0000000 )


      isym =  8     120 deg rotation - cart. axis [1,-1,1]       

 cryst.   s( 8) = (     0          0         -1      )
                  (     0          1         -1      )
                  (     1          0         -1      )

 cart.    s( 8) = (  0.0000000 -1.0000000  0.0000000 )
                  (  0.0000000  0.0000000 -1.0000000 )
                  (  1.0000000  0.0000000  0.0000000 )


      isym =  9     120 deg rotation - cart. axis [1,1,1]        

 cryst.   s( 9) = (     0          1          0      )
                  (     0          0          1      )
                  (     1          0          0      )

 cart.    s( 9) = (  0.0000000  0.0000000  1.0000000 )
                  (  1.0000000  0.0000000  0.0000000 )
                  (  0.0000000  1.0000000  0.0000000 )


      isym = 10     120 deg rotation - cart. axis [-1,1,-1]      

 cryst.   s(10) = (    -1          0          1      )
                  (    -1          1          0      )
                  (    -1          0          0      )

 cart.    s(10) = (  0.0000000  0.0000000  1.0000000 )
                  ( -1.0000000  0.0000000  0.0000000 )
                  (  0.0000000 -1.0000000  0.0000000 )


      isym = 11     120 deg rotation - cart. axis [1,-1,-1]      

 cryst.   s(11) = (     1          0         -1      )
                  (     0          0         -1      )
                  (     0          1         -1      )

 cart.    s(11) = (  0.0000000  0.0000000 -1.0000000 )
                  ( -1.0000000  0.0000000  0.0000000 )
                  (  0.0000000  1.0000000  0.0000000 )


      isym = 12     120 deg rotation - cart. axis [-1,-1,1]      

 cryst.   s(12) = (     0         -1          0      )
                  (     1         -1          0      )
                  (     0         -1          1      )

 cart.    s(12) = (  0.0000000  0.0000000 -1.0000000 )
                  (  1.0000000  0.0000000  0.0000000 )
                  (  0.0000000 -1.0000000  0.0000000 )


      isym = 13     inv. 180 deg rotation - cart. axis [1,1,0]   

 cryst.   s(13) = (     1          0         -1      )
                  (     0          1         -1      )
                  (     0          0         -1      )

 cart.    s(13) = (  0.0000000 -1.0000000  0.0000000 )
                  ( -1.0000000  0.0000000  0.0000000 )
                  (  0.0000000  0.0000000  1.0000000 )


      isym = 14     inv. 180 deg rotation - cart. axis [1,-1,0]  

 cryst.   s(14) = (     0          1          0      )
                  (     1          0          0      )
                  (     0          0          1      )

 cart.    s(14) = (  0.0000000  1.0000000  0.0000000 )
                  (  1.0000000  0.0000000  0.0000000 )
                  (  0.0000000  0.0000000  1.0000000 )


      isym = 15     inv.  90 deg rotation - cart. axis [0,0,-1]  

 cryst.   s(15) = (     0         -1          0      )
                  (     0         -1          1      )
                  (     1         -1          0      )

 cart.    s(15) = (  0.0000000 -1.0000000  0.0000000 )
                  (  1.0000000  0.0000000  0.0000000 )
                  (  0.0000000  0.0000000 -1.0000000 )


      isym = 16     inv.  90 deg rotation - cart. axis [0,0,1]   

 cryst.   s(16) = (    -1          0          1      )
                  (    -1          0          0      )
                  (    -1          1          0      )

 cart.    s(16) = (  0.0000000  1.0000000  0.0000000 )
                  ( -1.0000000  0.0000000  0.0000000 )
                  (  0.0000000  0.0000000 -1.0000000 )


      isym = 17     inv. 180 deg rotation - cart. axis [1,0,1]   

 cryst.   s(17) = (     1         -1          0      )
                  (     0         -1          0      )
                  (     0         -1          1      )

 cart.    s(17) = (  0.0000000  0.0000000 -1.0000000 )
                  (  0.0000000  1.0000000  0.0000000 )
                  ( -1.0000000  0.0000000  0.0000000 )


      isym = 18     inv. 180 deg rotation - cart. axis [-1,0,1]  

 cryst.   s(18) = (     0          0          1      )
                  (     0          1          0      )
                  (     1          0          0      )

 cart.    s(18) = (  0.0000000  0.0000000  1.0000000 )
                  (  0.0000000  1.0000000  0.0000000 )
                  (  1.0000000  0.0000000  0.0000000 )


      isym = 19     inv.  90 deg rotation - cart. axis [0,1,0]   

 cryst.   s(19) = (     0          0         -1      )
                  (     1          0         -1      )
                  (     0          1         -1      )

 cart.    s(19) = (  0.0000000  0.0000000 -1.0000000 )
                  (  0.0000000 -1.0000000  0.0000000 )
                  (  1.0000000  0.0000000  0.0000000 )


      isym = 20     inv.  90 deg rotation - cart. axis [0,-1,0]  

 cryst.   s(20) = (    -1          1          0      )
                  (    -1          0          1      )
                  (    -1          0          0      )

 cart.    s(20) = (  0.0000000  0.0000000  1.0000000 )
                  (  0.0000000 -1.0000000  0.0000000 )
                  ( -1.0000000  0.0000000  0.0000000 )


      isym = 21     inv. 180 deg rotation - cart. axis [0,1,1]   

 cryst.   s(21) = (    -1          0          0      )
                  (    -1          1          0      )
                  (    -1          0          1      )

 cart.    s(21) = (  1.0000000  0.0000000  0.0000000 )
                  (  0.0000000  0.0000000 -1.0000000 )
                  (  0.0000000 -1.0000000  0.0000000 )


      isym = 22     inv. 180 deg rotation - cart. axis [0,1,-1]  

 cryst.   s(22) = (     1          0          0      )
                  (     0          0          1      )
                  (     0          1          0      )

 cart.    s(22) = (  1.0000000  0.0000000  0.0000000 )
                  (  0.0000000  0.0000000  1.0000000 )
                  (  0.0000000  1.0000000  0.0000000 )


      isym = 23     inv.  90 deg rotation - cart. axis [-1,0,0]  

 cryst.   s(23) = (     0          1         -1      )
                  (     0          0         -1      )
                  (     1          0         -1      )

 cart.    s(23) = ( -1.0000000  0.0000000  0.0000000 )
                  (  0.0000000  0.0000000 -1.0000000 )
                  (  0.0000000  1.0000000  0.0000000 )


      isym = 24     inv.  90 deg rotation - cart. axis [1,0,0]   

 cryst.   s(24) = (     0         -1          1      )
                  (     1         -1          0      )
                  (     0         -1          0      )

 cart.    s(24) = ( -1.0000000  0.0000000  0.0000000 )
                  (  0.0000000  0.0000000  1.0000000 )
                  (  0.0000000 -1.0000000  0.0000000 )


   Cartesian axes

     site n.     atom                  positions (alat units)
         1           Sn  tau(   1) = (   0.0000000   0.0000000   0.0000000  )
         2           Sn  tau(   2) = (   0.3535534   0.3535534   0.3535534  )

   Crystallographic axes

     site n.     atom                  positions (cryst. coord.)
         1           Sn  tau(   1) = (  0.0000000  0.0000000  0.0000000  )
         2           Sn  tau(   2) = (  0.2500000  0.2500000  0.2500000  )

     number of k points=   145  gaussian smearing, width (Ry)=  0.0001
                       cart. coord. in units 2pi/alat
        k(    1) = (   0.0000000   0.0000000   0.0000000), wk =   0.0002441
        k(    2) = (   0.0441942   0.0441942  -0.0441942), wk =   0.0019531
        k(    3) = (   0.0883883   0.0883883  -0.0883883), wk =   0.0019531
        k(    4) = (   0.1325825   0.1325825  -0.1325825), wk =   0.0019531
        k(    5) = (   0.1767767   0.1767767  -0.1767767), wk =   0.0019531
        k(    6) = (   0.2209709   0.2209709  -0.2209709), wk =   0.0019531
        k(    7) = (   0.2651650   0.2651650  -0.2651650), wk =   0.0019531
        k(    8) = (   0.3093592   0.3093592  -0.3093592), wk =   0.0019531
        k(    9) = (  -0.3535534  -0.3535534   0.3535534), wk =   0.0009766
        k(   10) = (   0.0883883   0.0000000   0.0000000), wk =   0.0014648
        k(   11) = (   0.1325825   0.0441942  -0.0441942), wk =   0.0058594
        k(   12) = (   0.1767767   0.0883883  -0.0883883), wk =   0.0058594
        k(   13) = (   0.2209709   0.1325825  -0.1325825), wk =   0.0058594
        k(   14) = (   0.2651650   0.1767767  -0.1767767), wk =   0.0058594
        k(   15) = (   0.3093592   0.2209709  -0.2209709), wk =   0.0058594
        k(   16) = (   0.3535534   0.2651650  -0.2651650), wk =   0.0058594
        k(   17) = (  -0.3093592  -0.3977476   0.3977476), wk =   0.0058594
        k(   18) = (  -0.2651650  -0.3535534   0.3535534), wk =   0.0058594
        k(   19) = (  -0.2209709  -0.3093592   0.3093592), wk =   0.0058594
        k(   20) = (  -0.1767767  -0.2651650   0.2651650), wk =   0.0058594
        k(   21) = (  -0.1325825  -0.2209709   0.2209709), wk =   0.0058594
        k(   22) = (  -0.0883883  -0.1767767   0.1767767), wk =   0.0058594
        k(   23) = (  -0.0441942  -0.1325825   0.1325825), wk =   0.0058594
        k(   24) = (   0.0000000  -0.0883883   0.0883883), wk =   0.0029297
        k(   25) = (   0.1767767   0.0000000   0.0000000), wk =   0.0014648
        k(   26) = (   0.2209709   0.0441942  -0.0441942), wk =   0.0058594
        k(   27) = (   0.2651650   0.0883883  -0.0883883), wk =   0.0058594
        k(   28) = (   0.3093592   0.1325825  -0.1325825), wk =   0.0058594
        k(   29) = (   0.3535534   0.1767767  -0.1767767), wk =   0.0058594
        k(   30) = (   0.3977476   0.2209709  -0.2209709), wk =   0.0058594
        k(   31) = (  -0.2651650  -0.4419417   0.4419417), wk =   0.0058594
        k(   32) = (  -0.2209709  -0.3977476   0.3977476), wk =   0.0058594
        k(   33) = (  -0.1767767  -0.3535534   0.3535534), wk =   0.0058594
        k(   34) = (  -0.1325825  -0.3093592   0.3093592), wk =   0.0058594
        k(   35) = (  -0.0883883  -0.2651650   0.2651650), wk =   0.0058594
        k(   36) = (  -0.0441942  -0.2209709   0.2209709), wk =   0.0058594
        k(   37) = (   0.0000000  -0.1767767   0.1767767), wk =   0.0029297
        k(   38) = (   0.2651650   0.0000000   0.0000000), wk =   0.0014648
        k(   39) = (   0.3093592   0.0441942  -0.0441942), wk =   0.0058594
        k(   40) = (   0.3535534   0.0883883  -0.0883883), wk =   0.0058594
        k(   41) = (   0.3977476   0.1325825  -0.1325825), wk =   0.0058594
        k(   42) = (   0.4419417   0.1767767  -0.1767767), wk =   0.0058594
        k(   43) = (  -0.2209709  -0.4861359   0.4861359), wk =   0.0058594
        k(   44) = (  -0.1767767  -0.4419417   0.4419417), wk =   0.0058594
        k(   45) = (  -0.1325825  -0.3977476   0.3977476), wk =   0.0058594
        k(   46) = (  -0.0883883  -0.3535534   0.3535534), wk =   0.0058594
        k(   47) = (  -0.0441942  -0.3093592   0.3093592), wk =   0.0058594
        k(   48) = (   0.0000000  -0.2651650   0.2651650), wk =   0.0029297
        k(   49) = (   0.3535534   0.0000000   0.0000000), wk =   0.0014648
        k(   50) = (   0.3977476   0.0441942  -0.0441942), wk =   0.0058594
        k(   51) = (   0.4419417   0.0883883  -0.0883883), wk =   0.0058594
        k(   52) = (   0.4861359   0.1325825  -0.1325825), wk =   0.0058594
        k(   53) = (  -0.1767767  -0.5303301   0.5303301), wk =   0.0058594
        k(   54) = (  -0.1325825  -0.4861359   0.4861359), wk =   0.0058594
        k(   55) = (  -0.0883883  -0.4419417   0.4419417), wk =   0.0058594
        k(   56) = (  -0.0441942  -0.3977476   0.3977476), wk =   0.0058594
        k(   57) = (   0.0000000  -0.3535534   0.3535534), wk =   0.0029297
        k(   58) = (   0.4419417   0.0000000   0.0000000), wk =   0.0014648
        k(   59) = (   0.4861359   0.0441942  -0.0441942), wk =   0.0058594
        k(   60) = (   0.5303301   0.0883883  -0.0883883), wk =   0.0058594
        k(   61) = (  -0.1325825  -0.5745243   0.5745243), wk =   0.0058594
        k(   62) = (  -0.0883883  -0.5303301   0.5303301), wk =   0.0058594
        k(   63) = (  -0.0441942  -0.4861359   0.4861359), wk =   0.0058594
        k(   64) = (   0.0000000  -0.4419417   0.4419417), wk =   0.0029297
        k(   65) = (   0.5303301   0.0000000   0.0000000), wk =   0.0014648
        k(   66) = (   0.5745243   0.0441942  -0.0441942), wk =   0.0058594
        k(   67) = (  -0.0883883  -0.6187184   0.6187184), wk =   0.0058594
        k(   68) = (  -0.0441942  -0.5745243   0.5745243), wk =   0.0058594
        k(   69) = (   0.0000000  -0.5303301   0.5303301), wk =   0.0029297
        k(   70) = (   0.6187184   0.0000000   0.0000000), wk =   0.0014648
        k(   71) = (  -0.0441942  -0.6629126   0.6629126), wk =   0.0058594
        k(   72) = (   0.0000000  -0.6187184   0.6187184), wk =   0.0029297
        k(   73) = (  -0.7071068   0.0000000   0.0000000), wk =   0.0007324
        k(   74) = (   0.1767767   0.0883883   0.0000000), wk =   0.0058594
        k(   75) = (   0.2209709   0.1325825  -0.0441942), wk =   0.0117188
        k(   76) = (   0.2651650   0.1767767  -0.0883883), wk =   0.0117188
        k(   77) = (   0.3093592   0.2209709  -0.1325825), wk =   0.0117188
        k(   78) = (   0.3535534   0.2651650  -0.1767767), wk =   0.0117188
        k(   79) = (  -0.3093592  -0.3977476   0.4861359), wk =   0.0117188
        k(   80) = (  -0.2651650  -0.3535534   0.4419417), wk =   0.0058594
        k(   81) = (   0.2651650   0.0883883   0.0000000), wk =   0.0058594
        k(   82) = (   0.3093592   0.1325825  -0.0441942), wk =   0.0117188
        k(   83) = (   0.3535534   0.1767767  -0.0883883), wk =   0.0117188
        k(   84) = (   0.3977476   0.2209709  -0.1325825), wk =   0.0117188
        k(   85) = (  -0.2651650  -0.4419417   0.5303301), wk =   0.0117188
        k(   86) = (  -0.2209709  -0.3977476   0.4861359), wk =   0.0117188
        k(   87) = (  -0.1767767  -0.3535534   0.4419417), wk =   0.0117188
        k(   88) = (  -0.1325825  -0.3093592   0.3977476), wk =   0.0117188
        k(   89) = (  -0.0883883  -0.2651650   0.3535534), wk =   0.0117188
        k(   90) = (  -0.0441942  -0.2209709   0.3093592), wk =   0.0117188
        k(   91) = (   0.0000000  -0.1767767   0.2651650), wk =   0.0058594
        k(   92) = (   0.3535534   0.0883883   0.0000000), wk =   0.0058594
        k(   93) = (   0.3977476   0.1325825  -0.0441942), wk =   0.0117188
        k(   94) = (   0.4419417   0.1767767  -0.0883883), wk =   0.0117188
        k(   95) = (  -0.2209709  -0.4861359   0.5745243), wk =   0.0117188
        k(   96) = (  -0.1767767  -0.4419417   0.5303301), wk =   0.0117188
        k(   97) = (  -0.1325825  -0.3977476   0.4861359), wk =   0.0117188
        k(   98) = (  -0.0883883  -0.3535534   0.4419417), wk =   0.0117188
        k(   99) = (  -0.0441942  -0.3093592   0.3977476), wk =   0.0117188
        k(  100) = (   0.0000000  -0.2651650   0.3535534), wk =   0.0058594
        k(  101) = (   0.4419417   0.0883883   0.0000000), wk =   0.0058594
        k(  102) = (   0.4861359   0.1325825  -0.0441942), wk =   0.0117188
        k(  103) = (  -0.1767767  -0.5303301   0.6187184), wk =   0.0117188
        k(  104) = (  -0.1325825  -0.4861359   0.5745243), wk =   0.0117188
        k(  105) = (  -0.0883883  -0.4419417   0.5303301), wk =   0.0117188
        k(  106) = (  -0.0441942  -0.3977476   0.4861359), wk =   0.0117188
        k(  107) = (   0.0000000  -0.3535534   0.4419417), wk =   0.0058594
        k(  108) = (   0.5303301   0.0883883   0.0000000), wk =   0.0058594
        k(  109) = (  -0.1325825  -0.5745243   0.6629126), wk =   0.0117188
        k(  110) = (  -0.0883883  -0.5303301   0.6187184), wk =   0.0117188
        k(  111) = (  -0.0441942  -0.4861359   0.5745243), wk =   0.0117188
        k(  112) = (   0.0000000  -0.4419417   0.5303301), wk =   0.0058594
        k(  113) = (  -0.0883883  -0.6187184   0.7071068), wk =   0.0058594
        k(  114) = (  -0.0441942  -0.5745243   0.6629126), wk =   0.0117188
        k(  115) = (  -0.0000000  -0.5303301   0.6187184), wk =   0.0058594
        k(  116) = (  -0.7071068   0.0883883   0.0000000), wk =   0.0029297
        k(  117) = (   0.3535534   0.1767767   0.0000000), wk =   0.0058594
        k(  118) = (   0.3977476   0.2209709  -0.0441942), wk =   0.0117188
        k(  119) = (  -0.2651650  -0.4419417   0.6187184), wk =   0.0117188
        k(  120) = (  -0.2209709  -0.3977476   0.5745243), wk =   0.0117188
        k(  121) = (  -0.1767767  -0.3535534   0.5303301), wk =   0.0058594
        k(  122) = (   0.4419417   0.1767767   0.0000000), wk =   0.0058594
        k(  123) = (  -0.2209709  -0.4861359   0.6629126), wk =   0.0117188
        k(  124) = (  -0.1767767  -0.4419417   0.6187184), wk =   0.0117188
        k(  125) = (  -0.1325825  -0.3977476   0.5745243), wk =   0.0117188
        k(  126) = (  -0.0883883  -0.3535534   0.5303301), wk =   0.0117188
        k(  127) = (  -0.0441942  -0.3093592   0.4861359), wk =   0.0117188
        k(  128) = (   0.0000000  -0.2651650   0.4419417), wk =   0.0058594
        k(  129) = (  -0.1767767  -0.5303301   0.7071068), wk =   0.0058594
        k(  130) = (  -0.1325825  -0.4861359   0.6629126), wk =   0.0117188
        k(  131) = (  -0.0883883  -0.4419417   0.6187184), wk =   0.0117188
        k(  132) = (  -0.0441942  -0.3977476   0.5745243), wk =   0.0117188
        k(  133) = (   0.0000000  -0.3535534   0.5303301), wk =   0.0058594
        k(  134) = (  -0.0883883  -0.5303301   0.7071068), wk =   0.0058594
        k(  135) = (  -0.0441942  -0.4861359   0.6629126), wk =   0.0117188
        k(  136) = (   0.0000000  -0.4419417   0.6187184), wk =   0.0058594
        k(  137) = (  -0.7071068   0.1767767   0.0000000), wk =   0.0029297
        k(  138) = (  -0.1767767  -0.4419417   0.7071068), wk =   0.0058594
        k(  139) = (  -0.1325825  -0.3977476   0.6629126), wk =   0.0117188
        k(  140) = (  -0.0883883  -0.3535534   0.6187184), wk =   0.0058594
        k(  141) = (  -0.0883883  -0.4419417   0.7071068), wk =   0.0058594
        k(  142) = (  -0.0441942  -0.3977476   0.6629126), wk =   0.0117188
        k(  143) = (  -0.0000000  -0.3535534   0.6187184), wk =   0.0058594
        k(  144) = (  -0.7071068   0.2651650   0.0000000), wk =   0.0029297
        k(  145) = (  -0.7071068   0.3535534   0.0000000), wk =   0.0014648

                       cryst. coord.
        k(    1) = (   0.0000000   0.0000000   0.0000000), wk =   0.0002441
        k(    2) = (   0.0000000   0.0000000   0.0625000), wk =   0.0019531
        k(    3) = (   0.0000000   0.0000000   0.1250000), wk =   0.0019531
        k(    4) = (   0.0000000   0.0000000   0.1875000), wk =   0.0019531
        k(    5) = (   0.0000000   0.0000000   0.2500000), wk =   0.0019531
        k(    6) = (   0.0000000   0.0000000   0.3125000), wk =   0.0019531
        k(    7) = (   0.0000000   0.0000000   0.3750000), wk =   0.0019531
        k(    8) = (   0.0000000   0.0000000   0.4375000), wk =   0.0019531
        k(    9) = (   0.0000000   0.0000000  -0.5000000), wk =   0.0009766
        k(   10) = (   0.0000000   0.0625000   0.0625000), wk =   0.0014648
        k(   11) = (   0.0000000   0.0625000   0.1250000), wk =   0.0058594
        k(   12) = (   0.0000000   0.0625000   0.1875000), wk =   0.0058594
        k(   13) = (   0.0000000   0.0625000   0.2500000), wk =   0.0058594
        k(   14) = (   0.0000000   0.0625000   0.3125000), wk =   0.0058594
        k(   15) = (   0.0000000   0.0625000   0.3750000), wk =   0.0058594
        k(   16) = (   0.0000000   0.0625000   0.4375000), wk =   0.0058594
        k(   17) = (   0.0000000   0.0625000  -0.5000000), wk =   0.0058594
        k(   18) = (   0.0000000   0.0625000  -0.4375000), wk =   0.0058594
        k(   19) = (   0.0000000   0.0625000  -0.3750000), wk =   0.0058594
        k(   20) = (   0.0000000   0.0625000  -0.3125000), wk =   0.0058594
        k(   21) = (   0.0000000   0.0625000  -0.2500000), wk =   0.0058594
        k(   22) = (   0.0000000   0.0625000  -0.1875000), wk =   0.0058594
        k(   23) = (   0.0000000   0.0625000  -0.1250000), wk =   0.0058594
        k(   24) = (   0.0000000   0.0625000  -0.0625000), wk =   0.0029297
        k(   25) = (   0.0000000   0.1250000   0.1250000), wk =   0.0014648
        k(   26) = (   0.0000000   0.1250000   0.1875000), wk =   0.0058594
        k(   27) = (   0.0000000   0.1250000   0.2500000), wk =   0.0058594
        k(   28) = (   0.0000000   0.1250000   0.3125000), wk =   0.0058594
        k(   29) = (   0.0000000   0.1250000   0.3750000), wk =   0.0058594
        k(   30) = (   0.0000000   0.1250000   0.4375000), wk =   0.0058594
        k(   31) = (   0.0000000   0.1250000  -0.5000000), wk =   0.0058594
        k(   32) = (   0.0000000   0.1250000  -0.4375000), wk =   0.0058594
        k(   33) = (   0.0000000   0.1250000  -0.3750000), wk =   0.0058594
        k(   34) = (   0.0000000   0.1250000  -0.3125000), wk =   0.0058594
        k(   35) = (   0.0000000   0.1250000  -0.2500000), wk =   0.0058594
        k(   36) = (   0.0000000   0.1250000  -0.1875000), wk =   0.0058594
        k(   37) = (   0.0000000   0.1250000  -0.1250000), wk =   0.0029297
        k(   38) = (   0.0000000   0.1875000   0.1875000), wk =   0.0014648
        k(   39) = (   0.0000000   0.1875000   0.2500000), wk =   0.0058594
        k(   40) = (   0.0000000   0.1875000   0.3125000), wk =   0.0058594
        k(   41) = (   0.0000000   0.1875000   0.3750000), wk =   0.0058594
        k(   42) = (   0.0000000   0.1875000   0.4375000), wk =   0.0058594
        k(   43) = (   0.0000000   0.1875000  -0.5000000), wk =   0.0058594
        k(   44) = (   0.0000000   0.1875000  -0.4375000), wk =   0.0058594
        k(   45) = (   0.0000000   0.1875000  -0.3750000), wk =   0.0058594
        k(   46) = (   0.0000000   0.1875000  -0.3125000), wk =   0.0058594
        k(   47) = (   0.0000000   0.1875000  -0.2500000), wk =   0.0058594
        k(   48) = (   0.0000000   0.1875000  -0.1875000), wk =   0.0029297
        k(   49) = (   0.0000000   0.2500000   0.2500000), wk =   0.0014648
        k(   50) = (   0.0000000   0.2500000   0.3125000), wk =   0.0058594
        k(   51) = (   0.0000000   0.2500000   0.3750000), wk =   0.0058594
        k(   52) = (   0.0000000   0.2500000   0.4375000), wk =   0.0058594
        k(   53) = (   0.0000000   0.2500000  -0.5000000), wk =   0.0058594
        k(   54) = (   0.0000000   0.2500000  -0.4375000), wk =   0.0058594
        k(   55) = (   0.0000000   0.2500000  -0.3750000), wk =   0.0058594
        k(   56) = (   0.0000000   0.2500000  -0.3125000), wk =   0.0058594
        k(   57) = (   0.0000000   0.2500000  -0.2500000), wk =   0.0029297
        k(   58) = (   0.0000000   0.3125000   0.3125000), wk =   0.0014648
        k(   59) = (   0.0000000   0.3125000   0.3750000), wk =   0.0058594
        k(   60) = (   0.0000000   0.3125000   0.4375000), wk =   0.0058594
        k(   61) = (   0.0000000   0.3125000  -0.5000000), wk =   0.0058594
        k(   62) = (   0.0000000   0.3125000  -0.4375000), wk =   0.0058594
        k(   63) = (   0.0000000   0.3125000  -0.3750000), wk =   0.0058594
        k(   64) = (   0.0000000   0.3125000  -0.3125000), wk =   0.0029297
        k(   65) = (   0.0000000   0.3750000   0.3750000), wk =   0.0014648
        k(   66) = (   0.0000000   0.3750000   0.4375000), wk =   0.0058594
        k(   67) = (   0.0000000   0.3750000  -0.5000000), wk =   0.0058594
        k(   68) = (   0.0000000   0.3750000  -0.4375000), wk =   0.0058594
        k(   69) = (   0.0000000   0.3750000  -0.3750000), wk =   0.0029297
        k(   70) = (   0.0000000   0.4375000   0.4375000), wk =   0.0014648
        k(   71) = (   0.0000000   0.4375000  -0.5000000), wk =   0.0058594
        k(   72) = (   0.0000000   0.4375000  -0.4375000), wk =   0.0029297
        k(   73) = (   0.0000000  -0.5000000  -0.5000000), wk =   0.0007324
        k(   74) = (   0.0625000   0.1250000   0.1875000), wk =   0.0058594
        k(   75) = (   0.0625000   0.1250000   0.2500000), wk =   0.0117188
        k(   76) = (   0.0625000   0.1250000   0.3125000), wk =   0.0117188
        k(   77) = (   0.0625000   0.1250000   0.3750000), wk =   0.0117188
        k(   78) = (   0.0625000   0.1250000   0.4375000), wk =   0.0117188
        k(   79) = (   0.0625000   0.1250000  -0.5000000), wk =   0.0117188
        k(   80) = (   0.0625000   0.1250000  -0.4375000), wk =   0.0058594
        k(   81) = (   0.0625000   0.1875000   0.2500000), wk =   0.0058594
        k(   82) = (   0.0625000   0.1875000   0.3125000), wk =   0.0117188
        k(   83) = (   0.0625000   0.1875000   0.3750000), wk =   0.0117188
        k(   84) = (   0.0625000   0.1875000   0.4375000), wk =   0.0117188
        k(   85) = (   0.0625000   0.1875000  -0.5000000), wk =   0.0117188
        k(   86) = (   0.0625000   0.1875000  -0.4375000), wk =   0.0117188
        k(   87) = (   0.0625000   0.1875000  -0.3750000), wk =   0.0117188
        k(   88) = (   0.0625000   0.1875000  -0.3125000), wk =   0.0117188
        k(   89) = (   0.0625000   0.1875000  -0.2500000), wk =   0.0117188
        k(   90) = (   0.0625000   0.1875000  -0.1875000), wk =   0.0117188
        k(   91) = (   0.0625000   0.1875000  -0.1250000), wk =   0.0058594
        k(   92) = (   0.0625000   0.2500000   0.3125000), wk =   0.0058594
        k(   93) = (   0.0625000   0.2500000   0.3750000), wk =   0.0117188
        k(   94) = (   0.0625000   0.2500000   0.4375000), wk =   0.0117188
        k(   95) = (   0.0625000   0.2500000  -0.5000000), wk =   0.0117188
        k(   96) = (   0.0625000   0.2500000  -0.4375000), wk =   0.0117188
        k(   97) = (   0.0625000   0.2500000  -0.3750000), wk =   0.0117188
        k(   98) = (   0.0625000   0.2500000  -0.3125000), wk =   0.0117188
        k(   99) = (   0.0625000   0.2500000  -0.2500000), wk =   0.0117188
        k(  100) = (   0.0625000   0.2500000  -0.1875000), wk =   0.0058594
        k(  101) = (   0.0625000   0.3125000   0.3750000), wk =   0.0058594
        k(  102) = (   0.0625000   0.3125000   0.4375000), wk =   0.0117188
        k(  103) = (   0.0625000   0.3125000  -0.5000000), wk =   0.0117188
        k(  104) = (   0.0625000   0.3125000  -0.4375000), wk =   0.0117188
        k(  105) = (   0.0625000   0.3125000  -0.3750000), wk =   0.0117188
        k(  106) = (   0.0625000   0.3125000  -0.3125000), wk =   0.0117188
        k(  107) = (   0.0625000   0.3125000  -0.2500000), wk =   0.0058594
        k(  108) = (   0.0625000   0.3750000   0.4375000), wk =   0.0058594
        k(  109) = (   0.0625000   0.3750000  -0.5000000), wk =   0.0117188
        k(  110) = (   0.0625000   0.3750000  -0.4375000), wk =   0.0117188
        k(  111) = (   0.0625000   0.3750000  -0.3750000), wk =   0.0117188
        k(  112) = (   0.0625000   0.3750000  -0.3125000), wk =   0.0058594
        k(  113) = (   0.0625000   0.4375000  -0.5000000), wk =   0.0058594
        k(  114) = (   0.0625000   0.4375000  -0.4375000), wk =   0.0117188
        k(  115) = (   0.0625000   0.4375000  -0.3750000), wk =   0.0058594
        k(  116) = (   0.0625000  -0.5000000  -0.4375000), wk =   0.0029297
        k(  117) = (   0.1250000   0.2500000   0.3750000), wk =   0.0058594
        k(  118) = (   0.1250000   0.2500000   0.4375000), wk =   0.0117188
        k(  119) = (   0.1250000   0.2500000  -0.5000000), wk =   0.0117188
        k(  120) = (   0.1250000   0.2500000  -0.4375000), wk =   0.0117188
        k(  121) = (   0.1250000   0.2500000  -0.3750000), wk =   0.0058594
        k(  122) = (   0.1250000   0.3125000   0.4375000), wk =   0.0058594
        k(  123) = (   0.1250000   0.3125000  -0.5000000), wk =   0.0117188
        k(  124) = (   0.1250000   0.3125000  -0.4375000), wk =   0.0117188
        k(  125) = (   0.1250000   0.3125000  -0.3750000), wk =   0.0117188
        k(  126) = (   0.1250000   0.3125000  -0.3125000), wk =   0.0117188
        k(  127) = (   0.1250000   0.3125000  -0.2500000), wk =   0.0117188
        k(  128) = (   0.1250000   0.3125000  -0.1875000), wk =   0.0058594
        k(  129) = (   0.1250000   0.3750000  -0.5000000), wk =   0.0058594
        k(  130) = (   0.1250000   0.3750000  -0.4375000), wk =   0.0117188
        k(  131) = (   0.1250000   0.3750000  -0.3750000), wk =   0.0117188
        k(  132) = (   0.1250000   0.3750000  -0.3125000), wk =   0.0117188
        k(  133) = (   0.1250000   0.3750000  -0.2500000), wk =   0.0058594
        k(  134) = (   0.1250000   0.4375000  -0.4375000), wk =   0.0058594
        k(  135) = (   0.1250000   0.4375000  -0.3750000), wk =   0.0117188
        k(  136) = (   0.1250000   0.4375000  -0.3125000), wk =   0.0058594
        k(  137) = (   0.1250000  -0.5000000  -0.3750000), wk =   0.0029297
        k(  138) = (   0.1875000   0.3750000  -0.4375000), wk =   0.0058594
        k(  139) = (   0.1875000   0.3750000  -0.3750000), wk =   0.0117188
        k(  140) = (   0.1875000   0.3750000  -0.3125000), wk =   0.0058594
        k(  141) = (   0.1875000   0.4375000  -0.3750000), wk =   0.0058594
        k(  142) = (   0.1875000   0.4375000  -0.3125000), wk =   0.0117188
        k(  143) = (   0.1875000   0.4375000  -0.2500000), wk =   0.0058594
        k(  144) = (   0.1875000  -0.5000000  -0.3125000), wk =   0.0029297
        k(  145) = (   0.2500000  -0.5000000  -0.2500000), wk =   0.0014648

     Dense  grid:    57655 G-vectors     FFT dimensions: (  54,  54,  54)

     Largest allocated arrays     est. size (Mb)     dimensions
        Kohn-Sham Wavefunctions         0.51 Mb     (     920,   36)
        NL pseudopotentials             0.48 Mb     (     460,   68)
        Each V/rho on FFT grid          0.18 Mb     (   11664)
        Each G-vector array             0.03 Mb     (    3604)
        G-vector shells                 0.00 Mb     (     461)
     Largest temporary arrays     est. size (Mb)     dimensions
        Auxiliary wavefunctions         2.02 Mb     (     920,  144)
        Each subspace H/S matrix        0.32 Mb     (     144,  144)
        Each <psi_i|beta_j> matrix      0.07 Mb     (      68,   2,   36)
        Arrays for rho mixing           1.42 Mb     (   11664,    8)

     Check: negative/imaginary core charge=   -0.000001    0.000000

     Initial potential from superposition of free atoms

     starting charge   27.99801, renormalised to   28.00000
     Starting wfc are   36 randomized atomic wfcs
     Checking if some PAW data can be deallocated... 

     total cpu time spent up to now is       17.9 secs

     Self-consistent Calculation

     iteration #  1     ecut=    90.00 Ry     beta=0.70
     Davidson diagonalization with overlap
     ethr =  1.00E-02,  avg # of iterations =  3.5

     Threshold (ethr) on eigenvalues was too large:
     Diagonalizing with lowered threshold

     Davidson diagonalization with overlap
     ethr =  5.60E-05,  avg # of iterations =  3.5

     total cpu time spent up to now is      128.0 secs

     total energy              =    -874.81262734 Ry
     Harris-Foulkes estimate   =    -874.81709386 Ry
     estimated scf accuracy    <       0.01836963 Ry

     iteration #  2     ecut=    90.00 Ry     beta=0.70
     Davidson diagonalization with overlap
     ethr =  6.56E-05,  avg # of iterations =  2.0

     total cpu time spent up to now is      173.6 secs

     total energy              =    -874.81359679 Ry
     Harris-Foulkes estimate   =    -874.81395463 Ry
     estimated scf accuracy    <       0.00159156 Ry

     iteration #  3     ecut=    90.00 Ry     beta=0.70
     Davidson diagonalization with overlap
     ethr =  5.68E-06,  avg # of iterations =  2.2

     total cpu time spent up to now is      230.3 secs

     total energy              =    -874.81386714 Ry
     Harris-Foulkes estimate   =    -874.81395190 Ry
     estimated scf accuracy    <       0.00012538 Ry

     iteration #  4     ecut=    90.00 Ry     beta=0.70
     Davidson diagonalization with overlap
     ethr =  4.48E-07,  avg # of iterations =  2.0

     total cpu time spent up to now is      286.0 secs

     total energy              =    -874.81390770 Ry
     Harris-Foulkes estimate   =    -874.81391096 Ry
     estimated scf accuracy    <       0.00000886 Ry

     iteration #  5     ecut=    90.00 Ry     beta=0.70
     Davidson diagonalization with overlap
     ethr =  3.16E-08,  avg # of iterations =  2.0

     total cpu time spent up to now is      335.1 secs

     End of self-consistent calculation

          k = 0.0000 0.0000 0.0000 (  7239 PWs)   bands (ev):

   -15.2404 -15.2404 -15.2404 -15.2404 -15.1597 -15.1597 -15.1597 -15.1597
   -14.3107 -14.3107 -14.1410 -14.1410 -14.1410 -14.1410 -14.1032 -14.1032
   -14.1032 -14.1032 -13.9996 -13.9996  -3.3501  -3.3501   5.5147   5.5147
     6.3928   6.3928   7.0476   7.0476   7.0476   7.0476   8.5640   8.5640
     9.0383   9.0383   9.0383   9.0383

     occupation numbers 
     1.0000   1.0000   1.0000   1.0000   1.0000   1.0000   1.0000   1.0000
     1.0000   1.0000   1.0000   1.0000   1.0000   1.0000   1.0000   1.0000
     1.0000   1.0000   1.0000   1.0000   1.0000   1.0000   1.0000   1.0000
     1.0000   1.0000   0.0000   0.0000   0.0000   0.0000   0.0000   0.0000
     0.0000   0.0000   0.0000   0.0000

          k = 0.0442 0.0442-0.0442 (  7267 PWs)   bands (ev):

   -15.2409 -15.2406 -15.2396 -15.2396 -15.1605 -15.1605 -15.1593 -15.1590
   -14.3089 -14.3089 -14.1460 -14.1460 -14.1445 -14.1438 -14.1001 -14.0995
   -14.0989 -14.0989 -14.0006 -14.0006  -3.3153  -3.3153   5.1189   5.1189
     6.4358   6.4358   6.9724   6.9724   7.0963   7.0963   8.7212   8.7212
     9.1146   9.1146   9.1356   9.1356

     occupation numbers 
     1.0000   1.0000   1.0000   1.0000   1.0000   1.0000   1.0000   1.0000
     1.0000   1.0000   1.0000   1.0000   1.0000   1.0000   1.0000   1.0000
     1.0000   1.0000   1.0000   1.0000   1.0000   1.0000   1.0000   1.0000
     1.0000   1.0000   0.0000   0.0000   0.0000   0.0000   0.0000   0.0000
     0.0000   0.0000   0.0000   0.0000

          k = 0.0884 0.0884-0.0884 (  7240 PWs)   bands (ev):

   -15.2420 -15.2416 -15.2373 -15.2373 -15.1626 -15.1626 -15.1580 -15.1575
   -14.3037 -14.3037 -14.1570 -14.1570 -14.1516 -14.1507 -14.0926 -14.0918
   -14.0899 -14.0899 -14.0034 -14.0034  -3.2117  -3.2117   4.3655   4.3655
     6.3315   6.3315   6.7898   6.7898   7.1259   7.1259   9.0497   9.0497
     9.3733   9.3733   9.4536   9.4537

     occupation numbers 
     1.0000   1.0000   1.0000   1.0000   1.0000   1.0000   1.0000   1.0000
     1.0000   1.0000   1.0000   1.0000   1.0000   1.0000   1.0000   1.0000
     1.0000   1.0000   1.0000   1.0000   1.0000   1.0000   1.0000   1.0000
     1.0000   1.0000   0.5015   0.5001   0.0000   0.0000   0.0000   0.0000
     0.0000   0.0000   0.0000   0.0000

          k = 0.1326 0.1326-0.1326 (  7237 PWs)   bands (ev):

   -15.2435 -15.2430 -15.2336 -15.2336 -15.1662 -15.1662 -15.1559 -15.1553
   -14.2956 -14.2956 -14.1701 -14.1701 -14.1596 -14.1587 -14.0838 -14.0830
   -14.0800 -14.0800 -14.0077 -14.0077  -3.0422  -3.0422   3.5418   3.5418
     6.1368   6.1368   6.5710   6.5710   7.0359   7.0359   9.3351   9.3351
     9.6471   9.6471  10.1091  10.1091

     occupation numbers 
     1.0000   1.0000   1.0000   1.0000   1.0000   1.0000   1.0000   1.0000
     1.0000   1.0000   1.0000   1.0000   1.0000   1.0000   1.0000   1.0000
     1.0000   1.0000   1.0000   1.0000   1.0000   1.0000   1.0000   1.0000
     1.0000   1.0000   1.0000   1.0000   0.0000   0.0000   0.0000   0.0000
     0.0000   0.0000   0.0000   0.0000

          k = 0.1768 0.1768-0.1768 (  7243 PWs)   bands (ev):

   -15.2451 -15.2446 -15.2288 -15.2288 -15.1708 -15.1708 -15.1537 -15.1530
   -14.2852 -14.2852 -14.1836 -14.1836 -14.1670 -14.1662 -14.0753 -14.0746
   -14.0707 -14.0707 -14.0133 -14.0133  -2.8132  -2.8132   2.7335   2.7335
     5.9367   5.9367   6.3618   6.3618   6.8898   6.8898   9.5650   9.5650
     9.8674   9.8674  10.9082  10.9082

     occupation numbers 
     1.0000   1.0000   1.0000   1.0000   1.0000   1.0000   1.0000   1.0000
     1.0000   1.0000   1.0000   1.0000   1.0000   1.0000   1.0000   1.0000
     1.0000   1.0000   1.0000   1.0000   1.0000   1.0000   1.0000   1.0000
     1.0000   1.0000   1.0000   1.0000   0.0000   0.0000   0.0000   0.0000
     0.0000   0.0000   0.0000   0.0000

          k = 0.2210 0.2210-0.2210 (  7237 PWs)   bands (ev):

   -15.2466 -15.2461 -15.2232 -15.2232 -15.1763 -15.1763 -15.1514 -15.1509
   -14.2734 -14.2734 -14.1969 -14.1969 -14.1732 -14.1725 -14.0680 -14.0674
   -14.0622 -14.0622 -14.0198 -14.0198  -2.5376  -2.5376   1.9869   1.9869
     5.7648   5.7648   6.1856   6.1856   6.7461   6.7461   9.7124   9.7125
     9.9899   9.9899  11.7636  11.7636

     occupation numbers 
     1.0000   1.0000   1.0000   1.0000   1.0000   1.0000   1.0000   1.0000
     1.0000   1.0000   1.0000   1.0000   1.0000   1.0000   1.0000   1.0000
     1.0000   1.0000   1.0000   1.0000   1.0000   1.0000   1.0000   1.0000
     1.0000   1.0000   1.0000   1.0000   1.0000   1.0000   0.0000   0.0000
     0.0000   0.0000   0.0000   0.0000

          k = 0.2652 0.2652-0.2652 (  7228 PWs)   bands (ev):

   -15.2477 -15.2474 -15.2172 -15.2172 -15.1821 -15.1821 -15.1496 -15.1492
   -14.2610 -14.2610 -14.2096 -14.2096 -14.1778 -14.1773 -14.0623 -14.0619
   -14.0546 -14.0546 -14.0267 -14.0267  -2.2435  -2.2435   1.3473   1.3473
     5.6356   5.6356   6.0543   6.0543   6.6327   6.6327   9.7801   9.7801
    10.0297  10.0297  12.3854  12.3854

     occupation numbers 
     1.0000   1.0000   1.0000   1.0000   1.0000   1.0000   1.0000   1.0000
     1.0000   1.0000   1.0000   1.0000   1.0000   1.0000   1.0000   1.0000
     1.0000   1.0000   1.0000   1.0000   1.0000   1.0000   1.0000   1.0000
     1.0000   1.0000   1.0000   1.0000   1.0000   1.0000   0.0000   0.0000
     0.0000   0.0000   0.0000   0.0000

          k = 0.3094 0.3094-0.3094 (  7234 PWs)   bands (ev):

   -15.2484 -15.2482 -15.2117 -15.2117 -15.1874 -15.1874 -15.1484 -15.1481
   -14.2487 -14.2487 -14.2217 -14.2217 -14.1806 -14.1803 -14.0587 -14.0585
   -14.0476 -14.0476 -14.0335 -14.0335  -1.9910  -1.9910   0.8842   0.8842
     5.5559   5.5559   5.9736   5.9736   6.5615   6.5615   9.8005   9.8005
    10.0306  10.0306  12.3779  12.3779

     occupation numbers 
     1.0000   1.0000   1.0000   1.0000   1.0000   1.0000   1.0000   1.0000
     1.0000   1.0000   1.0000   1.0000   1.0000   1.0000   1.0000   1.0000
     1.0000   1.0000   1.0000   1.0000   1.0000   1.0000   1.0000   1.0000
     1.0000   1.0000   1.0000   1.0000   1.0000   1.0000   0.0000   0.0000
     0.0000   0.0000   0.0000   0.0000

          k =-0.3536-0.3536 0.3536 (  7192 PWs)   bands (ev):

   -15.2486 -15.2486 -15.2091 -15.2091 -15.1899 -15.1899 -15.1478 -15.1478
   -14.2403 -14.2403 -14.2300 -14.2300 -14.1814 -14.1814 -14.0574 -14.0574
   -14.0423 -14.0423 -14.0388 -14.0388  -1.8842  -1.8842   0.7067   0.7067
     5.5290   5.5290   5.9465   5.9465   6.5373   6.5373   9.8035   9.8035
    10.0270  10.0270  12.3491  12.3491

     occupation numbers 
     1.0000   1.0000   1.0000   1.0000   1.0000   1.0000   1.0000   1.0000
     1.0000   1.0000   1.0000   1.0000   1.0000   1.0000   1.0000   1.0000
     1.0000   1.0000   1.0000   1.0000   1.0000   1.0000   1.0000   1.0000
     1.0000   1.0000   1.0000   1.0000   1.0000   1.0000   0.0000   0.0000
     0.0000   0.0000   0.0000   0.0000

          k = 0.0884 0.0000 0.0000 (  7255 PWs)   bands (ev):

   -15.2404 -15.2404 -15.2397 -15.2397 -15.1604 -15.1604 -15.1593 -15.1593
   -14.3083 -14.3083 -14.1484 -14.1484 -14.1440 -14.1440 -14.0992 -14.0992
   -14.0974 -14.0974 -14.0009 -14.0009  -3.3036  -3.3036   5.0391   5.0391
     6.3695   6.3695   6.7898   6.7898   7.3534   7.3534   8.6330   8.6330
     9.1320   9.1320   9.2696   9.2696

     occupation numbers 
     1.0000   1.0000   1.0000   1.0000   1.0000   1.0000   1.0000   1.0000
     1.0000   1.0000   1.0000   1.0000   1.0000   1.0000   1.0000   1.0000
     1.0000   1.0000   1.0000   1.0000   1.0000   1.0000   1.0000   1.0000
     1.0000   1.0000   0.4989   0.4989   0.0000   0.0000   0.0000   0.0000
     0.0000   0.0000   0.0000   0.0000

          k = 0.1326 0.0442-0.0442 (  7242 PWs)   bands (ev):

   -15.2414 -15.2410 -15.2381 -15.2380 -15.1621 -15.1620 -15.1584 -15.1580
   -14.3042 -14.3042 -14.1573 -14.1573 -14.1491 -14.1487 -14.0941 -14.0938
   -14.0902 -14.0901 -14.0029 -14.0029  -3.2228  -3.2228   4.4807   4.4808
     6.2305   6.2305   6.5760   6.5761   7.5478   7.5479   8.6940   8.6941
     9.4169   9.4169   9.5682   9.5682

     occupation numbers 
     1.0000   1.0000   1.0000   1.0000   1.0000   1.0000   1.0000   1.0000
     1.0000   1.0000   1.0000   1.0000   1.0000   1.0000   1.0000   1.0000
     1.0000   1.0000   1.0000   1.0000   1.0000   1.0000   1.0000   1.0000
     1.0000   1.0000   1.0000   1.0000   0.0000   0.0000   0.0000   0.0000
     0.0000   0.0000   0.0000   0.0000

          k = 0.1768 0.0884-0.0884 (  7236 PWs)   bands (ev):

   -15.2428 -15.2424 -15.2348 -15.2348 -15.1652 -15.1651 -15.1566 -15.1560
   -14.2971 -14.2971 -14.1691 -14.1690 -14.1563 -14.1557 -14.0875 -14.0871
   -14.0803 -14.0800 -14.0066 -14.0066  -3.0748  -3.0748   3.7335   3.7335
     6.0250   6.0250   6.3543   6.3543   7.5359   7.5360   8.9379   8.9380
     9.7513   9.7513  10.0658  10.0658

     occupation numbers 
     1.0000   1.0000   1.0000   1.0000   1.0000   1.0000   1.0000   1.0000
     1.0000   1.0000   1.0000   1.0000   1.0000   1.0000   1.0000   1.0000
     1.0000   1.0000   1.0000   1.0000   1.0000   1.0000   1.0000   1.0000
     1.0000   1.0000   1.0000   1.0000   0.0000   0.0000   0.0000   0.0000
     0.0000   0.0000   0.0000   0.0000

          k = 0.2210 0.1326-0.1326 (  7246 PWs)   bands (ev):

   -15.2445 -15.2440 -15.2304 -15.2304 -15.1695 -15.1694 -15.1543 -15.1537
   -14.2875 -14.2875 -14.1818 -14.1817 -14.1637 -14.1630 -14.0809 -14.0806
   -14.0701 -14.0698 -14.0115 -14.0115  -2.8647  -2.8647   2.9492   2.9492
     5.8077   5.8078   6.1351   6.1351   7.4132   7.4133   9.2461   9.2461
    10.0058  10.0058  10.6865  10.6865

     occupation numbers 
     1.0000   1.0000   1.0000   1.0000   1.0000   1.0000   1.0000   1.0000
     1.0000   1.0000   1.0000   1.0000   1.0000   1.0000   1.0000   1.0000
     1.0000   1.0000   1.0000   1.0000   1.0000   1.0000   1.0000   1.0000
     1.0000   1.0000   1.0000   1.0000   0.0000   0.0000   0.0000   0.0000
     0.0000   0.0000   0.0000   0.0000

          k = 0.2652 0.1768-0.1768 (  7237 PWs)   bands (ev):

   -15.2460 -15.2456 -15.2251 -15.2249 -15.1748 -15.1746 -15.1519 -15.1513
   -14.2763 -14.2762 -14.1943 -14.1942 -14.1702 -14.1696 -14.0751 -14.0748
   -14.0609 -14.0606 -14.0171 -14.0170  -2.6025  -2.6025   2.1975   2.1975
     5.6112   5.6113   5.9490   5.9490   7.2657   7.2658   9.5004   9.5005
    10.1437  10.1437  11.3501  11.3501

     occupation numbers 
     1.0000   1.0000   1.0000   1.0000   1.0000   1.0000   1.0000   1.0000
     1.0000   1.0000   1.0000   1.0000   1.0000   1.0000   1.0000   1.0000
     1.0000   1.0000   1.0000   1.0000   1.0000   1.0000   1.0000   1.0000
     1.0000   1.0000   1.0000   1.0000   0.0000   0.0000   0.0000   0.0000
     0.0000   0.0000   0.0000   0.0000

          k = 0.3094 0.2210-0.2210 (  7234 PWs)   bands (ev):

   -15.2473 -15.2469 -15.2193 -15.2189 -15.1807 -15.1802 -15.1499 -15.1494
   -14.2643 -14.2642 -14.2064 -14.2062 -14.1755 -14.1750 -14.0703 -14.0701
   -14.0532 -14.0529 -14.0228 -14.0227  -2.3097  -2.3097   1.5277   1.5278
     5.4493   5.4493   5.8155   5.8155   7.1351   7.1352   9.6548   9.6549
    10.1729  10.1729  12.0045  12.0045

     occupation numbers 
     1.0000   1.0000   1.0000   1.0000   1.0000   1.0000   1.0000   1.0000
     1.0000   1.0000   1.0000   1.0000   1.0000   1.0000   1.0000   1.0000
     1.0000   1.0000   1.0000   1.0000   1.0000   1.0000   1.0000   1.0000
     1.0000   1.0000   1.0000   1.0000   0.0000   0.0000   0.0000   0.0000
     0.0000   0.0000   0.0000   0.0000

          k = 0.3536 0.2652-0.2652 (  7233 PWs)   bands (ev):

   -15.2482 -15.2479 -15.2138 -15.2129 -15.1866 -15.1857 -15.1484 -15.1481
   -14.2524 -14.2523 -14.2178 -14.2176 -14.1790 -14.1787 -14.0670 -14.0668
   -14.0472 -14.0471 -14.0278 -14.0277  -2.0331  -2.0331   1.0015   1.0015
     5.3296   5.3297   5.7425   5.7425   7.0400   7.0401   9.7364   9.7364
    10.1398  10.1398  12.4022  12.4022

     occupation numbers 
     1.0000   1.0000   1.0000   1.0000   1.0000   1.0000   1.0000   1.0000
     1.0000   1.0000   1.0000   1.0000   1.0000   1.0000   1.0000   1.0000
     1.0000   1.0000   1.0000   1.0000   1.0000   1.0000   1.0000   1.0000
     1.0000   1.0000   1.0000   1.0000   0.0000   0.0000   0.0000   0.0000
     0.0000   0.0000   0.0000   0.0000

          k =-0.3094-0.3977 0.3977 (  7214 PWs)   bands (ev):

   -15.2485 -15.2485 -15.2101 -15.2086 -15.1908 -15.1893 -15.1476 -15.1475
   -14.2426 -14.2425 -14.2271 -14.2269 -14.1806 -14.1805 -14.0654 -14.0653
   -14.0437 -14.0436 -14.0310 -14.0309  -1.8646  -1.8646   0.7181   0.7182
     5.2583   5.2583   5.7315   5.7315   6.9886   6.9887   9.7871   9.7871
    10.0897  10.0897  12.4773  12.4774

     occupation numbers 
     1.0000   1.0000   1.0000   1.0000   1.0000   1.0000   1.0000   1.0000
     1.0000   1.0000   1.0000   1.0000   1.0000   1.0000   1.0000   1.0000
     1.0000   1.0000   1.0000   1.0000   1.0000   1.0000   1.0000   1.0000
     1.0000   1.0000   1.0000   1.0000   0.0000   0.0000   0.0000   0.0000
     0.0000   0.0000   0.0000   0.0000

          k =-0.2652-0.3536 0.3536 (  7222 PWs)   bands (ev):

   -15.2485 -15.2484 -15.2109 -15.2096 -15.1899 -15.1885 -15.1477 -15.1476
   -14.2453 -14.2452 -14.2245 -14.2244 -14.1802 -14.1801 -14.0659 -14.0659
   -14.0442 -14.0441 -14.0304 -14.0303  -1.9017  -1.9017   0.7786   0.7786
     5.2399   5.2399   5.7804   5.7804   6.9840   6.9841   9.8225   9.8225
    10.0519  10.0519  12.4914  12.4915

     occupation numbers 
     1.0000   1.0000   1.0000   1.0000   1.0000   1.0000   1.0000   1.0000
     1.0000   1.0000   1.0000   1.0000   1.0000   1.0000   1.0000   1.0000
     1.0000   1.0000   1.0000   1.0000   1.0000   1.0000   1.0000   1.0000
     1.0000   1.0000   1.0000   1.0000   0.0000   0.0000   0.0000   0.0000
     0.0000   0.0000   0.0000   0.0000

          k =-0.2210-0.3094 0.3094 (  7239 PWs)   bands (ev):

   -15.2480 -15.2477 -15.2154 -15.2146 -15.1849 -15.1841 -15.1487 -15.1484
   -14.2563 -14.2562 -14.2140 -14.2140 -14.1779 -14.1776 -14.0684 -14.0683
   -14.0483 -14.0482 -14.0265 -14.0263  -2.1195  -2.1195   1.1569   1.1569
     5.2778   5.2779   5.8850   5.8850   7.0257   7.0257   9.8206   9.8206
    10.0417  10.0417  12.4037  12.4037

     occupation numbers 
     1.0000   1.0000   1.0000   1.0000   1.0000   1.0000   1.0000   1.0000
     1.0000   1.0000   1.0000   1.0000   1.0000   1.0000   1.0000   1.0000
     1.0000   1.0000   1.0000   1.0000   1.0000   1.0000   1.0000   1.0000
     1.0000   1.0000   1.0000   1.0000   0.0000   0.0000   0.0000   0.0000
     0.0000   0.0000   0.0000   0.0000

          k =-0.1768-0.2652 0.2652 (  7233 PWs)   bands (ev):

   -15.2470 -15.2466 -15.2212 -15.2207 -15.1790 -15.1785 -15.1504 -15.1499
   -14.2684 -14.2682 -14.2024 -14.2024 -14.1737 -14.1732 -14.0725 -14.0723
   -14.0547 -14.0544 -14.0211 -14.0210  -2.4091  -2.4091   1.7397   1.7397
     5.3742   5.3743   6.0388   6.0388   7.1092   7.1093   9.7493   9.7493
    10.0327  10.0328  11.8640  11.8640

     occupation numbers 
     1.0000   1.0000   1.0000   1.0000   1.0000   1.0000   1.0000   1.0000
     1.0000   1.0000   1.0000   1.0000   1.0000   1.0000   1.0000   1.0000
     1.0000   1.0000   1.0000   1.0000   1.0000   1.0000   1.0000   1.0000
     1.0000   1.0000   1.0000   1.0000   0.0000   0.0000   0.0000   0.0000
     0.0000   0.0000   0.0000   0.0000

          k =-0.1326-0.2210 0.2210 (  7244 PWs)   bands (ev):

   -15.2457 -15.2452 -15.2268 -15.2266 -15.1732 -15.1730 -15.1525 -15.1519
   -14.2802 -14.2801 -14.1902 -14.1901 -14.1679 -14.1673 -14.0779 -14.0776
   -14.0628 -14.0625 -14.0153 -14.0152  -2.6952  -2.6952   2.4414   2.4415
     5.5298   5.5299   6.2316   6.2317   7.2229   7.2230   9.5945   9.5945
     9.9392   9.9392  11.1478  11.1478

     occupation numbers 
     1.0000   1.0000   1.0000   1.0000   1.0000   1.0000   1.0000   1.0000
     1.0000   1.0000   1.0000   1.0000   1.0000   1.0000   1.0000   1.0000
     1.0000   1.0000   1.0000   1.0000   1.0000   1.0000   1.0000   1.0000
     1.0000   1.0000   1.0000   1.0000   0.0000   0.0000   0.0000   0.0000
     0.0000   0.0000   0.0000   0.0000

          k =-0.0884-0.1768 0.1768 (  7245 PWs)   bands (ev):

   -15.2441 -15.2436 -15.2318 -15.2317 -15.1682 -15.1681 -15.1549 -15.1543
   -14.2910 -14.2909 -14.1776 -14.1774 -14.1611 -14.1604 -14.0841 -14.0837
   -14.0724 -14.0721 -14.0099 -14.0098  -2.9416  -2.9416   3.2067   3.2067
     5.7431   5.7432   6.4462   6.4462   7.3392   7.3393   9.3628   9.3628
     9.6824   9.6824  10.5125  10.5125

     occupation numbers 
     1.0000   1.0000   1.0000   1.0000   1.0000   1.0000   1.0000   1.0000
     1.0000   1.0000   1.0000   1.0000   1.0000   1.0000   1.0000   1.0000
     1.0000   1.0000   1.0000   1.0000   1.0000   1.0000   1.0000   1.0000
     1.0000   1.0000   1.0000   1.0000   0.0000   0.0000   0.0000   0.0000
     0.0000   0.0000   0.0000   0.0000

          k =-0.0442-0.1326 0.1326 (  7233 PWs)   bands (ev):

   -15.2425 -15.2421 -15.2358 -15.2358 -15.1642 -15.1642 -15.1571 -15.1565
   -14.2998 -14.2998 -14.1650 -14.1648 -14.1539 -14.1532 -14.0907 -14.0903
   -14.0828 -14.0824 -14.0053 -14.0053  -3.1316  -3.1316   3.9812   3.9812
     6.0076   6.0077   6.6523   6.6524   7.3960   7.3961   9.0951   9.0951
     9.3352   9.3352   9.9652   9.9652

     occupation numbers 
     1.0000   1.0000   1.0000   1.0000   1.0000   1.0000   1.0000   1.0000
     1.0000   1.0000   1.0000   1.0000   1.0000   1.0000   1.0000   1.0000
     1.0000   1.0000   1.0000   1.0000   1.0000   1.0000   1.0000   1.0000
     1.0000   1.0000   1.0000   1.0000   0.0000   0.0000   0.0000   0.0000
     0.0000   0.0000   0.0000   0.0000

          k = 0.0000-0.0884 0.0884 (  7257 PWs)   bands (ev):

   -15.2414 -15.2410 -15.2385 -15.2384 -15.1616 -15.1615 -15.1586 -15.1582
   -14.3060 -14.3060 -14.1536 -14.1533 -14.1477 -14.1471 -14.0966 -14.0961
   -14.0927 -14.0923 -14.0021 -14.0021  -3.2575  -3.2575   4.6777   4.6777
     6.2910   6.2911   6.8150   6.8150   7.2983   7.2984   8.8524   8.8524
     9.1280   9.1280   9.4722   9.4722

     occupation numbers 
     1.0000   1.0000   1.0000   1.0000   1.0000   1.0000   1.0000   1.0000
     1.0000   1.0000   1.0000   1.0000   1.0000   1.0000   1.0000   1.0000
     1.0000   1.0000   1.0000   1.0000   1.0000   1.0000   1.0000   1.0000
     1.0000   1.0000   0.0000   0.0000   0.0000   0.0000   0.0000   0.0000
     0.0000   0.0000   0.0000   0.0000

          k = 0.1768 0.0000 0.0000 (  7219 PWs)   bands (ev):

   -15.2406 -15.2406 -15.2380 -15.2380 -15.1622 -15.1622 -15.1583 -15.1583
   -14.3014 -14.3014 -14.1633 -14.1633 -14.1506 -14.1506 -14.0896 -14.0896
   -14.0879 -14.0879 -14.0041 -14.0041  -3.1646  -3.1646   4.2329   4.2329
     6.0405   6.0405   6.2981   6.2981   8.0098   8.0098   8.3769   8.3769
     9.7219   9.7219   9.8260   9.8260

     occupation numbers 
     1.0000   1.0000   1.0000   1.0000   1.0000   1.0000   1.0000   1.0000
     1.0000   1.0000   1.0000   1.0000   1.0000   1.0000   1.0000   1.0000
     1.0000   1.0000   1.0000   1.0000   1.0000   1.0000   1.0000   1.0000
     1.0000   1.0000   1.0000   1.0000   0.0000   0.0000   0.0000   0.0000
     0.0000   0.0000   0.0000   0.0000

          k = 0.2210 0.0442-0.0442 (  7224 PWs)   bands (ev):

   -15.2417 -15.2413 -15.2358 -15.2357 -15.1645 -15.1644 -15.1572 -15.1568
   -14.2954 -14.2953 -14.1728 -14.1727 -14.1554 -14.1552 -14.0862 -14.0861
   -14.0798 -14.0795 -14.0067 -14.0067  -3.0385  -3.0385   3.6945   3.6945
     5.8195   5.8195   6.0541   6.0541   8.1484   8.1487   8.4064   8.4067
    10.0909  10.0909  10.2161  10.2161

     occupation numbers 
     1.0000   1.0000   1.0000   1.0000   1.0000   1.0000   1.0000   1.0000
     1.0000   1.0000   1.0000   1.0000   1.0000   1.0000   1.0000   1.0000
     1.0000   1.0000   1.0000   1.0000   1.0000   1.0000   1.0000   1.0000
     1.0000   1.0000   1.0000   1.0000   0.0000   0.0000   0.0000   0.0000
     0.0000   0.0000   0.0000   0.0000

          k = 0.2652 0.0884-0.0884 (  7236 PWs)   bands (ev):

   -15.2433 -15.2429 -15.2318 -15.2318 -15.1684 -15.1683 -15.1550 -15.1545
   -14.2868 -14.2868 -14.1838 -14.1836 -14.1611 -14.1608 -14.0836 -14.0835
   -14.0694 -14.0690 -14.0103 -14.0103  -2.8483  -2.8483   3.0227   3.0227
     5.5655   5.5656   5.8302   5.8303   8.0714   8.0716   8.6986   8.6987
    10.3854  10.3854  10.6211  10.6211

     occupation numbers 
     1.0000   1.0000   1.0000   1.0000   1.0000   1.0000   1.0000   1.0000
     1.0000   1.0000   1.0000   1.0000   1.0000   1.0000   1.0000   1.0000
     1.0000   1.0000   1.0000   1.0000   1.0000   1.0000   1.0000   1.0000
     1.0000   1.0000   1.0000   1.0000   0.0000   0.0000   0.0000   0.0000
     0.0000   0.0000   0.0000   0.0000

          k = 0.3094 0.1326-0.1326 (  7236 PWs)   bands (ev):

   -15.2450 -15.2446 -15.2269 -15.2266 -15.1735 -15.1731 -15.1525 -15.1520
   -14.2765 -14.2764 -14.1949 -14.1947 -14.1668 -14.1664 -14.0815 -14.0813
   -14.0598 -14.0594 -14.0143 -14.0142  -2.6018  -2.6018   2.3233   2.3234
     5.3060   5.3061   5.6535   5.6536   7.9346   7.9347   9.0744   9.0745
    10.5547  10.5547  10.9190  10.9190

     occupation numbers 
     1.0000   1.0000   1.0000   1.0000   1.0000   1.0000   1.0000   1.0000
     1.0000   1.0000   1.0000   1.0000   1.0000   1.0000   1.0000   1.0000
     1.0000   1.0000   1.0000   1.0000   1.0000   1.0000   1.0000   1.0000
     1.0000   1.0000   1.0000   1.0000   0.0000   0.0000   0.0000   0.0000
     0.0000   0.0000   0.0000   0.0000

          k = 0.3536 0.1768-0.1768 (  7223 PWs)   bands (ev):

   -15.2465 -15.2461 -15.2215 -15.2208 -15.1793 -15.1785 -15.1501 -15.1497
   -14.2654 -14.2652 -14.2053 -14.2050 -14.1719 -14.1716 -14.0800 -14.0798
   -14.0520 -14.0517 -14.0177 -14.0176  -2.3151  -2.3151   1.6634   1.6634
     5.0700   5.0701   5.5405   5.5406   7.7939   7.7940   9.3937   9.3937
    10.5905  10.5905  11.2648  11.2648

     occupation numbers 
     1.0000   1.0000   1.0000   1.0000   1.0000   1.0000   1.0000   1.0000
     1.0000   1.0000   1.0000   1.0000   1.0000   1.0000   1.0000   1.0000
     1.0000   1.0000   1.0000   1.0000   1.0000   1.0000   1.0000   1.0000
     1.0000   1.0000   1.0000   1.0000   0.0000   0.0000   0.0000   0.0000
     0.0000   0.0000   0.0000   0.0000

          k = 0.3977 0.2210-0.2210 (  7214 PWs)   bands (ev):

   -15.2476 -15.2473 -15.2160 -15.2146 -15.1855 -15.1840 -15.1482 -15.1479
   -14.2546 -14.2544 -14.2147 -14.2143 -14.1759 -14.1756 -14.0793 -14.0790
   -14.0469 -14.0466 -14.0200 -14.0199  -2.0240  -2.0240   1.1053   1.1053
     4.8781   4.8782   5.4931   5.4931   7.6787   7.6788   9.5873   9.5873
    10.5343  10.5343  11.7756  11.7756

     occupation numbers 
     1.0000   1.0000   1.0000   1.0000   1.0000   1.0000   1.0000   1.0000
     1.0000   1.0000   1.0000   1.0000   1.0000   1.0000   1.0000   1.0000
     1.0000   1.0000   1.0000   1.0000   1.0000   1.0000   1.0000   1.0000
     1.0000   1.0000   1.0000   1.0000   0.0000   0.0000   0.0000   0.0000
     0.0000   0.0000   0.0000   0.0000

          k =-0.2652-0.4419 0.4419 (  7221 PWs)   bands (ev):

   -15.2482 -15.2481 -15.2116 -15.2092 -15.1910 -15.1884 -15.1470 -15.1469
   -14.2459 -14.2458 -14.2221 -14.2218 -14.1781 -14.1779 -14.0792 -14.0790
   -14.0442 -14.0441 -14.0210 -14.0208  -1.8048  -1.8048   0.7395   0.7396
     4.7420   4.7420   5.5096   5.5096   7.6025   7.6026   9.7012   9.7012
    10.4358  10.4358  12.3345  12.3345

     occupation numbers 
     1.0000   1.0000   1.0000   1.0000   1.0000   1.0000   1.0000   1.0000
     1.0000   1.0000   1.0000   1.0000   1.0000   1.0000   1.0000   1.0000
     1.0000   1.0000   1.0000   1.0000   1.0000   1.0000   1.0000   1.0000
     1.0000   1.0000   1.0000   1.0000   0.0000   0.0000   0.0000   0.0000
     0.0000   0.0000   0.0000   0.0000

          k =-0.2210-0.3977 0.3977 (  7216 PWs)   bands (ev):

   -15.2484 -15.2483 -15.2105 -15.2075 -15.1927 -15.1896 -15.1467 -15.1466
   -14.2444 -14.2442 -14.2234 -14.2233 -14.1782 -14.1781 -14.0797 -14.0795
   -14.0433 -14.0433 -14.0212 -14.0210  -1.7692  -1.7692   0.6842   0.6842
     4.6689   4.6690   5.5869   5.5869   7.5705   7.5705   9.7949   9.7949
    10.3241  10.3241  12.6314  12.6314

     occupation numbers 
     1.0000   1.0000   1.0000   1.0000   1.0000   1.0000   1.0000   1.0000
     1.0000   1.0000   1.0000   1.0000   1.0000   1.0000   1.0000   1.0000
     1.0000   1.0000   1.0000   1.0000   1.0000   1.0000   1.0000   1.0000
     1.0000   1.0000   1.0000   1.0000   0.0000   0.0000   0.0000   0.0000
     0.0000   0.0000   0.0000   0.0000

          k =-0.1768-0.3536 0.3536 (  7215 PWs)   bands (ev):

   -15.2482 -15.2479 -15.2136 -15.2115 -15.1887 -15.1866 -15.1473 -15.1470
   -14.2517 -14.2514 -14.2173 -14.2173 -14.1760 -14.1760 -14.0807 -14.0806
   -14.0442 -14.0440 -14.0209 -14.0207  -1.9420  -1.9420   0.9641   0.9641
     4.6651   4.6652   5.7196   5.7196   7.5816   7.5816   9.8855   9.8855
    10.2074  10.2074  12.3882  12.3882

     occupation numbers 
     1.0000   1.0000   1.0000   1.0000   1.0000   1.0000   1.0000   1.0000
     1.0000   1.0000   1.0000   1.0000   1.0000   1.0000   1.0000   1.0000
     1.0000   1.0000   1.0000   1.0000   1.0000   1.0000   1.0000   1.0000
     1.0000   1.0000   1.0000   1.0000   0.0000   0.0000   0.0000   0.0000
     0.0000   0.0000   0.0000   0.0000

          k =-0.1326-0.3094 0.3094 (  7231 PWs)   bands (ev):

   -15.2474 -15.2471 -15.2186 -15.2174 -15.1829 -15.1816 -15.1487 -15.1483
   -14.2620 -14.2618 -14.2086 -14.2085 -14.1722 -14.1721 -14.0821 -14.0821
   -14.0475 -14.0472 -14.0193 -14.0191  -2.2210  -2.2210   1.4712   1.4712
     4.7374   4.7375   5.8993   5.8993   7.6286   7.6287   9.9185   9.9185
    10.0996  10.0996  11.7460  11.7460

     occupation numbers 
     1.0000   1.0000   1.0000   1.0000   1.0000   1.0000   1.0000   1.0000
     1.0000   1.0000   1.0000   1.0000   1.0000   1.0000   1.0000   1.0000
     1.0000   1.0000   1.0000   1.0000   1.0000   1.0000   1.0000   1.0000
     1.0000   1.0000   1.0000   1.0000   0.0000   0.0000   0.0000   0.0000
     0.0000   0.0000   0.0000   0.0000

          k =-0.0884-0.2652 0.2652 (  7243 PWs)   bands (ev):

   -15.2463 -15.2458 -15.2240 -15.2234 -15.1769 -15.1763 -15.1507 -15.1502
   -14.2731 -14.2729 -14.1987 -14.1985 -14.1674 -14.1671 -14.0841 -14.0840
   -14.0537 -14.0533 -14.0163 -14.0162  -2.5141  -2.5141   2.0987   2.0987
     4.8951   4.8952   6.1120   6.1121   7.6929   7.6930   9.7726   9.7726
    10.0049  10.0049  11.1467  11.1467

     occupation numbers 
     1.0000   1.0000   1.0000   1.0000   1.0000   1.0000   1.0000   1.0000
     1.0000   1.0000   1.0000   1.0000   1.0000   1.0000   1.0000   1.0000
     1.0000   1.0000   1.0000   1.0000   1.0000   1.0000   1.0000   1.0000
     1.0000   1.0000   1.0000   1.0000   0.0000   0.0000   0.0000   0.0000
     0.0000   0.0000   0.0000   0.0000

          k =-0.0442-0.2210 0.2210 (  7238 PWs)   bands (ev):

   -15.2449 -15.2444 -15.2290 -15.2287 -15.1716 -15.1713 -15.1531 -15.1525
   -14.2838 -14.2837 -14.1878 -14.1875 -14.1622 -14.1618 -14.0864 -14.0861
   -14.0624 -14.0620 -14.0124 -14.0123  -2.7755  -2.7755   2.7728   2.7728
     5.1527   5.1528   6.3344   6.3344   7.7308   7.7309   9.5244   9.5244
     9.7349   9.7350  10.7817  10.7817

     occupation numbers 
     1.0000   1.0000   1.0000   1.0000   1.0000   1.0000   1.0000   1.0000
     1.0000   1.0000   1.0000   1.0000   1.0000   1.0000   1.0000   1.0000
     1.0000   1.0000   1.0000   1.0000   1.0000   1.0000   1.0000   1.0000
     1.0000   1.0000   1.0000   1.0000   0.0000   0.0000   0.0000   0.0000
     0.0000   0.0000   0.0000   0.0000

          k = 0.0000-0.1768 0.1768 (  7245 PWs)   bands (ev):

   -15.2436 -15.2430 -15.2330 -15.2329 -15.1672 -15.1671 -15.1553 -15.1548
   -14.2930 -14.2929 -14.1762 -14.1759 -14.1575 -14.1569 -14.0887 -14.0884
   -14.0726 -14.0721 -14.0085 -14.0084  -2.9847  -2.9847   3.4253   3.4253
     5.5279   5.5280   6.5279   6.5279   7.6550   7.6551   9.2658   9.2659
     9.4339   9.4340  10.4589  10.4590

     occupation numbers 
     1.0000   1.0000   1.0000   1.0000   1.0000   1.0000   1.0000   1.0000
     1.0000   1.0000   1.0000   1.0000   1.0000   1.0000   1.0000   1.0000
     1.0000   1.0000   1.0000   1.0000   1.0000   1.0000   1.0000   1.0000
     1.0000   1.0000   1.0000   1.0000   0.0000   0.0000   0.0000   0.0000
     0.0000   0.0000   0.0000   0.0000

          k = 0.2652 0.0000 0.0000 (  7231 PWs)   bands (ev):

   -15.2407 -15.2407 -15.2356 -15.2356 -15.1648 -15.1648 -15.1572 -15.1572
   -14.2905 -14.2905 -14.1795 -14.1795 -14.1579 -14.1579 -14.0819 -14.0819
   -14.0773 -14.0773 -14.0080 -14.0080  -2.9341  -2.9341   3.3844   3.3844
     5.6285   5.6285   5.8010   5.8010   8.0377   8.0377   8.5488   8.5489
    10.4971  10.4971  10.5297  10.5297

     occupation numbers 
     1.0000   1.0000   1.0000   1.0000   1.0000   1.0000   1.0000   1.0000
     1.0000   1.0000   1.0000   1.0000   1.0000   1.0000   1.0000   1.0000
     1.0000   1.0000   1.0000   1.0000   1.0000   1.0000   1.0000   1.0000
     1.0000   1.0000   1.0000   1.0000   0.0000   0.0000   0.0000   0.0000
     0.0000   0.0000   0.0000   0.0000

          k = 0.3094 0.0442-0.0442 (  7237 PWs)   bands (ev):

   -15.2416 -15.2413 -15.2330 -15.2330 -15.1673 -15.1673 -15.1560 -15.1557
   -14.2831 -14.2831 -14.1883 -14.1882 -14.1617 -14.1616 -14.0824 -14.0823
   -14.0686 -14.0683 -14.0101 -14.0101  -2.7642  -2.7642   2.8827   2.8827
     5.3943   5.3944   5.5738   5.5739   8.0172   8.0173   8.6501   8.6502
    10.8163  10.8163  10.8744  10.8744

     occupation numbers 
     1.0000   1.0000   1.0000   1.0000   1.0000   1.0000   1.0000   1.0000
     1.0000   1.0000   1.0000   1.0000   1.0000   1.0000   1.0000   1.0000
     1.0000   1.0000   1.0000   1.0000   1.0000   1.0000   1.0000   1.0000
     1.0000   1.0000   1.0000   1.0000   0.0000   0.0000   0.0000   0.0000
     0.0000   0.0000   0.0000   0.0000

          k = 0.3536 0.0884-0.0884 (  7224 PWs)   bands (ev):

   -15.2433 -15.2429 -15.2288 -15.2286 -15.1717 -15.1714 -15.1537 -15.1533
   -14.2739 -14.2738 -14.1977 -14.1974 -14.1655 -14.1653 -14.0845 -14.0845
   -14.0591 -14.0587 -14.0123 -14.0123  -2.5348  -2.5348   2.2936   2.2936
     5.0975   5.0976   5.3943   5.3944   8.1083   8.1085   8.7960   8.7961
    10.8689  10.8689  11.0993  11.0993

     occupation numbers 
     1.0000   1.0000   1.0000   1.0000   1.0000   1.0000   1.0000   1.0000
     1.0000   1.0000   1.0000   1.0000   1.0000   1.0000   1.0000   1.0000
     1.0000   1.0000   1.0000   1.0000   1.0000   1.0000   1.0000   1.0000
     1.0000   1.0000   1.0000   1.0000   0.0000   0.0000   0.0000   0.0000
     0.0000   0.0000   0.0000   0.0000

          k = 0.3977 0.1326-0.1326 (  7227 PWs)   bands (ev):

   -15.2450 -15.2447 -15.2239 -15.2232 -15.1772 -15.1764 -15.1510 -15.1507
   -14.2640 -14.2639 -14.2063 -14.2059 -14.1691 -14.1689 -14.0873 -14.0872
   -14.0514 -14.0510 -14.0138 -14.0137  -2.2580  -2.2580   1.6931   1.6932
     4.7887   4.7888   5.2850   5.2850   8.0843   8.0844   9.1733   9.1733
    10.8579  10.8579  11.1790  11.1790

     occupation numbers 
     1.0000   1.0000   1.0000   1.0000   1.0000   1.0000   1.0000   1.0000
     1.0000   1.0000   1.0000   1.0000   1.0000   1.0000   1.0000   1.0000
     1.0000   1.0000   1.0000   1.0000   1.0000   1.0000   1.0000   1.0000
     1.0000   1.0000   1.0000   1.0000   0.0000   0.0000   0.0000   0.0000
     0.0000   0.0000   0.0000   0.0000

          k = 0.4419 0.1768-0.1768 (  7220 PWs)   bands (ev):

   -15.2465 -15.2462 -15.2188 -15.2173 -15.1833 -15.1817 -15.1486 -15.1483
   -14.2548 -14.2546 -14.2133 -14.2128 -14.1723 -14.1720 -14.0903 -14.0900
   -14.0465 -14.0462 -14.0139 -14.0138  -1.9606  -1.9606   1.1455   1.1455
     4.5195   4.5196   5.2433   5.2433   8.0110   8.0111   9.5857   9.5857
    10.9910  10.9910  11.1664  11.1664

     occupation numbers 
     1.0000   1.0000   1.0000   1.0000   1.0000   1.0000   1.0000   1.0000
     1.0000   1.0000   1.0000   1.0000   1.0000   1.0000   1.0000   1.0000
     1.0000   1.0000   1.0000   1.0000   1.0000   1.0000   1.0000   1.0000
     1.0000   1.0000   1.0000   1.0000   0.0000   0.0000   0.0000   0.0000
     0.0000   0.0000   0.0000   0.0000

          k =-0.2210-0.4861 0.4861 (  7219 PWs)   bands (ev):

   -15.2474 -15.2473 -15.2142 -15.2115 -15.1893 -15.1865 -15.1468 -15.1466
   -14.2480 -14.2478 -14.2178 -14.2174 -14.1744 -14.1740 -14.0929 -14.0925
   -14.0442 -14.0440 -14.0131 -14.0130  -1.7028  -1.7028   0.7327   0.7327
     4.3137   4.3138   5.2674   5.2675   7.9552   7.9552   9.8360   9.8361
    10.9778  10.9778  11.5372  11.5373

     occupation numbers 
     1.0000   1.0000   1.0000   1.0000   1.0000   1.0000   1.0000   1.0000
     1.0000   1.0000   1.0000   1.0000   1.0000   1.0000   1.0000   1.0000
     1.0000   1.0000   1.0000   1.0000   1.0000   1.0000   1.0000   1.0000
     1.0000   1.0000   1.0000   1.0000   0.0000   0.0000   0.0000   0.0000
     0.0000   0.0000   0.0000   0.0000

          k =-0.1768-0.4419 0.4419 (  7212 PWs)   bands (ev):

   -15.2480 -15.2480 -15.2115 -15.2072 -15.1938 -15.1894 -15.1458 -15.1458
   -14.2457 -14.2454 -14.2192 -14.2190 -14.1748 -14.1744 -14.0946 -14.0940
   -14.0432 -14.0432 -14.0126 -14.0125  -1.5972  -1.5972   0.5777   0.5777
     4.1839   4.1839   5.3545   5.3545   7.9354   7.9355   9.9631   9.9631
    10.8303  10.8303  12.1699  12.1699

     occupation numbers 
     1.0000   1.0000   1.0000   1.0000   1.0000   1.0000   1.0000   1.0000
     1.0000   1.0000   1.0000   1.0000   1.0000   1.0000   1.0000   1.0000
     1.0000   1.0000   1.0000   1.0000   1.0000   1.0000   1.0000   1.0000
     1.0000   1.0000   1.0000   1.0000   0.0000   0.0000   0.0000   0.0000
     0.0000   0.0000   0.0000   0.0000

          k =-0.1326-0.3977 0.3977 (  7214 PWs)   bands (ev):

   -15.2481 -15.2480 -15.2123 -15.2084 -15.1927 -15.1887 -15.1459 -15.1457
   -14.2488 -14.2484 -14.2174 -14.2174 -14.1731 -14.1727 -14.0949 -14.0944
   -14.0430 -14.0429 -14.0132 -14.0130  -1.7170  -1.7170   0.7553   0.7553
     4.1401   4.1402   5.4989   5.4990   7.9512   7.9513  10.0656  10.0656
    10.6522  10.6522  12.2792  12.2793

     occupation numbers 
     1.0000   1.0000   1.0000   1.0000   1.0000   1.0000   1.0000   1.0000
     1.0000   1.0000   1.0000   1.0000   1.0000   1.0000   1.0000   1.0000
     1.0000   1.0000   1.0000   1.0000   1.0000   1.0000   1.0000   1.0000
     1.0000   1.0000   1.0000   1.0000   0.0000   0.0000   0.0000   0.0000
     0.0000   0.0000   0.0000   0.0000

          k =-0.0884-0.3536 0.3536 (  7211 PWs)   bands (ev):

   -15.2478 -15.2475 -15.2159 -15.2135 -15.1876 -15.1851 -15.1468 -15.1465
   -14.2558 -14.2554 -14.2131 -14.2129 -14.1700 -14.1697 -14.0939 -14.0935
   -14.0439 -14.0437 -14.0145 -14.0143  -1.9797  -1.9797   1.1747   1.1747
     4.1952   4.1952   5.6912   5.6912   7.9890   7.9891  10.1661  10.1661
    10.4367  10.4367  11.6097  11.6097

     occupation numbers 
     1.0000   1.0000   1.0000   1.0000   1.0000   1.0000   1.0000   1.0000
     1.0000   1.0000   1.0000   1.0000   1.0000   1.0000   1.0000   1.0000
     1.0000   1.0000   1.0000   1.0000   1.0000   1.0000   1.0000   1.0000
     1.0000   1.0000   1.0000   1.0000   0.0000   0.0000   0.0000   0.0000
     0.0000   0.0000   0.0000   0.0000

          k =-0.0442-0.3094 0.3094 (  7217 PWs)   bands (ev):

   -15.2470 -15.2466 -15.2205 -15.2191 -15.1818 -15.1804 -15.1486 -15.1481
   -14.2650 -14.2647 -14.2064 -14.2061 -14.1667 -14.1666 -14.0917 -14.0915
   -14.0470 -14.0467 -14.0153 -14.0151  -2.2763  -2.2762   1.7065   1.7065
     4.3675   4.3676   5.9151   5.9151   8.0152   8.0153  10.1194  10.1194
    10.2350  10.2351  11.0027  11.0027

     occupation numbers 
     1.0000   1.0000   1.0000   1.0000   1.0000   1.0000   1.0000   1.0000
     1.0000   1.0000   1.0000   1.0000   1.0000   1.0000   1.0000   1.0000
     1.0000   1.0000   1.0000   1.0000   1.0000   1.0000   1.0000   1.0000
     1.0000   1.0000   1.0000   1.0000   0.0000   0.0000   0.0000   0.0000
     0.0000   0.0000   0.0000   0.0000

          k = 0.0000-0.2652 0.2652 (  7225 PWs)   bands (ev):

   -15.2460 -15.2455 -15.2251 -15.2243 -15.1763 -15.1755 -15.1508 -15.1503
   -14.2748 -14.2745 -14.1978 -14.1975 -14.1640 -14.1638 -14.0890 -14.0890
   -14.0534 -14.0530 -14.0146 -14.0144  -2.5499  -2.5499   2.2604   2.2605
     4.6813   4.6814   6.1436   6.1437   7.9600   7.9601   9.8202   9.8203
     9.9702   9.9702  10.8187  10.8187

     occupation numbers 
     1.0000   1.0000   1.0000   1.0000   1.0000   1.0000   1.0000   1.0000
     1.0000   1.0000   1.0000   1.0000   1.0000   1.0000   1.0000   1.0000
     1.0000   1.0000   1.0000   1.0000   1.0000   1.0000   1.0000   1.0000
     1.0000   1.0000   1.0000   1.0000   0.0000   0.0000   0.0000   0.0000
     0.0000   0.0000   0.0000   0.0000

          k = 0.3536 0.0000 0.0000 (  7187 PWs)   bands (ev):

   -15.2403 -15.2403 -15.2331 -15.2331 -15.1672 -15.1672 -15.1564 -15.1564
   -14.2769 -14.2769 -14.1946 -14.1946 -14.1639 -14.1639 -14.0826 -14.0826
   -14.0640 -14.0640 -14.0108 -14.0108  -2.6142  -2.6142   2.5402   2.5402
     5.2442   5.2442   5.3632   5.3632   7.7494   7.7494   8.7022   8.7022
    11.2871  11.2871  11.3268  11.3268

     occupation numbers 
     1.0000   1.0000   1.0000   1.0000   1.0000   1.0000   1.0000   1.0000
     1.0000   1.0000   1.0000   1.0000   1.0000   1.0000   1.0000   1.0000
     1.0000   1.0000   1.0000   1.0000   1.0000   1.0000   1.0000   1.0000
     1.0000   1.0000   1.0000   1.0000   0.0000   0.0000   0.0000   0.0000
     0.0000   0.0000   0.0000   0.0000

          k = 0.3977 0.0442-0.0442 (  7226 PWs)   bands (ev):

   -15.2411 -15.2409 -15.2307 -15.2305 -15.1697 -15.1695 -15.1554 -15.1552
   -14.2690 -14.2689 -14.2021 -14.2019 -14.1662 -14.1661 -14.0867 -14.0867
   -14.0564 -14.0562 -14.0117 -14.0117  -2.4026  -2.4026   2.0759   2.0759
     5.0186   5.0187   5.1740   5.1740   7.7708   7.7708   8.6650   8.6650
    11.4213  11.4213  11.6501  11.6502

     occupation numbers 
     1.0000   1.0000   1.0000   1.0000   1.0000   1.0000   1.0000   1.0000
     1.0000   1.0000   1.0000   1.0000   1.0000   1.0000   1.0000   1.0000
     1.0000   1.0000   1.0000   1.0000   1.0000   1.0000   1.0000   1.0000
     1.0000   1.0000   1.0000   1.0000   0.0000   0.0000   0.0000   0.0000
     0.0000   0.0000   0.0000   0.0000

          k = 0.4419 0.0884-0.0884 (  7204 PWs)   bands (ev):

   -15.2428 -15.2425 -15.2267 -15.2261 -15.1743 -15.1735 -15.1529 -15.1527
   -14.2604 -14.2603 -14.2090 -14.2086 -14.1678 -14.1677 -14.0927 -14.0925
   -14.0493 -14.0490 -14.0119 -14.0118  -2.1383  -2.1383   1.5646   1.5646
     4.6936   4.6937   5.0541   5.0541   7.9147   7.9147   8.7995   8.7995
    11.2814  11.2814  11.8116  11.8116

     occupation numbers 
     1.0000   1.0000   1.0000   1.0000   1.0000   1.0000   1.0000   1.0000
     1.0000   1.0000   1.0000   1.0000   1.0000   1.0000   1.0000   1.0000
     1.0000   1.0000   1.0000   1.0000   1.0000   1.0000   1.0000   1.0000
     1.0000   1.0000   1.0000   1.0000   0.0000   0.0000   0.0000   0.0000
     0.0000   0.0000   0.0000   0.0000

          k = 0.4861 0.1326-0.1326 (  7211 PWs)   bands (ev):

   -15.2445 -15.2443 -15.2222 -15.2208 -15.1799 -15.1784 -15.1501 -15.1499
   -14.2529 -14.2528 -14.2138 -14.2133 -14.1691 -14.1688 -14.0993 -14.0988
   -14.0448 -14.0445 -14.0106 -14.0105  -1.8408  -1.8408   1.0651   1.0651
     4.3577   4.3578   5.0070   5.0070   7.9585   7.9585   9.2582   9.2582
    11.1486  11.1486  11.8033  11.8033

     occupation numbers 
     1.0000   1.0000   1.0000   1.0000   1.0000   1.0000   1.0000   1.0000
     1.0000   1.0000   1.0000   1.0000   1.0000   1.0000   1.0000   1.0000
     1.0000   1.0000   1.0000   1.0000   1.0000   1.0000   1.0000   1.0000
     1.0000   1.0000   1.0000   1.0000   0.0000   0.0000   0.0000   0.0000
     0.0000   0.0000   0.0000   0.0000

          k =-0.1768-0.5303 0.5303 (  7203 PWs)   bands (ev):

   -15.2460 -15.2459 -15.2178 -15.2154 -15.1858 -15.1832 -15.1476 -15.1475
   -14.2482 -14.2481 -14.2156 -14.2151 -14.1700 -14.1693 -14.1050 -14.1043
   -14.0430 -14.0428 -14.0084 -14.0083  -1.5561  -1.5561   0.6455   0.6456
     4.0755   4.0756   5.0276   5.0276   7.9568   7.9569   9.8766   9.8767
    11.1226  11.1226  11.6847  11.6847

     occupation numbers 
     1.0000   1.0000   1.0000   1.0000   1.0000   1.0000   1.0000   1.0000
     1.0000   1.0000   1.0000   1.0000   1.0000   1.0000   1.0000   1.0000
[...]

     occupation numbers 
     1.0000   1.0000   1.0000   1.0000   1.0000   1.0000   1.0000   1.0000
     1.0000   1.0000   1.0000   1.0000   1.0000   1.0000   1.0000   1.0000
     1.0000   1.0000   1.0000   1.0000   1.0000   1.0000   1.0000   1.0000
     1.0000   1.0000   1.0000   1.0000   0.0000   0.0000   0.0000   0.0000
     0.0000   0.0000   0.0000   0.0000

          k =-0.1326-0.3977 0.5745 (  7218 PWs)   bands (ev):

   -15.2472 -15.2468 -15.2146 -15.2097 -15.1922 -15.1871 -15.1457 -15.1451
   -14.2479 -14.2475 -14.2129 -14.2122 -14.1682 -14.1672 -14.1139 -14.1128
   -14.0436 -14.0430 -14.0042 -14.0039  -1.2987  -1.2987   0.3489   0.3489
     3.8401   3.8402   4.8310   4.8310   8.6366   8.6367   9.8883   9.8883
    11.1488  11.1490  11.8806  11.8807

     occupation numbers 
     1.0000   1.0000   1.0000   1.0000   1.0000   1.0000   1.0000   1.0000
     1.0000   1.0000   1.0000   1.0000   1.0000   1.0000   1.0000   1.0000
     1.0000   1.0000   1.0000   1.0000   1.0000   1.0000   1.0000   1.0000
     1.0000   1.0000   1.0000   1.0000   0.0000   0.0000   0.0000   0.0000
     0.0000   0.0000   0.0000   0.0000

          k =-0.0884-0.3536 0.5303 (  7222 PWs)   bands (ev):

   -15.2474 -15.2470 -15.2141 -15.2090 -15.1930 -15.1876 -15.1454 -15.1449
   -14.2484 -14.2479 -14.2129 -14.2122 -14.1679 -14.1669 -14.1135 -14.1123
   -14.0437 -14.0431 -14.0045 -14.0042  -1.3534  -1.3534   0.4182   0.4183
     3.8073   3.8074   4.8997   4.8998   8.6835   8.6836   9.8784   9.8785
    11.2105  11.2107  11.8460  11.8462

     occupation numbers 
     1.0000   1.0000   1.0000   1.0000   1.0000   1.0000   1.0000   1.0000
     1.0000   1.0000   1.0000   1.0000   1.0000   1.0000   1.0000   1.0000
     1.0000   1.0000   1.0000   1.0000   1.0000   1.0000   1.0000   1.0000
     1.0000   1.0000   1.0000   1.0000   0.0000   0.0000   0.0000   0.0000
     0.0000   0.0000   0.0000   0.0000

          k =-0.0442-0.3094 0.4861 (  7219 PWs)   bands (ev):

   -15.2472 -15.2468 -15.2157 -15.2119 -15.1899 -15.1859 -15.1461 -15.1456
   -14.2505 -14.2501 -14.2136 -14.2129 -14.1675 -14.1667 -14.1088 -14.1080
   -14.0439 -14.0434 -14.0067 -14.0064  -1.5976  -1.5976   0.7376   0.7376
     3.8791   3.8792   5.0425   5.0425   8.7345   8.7346   9.7723   9.7724
    10.6367  10.6368  12.0621  12.0621

     occupation numbers 
     1.0000   1.0000   1.0000   1.0000   1.0000   1.0000   1.0000   1.0000
     1.0000   1.0000   1.0000   1.0000   1.0000   1.0000   1.0000   1.0000
     1.0000   1.0000   1.0000   1.0000   1.0000   1.0000   1.0000   1.0000
     1.0000   1.0000   1.0000   1.0000   0.0000   0.0000   0.0000   0.0000
     0.0000   0.0000   0.0000   0.0000

          k = 0.0000-0.2652 0.4419 (  7224 PWs)   bands (ev):

   -15.2467 -15.2463 -15.2186 -15.2162 -15.1852 -15.1827 -15.1475 -15.1471
   -14.2551 -14.2547 -14.2124 -14.2118 -14.1673 -14.1670 -14.1013 -14.1008
   -14.0451 -14.0445 -14.0100 -14.0098  -1.8963  -1.8963   1.1561   1.1562
     4.0745   4.0746   5.2341   5.2341   8.7281   8.7284   9.4322   9.4324
    10.4568  10.4568  11.8337  11.8337

     occupation numbers 
     1.0000   1.0000   1.0000   1.0000   1.0000   1.0000   1.0000   1.0000
     1.0000   1.0000   1.0000   1.0000   1.0000   1.0000   1.0000   1.0000
     1.0000   1.0000   1.0000   1.0000   1.0000   1.0000   1.0000   1.0000
     1.0000   1.0000   1.0000   1.0000   0.0000   0.0000   0.0000   0.0000
     0.0000   0.0000   0.0000   0.0000

          k =-0.1768-0.5303 0.7071 (  7209 PWs)   bands (ev):

   -15.2438 -15.2434 -15.2230 -15.2210 -15.1799 -15.1777 -15.1505 -15.1499
   -14.2496 -14.2493 -14.2152 -14.2145 -14.1659 -14.1654 -14.1093 -14.1087
   -14.0422 -14.0417 -14.0080 -14.0078  -1.6049  -1.6049   0.7758   0.7759
     4.2439   4.2440   4.7074   4.7074   8.3597   8.3598   8.7565   8.7566
    11.1583  11.1583  12.7879  12.7879

     occupation numbers 
     1.0000   1.0000   1.0000   1.0000   1.0000   1.0000   1.0000   1.0000
     1.0000   1.0000   1.0000   1.0000   1.0000   1.0000   1.0000   1.0000
     1.0000   1.0000   1.0000   1.0000   1.0000   1.0000   1.0000   1.0000
     1.0000   1.0000   1.0000   1.0000   0.0000   0.0000   0.0000   0.0000
     0.0000   0.0000   0.0000   0.0000

          k =-0.1326-0.4861 0.6629 (  7205 PWs)   bands (ev):

   -15.2450 -15.2444 -15.2202 -15.2172 -15.1843 -15.1810 -15.1484 -15.1477
   -14.2479 -14.2475 -14.2138 -14.2130 -14.1639 -14.1629 -14.1185 -14.1174
   -14.0418 -14.0413 -14.0045 -14.0043  -1.3006  -1.3006   0.3925   0.3926
     4.0135   4.0136   4.5836   4.5837   8.5329   8.5330   9.2247   9.2248
    10.9821  10.9821  12.7391  12.7391

     occupation numbers 
     1.0000   1.0000   1.0000   1.0000   1.0000   1.0000   1.0000   1.0000
     1.0000   1.0000   1.0000   1.0000   1.0000   1.0000   1.0000   1.0000
     1.0000   1.0000   1.0000   1.0000   1.0000   1.0000   1.0000   1.0000
     1.0000   1.0000   1.0000   1.0000   0.0000   0.0000   0.0000   0.0000
     0.0000   0.0000   0.0000   0.0000

          k =-0.0884-0.4419 0.6187 (  7214 PWs)   bands (ev):

   -15.2460 -15.2454 -15.2176 -15.2134 -15.1886 -15.1841 -15.1467 -15.1459
   -14.2481 -14.2477 -14.2111 -14.2102 -14.1626 -14.1607 -14.1250 -14.1231
   -14.0425 -14.0419 -14.0018 -14.0016  -1.0622  -1.0622   0.1172   0.1172
     3.8159   3.8160   4.5719   4.5719   8.5942   8.5943   9.9449   9.9450
    10.8786  10.8787  12.1563  12.1563

     occupation numbers 
     1.0000   1.0000   1.0000   1.0000   1.0000   1.0000   1.0000   1.0000
     1.0000   1.0000   1.0000   1.0000   1.0000   1.0000   1.0000   1.0000
     1.0000   1.0000   1.0000   1.0000   1.0000   1.0000   1.0000   1.0000
     1.0000   1.0000   1.0000   1.0000   0.0000   0.0000   0.0000   0.0000
     0.0000   0.0000   0.0000   0.0000

          k =-0.0442-0.3977 0.5745 (  7217 PWs)   bands (ev):

   -15.2468 -15.2462 -15.2157 -15.2104 -15.1918 -15.1863 -15.1456 -15.1449
   -14.2486 -14.2482 -14.2100 -14.2092 -14.1629 -14.1608 -14.1255 -14.1234
   -14.0432 -14.0426 -14.0011 -14.0008  -1.0640  -1.0640   0.1219   0.1220
     3.7035   3.7036   4.6599   4.6599   8.6743   8.6744  10.4049  10.4050
    11.0921  11.0923  11.4355  11.4357

     occupation numbers 
     1.0000   1.0000   1.0000   1.0000   1.0000   1.0000   1.0000   1.0000
     1.0000   1.0000   1.0000   1.0000   1.0000   1.0000   1.0000   1.0000
     1.0000   1.0000   1.0000   1.0000   1.0000   1.0000   1.0000   1.0000
     1.0000   1.0000   1.0000   1.0000   0.0000   0.0000   0.0000   0.0000
     0.0000   0.0000   0.0000   0.0000

          k = 0.0000-0.3536 0.5303 (  7218 PWs)   bands (ev):

   -15.2472 -15.2467 -15.2150 -15.2098 -15.1924 -15.1870 -15.1454 -15.1448
   -14.2491 -14.2487 -14.2115 -14.2107 -14.1649 -14.1634 -14.1192 -14.1177
   -14.0436 -14.0430 -14.0028 -14.0025  -1.2997  -1.2997   0.3906   0.3907
     3.7163   3.7164   4.8257   4.8257   8.7546   8.7547  10.2709  10.2710
    10.7149  10.7149  11.9201  11.9202

     occupation numbers 
     1.0000   1.0000   1.0000   1.0000   1.0000   1.0000   1.0000   1.0000
     1.0000   1.0000   1.0000   1.0000   1.0000   1.0000   1.0000   1.0000
     1.0000   1.0000   1.0000   1.0000   1.0000   1.0000   1.0000   1.0000
     1.0000   1.0000   1.0000   1.0000   0.0000   0.0000   0.0000   0.0000
     0.0000   0.0000   0.0000   0.0000

          k =-0.0884-0.5303 0.7071 (  7204 PWs)   bands (ev):

   -15.2431 -15.2425 -15.2233 -15.2207 -15.1803 -15.1775 -15.1508 -15.1500
   -14.2457 -14.2453 -14.2160 -14.2153 -14.1590 -14.1574 -14.1259 -14.1243
   -14.0384 -14.0379 -14.0054 -14.0052  -1.0783  -1.0783   0.1255   0.1256
     4.1632   4.1634   4.4233   4.4234   8.3222   8.3224   8.5777   8.5778
    11.8288  11.8288  13.0697  13.0697

     occupation numbers 
     1.0000   1.0000   1.0000   1.0000   1.0000   1.0000   1.0000   1.0000
     1.0000   1.0000   1.0000   1.0000   1.0000   1.0000   1.0000   1.0000
     1.0000   1.0000   1.0000   1.0000   1.0000   1.0000   1.0000   1.0000
     1.0000   1.0000   1.0000   1.0000   0.0000   0.0000   0.0000   0.0000
     0.0000   0.0000   0.0000   0.0000

          k =-0.0442-0.4861 0.6629 (  7211 PWs)   bands (ev):

   -15.2445 -15.2438 -15.2208 -15.2173 -15.1844 -15.1806 -15.1486 -15.1477
   -14.2470 -14.2466 -14.2122 -14.2114 -14.1562 -14.1529 -14.1343 -14.1311
   -14.0402 -14.0396 -14.0021 -14.0018  -0.7945  -0.7944  -0.1739  -0.1738
     3.9570   3.9572   4.3752   4.3752   8.4810   8.4811   9.1670   9.1670
    11.6447  11.6448  12.3710  12.3710

     occupation numbers 
     1.0000   1.0000   1.0000   1.0000   1.0000   1.0000   1.0000   1.0000
     1.0000   1.0000   1.0000   1.0000   1.0000   1.0000   1.0000   1.0000
     1.0000   1.0000   1.0000   1.0000   1.0000   1.0000   1.0000   1.0000
     1.0000   1.0000   1.0000   1.0000   0.0000   0.0000   0.0000   0.0000
     0.0000   0.0000   0.0000   0.0000

          k = 0.0000-0.4419 0.6187 (  7217 PWs)   bands (ev):

   -15.2458 -15.2451 -15.2181 -15.2136 -15.1885 -15.1837 -15.1467 -15.1458
   -14.2482 -14.2478 -14.2097 -14.2088 -14.1578 -14.1544 -14.1342 -14.1308
   -14.0421 -14.0415 -14.0004 -14.0001  -0.7963  -0.7963  -0.1626  -0.1624
     3.7669   3.7670   4.4755   4.4756   8.5737   8.5738   9.9790   9.9791
    11.4500  11.4502  11.5532  11.5533

     occupation numbers 
     1.0000   1.0000   1.0000   1.0000   1.0000   1.0000   1.0000   1.0000
     1.0000   1.0000   1.0000   1.0000   1.0000   1.0000   1.0000   1.0000
     1.0000   1.0000   1.0000   1.0000   1.0000   1.0000   1.0000   1.0000
     1.0000   1.0000   1.0000   1.0000   0.0000   0.0000   0.0000   0.0000
     0.0000   0.0000   0.0000   0.0000

          k =-0.7071 0.1768 0.0000 (  7202 PWs)   bands (ev):

   -15.2428 -15.2420 -15.2236 -15.2208 -15.1802 -15.1772 -15.1510 -15.1501
   -14.2450 -14.2446 -14.2156 -14.2149 -14.1515 -14.1458 -14.1406 -14.1348
   -14.0370 -14.0365 -14.0044 -14.0042  -0.5133  -0.5118  -0.4825  -0.4809
     4.1622   4.1624   4.3013   4.3013   8.3381   8.3383   8.4783   8.4785
    12.4726  12.4726  12.6387  12.6388

     occupation numbers 
     1.0000   1.0000   1.0000   1.0000   1.0000   1.0000   1.0000   1.0000
     1.0000   1.0000   1.0000   1.0000   1.0000   1.0000   1.0000   1.0000
     1.0000   1.0000   1.0000   1.0000   1.0000   1.0000   1.0000   1.0000
     1.0000   1.0000   1.0000   1.0000   0.0000   0.0000   0.0000   0.0000
     0.0000   0.0000   0.0000   0.0000

          k =-0.1768-0.4419 0.7071 (  7218 PWs)   bands (ev):

   -15.2462 -15.2457 -15.2181 -15.2147 -15.1871 -15.1834 -15.1471 -15.1464
   -14.2496 -14.2492 -14.2130 -14.2122 -14.1658 -14.1651 -14.1138 -14.1128
   -14.0437 -14.0430 -14.0049 -14.0046  -1.4708  -1.4708   0.6033   0.6034
     3.9352   3.9353   4.7396   4.7397   9.0699   9.0703   9.3435   9.3438
    10.4144  10.4144  12.5187  12.5188

     occupation numbers 
     1.0000   1.0000   1.0000   1.0000   1.0000   1.0000   1.0000   1.0000
     1.0000   1.0000   1.0000   1.0000   1.0000   1.0000   1.0000   1.0000
     1.0000   1.0000   1.0000   1.0000   1.0000   1.0000   1.0000   1.0000
     1.0000   1.0000   1.0000   1.0000   0.0000   0.0000   0.0000   0.0000
     0.0000   0.0000   0.0000   0.0000

          k =-0.1326-0.3977 0.6629 (  7217 PWs)   bands (ev):

   -15.2466 -15.2460 -15.2165 -15.2117 -15.1904 -15.1854 -15.1460 -15.1452
   -14.2488 -14.2484 -14.2107 -14.2097 -14.1640 -14.1626 -14.1220 -14.1204
   -14.0437 -14.0430 -14.0018 -14.0015  -1.1869  -1.1868   0.2649   0.2650
     3.8067   3.8068   4.5835   4.5835   9.1430   9.1432   9.7855   9.7857
    10.5266  10.5267  12.0426  12.0427

     occupation numbers 
     1.0000   1.0000   1.0000   1.0000   1.0000   1.0000   1.0000   1.0000
     1.0000   1.0000   1.0000   1.0000   1.0000   1.0000   1.0000   1.0000
     1.0000   1.0000   1.0000   1.0000   1.0000   1.0000   1.0000   1.0000
     1.0000   1.0000   1.0000   1.0000   0.0000   0.0000   0.0000   0.0000
     0.0000   0.0000   0.0000   0.0000

          k =-0.0884-0.3536 0.6187 (  7222 PWs)   bands (ev):

   -15.2468 -15.2461 -15.2159 -15.2105 -15.1918 -15.1861 -15.1456 -15.1448
   -14.2488 -14.2484 -14.2094 -14.2085 -14.1632 -14.1614 -14.1254 -14.1234
   -14.0438 -14.0431 -14.0007 -14.0004  -1.0487  -1.0486   0.1075   0.1076
     3.7658   3.7659   4.5265   4.5265   9.1483   9.1485   9.8972   9.8973
    11.0411  11.0414  11.3745  11.3748

     occupation numbers 
     1.0000   1.0000   1.0000   1.0000   1.0000   1.0000   1.0000   1.0000
     1.0000   1.0000   1.0000   1.0000   1.0000   1.0000   1.0000   1.0000
     1.0000   1.0000   1.0000   1.0000   1.0000   1.0000   1.0000   1.0000
     1.0000   1.0000   1.0000   1.0000   0.0000   0.0000   0.0000   0.0000
     0.0000   0.0000   0.0000   0.0000

          k =-0.0884-0.4419 0.7071 (  7218 PWs)   bands (ev):

   -15.2456 -15.2448 -15.2189 -15.2147 -15.1874 -15.1828 -15.1472 -15.1462
   -14.2483 -14.2479 -14.2105 -14.2095 -14.1601 -14.1581 -14.1289 -14.1267
   -14.0425 -14.0418 -14.0011 -14.0008  -0.9946  -0.9945   0.0558   0.0559
     3.9195   3.9196   4.3498   4.3499   9.1208   9.1212   9.3367   9.3369
    10.8022  10.8023  12.2058  12.2058

     occupation numbers 
     1.0000   1.0000   1.0000   1.0000   1.0000   1.0000   1.0000   1.0000
     1.0000   1.0000   1.0000   1.0000   1.0000   1.0000   1.0000   1.0000
     1.0000   1.0000   1.0000   1.0000   1.0000   1.0000   1.0000   1.0000
     1.0000   1.0000   1.0000   1.0000   0.0000   0.0000   0.0000   0.0000
     0.0000   0.0000   0.0000   0.0000

          k =-0.0442-0.3977 0.6629 (  7213 PWs)   bands (ev):

   -15.2461 -15.2453 -15.2177 -15.2126 -15.1899 -15.1844 -15.1462 -15.1451
   -14.2490 -14.2486 -14.2079 -14.2068 -14.1579 -14.1545 -14.1353 -14.1319
   -14.0434 -14.0426 -13.9991 -13.9988  -0.7748  -0.7747  -0.1729  -0.1728
     3.8364   3.8365   4.2694   4.2695   9.2663   9.2666   9.9799   9.9800
    10.7224  10.7226  11.3465  11.3465

     occupation numbers 
     1.0000   1.0000   1.0000   1.0000   1.0000   1.0000   1.0000   1.0000
     1.0000   1.0000   1.0000   1.0000   1.0000   1.0000   1.0000   1.0000
     1.0000   1.0000   1.0000   1.0000   1.0000   1.0000   1.0000   1.0000
     1.0000   1.0000   1.0000   1.0000   0.0000   0.0000   0.0000   0.0000
     0.0000   0.0000   0.0000   0.0000

          k =-0.0000-0.3536 0.6187 (  7212 PWs)   bands (ev):

   -15.2465 -15.2457 -15.2168 -15.2114 -15.1911 -15.1853 -15.1458 -15.1448
   -14.2492 -14.2487 -14.2080 -14.2069 -14.1598 -14.1571 -14.1319 -14.1292
   -14.0438 -14.0430 -13.9993 -13.9990  -0.8964  -0.8963  -0.0434  -0.0433
     3.7749   3.7750   4.3697   4.3697   9.3200   9.3203  10.1619  10.1621
    10.6084  10.6085  11.2519  11.2520

     occupation numbers 
     1.0000   1.0000   1.0000   1.0000   1.0000   1.0000   1.0000   1.0000
     1.0000   1.0000   1.0000   1.0000   1.0000   1.0000   1.0000   1.0000
     1.0000   1.0000   1.0000   1.0000   1.0000   1.0000   1.0000   1.0000
     1.0000   1.0000   1.0000   1.0000   0.0000   0.0000   0.0000   0.0000
     0.0000   0.0000   0.0000   0.0000

          k =-0.7071 0.2652 0.0000 (  7204 PWs)   bands (ev):

   -15.2453 -15.2444 -15.2195 -15.2150 -15.1872 -15.1824 -15.1473 -15.1462
   -14.2483 -14.2479 -14.2091 -14.2081 -14.1543 -14.1485 -14.1412 -14.1354
   -14.0420 -14.0413 -13.9997 -13.9994  -0.5021  -0.5006  -0.4610  -0.4594
     3.9826   3.9827   4.1477   4.1477   9.1184   9.1187   9.3146   9.3148
    11.4216  11.4218  11.5312  11.5313

     occupation numbers 
     1.0000   1.0000   1.0000   1.0000   1.0000   1.0000   1.0000   1.0000
     1.0000   1.0000   1.0000   1.0000   1.0000   1.0000   1.0000   1.0000
     1.0000   1.0000   1.0000   1.0000   1.0000   1.0000   1.0000   1.0000
     1.0000   1.0000   1.0000   1.0000   0.0000   0.0000   0.0000   0.0000
     0.0000   0.0000   0.0000   0.0000

          k =-0.7071 0.3536 0.0000 (  7228 PWs)   bands (ev):

   -15.2462 -15.2453 -15.2178 -15.2122 -15.1904 -15.1844 -15.1460 -15.1449
   -14.2495 -14.2490 -14.2066 -14.2054 -14.1553 -14.1495 -14.1418 -14.1360
   -14.0438 -14.0430 -13.9981 -13.9978  -0.4971  -0.4956  -0.4523  -0.4507
     3.9154   3.9156   4.0884   4.0884   9.7265   9.7272  10.0521  10.0526
    10.6969  10.6974  10.7189  10.7194

     occupation numbers 
     1.0000   1.0000   1.0000   1.0000   1.0000   1.0000   1.0000   1.0000
     1.0000   1.0000   1.0000   1.0000   1.0000   1.0000   1.0000   1.0000
     1.0000   1.0000   1.0000   1.0000   1.0000   1.0000   1.0000   1.0000
     1.0000   1.0000   1.0000   1.0000   0.0000   0.0000   0.0000   0.0000
     0.0000   0.0000   0.0000   0.0000

     the Fermi energy is     6.7898 ev

!    total energy              =    -874.81390972 Ry
     Harris-Foulkes estimate   =    -874.81390986 Ry
     estimated scf accuracy    <       0.00000095 Ry

     total all-electron energy =    -24705.623793 Ry

     The total energy is the sum of the following terms:

     one-electron contribution =    -153.90873595 Ry
     hartree contribution      =      95.47000455 Ry
     xc contribution           =     -95.07324877 Ry
     ewald contribution        =    -167.52979533 Ry
     one-center paw contrib.   =    -553.77213402 Ry
     smearing contrib. (-TS)   =      -0.00000019 Ry

     convergence has been achieved in   5 iterations

     Writing output data file Sn.save
 
     init_run     :     14.65s CPU     16.24s WALL (       1 calls)
     electrons    :    297.19s CPU    317.23s WALL (       1 calls)

     Called by init_run:
     wfcinit      :     13.80s CPU     14.83s WALL (       1 calls)
     potinit      :      0.28s CPU      0.34s WALL (       1 calls)

     Called by electrons:
     c_bands      :    251.35s CPU    268.57s WALL (       6 calls)
     sum_band     :     44.27s CPU     46.91s WALL (       6 calls)
     v_of_rho     :      0.09s CPU      0.11s WALL (       6 calls)
     v_h          :      0.01s CPU      0.01s WALL (       6 calls)
     v_xc         :      0.08s CPU      0.10s WALL (       6 calls)
     newd         :      0.56s CPU      0.63s WALL (       6 calls)
     PAW_pot      :      1.19s CPU      1.29s WALL (       6 calls)
     mix_rho      :      0.03s CPU      0.05s WALL (       6 calls)

     Called by c_bands:
     init_us_2    :      0.77s CPU      0.89s WALL (    1885 calls)
     cegterg      :    237.74s CPU    254.62s WALL (     870 calls)

     Called by sum_band:
     sum_band:bec :      2.82s CPU      2.87s WALL (     870 calls)
     addusdens    :      0.47s CPU      0.56s WALL (       6 calls)

     Called by *egterg:
     h_psi        :    205.05s CPU    218.60s WALL (    3224 calls)
     s_psi        :      6.05s CPU      6.10s WALL (    3224 calls)
     g_psi        :      0.63s CPU      0.64s WALL (    2209 calls)
     cdiaghg      :     12.60s CPU     12.94s WALL (    2934 calls)
     cegterg:over :     10.59s CPU     10.67s WALL (    2209 calls)
     cegterg:upda :      5.21s CPU      5.24s WALL (    2209 calls)
     cegterg:last :      2.80s CPU      2.82s WALL (     870 calls)

     Called by h_psi:
     h_psi:vloc   :    190.62s CPU    203.87s WALL (    3224 calls)
     h_psi:vnl    :     13.92s CPU     14.17s WALL (    3224 calls)
     add_vuspsi   :      6.34s CPU      6.40s WALL (    3224 calls)

     General routines
     calbec       :     10.10s CPU     10.34s WALL (    4094 calls)
     fft          :      0.15s CPU      0.34s WALL (     116 calls)
     fftw         :    212.77s CPU    227.42s WALL (  400848 calls)
     davcio       :      0.06s CPU      0.48s WALL (     145 calls)
 
     Parallel routines
     fft_scatter  :    136.71s CPU    146.39s WALL (  400964 calls)

     PAW routines
     PAW_pot      :      1.19s CPU      1.29s WALL (       6 calls)
     PAW_symme    :      0.02s CPU      0.02s WALL (      12 calls)
 
     PWSCF        :  5m13.92s CPU     5m36.63s WALL

 
   This run was terminated on:  23: 0:15  16Mar2020            

=------------------------------------------------------------------------------=
   JOB DONE.
=------------------------------------------------------------------------------=
