
     Program PWSCF v.5.4.0 starts on 28Feb2020 at  6:16:36 

     This program is part of the open-source Quantum ESPRESSO suite
     for quantum simulation of materials; please cite
         "P. Giannozzi et al., J. Phys.:Condens. Matter 21 395502 (2009);
          URL http://www.quantum-espresso.org", 
     in publications or presentations arising from this work. More details at
     http://www.quantum-espresso.org/quote

     Parallel version (MPI & OpenMP), running on      16 processor cores
     Number of MPI processes:                16
     Threads/MPI process:                     1
     R & G space division:  proc/nbgrp/npool/nimage =      16
     Waiting for input...
     Reading input from standard input
Warning: card &IONS ignored
Warning: card / ignored
Warning: card &CELL ignored
Warning: card / ignored

     Current dimensions of program PWSCF are:
     Max number of different atomic species (ntypx) = 10
     Max number of k-points (npk) =  40000
     Max angular momentum in pseudopotentials (lmaxx) =  3

     Subspace diagonalization in iterative solution of the eigenvalue problem:
     a serial algorithm will be used

 
     Parallelization info
     --------------------
     sticks:   dense  smooth     PW     G-vecs:    dense   smooth      PW
     Min         137     137     38                 4220     4220     635
     Max         138     138     40                 4221     4221     637
     Sum        2197    2197    625                67529    67529   10177
 

     Title: 
     Sn                                                                         


     bravais-lattice index     =            0
     lattice parameter (alat)  =       8.9127  a.u.
     unit-cell volume          =     500.6268 (a.u.)^3
     number of atoms/cell      =            2
     number of atomic types    =            1
     number of electrons       =        28.00
     number of Kohn-Sham states=           18
     kinetic-energy cutoff     =     100.0000  Ry
     charge density cutoff     =     400.0000  Ry
     convergence threshold     =      1.0E-06
     mixing beta               =       0.7000
     number of iterations used =            8  plain     mixing
     Exchange-correlation      = PBE ( 1  4  3  4 0 0)

     celldm(1)=   8.912709  celldm(2)=   0.000000  celldm(3)=   0.000000
     celldm(4)=   0.000000  celldm(5)=   0.000000  celldm(6)=   0.000000

     crystal axes: (cart. coord. in units of alat)
               a(1) = (   0.000000   0.707107   0.707107 )  
               a(2) = (   0.707107   0.000000   0.707107 )  
               a(3) = (   0.707107   0.707107   0.000000 )  

     reciprocal axes: (cart. coord. in units 2 pi/alat)
               b(1) = ( -0.707107  0.707107  0.707107 )  
               b(2) = (  0.707107 -0.707107  0.707107 )  
               b(3) = (  0.707107  0.707107 -0.707107 )  


     PseudoPot. # 1 for Sn read from file:
     ../PseudopotentialDatabase/Sn_ONCV_PBE_FR-1.1.upf
     MD5 check sum: 6dd2180f739ea5ae1610ead5e1628a0e
     Pseudo is Norm-conserving, Zval = 14.0
     Generated using ONCVPSP code by D. R. Hamann
     Using radial grid of  602 points,  6 beta functions with: 
                l(1) =   0
                l(2) =   0
                l(3) =   1
                l(4) =   1
                l(5) =   2
                l(6) =   2

     atomic species   valence    mass     pseudopotential
        Sn            14.00   118.71000     Sn( 1.00)

     48 Sym. Ops., with inversion, found (24 have fractional translation)


                                    s                        frac. trans.

      isym =  1     identity                                     

 cryst.   s( 1) = (     1          0          0      )
                  (     0          1          0      )
                  (     0          0          1      )

 cart.    s( 1) = (  1.0000000  0.0000000  0.0000000 )
                  (  0.0000000  1.0000000  0.0000000 )
                  (  0.0000000  0.0000000  1.0000000 )


      isym =  2     180 deg rotation - cart. axis [0,0,1]        

 cryst.   s( 2) = (     0          1         -1      )
                  (     1          0         -1      )
                  (     0          0         -1      )

 cart.    s( 2) = ( -1.0000000  0.0000000  0.0000000 )
                  (  0.0000000 -1.0000000  0.0000000 )
                  (  0.0000000  0.0000000  1.0000000 )


      isym =  3     180 deg rotation - cart. axis [0,1,0]        

 cryst.   s( 3) = (     0         -1          1      )
                  (     0         -1          0      )
                  (     1         -1          0      )

 cart.    s( 3) = ( -1.0000000  0.0000000  0.0000000 )
                  (  0.0000000  1.0000000  0.0000000 )
                  (  0.0000000  0.0000000 -1.0000000 )


      isym =  4     180 deg rotation - cart. axis [1,0,0]        

 cryst.   s( 4) = (    -1          0          0      )
                  (    -1          0          1      )
                  (    -1          1          0      )

 cart.    s( 4) = (  1.0000000  0.0000000  0.0000000 )
                  (  0.0000000 -1.0000000  0.0000000 )
                  (  0.0000000  0.0000000 -1.0000000 )


      isym =  5     180 deg rotation - cart. axis [1,1,0]        

 cryst.   s( 5) = (    -1          0          1      )    f =( -0.2500000 )
                  (     0         -1          1      )       ( -0.2500000 )
                  (     0          0          1      )       ( -0.2500000 )

 cart.    s( 5) = (  0.0000000  1.0000000  0.0000000 )    f =( -0.3535534 )
                  (  1.0000000  0.0000000  0.0000000 )       ( -0.3535534 )
                  (  0.0000000  0.0000000 -1.0000000 )       ( -0.3535534 )


      isym =  6     180 deg rotation - cart. axis [1,-1,0]       

 cryst.   s( 6) = (     0         -1          0      )    f =( -0.2500000 )
                  (    -1          0          0      )       ( -0.2500000 )
                  (     0          0         -1      )       ( -0.2500000 )

 cart.    s( 6) = (  0.0000000 -1.0000000  0.0000000 )    f =( -0.3535534 )
                  ( -1.0000000  0.0000000  0.0000000 )       ( -0.3535534 )
                  (  0.0000000  0.0000000 -1.0000000 )       ( -0.3535534 )


      isym =  7      90 deg rotation - cart. axis [0,0,-1]       

 cryst.   s( 7) = (     0          1          0      )    f =( -0.2500000 )
                  (     0          1         -1      )       ( -0.2500000 )
                  (    -1          1          0      )       ( -0.2500000 )

 cart.    s( 7) = (  0.0000000  1.0000000  0.0000000 )    f =( -0.3535534 )
                  ( -1.0000000  0.0000000  0.0000000 )       ( -0.3535534 )
                  (  0.0000000  0.0000000  1.0000000 )       ( -0.3535534 )


      isym =  8      90 deg rotation - cart. axis [0,0,1]        

 cryst.   s( 8) = (     1          0         -1      )    f =( -0.2500000 )
                  (     1          0          0      )       ( -0.2500000 )
                  (     1         -1          0      )       ( -0.2500000 )

 cart.    s( 8) = (  0.0000000 -1.0000000  0.0000000 )    f =( -0.3535534 )
                  (  1.0000000  0.0000000  0.0000000 )       ( -0.3535534 )
                  (  0.0000000  0.0000000  1.0000000 )       ( -0.3535534 )


      isym =  9     180 deg rotation - cart. axis [1,0,1]        

 cryst.   s( 9) = (    -1          1          0      )    f =( -0.2500000 )
                  (     0          1          0      )       ( -0.2500000 )
                  (     0          1         -1      )       ( -0.2500000 )

 cart.    s( 9) = (  0.0000000  0.0000000  1.0000000 )    f =( -0.3535534 )
                  (  0.0000000 -1.0000000  0.0000000 )       ( -0.3535534 )
                  (  1.0000000  0.0000000  0.0000000 )       ( -0.3535534 )


      isym = 10     180 deg rotation - cart. axis [-1,0,1]       

 cryst.   s(10) = (     0          0         -1      )    f =( -0.2500000 )
                  (     0         -1          0      )       ( -0.2500000 )
                  (    -1          0          0      )       ( -0.2500000 )

 cart.    s(10) = (  0.0000000  0.0000000 -1.0000000 )    f =( -0.3535534 )
                  (  0.0000000 -1.0000000  0.0000000 )       ( -0.3535534 )
                  ( -1.0000000  0.0000000  0.0000000 )       ( -0.3535534 )


      isym = 11      90 deg rotation - cart. axis [0,1,0]        

 cryst.   s(11) = (     0          0          1      )    f =( -0.2500000 )
                  (    -1          0          1      )       ( -0.2500000 )
                  (     0         -1          1      )       ( -0.2500000 )

 cart.    s(11) = (  0.0000000  0.0000000  1.0000000 )    f =( -0.3535534 )
                  (  0.0000000  1.0000000  0.0000000 )       ( -0.3535534 )
                  ( -1.0000000  0.0000000  0.0000000 )       ( -0.3535534 )


      isym = 12      90 deg rotation - cart. axis [0,-1,0]       

 cryst.   s(12) = (     1         -1          0      )    f =( -0.2500000 )
                  (     1          0         -1      )       ( -0.2500000 )
                  (     1          0          0      )       ( -0.2500000 )

 cart.    s(12) = (  0.0000000  0.0000000 -1.0000000 )    f =( -0.3535534 )
                  (  0.0000000  1.0000000  0.0000000 )       ( -0.3535534 )
                  (  1.0000000  0.0000000  0.0000000 )       ( -0.3535534 )


      isym = 13     180 deg rotation - cart. axis [0,1,1]        

 cryst.   s(13) = (     1          0          0      )    f =( -0.2500000 )
                  (     1         -1          0      )       ( -0.2500000 )
                  (     1          0         -1      )       ( -0.2500000 )

 cart.    s(13) = ( -1.0000000  0.0000000  0.0000000 )    f =( -0.3535534 )
                  (  0.0000000  0.0000000  1.0000000 )       ( -0.3535534 )
                  (  0.0000000  1.0000000  0.0000000 )       ( -0.3535534 )


      isym = 14     180 deg rotation - cart. axis [0,1,-1]       

 cryst.   s(14) = (    -1          0          0      )    f =( -0.2500000 )
                  (     0          0         -1      )       ( -0.2500000 )
                  (     0         -1          0      )       ( -0.2500000 )

 cart.    s(14) = ( -1.0000000  0.0000000  0.0000000 )    f =( -0.3535534 )
                  (  0.0000000  0.0000000 -1.0000000 )       ( -0.3535534 )
                  (  0.0000000 -1.0000000  0.0000000 )       ( -0.3535534 )


      isym = 15      90 deg rotation - cart. axis [-1,0,0]       

 cryst.   s(15) = (     0         -1          1      )    f =( -0.2500000 )
                  (     0          0          1      )       ( -0.2500000 )
                  (    -1          0          1      )       ( -0.2500000 )

 cart.    s(15) = (  1.0000000  0.0000000  0.0000000 )    f =( -0.3535534 )
                  (  0.0000000  0.0000000  1.0000000 )       ( -0.3535534 )
                  (  0.0000000 -1.0000000  0.0000000 )       ( -0.3535534 )


      isym = 16      90 deg rotation - cart. axis [1,0,0]        

 cryst.   s(16) = (     0          1         -1      )    f =( -0.2500000 )
                  (    -1          1          0      )       ( -0.2500000 )
                  (     0          1          0      )       ( -0.2500000 )

 cart.    s(16) = (  1.0000000  0.0000000  0.0000000 )    f =( -0.3535534 )
                  (  0.0000000  0.0000000 -1.0000000 )       ( -0.3535534 )
                  (  0.0000000  1.0000000  0.0000000 )       ( -0.3535534 )


      isym = 17     120 deg rotation - cart. axis [-1,-1,-1]     

 cryst.   s(17) = (     0          0          1      )
                  (     1          0          0      )
                  (     0          1          0      )

 cart.    s(17) = (  0.0000000  1.0000000  0.0000000 )
                  (  0.0000000  0.0000000  1.0000000 )
                  (  1.0000000  0.0000000  0.0000000 )


      isym = 18     120 deg rotation - cart. axis [-1,1,1]       

 cryst.   s(18) = (     1         -1          0      )
                  (     0         -1          1      )
                  (     0         -1          0      )

 cart.    s(18) = (  0.0000000 -1.0000000  0.0000000 )
                  (  0.0000000  0.0000000  1.0000000 )
                  ( -1.0000000  0.0000000  0.0000000 )


      isym = 19     120 deg rotation - cart. axis [1,1,-1]       

 cryst.   s(19) = (    -1          1          0      )
                  (    -1          0          0      )
                  (    -1          0          1      )

 cart.    s(19) = (  0.0000000  1.0000000  0.0000000 )
                  (  0.0000000  0.0000000 -1.0000000 )
                  ( -1.0000000  0.0000000  0.0000000 )


      isym = 20     120 deg rotation - cart. axis [1,-1,1]       

 cryst.   s(20) = (     0          0         -1      )
                  (     0          1         -1      )
                  (     1          0         -1      )

 cart.    s(20) = (  0.0000000 -1.0000000  0.0000000 )
                  (  0.0000000  0.0000000 -1.0000000 )
                  (  1.0000000  0.0000000  0.0000000 )


      isym = 21     120 deg rotation - cart. axis [1,1,1]        

 cryst.   s(21) = (     0          1          0      )
                  (     0          0          1      )
                  (     1          0          0      )

 cart.    s(21) = (  0.0000000  0.0000000  1.0000000 )
                  (  1.0000000  0.0000000  0.0000000 )
                  (  0.0000000  1.0000000  0.0000000 )


      isym = 22     120 deg rotation - cart. axis [-1,1,-1]      

 cryst.   s(22) = (    -1          0          1      )
                  (    -1          1          0      )
                  (    -1          0          0      )

 cart.    s(22) = (  0.0000000  0.0000000  1.0000000 )
                  ( -1.0000000  0.0000000  0.0000000 )
                  (  0.0000000 -1.0000000  0.0000000 )


      isym = 23     120 deg rotation - cart. axis [1,-1,-1]      

 cryst.   s(23) = (     1          0         -1      )
                  (     0          0         -1      )
                  (     0          1         -1      )

 cart.    s(23) = (  0.0000000  0.0000000 -1.0000000 )
                  ( -1.0000000  0.0000000  0.0000000 )
                  (  0.0000000  1.0000000  0.0000000 )


      isym = 24     120 deg rotation - cart. axis [-1,-1,1]      

 cryst.   s(24) = (     0         -1          0      )
                  (     1         -1          0      )
                  (     0         -1          1      )

 cart.    s(24) = (  0.0000000  0.0000000 -1.0000000 )
                  (  1.0000000  0.0000000  0.0000000 )
                  (  0.0000000 -1.0000000  0.0000000 )


      isym = 25     inversion                                    

 cryst.   s(25) = (    -1          0          0      )    f =( -0.2500000 )
                  (     0         -1          0      )       ( -0.2500000 )
                  (     0          0         -1      )       ( -0.2500000 )

 cart.    s(25) = ( -1.0000000  0.0000000  0.0000000 )    f =( -0.3535534 )
                  (  0.0000000 -1.0000000  0.0000000 )       ( -0.3535534 )
                  (  0.0000000  0.0000000 -1.0000000 )       ( -0.3535534 )


      isym = 26     inv. 180 deg rotation - cart. axis [0,0,1]   

 cryst.   s(26) = (     0         -1          1      )    f =( -0.2500000 )
                  (    -1          0          1      )       ( -0.2500000 )
                  (     0          0          1      )       ( -0.2500000 )

 cart.    s(26) = (  1.0000000  0.0000000  0.0000000 )    f =( -0.3535534 )
                  (  0.0000000  1.0000000  0.0000000 )       ( -0.3535534 )
                  (  0.0000000  0.0000000 -1.0000000 )       ( -0.3535534 )


      isym = 27     inv. 180 deg rotation - cart. axis [0,1,0]   

 cryst.   s(27) = (     0          1         -1      )    f =( -0.2500000 )
                  (     0          1          0      )       ( -0.2500000 )
                  (    -1          1          0      )       ( -0.2500000 )

 cart.    s(27) = (  1.0000000  0.0000000  0.0000000 )    f =( -0.3535534 )
                  (  0.0000000 -1.0000000  0.0000000 )       ( -0.3535534 )
                  (  0.0000000  0.0000000  1.0000000 )       ( -0.3535534 )


      isym = 28     inv. 180 deg rotation - cart. axis [1,0,0]   

 cryst.   s(28) = (     1          0          0      )    f =( -0.2500000 )
                  (     1          0         -1      )       ( -0.2500000 )
                  (     1         -1          0      )       ( -0.2500000 )

 cart.    s(28) = ( -1.0000000  0.0000000  0.0000000 )    f =( -0.3535534 )
                  (  0.0000000  1.0000000  0.0000000 )       ( -0.3535534 )
                  (  0.0000000  0.0000000  1.0000000 )       ( -0.3535534 )


      isym = 29     inv. 180 deg rotation - cart. axis [1,1,0]   

 cryst.   s(29) = (     1          0         -1      )
                  (     0          1         -1      )
                  (     0          0         -1      )

 cart.    s(29) = (  0.0000000 -1.0000000  0.0000000 )
                  ( -1.0000000  0.0000000  0.0000000 )
                  (  0.0000000  0.0000000  1.0000000 )


      isym = 30     inv. 180 deg rotation - cart. axis [1,-1,0]  

 cryst.   s(30) = (     0          1          0      )
                  (     1          0          0      )
                  (     0          0          1      )

 cart.    s(30) = (  0.0000000  1.0000000  0.0000000 )
                  (  1.0000000  0.0000000  0.0000000 )
                  (  0.0000000  0.0000000  1.0000000 )


      isym = 31     inv.  90 deg rotation - cart. axis [0,0,-1]  

 cryst.   s(31) = (     0         -1          0      )
                  (     0         -1          1      )
                  (     1         -1          0      )

 cart.    s(31) = (  0.0000000 -1.0000000  0.0000000 )
                  (  1.0000000  0.0000000  0.0000000 )
                  (  0.0000000  0.0000000 -1.0000000 )


      isym = 32     inv.  90 deg rotation - cart. axis [0,0,1]   

 cryst.   s(32) = (    -1          0          1      )
                  (    -1          0          0      )
                  (    -1          1          0      )

 cart.    s(32) = (  0.0000000  1.0000000  0.0000000 )
                  ( -1.0000000  0.0000000  0.0000000 )
                  (  0.0000000  0.0000000 -1.0000000 )


      isym = 33     inv. 180 deg rotation - cart. axis [1,0,1]   

 cryst.   s(33) = (     1         -1          0      )
                  (     0         -1          0      )
                  (     0         -1          1      )

 cart.    s(33) = (  0.0000000  0.0000000 -1.0000000 )
                  (  0.0000000  1.0000000  0.0000000 )
                  ( -1.0000000  0.0000000  0.0000000 )


      isym = 34     inv. 180 deg rotation - cart. axis [-1,0,1]  

 cryst.   s(34) = (     0          0          1      )
                  (     0          1          0      )
                  (     1          0          0      )

 cart.    s(34) = (  0.0000000  0.0000000  1.0000000 )
                  (  0.0000000  1.0000000  0.0000000 )
                  (  1.0000000  0.0000000  0.0000000 )


      isym = 35     inv.  90 deg rotation - cart. axis [0,1,0]   

 cryst.   s(35) = (     0          0         -1      )
                  (     1          0         -1      )
                  (     0          1         -1      )

 cart.    s(35) = (  0.0000000  0.0000000 -1.0000000 )
                  (  0.0000000 -1.0000000  0.0000000 )
                  (  1.0000000  0.0000000  0.0000000 )


      isym = 36     inv.  90 deg rotation - cart. axis [0,-1,0]  

 cryst.   s(36) = (    -1          1          0      )
                  (    -1          0          1      )
                  (    -1          0          0      )

 cart.    s(36) = (  0.0000000  0.0000000  1.0000000 )
                  (  0.0000000 -1.0000000  0.0000000 )
                  ( -1.0000000  0.0000000  0.0000000 )


      isym = 37     inv. 180 deg rotation - cart. axis [0,1,1]   

 cryst.   s(37) = (    -1          0          0      )
                  (    -1          1          0      )
                  (    -1          0          1      )

 cart.    s(37) = (  1.0000000  0.0000000  0.0000000 )
                  (  0.0000000  0.0000000 -1.0000000 )
                  (  0.0000000 -1.0000000  0.0000000 )


      isym = 38     inv. 180 deg rotation - cart. axis [0,1,-1]  

 cryst.   s(38) = (     1          0          0      )
                  (     0          0          1      )
                  (     0          1          0      )

 cart.    s(38) = (  1.0000000  0.0000000  0.0000000 )
                  (  0.0000000  0.0000000  1.0000000 )
                  (  0.0000000  1.0000000  0.0000000 )


      isym = 39     inv.  90 deg rotation - cart. axis [-1,0,0]  

 cryst.   s(39) = (     0          1         -1      )
                  (     0          0         -1      )
                  (     1          0         -1      )

 cart.    s(39) = ( -1.0000000  0.0000000  0.0000000 )
                  (  0.0000000  0.0000000 -1.0000000 )
                  (  0.0000000  1.0000000  0.0000000 )


      isym = 40     inv.  90 deg rotation - cart. axis [1,0,0]   

 cryst.   s(40) = (     0         -1          1      )
                  (     1         -1          0      )
                  (     0         -1          0      )

 cart.    s(40) = ( -1.0000000  0.0000000  0.0000000 )
                  (  0.0000000  0.0000000  1.0000000 )
                  (  0.0000000 -1.0000000  0.0000000 )


      isym = 41     inv. 120 deg rotation - cart. axis [-1,-1,-1]

 cryst.   s(41) = (     0          0         -1      )    f =( -0.2500000 )
                  (    -1          0          0      )       ( -0.2500000 )
                  (     0         -1          0      )       ( -0.2500000 )

 cart.    s(41) = (  0.0000000 -1.0000000  0.0000000 )    f =( -0.3535534 )
                  (  0.0000000  0.0000000 -1.0000000 )       ( -0.3535534 )
                  ( -1.0000000  0.0000000  0.0000000 )       ( -0.3535534 )


      isym = 42     inv. 120 deg rotation - cart. axis [-1,1,1]  

 cryst.   s(42) = (    -1          1          0      )    f =( -0.2500000 )
                  (     0          1         -1      )       ( -0.2500000 )
                  (     0          1          0      )       ( -0.2500000 )

 cart.    s(42) = (  0.0000000  1.0000000  0.0000000 )    f =( -0.3535534 )
                  (  0.0000000  0.0000000 -1.0000000 )       ( -0.3535534 )
                  (  1.0000000  0.0000000  0.0000000 )       ( -0.3535534 )


      isym = 43     inv. 120 deg rotation - cart. axis [1,1,-1]  

 cryst.   s(43) = (     1         -1          0      )    f =( -0.2500000 )
                  (     1          0          0      )       ( -0.2500000 )
                  (     1          0         -1      )       ( -0.2500000 )

 cart.    s(43) = (  0.0000000 -1.0000000  0.0000000 )    f =( -0.3535534 )
                  (  0.0000000  0.0000000  1.0000000 )       ( -0.3535534 )
                  (  1.0000000  0.0000000  0.0000000 )       ( -0.3535534 )


      isym = 44     inv. 120 deg rotation - cart. axis [1,-1,1]  

 cryst.   s(44) = (     0          0          1      )    f =( -0.2500000 )
                  (     0         -1          1      )       ( -0.2500000 )
                  (    -1          0          1      )       ( -0.2500000 )

 cart.    s(44) = (  0.0000000  1.0000000  0.0000000 )    f =( -0.3535534 )
                  (  0.0000000  0.0000000  1.0000000 )       ( -0.3535534 )
                  ( -1.0000000  0.0000000  0.0000000 )       ( -0.3535534 )


      isym = 45     inv. 120 deg rotation - cart. axis [1,1,1]   

 cryst.   s(45) = (     0         -1          0      )    f =( -0.2500000 )
                  (     0          0         -1      )       ( -0.2500000 )
                  (    -1          0          0      )       ( -0.2500000 )

 cart.    s(45) = (  0.0000000  0.0000000 -1.0000000 )    f =( -0.3535534 )
                  ( -1.0000000  0.0000000  0.0000000 )       ( -0.3535534 )
                  (  0.0000000 -1.0000000  0.0000000 )       ( -0.3535534 )


      isym = 46     inv. 120 deg rotation - cart. axis [-1,1,-1] 

 cryst.   s(46) = (     1          0         -1      )    f =( -0.2500000 )
                  (     1         -1          0      )       ( -0.2500000 )
                  (     1          0          0      )       ( -0.2500000 )

 cart.    s(46) = (  0.0000000  0.0000000 -1.0000000 )    f =( -0.3535534 )
                  (  1.0000000  0.0000000  0.0000000 )       ( -0.3535534 )
                  (  0.0000000  1.0000000  0.0000000 )       ( -0.3535534 )


      isym = 47     inv. 120 deg rotation - cart. axis [1,-1,-1] 

 cryst.   s(47) = (    -1          0          1      )    f =( -0.2500000 )
                  (     0          0          1      )       ( -0.2500000 )
                  (     0         -1          1      )       ( -0.2500000 )

 cart.    s(47) = (  0.0000000  0.0000000  1.0000000 )    f =( -0.3535534 )
                  (  1.0000000  0.0000000  0.0000000 )       ( -0.3535534 )
                  (  0.0000000 -1.0000000  0.0000000 )       ( -0.3535534 )


      isym = 48     inv. 120 deg rotation - cart. axis [-1,-1,1] 

 cryst.   s(48) = (     0          1          0      )    f =( -0.2500000 )
                  (    -1          1          0      )       ( -0.2500000 )
                  (     0          1         -1      )       ( -0.2500000 )

 cart.    s(48) = (  0.0000000  0.0000000  1.0000000 )    f =( -0.3535534 )
                  ( -1.0000000  0.0000000  0.0000000 )       ( -0.3535534 )
                  (  0.0000000  1.0000000  0.0000000 )       ( -0.3535534 )


   Cartesian axes

     site n.     atom                  positions (alat units)
         1           Sn  tau(   1) = (   0.0000000   0.0000000   0.0000000  )
         2           Sn  tau(   2) = (   0.3535534   0.3535534   0.3535534  )

   Crystallographic axes

     site n.     atom                  positions (cryst. coord.)
         1           Sn  tau(   1) = (  0.0000000  0.0000000  0.0000000  )
         2           Sn  tau(   2) = (  0.2500000  0.2500000  0.2500000  )

     number of k points=    47  gaussian smearing, width (Ry)=  0.0001
                       cart. coord. in units 2pi/alat
        k(    1) = (   0.0000000   0.0000000   0.0000000), wk =   0.0020000
        k(    2) = (   0.0707107   0.0707107  -0.0707107), wk =   0.0160000
        k(    3) = (   0.1414214   0.1414214  -0.1414214), wk =   0.0160000
        k(    4) = (   0.2121320   0.2121320  -0.2121320), wk =   0.0160000
        k(    5) = (   0.2828427   0.2828427  -0.2828427), wk =   0.0160000
        k(    6) = (  -0.3535534  -0.3535534   0.3535534), wk =   0.0080000
        k(    7) = (   0.1414214   0.0000000   0.0000000), wk =   0.0120000
        k(    8) = (   0.2121320   0.0707107  -0.0707107), wk =   0.0480000
        k(    9) = (   0.2828427   0.1414214  -0.1414214), wk =   0.0480000
        k(   10) = (   0.3535534   0.2121320  -0.2121320), wk =   0.0480000
        k(   11) = (  -0.2828427  -0.4242641   0.4242641), wk =   0.0480000
        k(   12) = (  -0.2121320  -0.3535534   0.3535534), wk =   0.0480000
        k(   13) = (  -0.1414214  -0.2828427   0.2828427), wk =   0.0480000
        k(   14) = (  -0.0707107  -0.2121320   0.2121320), wk =   0.0480000
        k(   15) = (   0.0000000  -0.1414214   0.1414214), wk =   0.0240000
        k(   16) = (   0.2828427   0.0000000   0.0000000), wk =   0.0120000
        k(   17) = (   0.3535534   0.0707107  -0.0707107), wk =   0.0480000
        k(   18) = (   0.4242641   0.1414214  -0.1414214), wk =   0.0480000
        k(   19) = (  -0.2121320  -0.4949747   0.4949747), wk =   0.0480000
        k(   20) = (  -0.1414214  -0.4242641   0.4242641), wk =   0.0480000
        k(   21) = (  -0.0707107  -0.3535534   0.3535534), wk =   0.0480000
        k(   22) = (   0.0000000  -0.2828427   0.2828427), wk =   0.0240000
        k(   23) = (   0.4242641   0.0000000   0.0000000), wk =   0.0120000
        k(   24) = (   0.4949747   0.0707107  -0.0707107), wk =   0.0480000
        k(   25) = (  -0.1414214  -0.5656854   0.5656854), wk =   0.0480000
        k(   26) = (  -0.0707107  -0.4949747   0.4949747), wk =   0.0480000
        k(   27) = (  -0.0000000  -0.4242641   0.4242641), wk =   0.0240000
        k(   28) = (   0.5656854   0.0000000   0.0000000), wk =   0.0120000
        k(   29) = (  -0.0707107  -0.6363961   0.6363961), wk =   0.0480000
        k(   30) = (   0.0000000  -0.5656854   0.5656854), wk =   0.0240000
        k(   31) = (  -0.7071068   0.0000000   0.0000000), wk =   0.0060000
        k(   32) = (   0.2828427   0.1414214   0.0000000), wk =   0.0480000
        k(   33) = (   0.3535534   0.2121320  -0.0707107), wk =   0.0960000
        k(   34) = (  -0.2828427  -0.4242641   0.5656854), wk =   0.0960000
        k(   35) = (  -0.2121320  -0.3535534   0.4949747), wk =   0.0480000
        k(   36) = (   0.4242641   0.1414214  -0.0000000), wk =   0.0480000
        k(   37) = (  -0.2121320  -0.4949747   0.6363961), wk =   0.0960000
        k(   38) = (  -0.1414214  -0.4242641   0.5656854), wk =   0.0960000
        k(   39) = (  -0.0707107  -0.3535534   0.4949747), wk =   0.0960000
        k(   40) = (   0.0000000  -0.2828427   0.4242641), wk =   0.0480000
        k(   41) = (  -0.1414214  -0.5656854   0.7071068), wk =   0.0480000
        k(   42) = (  -0.0707107  -0.4949747   0.6363961), wk =   0.0960000
        k(   43) = (  -0.0000000  -0.4242641   0.5656854), wk =   0.0480000
        k(   44) = (  -0.7071068   0.1414214   0.0000000), wk =   0.0240000
        k(   45) = (  -0.1414214  -0.4242641   0.7071068), wk =   0.0480000
        k(   46) = (  -0.0707107  -0.3535534   0.6363961), wk =   0.0480000
        k(   47) = (  -0.7071068   0.2828427   0.0000000), wk =   0.0240000

                       cryst. coord.
        k(    1) = (   0.0000000   0.0000000   0.0000000), wk =   0.0020000
        k(    2) = (   0.0000000   0.0000000   0.1000000), wk =   0.0160000
        k(    3) = (   0.0000000   0.0000000   0.2000000), wk =   0.0160000
        k(    4) = (   0.0000000   0.0000000   0.3000000), wk =   0.0160000
        k(    5) = (   0.0000000   0.0000000   0.4000000), wk =   0.0160000
        k(    6) = (   0.0000000   0.0000000  -0.5000000), wk =   0.0080000
        k(    7) = (   0.0000000   0.1000000   0.1000000), wk =   0.0120000
        k(    8) = (   0.0000000   0.1000000   0.2000000), wk =   0.0480000
        k(    9) = (   0.0000000   0.1000000   0.3000000), wk =   0.0480000
        k(   10) = (   0.0000000   0.1000000   0.4000000), wk =   0.0480000
        k(   11) = (   0.0000000   0.1000000  -0.5000000), wk =   0.0480000
        k(   12) = (   0.0000000   0.1000000  -0.4000000), wk =   0.0480000
        k(   13) = (   0.0000000   0.1000000  -0.3000000), wk =   0.0480000
        k(   14) = (   0.0000000   0.1000000  -0.2000000), wk =   0.0480000
        k(   15) = (   0.0000000   0.1000000  -0.1000000), wk =   0.0240000
        k(   16) = (   0.0000000   0.2000000   0.2000000), wk =   0.0120000
        k(   17) = (   0.0000000   0.2000000   0.3000000), wk =   0.0480000
        k(   18) = (   0.0000000   0.2000000   0.4000000), wk =   0.0480000
        k(   19) = (   0.0000000   0.2000000  -0.5000000), wk =   0.0480000
        k(   20) = (   0.0000000   0.2000000  -0.4000000), wk =   0.0480000
        k(   21) = (   0.0000000   0.2000000  -0.3000000), wk =   0.0480000
        k(   22) = (   0.0000000   0.2000000  -0.2000000), wk =   0.0240000
        k(   23) = (   0.0000000   0.3000000   0.3000000), wk =   0.0120000
        k(   24) = (   0.0000000   0.3000000   0.4000000), wk =   0.0480000
        k(   25) = (   0.0000000   0.3000000  -0.5000000), wk =   0.0480000
        k(   26) = (   0.0000000   0.3000000  -0.4000000), wk =   0.0480000
        k(   27) = (   0.0000000   0.3000000  -0.3000000), wk =   0.0240000
        k(   28) = (   0.0000000   0.4000000   0.4000000), wk =   0.0120000
        k(   29) = (   0.0000000   0.4000000  -0.5000000), wk =   0.0480000
        k(   30) = (   0.0000000   0.4000000  -0.4000000), wk =   0.0240000
        k(   31) = (   0.0000000  -0.5000000  -0.5000000), wk =   0.0060000
        k(   32) = (   0.1000000   0.2000000   0.3000000), wk =   0.0480000
        k(   33) = (   0.1000000   0.2000000   0.4000000), wk =   0.0960000
        k(   34) = (   0.1000000   0.2000000  -0.5000000), wk =   0.0960000
        k(   35) = (   0.1000000   0.2000000  -0.4000000), wk =   0.0480000
        k(   36) = (   0.1000000   0.3000000   0.4000000), wk =   0.0480000
        k(   37) = (   0.1000000   0.3000000  -0.5000000), wk =   0.0960000
        k(   38) = (   0.1000000   0.3000000  -0.4000000), wk =   0.0960000
        k(   39) = (   0.1000000   0.3000000  -0.3000000), wk =   0.0960000
        k(   40) = (   0.1000000   0.3000000  -0.2000000), wk =   0.0480000
        k(   41) = (   0.1000000   0.4000000  -0.5000000), wk =   0.0480000
        k(   42) = (   0.1000000   0.4000000  -0.4000000), wk =   0.0960000
        k(   43) = (   0.1000000   0.4000000  -0.3000000), wk =   0.0480000
        k(   44) = (   0.1000000  -0.5000000  -0.4000000), wk =   0.0240000
        k(   45) = (   0.2000000   0.4000000  -0.4000000), wk =   0.0480000
        k(   46) = (   0.2000000   0.4000000  -0.3000000), wk =   0.0480000
        k(   47) = (   0.2000000  -0.5000000  -0.3000000), wk =   0.0240000

     Dense  grid:    67529 G-vectors     FFT dimensions: (  60,  60,  60)

     Largest allocated arrays     est. size (Mb)     dimensions
        Kohn-Sham Wavefunctions         0.15 Mb     (     542,   18)
        NL pseudopotentials             0.30 Mb     (     542,   36)
        Each V/rho on FFT grid          0.22 Mb     (   14400)
        Each G-vector array             0.03 Mb     (    4221)
        G-vector shells                 0.00 Mb     (     516)
     Largest temporary arrays     est. size (Mb)     dimensions
        Auxiliary wavefunctions         0.60 Mb     (     542,   72)
        Each subspace H/S matrix        0.08 Mb     (      72,   72)
        Each <psi_i|beta_j> matrix      0.01 Mb     (      36,   18)
        Arrays for rho mixing           1.76 Mb     (   14400,    8)

     Initial potential from superposition of free atoms

     starting charge   27.82601, renormalised to   28.00000
     Starting wfc are random

     total cpu time spent up to now is        1.5 secs

     Self-consistent Calculation

     iteration #  1     ecut=   100.00 Ry     beta=0.70
     Davidson diagonalization with overlap
     ethr =  1.00E-02,  avg # of iterations =  7.1

     total cpu time spent up to now is       11.4 secs

     total energy              =    -233.14051610 Ry
     Harris-Foulkes estimate   =    -234.57477188 Ry
     estimated scf accuracy    <       2.28942408 Ry

     iteration #  2     ecut=   100.00 Ry     beta=0.70
     Davidson diagonalization with overlap
     ethr =  8.18E-03,  avg # of iterations =  2.0

     total cpu time spent up to now is       15.1 secs

     total energy              =    -233.44529574 Ry
     Harris-Foulkes estimate   =    -233.46931748 Ry
     estimated scf accuracy    <       0.06194344 Ry

     iteration #  3     ecut=   100.00 Ry     beta=0.70
     Davidson diagonalization with overlap
     ethr =  2.21E-04,  avg # of iterations =  2.2

     total cpu time spent up to now is       18.4 secs

     total energy              =    -233.44811959 Ry
     Harris-Foulkes estimate   =    -233.44897875 Ry
     estimated scf accuracy    <       0.00285691 Ry

     iteration #  4     ecut=   100.00 Ry     beta=0.70
     Davidson diagonalization with overlap
     ethr =  1.02E-05,  avg # of iterations =  2.1

     total cpu time spent up to now is       21.5 secs

     total energy              =    -233.44826817 Ry
     Harris-Foulkes estimate   =    -233.44826639 Ry
     estimated scf accuracy    <       0.00002759 Ry

     iteration #  5     ecut=   100.00 Ry     beta=0.70
     Davidson diagonalization with overlap
     ethr =  9.85E-08,  avg # of iterations =  2.7

     total cpu time spent up to now is       24.9 secs

     End of self-consistent calculation

          k = 0.0000 0.0000 0.0000 (  8393 PWs)   bands (ev):

   -12.4268 -12.4268 -12.4268 -12.3756 -12.3756 -12.1658 -12.1658 -12.1658
   -12.1565 -12.1565  -2.4341   5.1394   8.5576   8.5576   8.5576  10.8121
    10.8121  10.8121

     occupation numbers 
     1.0000   1.0000   1.0000   1.0000   1.0000   1.0000   1.0000   1.0000
     1.0000   1.0000   1.0000   1.0000   0.0000   0.0000   0.0000   0.0000
     0.0000   0.0000

          k = 0.0707 0.0707-0.0707 (  8462 PWs)   bands (ev):

   -12.4315 -12.4315 -12.4250 -12.3689 -12.3689 -12.1759 -12.1759 -12.1681
   -12.1476 -12.1476  -2.3498   4.7432   8.3905   8.3905   8.4786  11.0282
    11.0282  11.0370

     occupation numbers 
     1.0000   1.0000   1.0000   1.0000   1.0000   1.0000   1.0000   1.0000
     1.0000   1.0000   1.0000   1.0000   0.0000   0.0000   0.0000   0.0000
     0.0000   0.0000

          k = 0.1414 0.1414-0.1414 (  8447 PWs)   bands (ev):

   -12.4400 -12.4400 -12.4205 -12.3555 -12.3555 -12.1885 -12.1885 -12.1743
   -12.1381 -12.1381  -2.1043   3.8378   8.0525   8.0525   8.2088  11.4655
    11.4655  11.8138

     occupation numbers 
     1.0000   1.0000   1.0000   1.0000   1.0000   1.0000   1.0000   1.0000
     1.0000   1.0000   1.0000   1.0000   1.0000   1.0000   1.0000   0.0000
     0.0000   0.0000

          k = 0.2121 0.2121-0.2121 (  8447 PWs)   bands (ev):

   -12.4468 -12.4468 -12.4146 -12.3434 -12.3434 -12.1979 -12.1979 -12.1821
   -12.1317 -12.1317  -1.7271   2.8203   7.7378   7.7378   7.9055  11.8261
    11.8262  12.9936

     occupation numbers 
     1.0000   1.0000   1.0000   1.0000   1.0000   1.0000   1.0000   1.0000
     1.0000   1.0000   1.0000   1.0000   1.0000   1.0000   1.0000   0.0000
     0.0000   0.0000

          k = 0.2828 0.2828-0.2828 (  8471 PWs)   bands (ev):

   -12.4507 -12.4507 -12.4096 -12.3360 -12.3360 -12.2028 -12.2028 -12.1887
   -12.1284 -12.1284  -1.3085   1.9672   7.5294   7.5294   7.6983  11.9991
    11.9991  14.2399

     occupation numbers 
     1.0000   1.0000   1.0000   1.0000   1.0000   1.0000   1.0000   1.0000
     1.0000   1.0000   1.0000   1.0000   1.0000   1.0000   1.0000   0.0000
     0.0000   0.0000

          k =-0.3536-0.3536 0.3536 (  8424 PWs)   bands (ev):

   -12.4519 -12.4519 -12.4076 -12.3337 -12.3337 -12.2041 -12.2041 -12.1913
   -12.1274 -12.1274  -1.0931   1.5998   7.4573   7.4573   7.6268  12.0409
    12.0409  14.4522

     occupation numbers 
     1.0000   1.0000   1.0000   1.0000   1.0000   1.0000   1.0000   1.0000
     1.0000   1.0000   1.0000   1.0000   1.0000   1.0000   1.0000   0.0000
     0.0000   0.0000

          k = 0.1414 0.0000 0.0000 (  8460 PWs)   bands (ev):

   -12.4307 -12.4307 -12.4294 -12.3701 -12.3623 -12.1919 -12.1618 -12.1603
   -12.1603 -12.1432  -2.3213   4.6391   8.1252   8.1252   8.9953  10.4353
    11.3848  11.3848

     occupation numbers 
     1.0000   1.0000   1.0000   1.0000   1.0000   1.0000   1.0000   1.0000
     1.0000   1.0000   1.0000   1.0000   1.0000   1.0000   0.0000   0.0000
     0.0000   0.0000

          k = 0.2121 0.0707-0.0707 (  8440 PWs)   bands (ev):

   -12.4406 -12.4371 -12.4240 -12.3605 -12.3479 -12.2084 -12.1753 -12.1618
   -12.1479 -12.1355  -2.1277   3.9566   7.6920   7.7679   9.1375  10.4982
    11.8969  11.9987

     occupation numbers 
     1.0000   1.0000   1.0000   1.0000   1.0000   1.0000   1.0000   1.0000
     1.0000   1.0000   1.0000   1.0000   1.0000   1.0000   0.0000   0.0000
     0.0000   0.0000

          k = 0.2828 0.1414-0.1414 (  8439 PWs)   bands (ev):

   -12.4506 -12.4445 -12.4145 -12.3478 -12.3341 -12.2201 -12.1881 -12.1724
   -12.1379 -12.1264  -1.7888   3.0256   7.2016   7.4757   8.9710  11.0445
    12.2858  12.7411

     occupation numbers 
     1.0000   1.0000   1.0000   1.0000   1.0000   1.0000   1.0000   1.0000
     1.0000   1.0000   1.0000   1.0000   1.0000   1.0000   0.0000   0.0000
     0.0000   0.0000

          k = 0.3536 0.2121-0.2121 (  8455 PWs)   bands (ev):

   -12.4573 -12.4500 -12.4043 -12.3368 -12.3268 -12.2234 -12.1991 -12.1855
   -12.1306 -12.1203  -1.3654   2.1354   6.8183   7.3133   8.7539  11.5544
    12.4177  13.5809

     occupation numbers 
     1.0000   1.0000   1.0000   1.0000   1.0000   1.0000   1.0000   1.0000
     1.0000   1.0000   1.0000   1.0000   1.0000   1.0000   0.0000   0.0000
     0.0000   0.0000

          k =-0.2828-0.4243 0.4243 (  8453 PWs)   bands (ev):

   -12.4601 -12.4533 -12.3975 -12.3290 -12.3274 -12.2172 -12.2080 -12.1962
   -12.1256 -12.1184  -1.0411   1.5813   6.5989   7.3022   8.6103  11.8266
    12.3508  14.3214

     occupation numbers 
     1.0000   1.0000   1.0000   1.0000   1.0000   1.0000   1.0000   1.0000
     1.0000   1.0000   1.0000   1.0000   1.0000   1.0000   0.0000   0.0000
     0.0000   0.0000

          k =-0.2121-0.3536 0.3536 (  8466 PWs)   bands (ev):

   -12.4587 -12.4543 -12.3973 -12.3333 -12.3258 -12.2140 -12.2045 -12.2012
   -12.1231 -12.1211  -1.1200   1.7082   6.5619   7.4413   8.5768  11.9699
    12.1734  14.2344

     occupation numbers 
     1.0000   1.0000   1.0000   1.0000   1.0000   1.0000   1.0000   1.0000
     1.0000   1.0000   1.0000   1.0000   1.0000   1.0000   0.0000   0.0000
     0.0000   0.0000

          k =-0.1414-0.2828 0.2828 (  8459 PWs)   bands (ev):

   -12.4533 -12.4525 -12.4041 -12.3418 -12.3295 -12.2137 -12.2012 -12.1869
   -12.1284 -12.1236  -1.5113   2.4158   6.7221   7.7095   8.6457  11.8857
    11.9532  13.2901

     occupation numbers 
     1.0000   1.0000   1.0000   1.0000   1.0000   1.0000   1.0000   1.0000
     1.0000   1.0000   1.0000   1.0000   1.0000   1.0000   0.0000   0.0000
     0.0000   0.0000

          k =-0.0707-0.2121 0.2121 (  8437 PWs)   bands (ev):

   -12.4472 -12.4446 -12.4141 -12.3522 -12.3411 -12.2056 -12.1949 -12.1699
   -12.1399 -12.1278  -1.9177   3.3428   7.0970   8.0544   8.7521  11.4742
    11.5174  12.5284

     occupation numbers 
     1.0000   1.0000   1.0000   1.0000   1.0000   1.0000   1.0000   1.0000
     1.0000   1.0000   1.0000   1.0000   1.0000   1.0000   0.0000   0.0000
     0.0000   0.0000

          k = 0.0000-0.1414 0.1414 (  8448 PWs)   bands (ev):

   -12.4391 -12.4350 -12.4227 -12.3633 -12.3566 -12.1918 -12.1843 -12.1565
   -12.1545 -12.1361  -2.2111   4.2167   7.6912   8.3522   8.7210  11.0327
    11.0871  11.8620

     occupation numbers 
     1.0000   1.0000   1.0000   1.0000   1.0000   1.0000   1.0000   1.0000
     1.0000   1.0000   1.0000   1.0000   1.0000   0.1667   0.0000   0.0000
     0.0000   0.0000

          k = 0.2828 0.0000 0.0000 (  8436 PWs)   bands (ev):

   -12.4405 -12.4405 -12.4290 -12.3543 -12.3315 -12.2316 -12.1770 -12.1465
   -12.1465 -12.1404  -1.9859   3.5932   7.4034   7.4034   9.7180   9.8550
    12.5131  12.5132

     occupation numbers 
     1.0000   1.0000   1.0000   1.0000   1.0000   1.0000   1.0000   1.0000
     1.0000   1.0000   1.0000   1.0000   1.0000   1.0000   0.0000   0.0000
     0.0000   0.0000

          k = 0.3536 0.0707-0.0707 (  8443 PWs)   bands (ev):

   -12.4511 -12.4468 -12.4185 -12.3420 -12.3145 -12.2501 -12.1898 -12.1578
   -12.1370 -12.1281  -1.6905   2.8942   6.9346   7.1091   9.7298  10.0847
    12.9742  13.0263

     occupation numbers 
     1.0000   1.0000   1.0000   1.0000   1.0000   1.0000   1.0000   1.0000
     1.0000   1.0000   1.0000   1.0000   1.0000   1.0000   0.0000   0.0000
     0.0000   0.0000

          k = 0.4243 0.1414-0.1414 (  8465 PWs)   bands (ev):

   -12.4625 -12.4526 -12.4013 -12.3286 -12.3043 -12.2589 -12.2042 -12.1777
   -12.1282 -12.1152  -1.2807   2.1027   6.3972   6.9524   9.5589  10.8384
    13.0935  13.2326

     occupation numbers 
     1.0000   1.0000   1.0000   1.0000   1.0000   1.0000   1.0000   1.0000
     1.0000   1.0000   1.0000   1.0000   1.0000   1.0000   0.0000   0.0000
     0.0000   0.0000

          k =-0.2121-0.4950 0.4950 (  8459 PWs)   bands (ev):

   -12.4698 -12.4567 -12.3855 -12.3167 -12.3059 -12.2543 -12.2183 -12.1959
   -12.1216 -12.1074  -0.8830   1.4720   6.0033   6.9568   9.4074  11.5764
    13.1373  13.4234

     occupation numbers 
     1.0000   1.0000   1.0000   1.0000   1.0000   1.0000   1.0000   1.0000
     1.0000   1.0000   1.0000   1.0000   1.0000   1.0000   0.0000   0.0000
     0.0000   0.0000

          k =-0.1414-0.4243 0.4243 (  8446 PWs)   bands (ev):

   -12.4713 -12.4587 -12.3781 -12.3174 -12.3089 -12.2383 -12.2292 -12.2056
   -12.1177 -12.1065  -0.8162   1.3768   5.8331   7.1203   9.3316  11.9775
    12.8510  13.8044

     occupation numbers 
     1.0000   1.0000   1.0000   1.0000   1.0000   1.0000   1.0000   1.0000
     1.0000   1.0000   1.0000   1.0000   1.0000   1.0000   0.0000   0.0000
     0.0000   0.0000

          k =-0.0707-0.3536 0.3536 (  8463 PWs)   bands (ev):

   -12.4665 -12.4580 -12.3834 -12.3322 -12.3107 -12.2311 -12.2167 -12.2041
   -12.1172 -12.1132  -1.1613   1.8962   5.9314   7.4159   9.3007  12.1480
    12.4185  13.1374

     occupation numbers 
     1.0000   1.0000   1.0000   1.0000   1.0000   1.0000   1.0000   1.0000
     1.0000   1.0000   1.0000   1.0000   1.0000   1.0000   0.0000   0.0000
     0.0000   0.0000

          k = 0.0000-0.2828 0.2828 (  8444 PWs)   bands (ev):

   -12.4563 -12.4540 -12.3986 -12.3438 -12.3236 -12.2215 -12.2049 -12.1854
   -12.1264 -12.1206  -1.5855   2.6407   6.3448   7.7758   9.1749  11.8240
    11.8894  12.7598

     occupation numbers 
     1.0000   1.0000   1.0000   1.0000   1.0000   1.0000   1.0000   1.0000
     1.0000   1.0000   1.0000   1.0000   1.0000   1.0000   0.0000   0.0000
     0.0000   0.0000

          k = 0.4243 0.0000 0.0000 (  8444 PWs)   bands (ev):

   -12.4516 -12.4516 -12.4184 -12.3296 -12.2925 -12.2766 -12.2008 -12.1521
   -12.1304 -12.1304  -1.4373   2.4245   6.7982   6.7982   9.4549   9.9782
    13.7451  13.7451

     occupation numbers 
     1.0000   1.0000   1.0000   1.0000   1.0000   1.0000   1.0000   1.0000
     1.0000   1.0000   1.0000   1.0000   1.0000   1.0000   0.0000   0.0000
     0.0000   0.0000

          k = 0.4950 0.0707-0.0707 (  8455 PWs)   bands (ev):

   -12.4609 -12.4564 -12.4023 -12.3148 -12.2947 -12.2754 -12.2159 -12.1712
   -12.1231 -12.1175  -1.0526   1.7882   6.3811   6.6211   9.5695  10.0863
    13.7816  14.1531

     occupation numbers 
     1.0000   1.0000   1.0000   1.0000   1.0000   1.0000   1.0000   1.0000
     1.0000   1.0000   1.0000   1.0000   1.0000   1.0000   0.0000   0.0000
     0.0000   0.0000

          k =-0.1414-0.5657 0.5657 (  8466 PWs)   bands (ev):

   -12.4716 -12.4600 -12.3802 -12.3002 -12.2996 -12.2697 -12.2322 -12.1952
   -12.1174 -12.1050  -0.6149   1.1822   5.8685   6.6079   9.5701  10.9310
    13.5416  14.1256

     occupation numbers 
     1.0000   1.0000   1.0000   1.0000   1.0000   1.0000   1.0000   1.0000
     1.0000   1.0000   1.0000   1.0000   1.0000   1.0000   0.0000   0.0000
     0.0000   0.0000

          k =-0.0707-0.4950 0.4950 (  8448 PWs)   bands (ev):

   -12.4774 -12.4618 -12.3671 -12.2893 -12.2888 -12.2787 -12.2459 -12.2085
   -12.1142 -12.0989  -0.4208   0.9460   5.5424   6.7600   9.5577  12.0095
    13.3731  13.7516

     occupation numbers 
     1.0000   1.0000   1.0000   1.0000   1.0000   1.0000   1.0000   1.0000
     1.0000   1.0000   1.0000   1.0000   1.0000   1.0000   0.0000   0.0000
     0.0000   0.0000

          k =-0.0000-0.4243 0.4243 (  8460 PWs)   bands (ev):

   -12.4757 -12.4613 -12.3687 -12.3115 -12.2933 -12.2504 -12.2454 -12.2094
   -12.1141 -12.1016  -0.7312   1.3278   5.5386   7.0518   9.5428  12.6381
    12.9724  13.1332

     occupation numbers 
     1.0000   1.0000   1.0000   1.0000   1.0000   1.0000   1.0000   1.0000
     1.0000   1.0000   1.0000   1.0000   1.0000   1.0000   0.0000   0.0000
     0.0000   0.0000

          k = 0.5657 0.0000 0.0000 (  8456 PWs)   bands (ev):

   -12.4599 -12.4599 -12.3961 -12.3220 -12.2988 -12.2508 -12.2310 -12.1765
   -12.1181 -12.1181  -0.6920   1.2792   6.4128   6.4128   9.3134   9.7332
    14.8459  14.8460

     occupation numbers 
     1.0000   1.0000   1.0000   1.0000   1.0000   1.0000   1.0000   1.0000
     1.0000   1.0000   1.0000   1.0000   1.0000   1.0000   0.0000   0.0000
     0.0000   0.0000

          k =-0.0707-0.6364 0.6364 (  8439 PWs)   bands (ev):

   -12.4667 -12.4622 -12.3754 -12.3368 -12.2823 -12.2480 -12.2362 -12.1983
   -12.1145 -12.1098  -0.2394   0.7299   6.0934   6.3664   9.4618   9.9249
    14.6724  14.9967

     occupation numbers 
     1.0000   1.0000   1.0000   1.0000   1.0000   1.0000   1.0000   1.0000
     1.0000   1.0000   1.0000   1.0000   1.0000   1.0000   0.0000   0.0000
     0.0000   0.0000

          k = 0.0000-0.5657 0.5657 (  8448 PWs)   bands (ev):

   -12.4749 -12.4629 -12.3628 -12.3227 -12.2723 -12.2600 -12.2494 -12.2110
   -12.1131 -12.1009  -0.0213   0.5036   5.6849   6.4888   9.5109  10.9432
    14.0818  14.5652

     occupation numbers 
     1.0000   1.0000   1.0000   1.0000   1.0000   1.0000   1.0000   1.0000
     1.0000   1.0000   1.0000   1.0000   1.0000   1.0000   0.0000   0.0000
     0.0000   0.0000

          k =-0.7071 0.0000 0.0000 (  8480 PWs)   bands (ev):

   -12.4629 -12.4629 -12.3631 -12.3631 -12.2648 -12.2648 -12.2107 -12.2107
   -12.1135 -12.1135   0.2250   0.2250   6.2813   6.2813   9.4299   9.4299
    15.3601  15.3602

     occupation numbers 
     1.0000   1.0000   1.0000   1.0000   1.0000   1.0000   1.0000   1.0000
     1.0000   1.0000   1.0000   1.0000   1.0000   1.0000   0.0000   0.0000
     0.0000   0.0000

          k = 0.2828 0.1414 0.0000 (  8423 PWs)   bands (ev):

   -12.4476 -12.4453 -12.4166 -12.3510 -12.3320 -12.2262 -12.1853 -12.1645
   -12.1404 -12.1283  -1.8843   3.3050   6.9917   7.6425   9.4213  10.5100
    12.2981  12.6003

     occupation numbers 
     1.0000   1.0000   1.0000   1.0000   1.0000   1.0000   1.0000   1.0000
     1.0000   1.0000   1.0000   1.0000   1.0000   1.0000   0.0000   0.0000
     0.0000   0.0000

          k = 0.3536 0.2121-0.0707 (  8455 PWs)   bands (ev):

   -12.4575 -12.4529 -12.4020 -12.3393 -12.3179 -12.2381 -12.1966 -12.1827
   -12.1277 -12.1200  -1.5080   2.4896   6.4493   7.3822   9.4322  11.0409
    12.6804  12.9176

     occupation numbers 
     1.0000   1.0000   1.0000   1.0000   1.0000   1.0000   1.0000   1.0000
     1.0000   1.0000   1.0000   1.0000   1.0000   1.0000   0.0000   0.0000
     0.0000   0.0000

          k =-0.2828-0.4243 0.5657 (  8466 PWs)   bands (ev):

   -12.4655 -12.4567 -12.3883 -12.3282 -12.3120 -12.2401 -12.2083 -12.1999
   -12.1212 -12.1125  -1.0831   1.7435   6.1352   7.1560   9.3367  11.5698
    12.7588  13.5101

     occupation numbers 
     1.0000   1.0000   1.0000   1.0000   1.0000   1.0000   1.0000   1.0000
     1.0000   1.0000   1.0000   1.0000   1.0000   1.0000   0.0000   0.0000
     0.0000   0.0000

          k =-0.2121-0.3536 0.4950 (  8454 PWs)   bands (ev):

   -12.4684 -12.4579 -12.3826 -12.3210 -12.3137 -12.2357 -12.2193 -12.2044
   -12.1194 -12.1094  -0.8576   1.4017   6.0341   7.0712   9.2924  11.7216
    12.8040  13.9830

     occupation numbers 
     1.0000   1.0000   1.0000   1.0000   1.0000   1.0000   1.0000   1.0000
     1.0000   1.0000   1.0000   1.0000   1.0000   1.0000   0.0000   0.0000
     0.0000   0.0000

          k = 0.4243 0.1414-0.0000 (  8437 PWs)   bands (ev):

   -12.4567 -12.4563 -12.4052 -12.3291 -12.2971 -12.2688 -12.2028 -12.1718
   -12.1245 -12.1214  -1.3525   2.2614   6.4398   6.8998  10.0072  10.0892
    13.0457  13.6294

     occupation numbers 
     1.0000   1.0000   1.0000   1.0000   1.0000   1.0000   1.0000   1.0000
     1.0000   1.0000   1.0000   1.0000   1.0000   1.0000   0.0000   0.0000
     0.0000   0.0000

          k =-0.2121-0.4950 0.6364 (  8454 PWs)   bands (ev):

   -12.4679 -12.4606 -12.3844 -12.3156 -12.2879 -12.2765 -12.2183 -12.1942
   -12.1172 -12.1095  -0.9219   1.5869   5.9882   6.7007   9.9385  10.8881
    12.9049  13.9168

     occupation numbers 
     1.0000   1.0000   1.0000   1.0000   1.0000   1.0000   1.0000   1.0000
     1.0000   1.0000   1.0000   1.0000   1.0000   1.0000   0.0000   0.0000
     0.0000   0.0000

          k =-0.1414-0.4243 0.5657 (  8452 PWs)   bands (ev):

   -12.4747 -12.4628 -12.3687 -12.3051 -12.2900 -12.2712 -12.2337 -12.2092
   -12.1138 -12.1020  -0.5787   1.1250   5.6967   6.6651   9.8842  11.6698
    13.0824  13.6694

     occupation numbers 
     1.0000   1.0000   1.0000   1.0000   1.0000   1.0000   1.0000   1.0000
     1.0000   1.0000   1.0000   1.0000   1.0000   1.0000   0.0000   0.0000
     0.0000   0.0000

          k =-0.0707-0.3536 0.4950 (  8459 PWs)   bands (ev):

   -12.4744 -12.4628 -12.3679 -12.3119 -12.2920 -12.2618 -12.2336 -12.2113
   -12.1130 -12.1028  -0.6909   1.2699   5.6410   6.8190   9.8720  11.8651
    12.9938  13.5250

     occupation numbers 
     1.0000   1.0000   1.0000   1.0000   1.0000   1.0000   1.0000   1.0000
     1.0000   1.0000   1.0000   1.0000   1.0000   1.0000   0.0000   0.0000
     0.0000   0.0000

          k = 0.0000-0.2828 0.4243 (  8459 PWs)   bands (ev):

   -12.4672 -12.4602 -12.3819 -12.3276 -12.3009 -12.2530 -12.2095 -12.2050
   -12.1154 -12.1121  -1.1077   1.8499   5.8822   7.1063   9.7890  11.4436
    12.7022  13.3172

     occupation numbers 
     1.0000   1.0000   1.0000   1.0000   1.0000   1.0000   1.0000   1.0000
     1.0000   1.0000   1.0000   1.0000   1.0000   1.0000   0.0000   0.0000
     0.0000   0.0000

          k =-0.1414-0.5657 0.7071 (  8435 PWs)   bands (ev):

   -12.4648 -12.4639 -12.3834 -12.3120 -12.2994 -12.2588 -12.2320 -12.1910
   -12.1129 -12.1128  -0.6362   1.2162   6.1343   6.3689   9.8897  10.0594
    13.7386  14.6642

     occupation numbers 
     1.0000   1.0000   1.0000   1.0000   1.0000   1.0000   1.0000   1.0000
     1.0000   1.0000   1.0000   1.0000   1.0000   1.0000   0.0000   0.0000
     0.0000   0.0000

          k =-0.0707-0.4950 0.6364 (  8463 PWs)   bands (ev):

   -12.4738 -12.4660 -12.3602 -12.3151 -12.2847 -12.2552 -12.2491 -12.2137
   -12.1102 -12.1022  -0.2114   0.7181   5.7614   6.3091   9.9725  10.9449
    13.4852  14.2507

     occupation numbers 
     1.0000   1.0000   1.0000   1.0000   1.0000   1.0000   1.0000   1.0000
     1.0000   1.0000   1.0000   1.0000   1.0000   1.0000   0.0000   0.0000
     0.0000   0.0000

          k =-0.0000-0.4243 0.5657 (  8457 PWs)   bands (ev):

   -12.4778 -12.4657 -12.3563 -12.2920 -12.2871 -12.2714 -12.2548 -12.2172
   -12.1100 -12.0982  -0.2652   0.7831   5.5296   6.4913  10.0000  11.9792
    13.1673  13.4978

     occupation numbers 
     1.0000   1.0000   1.0000   1.0000   1.0000   1.0000   1.0000   1.0000
     1.0000   1.0000   1.0000   1.0000   1.0000   1.0000   0.0000   0.0000
     0.0000   0.0000

          k =-0.7071 0.1414 0.0000 (  8434 PWs)   bands (ev):

   -12.4673 -12.4673 -12.3515 -12.3515 -12.2657 -12.2657 -12.2217 -12.2217
   -12.1088 -12.1088   0.2337   0.2337   6.1081   6.1081   9.9127   9.9127
    14.6101  14.6101

     occupation numbers 
     1.0000   1.0000   1.0000   1.0000   1.0000   1.0000   1.0000   1.0000
     1.0000   1.0000   1.0000   1.0000   1.0000   1.0000   0.0000   0.0000
     0.0000   0.0000

          k =-0.1414-0.4243 0.7071 (  8470 PWs)   bands (ev):

   -12.4735 -12.4677 -12.3602 -12.3009 -12.2924 -12.2707 -12.2383 -12.2157
   -12.1082 -12.1033  -0.4823   1.0381   5.7132   6.3679  10.5287  11.1559
    12.7093  13.9822

     occupation numbers 
     1.0000   1.0000   1.0000   1.0000   1.0000   1.0000   1.0000   1.0000
     1.0000   1.0000   1.0000   1.0000   1.0000   1.0000   0.0000   0.0000
     0.0000   0.0000

          k =-0.0707-0.3536 0.6364 (  8460 PWs)   bands (ev):

   -12.4765 -12.4695 -12.3472 -12.2998 -12.2876 -12.2670 -12.2517 -12.2253
   -12.1062 -12.0995  -0.1934   0.7099   5.6328   6.2146  10.6419  11.6080
    12.8720  13.3078

     occupation numbers 
     1.0000   1.0000   1.0000   1.0000   1.0000   1.0000   1.0000   1.0000
     1.0000   1.0000   1.0000   1.0000   1.0000   1.0000   0.0000   0.0000
     0.0000   0.0000

          k =-0.7071 0.2828 0.0000 (  8464 PWs)   bands (ev):

   -12.4733 -12.4733 -12.3296 -12.3296 -12.2697 -12.2697 -12.2400 -12.2400
   -12.1024 -12.1024   0.2480   0.2480   5.8766   5.8766  10.9396  10.9396
    13.2796  13.2796

     occupation numbers 
     1.0000   1.0000   1.0000   1.0000   1.0000   1.0000   1.0000   1.0000
     1.0000   1.0000   1.0000   1.0000   1.0000   1.0000   0.0000   0.0000
     0.0000   0.0000

     the Fermi energy is     8.3513 ev

!    total energy              =    -233.44827239 Ry
     Harris-Foulkes estimate   =    -233.44827257 Ry
     estimated scf accuracy    <       0.00000047 Ry

     The total energy is the sum of the following terms:

     one-electron contribution =     -95.71220443 Ry
     hartree contribution      =      58.49625085 Ry
     xc contribution           =     -28.70252305 Ry
     ewald contribution        =    -167.52979533 Ry
     smearing contrib. (-TS)   =      -0.00000042 Ry

     convergence has been achieved in   5 iterations

     Writing output data file Sn.save
 
     init_run     :      1.27s CPU      1.46s WALL (       1 calls)
     electrons    :     22.27s CPU     23.43s WALL (       1 calls)

     Called by init_run:
     wfcinit      :      1.08s CPU      1.20s WALL (       1 calls)
     potinit      :      0.02s CPU      0.03s WALL (       1 calls)

     Called by electrons:
     c_bands      :     19.56s CPU     20.62s WALL (       5 calls)
     sum_band     :      2.61s CPU      2.66s WALL (       5 calls)
     v_of_rho     :      0.10s CPU      0.11s WALL (       6 calls)
     v_h          :      0.01s CPU      0.01s WALL (       6 calls)
     v_xc         :      0.09s CPU      0.10s WALL (       6 calls)
     mix_rho      :      0.01s CPU      0.01s WALL (       5 calls)

     Called by c_bands:
     init_us_2    :      0.16s CPU      0.18s WALL (     517 calls)
     cegterg      :     18.79s CPU     19.82s WALL (     235 calls)

     Called by sum_band:

     Called by *egterg:
     h_psi        :     16.40s CPU     17.41s WALL (    1035 calls)
     g_psi        :      0.08s CPU      0.08s WALL (     753 calls)
     cdiaghg      :      1.08s CPU      1.09s WALL (     988 calls)
     cegterg:over :      0.92s CPU      0.93s WALL (     753 calls)
     cegterg:upda :      0.42s CPU      0.43s WALL (     753 calls)
     cegterg:last :      0.24s CPU      0.24s WALL (     293 calls)

     Called by h_psi:
     h_psi:vloc   :     15.33s CPU     16.30s WALL (    1035 calls)
     h_psi:vnl    :      1.01s CPU      1.04s WALL (    1035 calls)
     add_vuspsi   :      0.39s CPU      0.40s WALL (    1035 calls)

     General routines
     calbec       :      0.61s CPU      0.64s WALL (    1035 calls)
     fft          :      0.07s CPU      0.08s WALL (      65 calls)
     fftw         :     15.52s CPU     16.40s WALL (   33560 calls)
     davcio       :      0.00s CPU      0.05s WALL (      47 calls)
 
     Parallel routines
     fft_scatter  :      8.52s CPU      9.00s WALL (   33625 calls)
 
     PWSCF        :    23.72s CPU        25.21s WALL

 
   This run was terminated on:   6:17: 1  28Feb2020            

=------------------------------------------------------------------------------=
   JOB DONE.
=------------------------------------------------------------------------------=
