
     Program PWSCF v.5.4.0 starts on 15Mar2020 at 19:52:56 

     This program is part of the open-source Quantum ESPRESSO suite
     for quantum simulation of materials; please cite
         "P. Giannozzi et al., J. Phys.:Condens. Matter 21 395502 (2009);
          URL http://www.quantum-espresso.org", 
     in publications or presentations arising from this work. More details at
     http://www.quantum-espresso.org/quote

     Parallel version (MPI & OpenMP), running on      16 processor cores
     Number of MPI processes:                16
     Threads/MPI process:                     1
     R & G space division:  proc/nbgrp/npool/nimage =      16
     Waiting for input...
     Reading input from standard input
Warning: card &IONS ignored
Warning: card / ignored
Warning: card &CELL ignored
Warning: card / ignored

     Current dimensions of program PWSCF are:
     Max number of different atomic species (ntypx) = 10
     Max number of k-points (npk) =  40000
     Max angular momentum in pseudopotentials (lmaxx) =  3
               file Sn.rel-pbe-dn-kjpaw_psl.0.2.UPF: wavefunction(s)  5P 5P 4D 4D renormalized

     Subspace diagonalization in iterative solution of the eigenvalue problem:
     a serial algorithm will be used

 
     Parallelization info
     --------------------
     sticks:   dense  smooth     PW     G-vecs:    dense   smooth      PW
     Min          68      68     19                 1497     1497     237
     Max          69      69     20                 1499     1499     242
     Sum        1099    1099    313                23973    23973    3839
 

     Title: 
     Sn                                                                         


     bravais-lattice index     =            0
     lattice parameter (alat)  =       8.9127  a.u.
     unit-cell volume          =     500.6268 (a.u.)^3
     number of atoms/cell      =            2
     number of atomic types    =            1
     number of electrons       =        28.00
     number of Kohn-Sham states=           36
     kinetic-energy cutoff     =      50.0000  Ry
     charge density cutoff     =     200.0000  Ry
     convergence threshold     =      1.0E-06
     mixing beta               =       0.7000
     number of iterations used =            8  plain     mixing
     Exchange-correlation      =  SLA  PW   PBX  PBC ( 1  4  3  4 0 0)
     Non magnetic calculation with spin-orbit


     celldm(1)=   8.912709  celldm(2)=   0.000000  celldm(3)=   0.000000
     celldm(4)=   0.000000  celldm(5)=   0.000000  celldm(6)=   0.000000

     crystal axes: (cart. coord. in units of alat)
               a(1) = (   0.000000   0.707107   0.707107 )  
               a(2) = (   0.707107   0.000000   0.707107 )  
               a(3) = (   0.707107   0.707107   0.000000 )  

     reciprocal axes: (cart. coord. in units 2 pi/alat)
               b(1) = ( -0.707107  0.707107  0.707107 )  
               b(2) = (  0.707107 -0.707107  0.707107 )  
               b(3) = (  0.707107  0.707107 -0.707107 )  


     PseudoPot. # 1 for Sn read from file:
     ../PseudopotentialDatabase/Sn.rel-pbe-dn-kjpaw_psl.0.2.UPF
     MD5 check sum: 79f626d90b2bb8cc2658247f48f3d9cb
     Pseudo is Projector augmented-wave + core cor, Zval = 14.0
     Generated using "atomic" code by A. Dal Corso  v.5.0.2 svn rev. 9415
     Shape of augmentation charge: BESSEL
     Using radial grid of 1243 points, 10 beta functions with: 
                l(1) =   0
                l(2) =   0
                l(3) =   1
                l(4) =   1
                l(5) =   1
                l(6) =   1
                l(7) =   2
                l(8) =   2
                l(9) =   2
               l(10) =   2
     Q(r) pseudized with 0 coefficients 


     atomic species   valence    mass     pseudopotential
        Sn            14.00   118.71000     Sn( 1.00)

     24 Sym. Ops. (no inversion) found
          (note: 24 additional sym.ops. were found but ignored
           their fractional translations are incommensurate with FFT grid)

                                    s                        frac. trans.

      isym =  1     identity                                     

 cryst.   s( 1) = (     1          0          0      )
                  (     0          1          0      )
                  (     0          0          1      )

 cart.    s( 1) = (  1.0000000  0.0000000  0.0000000 )
                  (  0.0000000  1.0000000  0.0000000 )
                  (  0.0000000  0.0000000  1.0000000 )


      isym =  2     180 deg rotation - cart. axis [0,0,1]        

 cryst.   s( 2) = (     0          1         -1      )
                  (     1          0         -1      )
                  (     0          0         -1      )

 cart.    s( 2) = ( -1.0000000  0.0000000  0.0000000 )
                  (  0.0000000 -1.0000000  0.0000000 )
                  (  0.0000000  0.0000000  1.0000000 )


      isym =  3     180 deg rotation - cart. axis [0,1,0]        

 cryst.   s( 3) = (     0         -1          1      )
                  (     0         -1          0      )
                  (     1         -1          0      )

 cart.    s( 3) = ( -1.0000000  0.0000000  0.0000000 )
                  (  0.0000000  1.0000000  0.0000000 )
                  (  0.0000000  0.0000000 -1.0000000 )


      isym =  4     180 deg rotation - cart. axis [1,0,0]        

 cryst.   s( 4) = (    -1          0          0      )
                  (    -1          0          1      )
                  (    -1          1          0      )

 cart.    s( 4) = (  1.0000000  0.0000000  0.0000000 )
                  (  0.0000000 -1.0000000  0.0000000 )
                  (  0.0000000  0.0000000 -1.0000000 )


      isym =  5     120 deg rotation - cart. axis [-1,-1,-1]     

 cryst.   s( 5) = (     0          0          1      )
                  (     1          0          0      )
                  (     0          1          0      )

 cart.    s( 5) = (  0.0000000  1.0000000  0.0000000 )
                  (  0.0000000  0.0000000  1.0000000 )
                  (  1.0000000  0.0000000  0.0000000 )


      isym =  6     120 deg rotation - cart. axis [-1,1,1]       

 cryst.   s( 6) = (     1         -1          0      )
                  (     0         -1          1      )
                  (     0         -1          0      )

 cart.    s( 6) = (  0.0000000 -1.0000000  0.0000000 )
                  (  0.0000000  0.0000000  1.0000000 )
                  ( -1.0000000  0.0000000  0.0000000 )


      isym =  7     120 deg rotation - cart. axis [1,1,-1]       

 cryst.   s( 7) = (    -1          1          0      )
                  (    -1          0          0      )
                  (    -1          0          1      )

 cart.    s( 7) = (  0.0000000  1.0000000  0.0000000 )
                  (  0.0000000  0.0000000 -1.0000000 )
                  ( -1.0000000  0.0000000  0.0000000 )


      isym =  8     120 deg rotation - cart. axis [1,-1,1]       

 cryst.   s( 8) = (     0          0         -1      )
                  (     0          1         -1      )
                  (     1          0         -1      )

 cart.    s( 8) = (  0.0000000 -1.0000000  0.0000000 )
                  (  0.0000000  0.0000000 -1.0000000 )
                  (  1.0000000  0.0000000  0.0000000 )


      isym =  9     120 deg rotation - cart. axis [1,1,1]        

 cryst.   s( 9) = (     0          1          0      )
                  (     0          0          1      )
                  (     1          0          0      )

 cart.    s( 9) = (  0.0000000  0.0000000  1.0000000 )
                  (  1.0000000  0.0000000  0.0000000 )
                  (  0.0000000  1.0000000  0.0000000 )


      isym = 10     120 deg rotation - cart. axis [-1,1,-1]      

 cryst.   s(10) = (    -1          0          1      )
                  (    -1          1          0      )
                  (    -1          0          0      )

 cart.    s(10) = (  0.0000000  0.0000000  1.0000000 )
                  ( -1.0000000  0.0000000  0.0000000 )
                  (  0.0000000 -1.0000000  0.0000000 )


      isym = 11     120 deg rotation - cart. axis [1,-1,-1]      

 cryst.   s(11) = (     1          0         -1      )
                  (     0          0         -1      )
                  (     0          1         -1      )

 cart.    s(11) = (  0.0000000  0.0000000 -1.0000000 )
                  ( -1.0000000  0.0000000  0.0000000 )
                  (  0.0000000  1.0000000  0.0000000 )


      isym = 12     120 deg rotation - cart. axis [-1,-1,1]      

 cryst.   s(12) = (     0         -1          0      )
                  (     1         -1          0      )
                  (     0         -1          1      )

 cart.    s(12) = (  0.0000000  0.0000000 -1.0000000 )
                  (  1.0000000  0.0000000  0.0000000 )
                  (  0.0000000 -1.0000000  0.0000000 )


      isym = 13     inv. 180 deg rotation - cart. axis [1,1,0]   

 cryst.   s(13) = (     1          0         -1      )
                  (     0          1         -1      )
                  (     0          0         -1      )

 cart.    s(13) = (  0.0000000 -1.0000000  0.0000000 )
                  ( -1.0000000  0.0000000  0.0000000 )
                  (  0.0000000  0.0000000  1.0000000 )


      isym = 14     inv. 180 deg rotation - cart. axis [1,-1,0]  

 cryst.   s(14) = (     0          1          0      )
                  (     1          0          0      )
                  (     0          0          1      )

 cart.    s(14) = (  0.0000000  1.0000000  0.0000000 )
                  (  1.0000000  0.0000000  0.0000000 )
                  (  0.0000000  0.0000000  1.0000000 )


      isym = 15     inv.  90 deg rotation - cart. axis [0,0,-1]  

 cryst.   s(15) = (     0         -1          0      )
                  (     0         -1          1      )
                  (     1         -1          0      )

 cart.    s(15) = (  0.0000000 -1.0000000  0.0000000 )
                  (  1.0000000  0.0000000  0.0000000 )
                  (  0.0000000  0.0000000 -1.0000000 )


      isym = 16     inv.  90 deg rotation - cart. axis [0,0,1]   

 cryst.   s(16) = (    -1          0          1      )
                  (    -1          0          0      )
                  (    -1          1          0      )

 cart.    s(16) = (  0.0000000  1.0000000  0.0000000 )
                  ( -1.0000000  0.0000000  0.0000000 )
                  (  0.0000000  0.0000000 -1.0000000 )


      isym = 17     inv. 180 deg rotation - cart. axis [1,0,1]   

 cryst.   s(17) = (     1         -1          0      )
                  (     0         -1          0      )
                  (     0         -1          1      )

 cart.    s(17) = (  0.0000000  0.0000000 -1.0000000 )
                  (  0.0000000  1.0000000  0.0000000 )
                  ( -1.0000000  0.0000000  0.0000000 )


      isym = 18     inv. 180 deg rotation - cart. axis [-1,0,1]  

 cryst.   s(18) = (     0          0          1      )
                  (     0          1          0      )
                  (     1          0          0      )

 cart.    s(18) = (  0.0000000  0.0000000  1.0000000 )
                  (  0.0000000  1.0000000  0.0000000 )
                  (  1.0000000  0.0000000  0.0000000 )


      isym = 19     inv.  90 deg rotation - cart. axis [0,1,0]   

 cryst.   s(19) = (     0          0         -1      )
                  (     1          0         -1      )
                  (     0          1         -1      )

 cart.    s(19) = (  0.0000000  0.0000000 -1.0000000 )
                  (  0.0000000 -1.0000000  0.0000000 )
                  (  1.0000000  0.0000000  0.0000000 )


      isym = 20     inv.  90 deg rotation - cart. axis [0,-1,0]  

 cryst.   s(20) = (    -1          1          0      )
                  (    -1          0          1      )
                  (    -1          0          0      )

 cart.    s(20) = (  0.0000000  0.0000000  1.0000000 )
                  (  0.0000000 -1.0000000  0.0000000 )
                  ( -1.0000000  0.0000000  0.0000000 )


      isym = 21     inv. 180 deg rotation - cart. axis [0,1,1]   

 cryst.   s(21) = (    -1          0          0      )
                  (    -1          1          0      )
                  (    -1          0          1      )

 cart.    s(21) = (  1.0000000  0.0000000  0.0000000 )
                  (  0.0000000  0.0000000 -1.0000000 )
                  (  0.0000000 -1.0000000  0.0000000 )


      isym = 22     inv. 180 deg rotation - cart. axis [0,1,-1]  

 cryst.   s(22) = (     1          0          0      )
                  (     0          0          1      )
                  (     0          1          0      )

 cart.    s(22) = (  1.0000000  0.0000000  0.0000000 )
                  (  0.0000000  0.0000000  1.0000000 )
                  (  0.0000000  1.0000000  0.0000000 )


      isym = 23     inv.  90 deg rotation - cart. axis [-1,0,0]  

 cryst.   s(23) = (     0          1         -1      )
                  (     0          0         -1      )
                  (     1          0         -1      )

 cart.    s(23) = ( -1.0000000  0.0000000  0.0000000 )
                  (  0.0000000  0.0000000 -1.0000000 )
                  (  0.0000000  1.0000000  0.0000000 )


      isym = 24     inv.  90 deg rotation - cart. axis [1,0,0]   

 cryst.   s(24) = (     0         -1          1      )
                  (     1         -1          0      )
                  (     0         -1          0      )

 cart.    s(24) = ( -1.0000000  0.0000000  0.0000000 )
                  (  0.0000000  0.0000000  1.0000000 )
                  (  0.0000000 -1.0000000  0.0000000 )


   Cartesian axes

     site n.     atom                  positions (alat units)
         1           Sn  tau(   1) = (   0.0000000   0.0000000   0.0000000  )
         2           Sn  tau(   2) = (   0.3535534   0.3535534   0.3535534  )

   Crystallographic axes

     site n.     atom                  positions (cryst. coord.)
         1           Sn  tau(   1) = (  0.0000000  0.0000000  0.0000000  )
         2           Sn  tau(   2) = (  0.2500000  0.2500000  0.2500000  )

     number of k points=   145  gaussian smearing, width (Ry)=  0.0001
                       cart. coord. in units 2pi/alat
        k(    1) = (   0.0000000   0.0000000   0.0000000), wk =   0.0002441
        k(    2) = (   0.0441942   0.0441942  -0.0441942), wk =   0.0019531
        k(    3) = (   0.0883883   0.0883883  -0.0883883), wk =   0.0019531
        k(    4) = (   0.1325825   0.1325825  -0.1325825), wk =   0.0019531
        k(    5) = (   0.1767767   0.1767767  -0.1767767), wk =   0.0019531
        k(    6) = (   0.2209709   0.2209709  -0.2209709), wk =   0.0019531
        k(    7) = (   0.2651650   0.2651650  -0.2651650), wk =   0.0019531
        k(    8) = (   0.3093592   0.3093592  -0.3093592), wk =   0.0019531
        k(    9) = (  -0.3535534  -0.3535534   0.3535534), wk =   0.0009766
        k(   10) = (   0.0883883   0.0000000   0.0000000), wk =   0.0014648
        k(   11) = (   0.1325825   0.0441942  -0.0441942), wk =   0.0058594
        k(   12) = (   0.1767767   0.0883883  -0.0883883), wk =   0.0058594
        k(   13) = (   0.2209709   0.1325825  -0.1325825), wk =   0.0058594
        k(   14) = (   0.2651650   0.1767767  -0.1767767), wk =   0.0058594
        k(   15) = (   0.3093592   0.2209709  -0.2209709), wk =   0.0058594
        k(   16) = (   0.3535534   0.2651650  -0.2651650), wk =   0.0058594
        k(   17) = (  -0.3093592  -0.3977476   0.3977476), wk =   0.0058594
        k(   18) = (  -0.2651650  -0.3535534   0.3535534), wk =   0.0058594
        k(   19) = (  -0.2209709  -0.3093592   0.3093592), wk =   0.0058594
        k(   20) = (  -0.1767767  -0.2651650   0.2651650), wk =   0.0058594
        k(   21) = (  -0.1325825  -0.2209709   0.2209709), wk =   0.0058594
        k(   22) = (  -0.0883883  -0.1767767   0.1767767), wk =   0.0058594
        k(   23) = (  -0.0441942  -0.1325825   0.1325825), wk =   0.0058594
        k(   24) = (   0.0000000  -0.0883883   0.0883883), wk =   0.0029297
        k(   25) = (   0.1767767   0.0000000   0.0000000), wk =   0.0014648
        k(   26) = (   0.2209709   0.0441942  -0.0441942), wk =   0.0058594
        k(   27) = (   0.2651650   0.0883883  -0.0883883), wk =   0.0058594
        k(   28) = (   0.3093592   0.1325825  -0.1325825), wk =   0.0058594
        k(   29) = (   0.3535534   0.1767767  -0.1767767), wk =   0.0058594
        k(   30) = (   0.3977476   0.2209709  -0.2209709), wk =   0.0058594
        k(   31) = (  -0.2651650  -0.4419417   0.4419417), wk =   0.0058594
        k(   32) = (  -0.2209709  -0.3977476   0.3977476), wk =   0.0058594
        k(   33) = (  -0.1767767  -0.3535534   0.3535534), wk =   0.0058594
        k(   34) = (  -0.1325825  -0.3093592   0.3093592), wk =   0.0058594
        k(   35) = (  -0.0883883  -0.2651650   0.2651650), wk =   0.0058594
        k(   36) = (  -0.0441942  -0.2209709   0.2209709), wk =   0.0058594
        k(   37) = (   0.0000000  -0.1767767   0.1767767), wk =   0.0029297
        k(   38) = (   0.2651650   0.0000000   0.0000000), wk =   0.0014648
        k(   39) = (   0.3093592   0.0441942  -0.0441942), wk =   0.0058594
        k(   40) = (   0.3535534   0.0883883  -0.0883883), wk =   0.0058594
        k(   41) = (   0.3977476   0.1325825  -0.1325825), wk =   0.0058594
        k(   42) = (   0.4419417   0.1767767  -0.1767767), wk =   0.0058594
        k(   43) = (  -0.2209709  -0.4861359   0.4861359), wk =   0.0058594
        k(   44) = (  -0.1767767  -0.4419417   0.4419417), wk =   0.0058594
        k(   45) = (  -0.1325825  -0.3977476   0.3977476), wk =   0.0058594
        k(   46) = (  -0.0883883  -0.3535534   0.3535534), wk =   0.0058594
        k(   47) = (  -0.0441942  -0.3093592   0.3093592), wk =   0.0058594
        k(   48) = (   0.0000000  -0.2651650   0.2651650), wk =   0.0029297
        k(   49) = (   0.3535534   0.0000000   0.0000000), wk =   0.0014648
        k(   50) = (   0.3977476   0.0441942  -0.0441942), wk =   0.0058594
        k(   51) = (   0.4419417   0.0883883  -0.0883883), wk =   0.0058594
        k(   52) = (   0.4861359   0.1325825  -0.1325825), wk =   0.0058594
        k(   53) = (  -0.1767767  -0.5303301   0.5303301), wk =   0.0058594
        k(   54) = (  -0.1325825  -0.4861359   0.4861359), wk =   0.0058594
        k(   55) = (  -0.0883883  -0.4419417   0.4419417), wk =   0.0058594
        k(   56) = (  -0.0441942  -0.3977476   0.3977476), wk =   0.0058594
        k(   57) = (   0.0000000  -0.3535534   0.3535534), wk =   0.0029297
        k(   58) = (   0.4419417   0.0000000   0.0000000), wk =   0.0014648
        k(   59) = (   0.4861359   0.0441942  -0.0441942), wk =   0.0058594
        k(   60) = (   0.5303301   0.0883883  -0.0883883), wk =   0.0058594
        k(   61) = (  -0.1325825  -0.5745243   0.5745243), wk =   0.0058594
        k(   62) = (  -0.0883883  -0.5303301   0.5303301), wk =   0.0058594
        k(   63) = (  -0.0441942  -0.4861359   0.4861359), wk =   0.0058594
        k(   64) = (   0.0000000  -0.4419417   0.4419417), wk =   0.0029297
        k(   65) = (   0.5303301   0.0000000   0.0000000), wk =   0.0014648
        k(   66) = (   0.5745243   0.0441942  -0.0441942), wk =   0.0058594
        k(   67) = (  -0.0883883  -0.6187184   0.6187184), wk =   0.0058594
        k(   68) = (  -0.0441942  -0.5745243   0.5745243), wk =   0.0058594
        k(   69) = (   0.0000000  -0.5303301   0.5303301), wk =   0.0029297
        k(   70) = (   0.6187184   0.0000000   0.0000000), wk =   0.0014648
        k(   71) = (  -0.0441942  -0.6629126   0.6629126), wk =   0.0058594
        k(   72) = (   0.0000000  -0.6187184   0.6187184), wk =   0.0029297
        k(   73) = (  -0.7071068   0.0000000   0.0000000), wk =   0.0007324
        k(   74) = (   0.1767767   0.0883883   0.0000000), wk =   0.0058594
        k(   75) = (   0.2209709   0.1325825  -0.0441942), wk =   0.0117188
        k(   76) = (   0.2651650   0.1767767  -0.0883883), wk =   0.0117188
        k(   77) = (   0.3093592   0.2209709  -0.1325825), wk =   0.0117188
        k(   78) = (   0.3535534   0.2651650  -0.1767767), wk =   0.0117188
        k(   79) = (  -0.3093592  -0.3977476   0.4861359), wk =   0.0117188
        k(   80) = (  -0.2651650  -0.3535534   0.4419417), wk =   0.0058594
        k(   81) = (   0.2651650   0.0883883   0.0000000), wk =   0.0058594
        k(   82) = (   0.3093592   0.1325825  -0.0441942), wk =   0.0117188
        k(   83) = (   0.3535534   0.1767767  -0.0883883), wk =   0.0117188
        k(   84) = (   0.3977476   0.2209709  -0.1325825), wk =   0.0117188
        k(   85) = (  -0.2651650  -0.4419417   0.5303301), wk =   0.0117188
        k(   86) = (  -0.2209709  -0.3977476   0.4861359), wk =   0.0117188
        k(   87) = (  -0.1767767  -0.3535534   0.4419417), wk =   0.0117188
        k(   88) = (  -0.1325825  -0.3093592   0.3977476), wk =   0.0117188
        k(   89) = (  -0.0883883  -0.2651650   0.3535534), wk =   0.0117188
        k(   90) = (  -0.0441942  -0.2209709   0.3093592), wk =   0.0117188
        k(   91) = (   0.0000000  -0.1767767   0.2651650), wk =   0.0058594
        k(   92) = (   0.3535534   0.0883883   0.0000000), wk =   0.0058594
        k(   93) = (   0.3977476   0.1325825  -0.0441942), wk =   0.0117188
        k(   94) = (   0.4419417   0.1767767  -0.0883883), wk =   0.0117188
        k(   95) = (  -0.2209709  -0.4861359   0.5745243), wk =   0.0117188
        k(   96) = (  -0.1767767  -0.4419417   0.5303301), wk =   0.0117188
        k(   97) = (  -0.1325825  -0.3977476   0.4861359), wk =   0.0117188
        k(   98) = (  -0.0883883  -0.3535534   0.4419417), wk =   0.0117188
        k(   99) = (  -0.0441942  -0.3093592   0.3977476), wk =   0.0117188
        k(  100) = (   0.0000000  -0.2651650   0.3535534), wk =   0.0058594
        k(  101) = (   0.4419417   0.0883883   0.0000000), wk =   0.0058594
        k(  102) = (   0.4861359   0.1325825  -0.0441942), wk =   0.0117188
        k(  103) = (  -0.1767767  -0.5303301   0.6187184), wk =   0.0117188
        k(  104) = (  -0.1325825  -0.4861359   0.5745243), wk =   0.0117188
        k(  105) = (  -0.0883883  -0.4419417   0.5303301), wk =   0.0117188
        k(  106) = (  -0.0441942  -0.3977476   0.4861359), wk =   0.0117188
        k(  107) = (   0.0000000  -0.3535534   0.4419417), wk =   0.0058594
        k(  108) = (   0.5303301   0.0883883   0.0000000), wk =   0.0058594
        k(  109) = (  -0.1325825  -0.5745243   0.6629126), wk =   0.0117188
        k(  110) = (  -0.0883883  -0.5303301   0.6187184), wk =   0.0117188
        k(  111) = (  -0.0441942  -0.4861359   0.5745243), wk =   0.0117188
        k(  112) = (   0.0000000  -0.4419417   0.5303301), wk =   0.0058594
        k(  113) = (  -0.0883883  -0.6187184   0.7071068), wk =   0.0058594
        k(  114) = (  -0.0441942  -0.5745243   0.6629126), wk =   0.0117188
        k(  115) = (  -0.0000000  -0.5303301   0.6187184), wk =   0.0058594
        k(  116) = (  -0.7071068   0.0883883   0.0000000), wk =   0.0029297
        k(  117) = (   0.3535534   0.1767767   0.0000000), wk =   0.0058594
        k(  118) = (   0.3977476   0.2209709  -0.0441942), wk =   0.0117188
        k(  119) = (  -0.2651650  -0.4419417   0.6187184), wk =   0.0117188
        k(  120) = (  -0.2209709  -0.3977476   0.5745243), wk =   0.0117188
        k(  121) = (  -0.1767767  -0.3535534   0.5303301), wk =   0.0058594
        k(  122) = (   0.4419417   0.1767767   0.0000000), wk =   0.0058594
        k(  123) = (  -0.2209709  -0.4861359   0.6629126), wk =   0.0117188
        k(  124) = (  -0.1767767  -0.4419417   0.6187184), wk =   0.0117188
        k(  125) = (  -0.1325825  -0.3977476   0.5745243), wk =   0.0117188
        k(  126) = (  -0.0883883  -0.3535534   0.5303301), wk =   0.0117188
        k(  127) = (  -0.0441942  -0.3093592   0.4861359), wk =   0.0117188
        k(  128) = (   0.0000000  -0.2651650   0.4419417), wk =   0.0058594
        k(  129) = (  -0.1767767  -0.5303301   0.7071068), wk =   0.0058594
        k(  130) = (  -0.1325825  -0.4861359   0.6629126), wk =   0.0117188
        k(  131) = (  -0.0883883  -0.4419417   0.6187184), wk =   0.0117188
        k(  132) = (  -0.0441942  -0.3977476   0.5745243), wk =   0.0117188
        k(  133) = (   0.0000000  -0.3535534   0.5303301), wk =   0.0058594
        k(  134) = (  -0.0883883  -0.5303301   0.7071068), wk =   0.0058594
        k(  135) = (  -0.0441942  -0.4861359   0.6629126), wk =   0.0117188
        k(  136) = (   0.0000000  -0.4419417   0.6187184), wk =   0.0058594
        k(  137) = (  -0.7071068   0.1767767   0.0000000), wk =   0.0029297
        k(  138) = (  -0.1767767  -0.4419417   0.7071068), wk =   0.0058594
        k(  139) = (  -0.1325825  -0.3977476   0.6629126), wk =   0.0117188
        k(  140) = (  -0.0883883  -0.3535534   0.6187184), wk =   0.0058594
        k(  141) = (  -0.0883883  -0.4419417   0.7071068), wk =   0.0058594
        k(  142) = (  -0.0441942  -0.3977476   0.6629126), wk =   0.0117188
        k(  143) = (  -0.0000000  -0.3535534   0.6187184), wk =   0.0058594
        k(  144) = (  -0.7071068   0.2651650   0.0000000), wk =   0.0029297
        k(  145) = (  -0.7071068   0.3535534   0.0000000), wk =   0.0014648

                       cryst. coord.
        k(    1) = (   0.0000000   0.0000000   0.0000000), wk =   0.0002441
        k(    2) = (   0.0000000   0.0000000   0.0625000), wk =   0.0019531
        k(    3) = (   0.0000000   0.0000000   0.1250000), wk =   0.0019531
        k(    4) = (   0.0000000   0.0000000   0.1875000), wk =   0.0019531
        k(    5) = (   0.0000000   0.0000000   0.2500000), wk =   0.0019531
        k(    6) = (   0.0000000   0.0000000   0.3125000), wk =   0.0019531
        k(    7) = (   0.0000000   0.0000000   0.3750000), wk =   0.0019531
        k(    8) = (   0.0000000   0.0000000   0.4375000), wk =   0.0019531
        k(    9) = (   0.0000000   0.0000000  -0.5000000), wk =   0.0009766
        k(   10) = (   0.0000000   0.0625000   0.0625000), wk =   0.0014648
        k(   11) = (   0.0000000   0.0625000   0.1250000), wk =   0.0058594
        k(   12) = (   0.0000000   0.0625000   0.1875000), wk =   0.0058594
        k(   13) = (   0.0000000   0.0625000   0.2500000), wk =   0.0058594
        k(   14) = (   0.0000000   0.0625000   0.3125000), wk =   0.0058594
        k(   15) = (   0.0000000   0.0625000   0.3750000), wk =   0.0058594
        k(   16) = (   0.0000000   0.0625000   0.4375000), wk =   0.0058594
        k(   17) = (   0.0000000   0.0625000  -0.5000000), wk =   0.0058594
        k(   18) = (   0.0000000   0.0625000  -0.4375000), wk =   0.0058594
        k(   19) = (   0.0000000   0.0625000  -0.3750000), wk =   0.0058594
        k(   20) = (   0.0000000   0.0625000  -0.3125000), wk =   0.0058594
        k(   21) = (   0.0000000   0.0625000  -0.2500000), wk =   0.0058594
        k(   22) = (   0.0000000   0.0625000  -0.1875000), wk =   0.0058594
        k(   23) = (   0.0000000   0.0625000  -0.1250000), wk =   0.0058594
        k(   24) = (   0.0000000   0.0625000  -0.0625000), wk =   0.0029297
        k(   25) = (   0.0000000   0.1250000   0.1250000), wk =   0.0014648
        k(   26) = (   0.0000000   0.1250000   0.1875000), wk =   0.0058594
        k(   27) = (   0.0000000   0.1250000   0.2500000), wk =   0.0058594
        k(   28) = (   0.0000000   0.1250000   0.3125000), wk =   0.0058594
        k(   29) = (   0.0000000   0.1250000   0.3750000), wk =   0.0058594
        k(   30) = (   0.0000000   0.1250000   0.4375000), wk =   0.0058594
        k(   31) = (   0.0000000   0.1250000  -0.5000000), wk =   0.0058594
        k(   32) = (   0.0000000   0.1250000  -0.4375000), wk =   0.0058594
        k(   33) = (   0.0000000   0.1250000  -0.3750000), wk =   0.0058594
        k(   34) = (   0.0000000   0.1250000  -0.3125000), wk =   0.0058594
        k(   35) = (   0.0000000   0.1250000  -0.2500000), wk =   0.0058594
        k(   36) = (   0.0000000   0.1250000  -0.1875000), wk =   0.0058594
        k(   37) = (   0.0000000   0.1250000  -0.1250000), wk =   0.0029297
        k(   38) = (   0.0000000   0.1875000   0.1875000), wk =   0.0014648
        k(   39) = (   0.0000000   0.1875000   0.2500000), wk =   0.0058594
        k(   40) = (   0.0000000   0.1875000   0.3125000), wk =   0.0058594
        k(   41) = (   0.0000000   0.1875000   0.3750000), wk =   0.0058594
        k(   42) = (   0.0000000   0.1875000   0.4375000), wk =   0.0058594
        k(   43) = (   0.0000000   0.1875000  -0.5000000), wk =   0.0058594
        k(   44) = (   0.0000000   0.1875000  -0.4375000), wk =   0.0058594
        k(   45) = (   0.0000000   0.1875000  -0.3750000), wk =   0.0058594
        k(   46) = (   0.0000000   0.1875000  -0.3125000), wk =   0.0058594
        k(   47) = (   0.0000000   0.1875000  -0.2500000), wk =   0.0058594
        k(   48) = (   0.0000000   0.1875000  -0.1875000), wk =   0.0029297
        k(   49) = (   0.0000000   0.2500000   0.2500000), wk =   0.0014648
        k(   50) = (   0.0000000   0.2500000   0.3125000), wk =   0.0058594
        k(   51) = (   0.0000000   0.2500000   0.3750000), wk =   0.0058594
        k(   52) = (   0.0000000   0.2500000   0.4375000), wk =   0.0058594
        k(   53) = (   0.0000000   0.2500000  -0.5000000), wk =   0.0058594
        k(   54) = (   0.0000000   0.2500000  -0.4375000), wk =   0.0058594
        k(   55) = (   0.0000000   0.2500000  -0.3750000), wk =   0.0058594
        k(   56) = (   0.0000000   0.2500000  -0.3125000), wk =   0.0058594
        k(   57) = (   0.0000000   0.2500000  -0.2500000), wk =   0.0029297
        k(   58) = (   0.0000000   0.3125000   0.3125000), wk =   0.0014648
        k(   59) = (   0.0000000   0.3125000   0.3750000), wk =   0.0058594
        k(   60) = (   0.0000000   0.3125000   0.4375000), wk =   0.0058594
        k(   61) = (   0.0000000   0.3125000  -0.5000000), wk =   0.0058594
        k(   62) = (   0.0000000   0.3125000  -0.4375000), wk =   0.0058594
        k(   63) = (   0.0000000   0.3125000  -0.3750000), wk =   0.0058594
        k(   64) = (   0.0000000   0.3125000  -0.3125000), wk =   0.0029297
        k(   65) = (   0.0000000   0.3750000   0.3750000), wk =   0.0014648
        k(   66) = (   0.0000000   0.3750000   0.4375000), wk =   0.0058594
        k(   67) = (   0.0000000   0.3750000  -0.5000000), wk =   0.0058594
        k(   68) = (   0.0000000   0.3750000  -0.4375000), wk =   0.0058594
        k(   69) = (   0.0000000   0.3750000  -0.3750000), wk =   0.0029297
        k(   70) = (   0.0000000   0.4375000   0.4375000), wk =   0.0014648
        k(   71) = (   0.0000000   0.4375000  -0.5000000), wk =   0.0058594
        k(   72) = (   0.0000000   0.4375000  -0.4375000), wk =   0.0029297
        k(   73) = (   0.0000000  -0.5000000  -0.5000000), wk =   0.0007324
        k(   74) = (   0.0625000   0.1250000   0.1875000), wk =   0.0058594
        k(   75) = (   0.0625000   0.1250000   0.2500000), wk =   0.0117188
        k(   76) = (   0.0625000   0.1250000   0.3125000), wk =   0.0117188
        k(   77) = (   0.0625000   0.1250000   0.3750000), wk =   0.0117188
        k(   78) = (   0.0625000   0.1250000   0.4375000), wk =   0.0117188
        k(   79) = (   0.0625000   0.1250000  -0.5000000), wk =   0.0117188
        k(   80) = (   0.0625000   0.1250000  -0.4375000), wk =   0.0058594
        k(   81) = (   0.0625000   0.1875000   0.2500000), wk =   0.0058594
        k(   82) = (   0.0625000   0.1875000   0.3125000), wk =   0.0117188
        k(   83) = (   0.0625000   0.1875000   0.3750000), wk =   0.0117188
        k(   84) = (   0.0625000   0.1875000   0.4375000), wk =   0.0117188
        k(   85) = (   0.0625000   0.1875000  -0.5000000), wk =   0.0117188
        k(   86) = (   0.0625000   0.1875000  -0.4375000), wk =   0.0117188
        k(   87) = (   0.0625000   0.1875000  -0.3750000), wk =   0.0117188
        k(   88) = (   0.0625000   0.1875000  -0.3125000), wk =   0.0117188
        k(   89) = (   0.0625000   0.1875000  -0.2500000), wk =   0.0117188
        k(   90) = (   0.0625000   0.1875000  -0.1875000), wk =   0.0117188
        k(   91) = (   0.0625000   0.1875000  -0.1250000), wk =   0.0058594
        k(   92) = (   0.0625000   0.2500000   0.3125000), wk =   0.0058594
        k(   93) = (   0.0625000   0.2500000   0.3750000), wk =   0.0117188
        k(   94) = (   0.0625000   0.2500000   0.4375000), wk =   0.0117188
        k(   95) = (   0.0625000   0.2500000  -0.5000000), wk =   0.0117188
        k(   96) = (   0.0625000   0.2500000  -0.4375000), wk =   0.0117188
        k(   97) = (   0.0625000   0.2500000  -0.3750000), wk =   0.0117188
        k(   98) = (   0.0625000   0.2500000  -0.3125000), wk =   0.0117188
        k(   99) = (   0.0625000   0.2500000  -0.2500000), wk =   0.0117188
        k(  100) = (   0.0625000   0.2500000  -0.1875000), wk =   0.0058594
        k(  101) = (   0.0625000   0.3125000   0.3750000), wk =   0.0058594
        k(  102) = (   0.0625000   0.3125000   0.4375000), wk =   0.0117188
        k(  103) = (   0.0625000   0.3125000  -0.5000000), wk =   0.0117188
        k(  104) = (   0.0625000   0.3125000  -0.4375000), wk =   0.0117188
        k(  105) = (   0.0625000   0.3125000  -0.3750000), wk =   0.0117188
        k(  106) = (   0.0625000   0.3125000  -0.3125000), wk =   0.0117188
        k(  107) = (   0.0625000   0.3125000  -0.2500000), wk =   0.0058594
        k(  108) = (   0.0625000   0.3750000   0.4375000), wk =   0.0058594
        k(  109) = (   0.0625000   0.3750000  -0.5000000), wk =   0.0117188
        k(  110) = (   0.0625000   0.3750000  -0.4375000), wk =   0.0117188
        k(  111) = (   0.0625000   0.3750000  -0.3750000), wk =   0.0117188
        k(  112) = (   0.0625000   0.3750000  -0.3125000), wk =   0.0058594
        k(  113) = (   0.0625000   0.4375000  -0.5000000), wk =   0.0058594
        k(  114) = (   0.0625000   0.4375000  -0.4375000), wk =   0.0117188
        k(  115) = (   0.0625000   0.4375000  -0.3750000), wk =   0.0058594
        k(  116) = (   0.0625000  -0.5000000  -0.4375000), wk =   0.0029297
        k(  117) = (   0.1250000   0.2500000   0.3750000), wk =   0.0058594
        k(  118) = (   0.1250000   0.2500000   0.4375000), wk =   0.0117188
        k(  119) = (   0.1250000   0.2500000  -0.5000000), wk =   0.0117188
        k(  120) = (   0.1250000   0.2500000  -0.4375000), wk =   0.0117188
        k(  121) = (   0.1250000   0.2500000  -0.3750000), wk =   0.0058594
        k(  122) = (   0.1250000   0.3125000   0.4375000), wk =   0.0058594
        k(  123) = (   0.1250000   0.3125000  -0.5000000), wk =   0.0117188
        k(  124) = (   0.1250000   0.3125000  -0.4375000), wk =   0.0117188
        k(  125) = (   0.1250000   0.3125000  -0.3750000), wk =   0.0117188
        k(  126) = (   0.1250000   0.3125000  -0.3125000), wk =   0.0117188
        k(  127) = (   0.1250000   0.3125000  -0.2500000), wk =   0.0117188
        k(  128) = (   0.1250000   0.3125000  -0.1875000), wk =   0.0058594
        k(  129) = (   0.1250000   0.3750000  -0.5000000), wk =   0.0058594
        k(  130) = (   0.1250000   0.3750000  -0.4375000), wk =   0.0117188
        k(  131) = (   0.1250000   0.3750000  -0.3750000), wk =   0.0117188
        k(  132) = (   0.1250000   0.3750000  -0.3125000), wk =   0.0117188
        k(  133) = (   0.1250000   0.3750000  -0.2500000), wk =   0.0058594
        k(  134) = (   0.1250000   0.4375000  -0.4375000), wk =   0.0058594
        k(  135) = (   0.1250000   0.4375000  -0.3750000), wk =   0.0117188
        k(  136) = (   0.1250000   0.4375000  -0.3125000), wk =   0.0058594
        k(  137) = (   0.1250000  -0.5000000  -0.3750000), wk =   0.0029297
        k(  138) = (   0.1875000   0.3750000  -0.4375000), wk =   0.0058594
        k(  139) = (   0.1875000   0.3750000  -0.3750000), wk =   0.0117188
        k(  140) = (   0.1875000   0.3750000  -0.3125000), wk =   0.0058594
        k(  141) = (   0.1875000   0.4375000  -0.3750000), wk =   0.0058594
        k(  142) = (   0.1875000   0.4375000  -0.3125000), wk =   0.0117188
        k(  143) = (   0.1875000   0.4375000  -0.2500000), wk =   0.0058594
        k(  144) = (   0.1875000  -0.5000000  -0.3125000), wk =   0.0029297
        k(  145) = (   0.2500000  -0.5000000  -0.2500000), wk =   0.0014648

     Dense  grid:    23973 G-vectors     FFT dimensions: (  45,  45,  45)

     Largest allocated arrays     est. size (Mb)     dimensions
        Kohn-Sham Wavefunctions         0.21 Mb     (     382,   36)
        NL pseudopotentials             0.20 Mb     (     191,   68)
        Each V/rho on FFT grid          0.09 Mb     (    6075)
        Each G-vector array             0.01 Mb     (    1498)
        G-vector shells                 0.00 Mb     (     257)
     Largest temporary arrays     est. size (Mb)     dimensions
        Auxiliary wavefunctions         0.84 Mb     (     382,  144)
        Each subspace H/S matrix        0.32 Mb     (     144,  144)
        Each <psi_i|beta_j> matrix      0.07 Mb     (      68,   2,   36)
        Arrays for rho mixing           0.74 Mb     (    6075,    8)

     Check: negative/imaginary core charge=   -0.000019    0.000000

     Initial potential from superposition of free atoms

     starting charge   27.99781, renormalised to   28.00000
     Starting wfc are   36 randomized atomic wfcs
     Checking if some PAW data can be deallocated... 

     total cpu time spent up to now is        9.0 secs

     Self-consistent Calculation

     iteration #  1     ecut=    50.00 Ry     beta=0.70
     Davidson diagonalization with overlap
     ethr =  1.00E-02,  avg # of iterations =  4.0

     Threshold (ethr) on eigenvalues was too large:
     Diagonalizing with lowered threshold

     Davidson diagonalization with overlap
     ethr =  4.55E-05,  avg # of iterations =  4.2

     total cpu time spent up to now is       69.6 secs

     total energy              =    -885.88244235 Ry
     Harris-Foulkes estimate   =    -885.88535718 Ry
     estimated scf accuracy    <       0.01955281 Ry

     iteration #  2     ecut=    50.00 Ry     beta=0.70
     Davidson diagonalization with overlap
     ethr =  6.98E-05,  avg # of iterations =  1.0

     total cpu time spent up to now is       87.5 secs

     total energy              =    -885.88263570 Ry
     Harris-Foulkes estimate   =    -885.88291076 Ry
     estimated scf accuracy    <       0.00143890 Ry

     iteration #  3     ecut=    50.00 Ry     beta=0.70
     Davidson diagonalization with overlap
     ethr =  5.14E-06,  avg # of iterations =  2.6

     total cpu time spent up to now is      110.4 secs

     total energy              =    -885.88284772 Ry
     Harris-Foulkes estimate   =    -885.88291742 Ry
     estimated scf accuracy    <       0.00009192 Ry

     iteration #  4     ecut=    50.00 Ry     beta=0.70
     Davidson diagonalization with overlap
     ethr =  3.28E-07,  avg # of iterations =  3.0

     total cpu time spent up to now is      138.6 secs

     total energy              =    -885.88289460 Ry
     Harris-Foulkes estimate   =    -885.88289360 Ry
     estimated scf accuracy    <       0.00000469 Ry

     iteration #  5     ecut=    50.00 Ry     beta=0.70
     Davidson diagonalization with overlap
     ethr =  1.68E-08,  avg # of iterations =  2.0

     total cpu time spent up to now is      158.6 secs

     End of self-consistent calculation

          k = 0.0000 0.0000 0.0000 (  2975 PWs)   bands (ev):

   -14.5220 -14.5220 -14.5220 -14.5220 -14.4421 -14.4421 -14.4421 -14.4421
   -13.5943 -13.5943 -13.4256 -13.4256 -13.4256 -13.4256 -13.3880 -13.3880
   -13.3880 -13.3880 -13.2863 -13.2863  -2.5423  -2.5423   6.3487   6.3487
     7.1794   7.1794   7.8306   7.8306   7.8306   7.8306   9.3602   9.3602
     9.8350   9.8350   9.8350   9.8350

     occupation numbers 
     1.0000   1.0000   1.0000   1.0000   1.0000   1.0000   1.0000   1.0000
     1.0000   1.0000   1.0000   1.0000   1.0000   1.0000   1.0000   1.0000
     1.0000   1.0000   1.0000   1.0000   1.0000   1.0000   1.0000   1.0000
     1.0000   1.0000   0.0000   0.0000   0.0000   0.0000   0.0000   0.0000
     0.0000   0.0000   0.0000   0.0000

          k = 0.0442 0.0442-0.0442 (  2972 PWs)   bands (ev):

   -14.5224 -14.5224 -14.5212 -14.5212 -14.4428 -14.4428 -14.4416 -14.4415
   -13.5925 -13.5925 -13.4305 -13.4305 -13.4287 -13.4286 -13.3848 -13.3847
   -13.3838 -13.3838 -13.2872 -13.2872  -2.5076  -2.5076   5.9404   5.9404
     7.2259   7.2259   7.7558   7.7558   7.8909   7.8909   9.5178   9.5178
     9.9180   9.9180   9.9322   9.9322

     occupation numbers 
     1.0000   1.0000   1.0000   1.0000   1.0000   1.0000   1.0000   1.0000
     1.0000   1.0000   1.0000   1.0000   1.0000   1.0000   1.0000   1.0000
     1.0000   1.0000   1.0000   1.0000   1.0000   1.0000   1.0000   1.0000
     1.0000   1.0000   0.0000   0.0000   0.0000   0.0000   0.0000   0.0000
     0.0000   0.0000   0.0000   0.0000

          k = 0.0884 0.0884-0.0884 (  2981 PWs)   bands (ev):

   -14.5235 -14.5234 -14.5189 -14.5189 -14.4450 -14.4450 -14.4402 -14.4401
   -13.5874 -13.5874 -13.4415 -13.4415 -13.4356 -13.4355 -13.3773 -13.3772
   -13.3749 -13.3749 -13.2899 -13.2899  -2.4043  -2.4043   5.1775   5.1775
     7.1196   7.1196   7.5739   7.5739   7.9371   7.9371   9.8451   9.8451
    10.1701  10.1701  10.2735  10.2735

     occupation numbers 
     1.0000   1.0000   1.0000   1.0000   1.0000   1.0000   1.0000   1.0000
     1.0000   1.0000   1.0000   1.0000   1.0000   1.0000   1.0000   1.0000
     1.0000   1.0000   1.0000   1.0000   1.0000   1.0000   1.0000   1.0000
     1.0000   1.0000   1.0000   1.0000   0.0000   0.0000   0.0000   0.0000
     0.0000   0.0000   0.0000   0.0000

          k = 0.1326 0.1326-0.1326 (  2957 PWs)   bands (ev):

   -14.5250 -14.5249 -14.5153 -14.5153 -14.4485 -14.4485 -14.4381 -14.4380
   -13.5793 -13.5793 -13.4544 -13.4544 -13.4435 -13.4433 -13.3686 -13.3685
   -13.3651 -13.3651 -13.2942 -13.2942  -2.2353  -2.2353   4.3494   4.3494
     6.9242   6.9242   7.3556   7.3556   7.8582   7.8582  10.1313  10.1313
    10.4452  10.4452  10.9427  10.9427

     occupation numbers 
     1.0000   1.0000   1.0000   1.0000   1.0000   1.0000   1.0000   1.0000
     1.0000   1.0000   1.0000   1.0000   1.0000   1.0000   1.0000   1.0000
     1.0000   1.0000   1.0000   1.0000   1.0000   1.0000   1.0000   1.0000
     1.0000   1.0000   1.0000   1.0000   0.0000   0.0000   0.0000   0.0000
     0.0000   0.0000   0.0000   0.0000

          k = 0.1768 0.1768-0.1768 (  2971 PWs)   bands (ev):

   -14.5266 -14.5265 -14.5105 -14.5105 -14.4532 -14.4532 -14.4358 -14.4357
   -13.5689 -13.5689 -13.4678 -13.4678 -13.4508 -13.4507 -13.3603 -13.3601
   -13.3559 -13.3559 -13.2997 -13.2997  -2.0069  -2.0069   3.5394   3.5394
     6.7242   6.7242   7.1468   7.1468   7.7192   7.7192  10.3622  10.3622
    10.6681  10.6681  11.7521  11.7521

     occupation numbers 
     1.0000   1.0000   1.0000   1.0000   1.0000   1.0000   1.0000   1.0000
     1.0000   1.0000   1.0000   1.0000   1.0000   1.0000   1.0000   1.0000
     1.0000   1.0000   1.0000   1.0000   1.0000   1.0000   1.0000   1.0000
     1.0000   1.0000   1.0000   1.0000   0.0000   0.0000   0.0000   0.0000
     0.0000   0.0000   0.0000   0.0000

          k = 0.2210 0.2210-0.2210 (  2980 PWs)   bands (ev):

   -14.5281 -14.5280 -14.5048 -14.5048 -14.4586 -14.4586 -14.4336 -14.4335
   -13.5572 -13.5572 -13.4810 -13.4810 -13.4570 -13.4569 -13.3531 -13.3530
   -13.3475 -13.3475 -13.3061 -13.3061  -1.7323  -1.7323   2.7924   2.7924
     6.5523   6.5523   6.9708   6.9708   7.5798   7.5798  10.5107  10.5107
    10.7939  10.7939  12.6141  12.6141

     occupation numbers 
     1.0000   1.0000   1.0000   1.0000   1.0000   1.0000   1.0000   1.0000
     1.0000   1.0000   1.0000   1.0000   1.0000   1.0000   1.0000   1.0000
     1.0000   1.0000   1.0000   1.0000   1.0000   1.0000   1.0000   1.0000
     1.0000   1.0000   1.0000   1.0000   0.1250   0.1250   0.0000   0.0000
     0.0000   0.0000   0.0000   0.0000

          k = 0.2652 0.2652-0.2652 (  2980 PWs)   bands (ev):

   -14.5292 -14.5292 -14.4988 -14.4988 -14.4644 -14.4644 -14.4319 -14.4318
   -13.5447 -13.5447 -13.4937 -13.4937 -13.4616 -13.4615 -13.3476 -13.3475
   -13.3400 -13.3400 -13.3128 -13.3128  -1.4392  -1.4392   2.1532   2.1532
     6.4231   6.4231   6.8395   6.8395   7.4689   7.4689  10.5796  10.5796
    10.8367  10.8367  13.2785  13.2785

     occupation numbers 
     1.0000   1.0000   1.0000   1.0000   1.0000   1.0000   1.0000   1.0000
     1.0000   1.0000   1.0000   1.0000   1.0000   1.0000   1.0000   1.0000
     1.0000   1.0000   1.0000   1.0000   1.0000   1.0000   1.0000   1.0000
     1.0000   1.0000   1.0000   1.0000   1.0000   1.0000   0.0000   0.0000
     0.0000   0.0000   0.0000   0.0000

          k = 0.3094 0.3094-0.3094 (  2983 PWs)   bands (ev):

   -14.5299 -14.5299 -14.4933 -14.4933 -14.4698 -14.4698 -14.4307 -14.4307
   -13.5325 -13.5325 -13.5057 -13.5057 -13.4644 -13.4644 -13.3441 -13.3441
   -13.3331 -13.3331 -13.3195 -13.3195  -1.1879  -1.1879   1.6909   1.6909
     6.3434   6.3434   6.7589   6.7589   7.3989   7.3989  10.6008  10.6008
    10.8394  10.8394  13.3095  13.3095

     occupation numbers 
     1.0000   1.0000   1.0000   1.0000   1.0000   1.0000   1.0000   1.0000
     1.0000   1.0000   1.0000   1.0000   1.0000   1.0000   1.0000   1.0000
     1.0000   1.0000   1.0000   1.0000   1.0000   1.0000   1.0000   1.0000
     1.0000   1.0000   1.0000   1.0000   1.0000   1.0000   0.0000   0.0000
     0.0000   0.0000   0.0000   0.0000

          k =-0.3536-0.3536 0.3536 (  2998 PWs)   bands (ev):

   -14.5302 -14.5302 -14.4907 -14.4907 -14.4724 -14.4724 -14.4303 -14.4303
   -13.5238 -13.5238 -13.5143 -13.5143 -13.4654 -13.4654 -13.3430 -13.3430
   -13.3276 -13.3276 -13.3251 -13.3251  -1.0816  -1.0816   1.5139   1.5139
     6.3166   6.3166   6.7318   6.7318   7.3751   7.3751  10.6042  10.6042
    10.8364  10.8364  13.2850  13.2850

     occupation numbers 
     1.0000   1.0000   1.0000   1.0000   1.0000   1.0000   1.0000   1.0000
     1.0000   1.0000   1.0000   1.0000   1.0000   1.0000   1.0000   1.0000
     1.0000   1.0000   1.0000   1.0000   1.0000   1.0000   1.0000   1.0000
     1.0000   1.0000   1.0000   1.0000   1.0000   1.0000   0.0000   0.0000
     0.0000   0.0000   0.0000   0.0000

          k = 0.0884 0.0000 0.0000 (  2971 PWs)   bands (ev):

   -14.5221 -14.5221 -14.5214 -14.5214 -14.4427 -14.4427 -14.4417 -14.4417
   -13.5920 -13.5920 -13.4329 -13.4329 -13.4285 -13.4285 -13.3840 -13.3840
   -13.3824 -13.3824 -13.2875 -13.2875  -2.4959  -2.4959   5.8596   5.8596
     7.1587   7.1587   7.5749   7.5749   8.1482   8.1482   9.4365   9.4365
     9.9304   9.9304  10.0662  10.0662

     occupation numbers 
     1.0000   1.0000   1.0000   1.0000   1.0000   1.0000   1.0000   1.0000
     1.0000   1.0000   1.0000   1.0000   1.0000   1.0000   1.0000   1.0000
     1.0000   1.0000   1.0000   1.0000   1.0000   1.0000   1.0000   1.0000
     1.0000   1.0000   1.0000   1.0000   0.0000   0.0000   0.0000   0.0000
     0.0000   0.0000   0.0000   0.0000

          k = 0.1326 0.0442-0.0442 (  2982 PWs)   bands (ev):

   -14.5229 -14.5228 -14.5197 -14.5197 -14.4444 -14.4444 -14.4407 -14.4406
   -13.5879 -13.5879 -13.4417 -13.4417 -13.4334 -13.4333 -13.3789 -13.3788
   -13.3752 -13.3752 -13.2895 -13.2895  -2.4153  -2.4153   5.2942   5.2942
     7.0196   7.0196   7.3640   7.3640   8.3508   8.3508   9.5047   9.5047
    10.2162  10.2162  10.3684  10.3684

     occupation numbers 
     1.0000   1.0000   1.0000   1.0000   1.0000   1.0000   1.0000   1.0000
     1.0000   1.0000   1.0000   1.0000   1.0000   1.0000   1.0000   1.0000
     1.0000   1.0000   1.0000   1.0000   1.0000   1.0000   1.0000   1.0000
     1.0000   1.0000   1.0000   1.0000   0.0000   0.0000   0.0000   0.0000
     0.0000   0.0000   0.0000   0.0000

          k = 0.1768 0.0884-0.0884 (  2973 PWs)   bands (ev):

   -14.5243 -14.5242 -14.5165 -14.5165 -14.4475 -14.4475 -14.4387 -14.4386
   -13.5808 -13.5808 -13.4533 -13.4533 -13.4404 -13.4403 -13.3724 -13.3723
   -13.3653 -13.3653 -13.2931 -13.2931  -2.2678  -2.2678   4.5419   4.5419
     6.8150   6.8150   7.1456   7.1456   8.3460   8.3461   9.7481   9.7481
    10.5503  10.5503  10.8816  10.8816

     occupation numbers 
     1.0000   1.0000   1.0000   1.0000   1.0000   1.0000   1.0000   1.0000
     1.0000   1.0000   1.0000   1.0000   1.0000   1.0000   1.0000   1.0000
     1.0000   1.0000   1.0000   1.0000   1.0000   1.0000   1.0000   1.0000
     1.0000   1.0000   1.0000   1.0000   0.0000   0.0000   0.0000   0.0000
     0.0000   0.0000   0.0000   0.0000

          k = 0.2210 0.1326-0.1326 (  2967 PWs)   bands (ev):

   -14.5259 -14.5258 -14.5120 -14.5120 -14.4518 -14.4518 -14.4364 -14.4363
   -13.5712 -13.5712 -13.4659 -13.4659 -13.4476 -13.4475 -13.3659 -13.3659
   -13.3552 -13.3552 -13.2979 -13.2979  -2.0583  -2.0583   3.7553   3.7553
     6.5993   6.5993   6.9280   6.9280   8.2289   8.2289  10.0526  10.0526
    10.8056  10.8057  11.5200  11.5200

     occupation numbers 
     1.0000   1.0000   1.0000   1.0000   1.0000   1.0000   1.0000   1.0000
     1.0000   1.0000   1.0000   1.0000   1.0000   1.0000   1.0000   1.0000
     1.0000   1.0000   1.0000   1.0000   1.0000   1.0000   1.0000   1.0000
     1.0000   1.0000   1.0000   1.0000   0.0000   0.0000   0.0000   0.0000
     0.0000   0.0000   0.0000   0.0000

          k = 0.2652 0.1768-0.1768 (  2973 PWs)   bands (ev):

   -14.5275 -14.5274 -14.5067 -14.5066 -14.4570 -14.4570 -14.4341 -14.4340
   -13.5600 -13.5600 -13.4784 -13.4783 -13.4541 -13.4540 -13.3602 -13.3601
   -13.3462 -13.3461 -13.3034 -13.3034  -1.7969  -1.7969   3.0027   3.0027
     6.4046   6.4046   6.7419   6.7419   8.0853   8.0853  10.3054  10.3054
    10.9459  10.9459  12.1966  12.1966

     occupation numbers 
     1.0000   1.0000   1.0000   1.0000   1.0000   1.0000   1.0000   1.0000
     1.0000   1.0000   1.0000   1.0000   1.0000   1.0000   1.0000   1.0000
     1.0000   1.0000   1.0000   1.0000   1.0000   1.0000   1.0000   1.0000
     1.0000   1.0000   1.0000   1.0000   0.0000   0.0000   0.0000   0.0000
     0.0000   0.0000   0.0000   0.0000

          k = 0.3094 0.2210-0.2210 (  2980 PWs)   bands (ev):

   -14.5288 -14.5287 -14.5008 -14.5007 -14.4628 -14.4627 -14.4321 -14.4321
   -13.5480 -13.5480 -13.4904 -13.4903 -13.4593 -13.4592 -13.3555 -13.3554
   -13.3386 -13.3386 -13.3089 -13.3089  -1.5051  -1.5051   2.3332   2.3332
     6.2442   6.2443   6.6075   6.6075   7.9573   7.9573  10.4610  10.4610
    10.9778  10.9778  12.8628  12.8628

     occupation numbers 
     1.0000   1.0000   1.0000   1.0000   1.0000   1.0000   1.0000   1.0000
     1.0000   1.0000   1.0000   1.0000   1.0000   1.0000   1.0000   1.0000
     1.0000   1.0000   1.0000   1.0000   1.0000   1.0000   1.0000   1.0000
     1.0000   1.0000   1.0000   1.0000   0.0000   0.0000   0.0000   0.0000
     0.0000   0.0000   0.0000   0.0000

          k = 0.3536 0.2652-0.2652 (  2997 PWs)   bands (ev):

   -14.5297 -14.5296 -14.4950 -14.4948 -14.4686 -14.4684 -14.4307 -14.4307
   -13.5361 -13.5361 -13.5018 -13.5017 -13.4629 -13.4628 -13.3522 -13.3522
   -13.3329 -13.3329 -13.3138 -13.3137  -1.2297  -1.2297   1.8076   1.8076
     6.1258   6.1258   6.5334   6.5334   7.8639   7.8639  10.5443  10.5443
    10.9471  10.9471  13.2979  13.2979

     occupation numbers 
     1.0000   1.0000   1.0000   1.0000   1.0000   1.0000   1.0000   1.0000
     1.0000   1.0000   1.0000   1.0000   1.0000   1.0000   1.0000   1.0000
     1.0000   1.0000   1.0000   1.0000   1.0000   1.0000   1.0000   1.0000
     1.0000   1.0000   1.0000   1.0000   0.0000   0.0000   0.0000   0.0000
     0.0000   0.0000   0.0000   0.0000

          k =-0.3094-0.3977 0.3977 (  2980 PWs)   bands (ev):

   -14.5301 -14.5301 -14.4910 -14.4907 -14.4726 -14.4723 -14.4300 -14.4300
   -13.5262 -13.5262 -13.5113 -13.5112 -13.4645 -13.4645 -13.3507 -13.3507
   -13.3296 -13.3296 -13.3168 -13.3168  -1.0619  -1.0619   1.5249   1.5249
     6.0552   6.0552   6.5213   6.5213   7.8135   7.8136  10.5954  10.5954
    10.8989  10.8989  13.3949  13.3949

     occupation numbers 
     1.0000   1.0000   1.0000   1.0000   1.0000   1.0000   1.0000   1.0000
     1.0000   1.0000   1.0000   1.0000   1.0000   1.0000   1.0000   1.0000
     1.0000   1.0000   1.0000   1.0000   1.0000   1.0000   1.0000   1.0000
     1.0000   1.0000   1.0000   1.0000   0.0000   0.0000   0.0000   0.0000
     0.0000   0.0000   0.0000   0.0000

          k =-0.2652-0.3536 0.3536 (  2981 PWs)   bands (ev):

   -14.5300 -14.5300 -14.4919 -14.4916 -14.4718 -14.4715 -14.4301 -14.4301
   -13.5289 -13.5289 -13.5086 -13.5086 -13.4641 -13.4641 -13.3513 -13.3513
   -13.3300 -13.3300 -13.3162 -13.3162  -1.0989  -1.0989   1.5852   1.5852
     6.0370   6.0371   6.5694   6.5694   7.8093   7.8093  10.6288  10.6288
    10.8631  10.8631  13.4073  13.4073

     occupation numbers 
     1.0000   1.0000   1.0000   1.0000   1.0000   1.0000   1.0000   1.0000
     1.0000   1.0000   1.0000   1.0000   1.0000   1.0000   1.0000   1.0000
     1.0000   1.0000   1.0000   1.0000   1.0000   1.0000   1.0000   1.0000
     1.0000   1.0000   1.0000   1.0000   0.0000   0.0000   0.0000   0.0000
     0.0000   0.0000   0.0000   0.0000

          k =-0.2210-0.3094 0.3094 (  2983 PWs)   bands (ev):

   -14.5295 -14.5294 -14.4967 -14.4966 -14.4669 -14.4667 -14.4310 -14.4310
   -13.5400 -13.5400 -13.4981 -13.4980 -13.4618 -13.4617 -13.3537 -13.3537
   -13.3339 -13.3339 -13.3124 -13.3124  -1.3156  -1.3156   1.9627   1.9627
     6.0749   6.0749   6.6733   6.6733   7.8506   7.8506  10.6234  10.6234
    10.8541  10.8541  13.2886  13.2886

     occupation numbers 
     1.0000   1.0000   1.0000   1.0000   1.0000   1.0000   1.0000   1.0000
     1.0000   1.0000   1.0000   1.0000   1.0000   1.0000   1.0000   1.0000
     1.0000   1.0000   1.0000   1.0000   1.0000   1.0000   1.0000   1.0000
     1.0000   1.0000   1.0000   1.0000   0.0000   0.0000   0.0000   0.0000
     0.0000   0.0000   0.0000   0.0000

          k =-0.1768-0.2652 0.2652 (  2975 PWs)   bands (ev):

   -14.5285 -14.5284 -14.5026 -14.5025 -14.4611 -14.4610 -14.4326 -14.4325
   -13.5521 -13.5521 -13.4865 -13.4865 -13.4576 -13.4575 -13.3577 -13.3577
   -13.3401 -13.3401 -13.3072 -13.3072  -1.6042  -1.6042   2.5450   2.5450
     6.1708   6.1709   6.8265   6.8265   7.9328   7.9328  10.5498  10.5498
    10.8435  10.8435  12.7172  12.7172

     occupation numbers 
     1.0000   1.0000   1.0000   1.0000   1.0000   1.0000   1.0000   1.0000
     1.0000   1.0000   1.0000   1.0000   1.0000   1.0000   1.0000   1.0000
     1.0000   1.0000   1.0000   1.0000   1.0000   1.0000   1.0000   1.0000
     1.0000   1.0000   1.0000   1.0000   0.0000   0.0000   0.0000   0.0000
     0.0000   0.0000   0.0000   0.0000

          k =-0.1326-0.2210 0.2210 (  2974 PWs)   bands (ev):

   -14.5271 -14.5270 -14.5084 -14.5083 -14.4554 -14.4554 -14.4347 -14.4346
   -13.5639 -13.5639 -13.4743 -13.4743 -13.4518 -13.4517 -13.3629 -13.3629
   -13.3481 -13.3480 -13.3016 -13.3016  -1.8893  -1.8893   3.2468   3.2468
     6.3254   6.3255   7.0188   7.0188   8.0439   8.0439  10.3937  10.3937
    10.7487  10.7487  11.9903  11.9904

     occupation numbers 
     1.0000   1.0000   1.0000   1.0000   1.0000   1.0000   1.0000   1.0000
     1.0000   1.0000   1.0000   1.0000   1.0000   1.0000   1.0000   1.0000
     1.0000   1.0000   1.0000   1.0000   1.0000   1.0000   1.0000   1.0000
     1.0000   1.0000   1.0000   1.0000   0.0000   0.0000   0.0000   0.0000
     0.0000   0.0000   0.0000   0.0000

          k =-0.0884-0.1768 0.1768 (  2973 PWs)   bands (ev):

   -14.5255 -14.5254 -14.5134 -14.5134 -14.4505 -14.4505 -14.4371 -14.4369
   -13.5747 -13.5747 -13.4618 -13.4617 -13.4451 -13.4450 -13.3691 -13.3690
   -13.3575 -13.3574 -13.2963 -13.2963  -2.1349  -2.1349   4.0133   4.0133
     6.5371   6.5372   7.2328   7.2328   8.1556   8.1556  10.1616  10.1616
    10.4959  10.4959  11.3368  11.3369

     occupation numbers 
     1.0000   1.0000   1.0000   1.0000   1.0000   1.0000   1.0000   1.0000
     1.0000   1.0000   1.0000   1.0000   1.0000   1.0000   1.0000   1.0000
     1.0000   1.0000   1.0000   1.0000   1.0000   1.0000   1.0000   1.0000
     1.0000   1.0000   1.0000   1.0000   0.0000   0.0000   0.0000   0.0000
     0.0000   0.0000   0.0000   0.0000

          k =-0.0442-0.1326 0.1326 (  2979 PWs)   bands (ev):

   -14.5240 -14.5239 -14.5175 -14.5174 -14.4466 -14.4465 -14.4392 -14.4391
   -13.5835 -13.5835 -13.4492 -13.4492 -13.4380 -13.4379 -13.3756 -13.3755
   -13.3677 -13.3677 -13.2918 -13.2918  -2.3244  -2.3244   4.7908   4.7908
     6.7993   6.7993   7.4386   7.4386   8.2057   8.2057   9.8951   9.8951
    10.1512  10.1512  10.7704  10.7704

     occupation numbers 
     1.0000   1.0000   1.0000   1.0000   1.0000   1.0000   1.0000   1.0000
     1.0000   1.0000   1.0000   1.0000   1.0000   1.0000   1.0000   1.0000
     1.0000   1.0000   1.0000   1.0000   1.0000   1.0000   1.0000   1.0000
     1.0000   1.0000   1.0000   1.0000   0.0000   0.0000   0.0000   0.0000
     0.0000   0.0000   0.0000   0.0000

          k = 0.0000-0.0884 0.0884 (  3004 PWs)   bands (ev):

   -14.5229 -14.5228 -14.5201 -14.5201 -14.4440 -14.4439 -14.4409 -14.4408
   -13.5896 -13.5896 -13.4379 -13.4378 -13.4319 -13.4318 -13.3814 -13.3813
   -13.3775 -13.3774 -13.2887 -13.2887  -2.4499  -2.4499   5.4929   5.4929
     7.0805   7.0805   7.6010   7.6010   8.0999   8.0999   9.6526   9.6526
     9.9366   9.9366  10.2696  10.2696

     occupation numbers 
     1.0000   1.0000   1.0000   1.0000   1.0000   1.0000   1.0000   1.0000
     1.0000   1.0000   1.0000   1.0000   1.0000   1.0000   1.0000   1.0000
     1.0000   1.0000   1.0000   1.0000   1.0000   1.0000   1.0000   1.0000
     1.0000   1.0000   0.0000   0.0000   0.0000   0.0000   0.0000   0.0000
     0.0000   0.0000   0.0000   0.0000

          k = 0.1768 0.0000 0.0000 (  2970 PWs)   bands (ev):

   -14.5223 -14.5223 -14.5197 -14.5197 -14.4446 -14.4446 -14.4407 -14.4407
   -13.5851 -13.5851 -13.4476 -13.4476 -13.4351 -13.4351 -13.3746 -13.3746
   -13.3730 -13.3730 -13.2907 -13.2907  -2.3573  -2.3573   5.0449   5.0449
     6.8292   6.8292   7.0855   7.0855   8.8156   8.8156   9.1990   9.1990
    10.5173  10.5173  10.6235  10.6235

     occupation numbers 
     1.0000   1.0000   1.0000   1.0000   1.0000   1.0000   1.0000   1.0000
     1.0000   1.0000   1.0000   1.0000   1.0000   1.0000   1.0000   1.0000
     1.0000   1.0000   1.0000   1.0000   1.0000   1.0000   1.0000   1.0000
     1.0000   1.0000   1.0000   1.0000   0.0000   0.0000   0.0000   0.0000
     0.0000   0.0000   0.0000   0.0000

          k = 0.2210 0.0442-0.0442 (  2960 PWs)   bands (ev):

   -14.5232 -14.5231 -14.5174 -14.5174 -14.4468 -14.4468 -14.4394 -14.4394
   -13.5791 -13.5791 -13.4570 -13.4570 -13.4397 -13.4397 -13.3712 -13.3712
   -13.3648 -13.3647 -13.2932 -13.2932  -2.2316  -2.2316   4.5030   4.5030
     6.6096   6.6097   6.8438   6.8438   8.9616   8.9618   9.2283   9.2284
    10.8889  10.8889  11.0188  11.0189

     occupation numbers 
     1.0000   1.0000   1.0000   1.0000   1.0000   1.0000   1.0000   1.0000
     1.0000   1.0000   1.0000   1.0000   1.0000   1.0000   1.0000   1.0000
     1.0000   1.0000   1.0000   1.0000   1.0000   1.0000   1.0000   1.0000
     1.0000   1.0000   1.0000   1.0000   0.0000   0.0000   0.0000   0.0000
     0.0000   0.0000   0.0000   0.0000

          k = 0.2652 0.0884-0.0884 (  2968 PWs)   bands (ev):

   -14.5248 -14.5247 -14.5134 -14.5134 -14.4507 -14.4507 -14.4372 -14.4371
   -13.5705 -13.5705 -13.4679 -13.4678 -13.4453 -13.4452 -13.3687 -13.3687
   -13.3546 -13.3545 -13.2967 -13.2967  -2.0419  -2.0419   3.8285   3.8286
     6.3594   6.3594   6.6217   6.6218   8.8886   8.8886   9.5166   9.5167
    11.1854  11.1855  11.4423  11.4423

     occupation numbers 
     1.0000   1.0000   1.0000   1.0000   1.0000   1.0000   1.0000   1.0000
     1.0000   1.0000   1.0000   1.0000   1.0000   1.0000   1.0000   1.0000
     1.0000   1.0000   1.0000   1.0000   1.0000   1.0000   1.0000   1.0000
     1.0000   1.0000   1.0000   1.0000   0.0000   0.0000   0.0000   0.0000
     0.0000   0.0000   0.0000   0.0000

          k = 0.3094 0.1326-0.1326 (  2975 PWs)   bands (ev):

   -14.5265 -14.5264 -14.5085 -14.5084 -14.4556 -14.4556 -14.4347 -14.4346
   -13.5602 -13.5602 -13.4789 -13.4788 -13.4508 -13.4508 -13.3666 -13.3665
   -13.3451 -13.3450 -13.3005 -13.3005  -1.7961  -1.7961   3.1280   3.1280
     6.1042   6.1043   6.4448   6.4448   8.7538   8.7539   9.8886   9.8886
    11.3569  11.3569  11.7607  11.7607

     occupation numbers 
     1.0000   1.0000   1.0000   1.0000   1.0000   1.0000   1.0000   1.0000
     1.0000   1.0000   1.0000   1.0000   1.0000   1.0000   1.0000   1.0000
     1.0000   1.0000   1.0000   1.0000   1.0000   1.0000   1.0000   1.0000
     1.0000   1.0000   1.0000   1.0000   0.0000   0.0000   0.0000   0.0000
     0.0000   0.0000   0.0000   0.0000

          k = 0.3536 0.1768-0.1768 (  2982 PWs)   bands (ev):

   -14.5280 -14.5279 -14.5029 -14.5027 -14.4613 -14.4612 -14.4324 -14.4323
   -13.5491 -13.5491 -13.4892 -13.4892 -13.4559 -13.4558 -13.3651 -13.3651
   -13.3376 -13.3375 -13.3038 -13.3038  -1.5104  -1.5104   2.4678   2.4678
     5.8712   5.8712   6.3310   6.3310   8.6147   8.6147  10.2070  10.2070
    11.3945  11.3945  12.1182  12.1183

     occupation numbers 
     1.0000   1.0000   1.0000   1.0000   1.0000   1.0000   1.0000   1.0000
     1.0000   1.0000   1.0000   1.0000   1.0000   1.0000   1.0000   1.0000
     1.0000   1.0000   1.0000   1.0000   1.0000   1.0000   1.0000   1.0000
     1.0000   1.0000   1.0000   1.0000   0.0000   0.0000   0.0000   0.0000
     0.0000   0.0000   0.0000   0.0000

          k = 0.3977 0.2210-0.2210 (  2991 PWs)   bands (ev):

   -14.5291 -14.5291 -14.4971 -14.4968 -14.4672 -14.4669 -14.4306 -14.4305
   -13.5383 -13.5382 -13.4986 -13.4985 -13.4598 -13.4597 -13.3644 -13.3643
   -13.3326 -13.3326 -13.3059 -13.3059  -1.2204  -1.2204   1.9103   1.9103
     5.6809   5.6810   6.2828   6.2828   8.5005   8.5006  10.4045  10.4045
    11.3397  11.3397  12.6334  12.6335

     occupation numbers 
     1.0000   1.0000   1.0000   1.0000   1.0000   1.0000   1.0000   1.0000
     1.0000   1.0000   1.0000   1.0000   1.0000   1.0000   1.0000   1.0000
     1.0000   1.0000   1.0000   1.0000   1.0000   1.0000   1.0000   1.0000
     1.0000   1.0000   1.0000   1.0000   0.0000   0.0000   0.0000   0.0000
     0.0000   0.0000   0.0000   0.0000

          k =-0.2652-0.4419 0.4419 (  2996 PWs)   bands (ev):

   -14.5298 -14.5298 -14.4923 -14.4918 -14.4723 -14.4718 -14.4294 -14.4294
   -13.5295 -13.5295 -13.5061 -13.5061 -13.4620 -13.4620 -13.3643 -13.3643
   -13.3302 -13.3301 -13.3067 -13.3067  -1.0021  -1.0021   1.5452   1.5452
     5.5456   5.5456   6.2986   6.2986   8.4249   8.4250  10.5229  10.5229
    11.2418  11.2418  13.1992  13.1993

     occupation numbers 
     1.0000   1.0000   1.0000   1.0000   1.0000   1.0000   1.0000   1.0000
     1.0000   1.0000   1.0000   1.0000   1.0000   1.0000   1.0000   1.0000
     1.0000   1.0000   1.0000   1.0000   1.0000   1.0000   1.0000   1.0000
     1.0000   1.0000   1.0000   1.0000   0.0000   0.0000   0.0000   0.0000
     0.0000   0.0000   0.0000   0.0000

          k =-0.2210-0.3977 0.3977 (  2985 PWs)   bands (ev):

   -14.5300 -14.5300 -14.4909 -14.4903 -14.4738 -14.4732 -14.4291 -14.4291
   -13.5279 -13.5279 -13.5076 -13.5076 -13.4621 -13.4621 -13.3648 -13.3648
   -13.3294 -13.3294 -13.3069 -13.3069  -0.9668  -0.9668   1.4900   1.4900
     5.4728   5.4728   6.3752   6.3752   8.3928   8.3929  10.6192  10.6192
    11.1305  11.1305  13.5040  13.5041

     occupation numbers 
     1.0000   1.0000   1.0000   1.0000   1.0000   1.0000   1.0000   1.0000
     1.0000   1.0000   1.0000   1.0000   1.0000   1.0000   1.0000   1.0000
     1.0000   1.0000   1.0000   1.0000   1.0000   1.0000   1.0000   1.0000
     1.0000   1.0000   1.0000   1.0000   0.0000   0.0000   0.0000   0.0000
     0.0000   0.0000   0.0000   0.0000

          k =-0.1768-0.3536 0.3536 (  2990 PWs)   bands (ev):

   -14.5297 -14.5296 -14.4944 -14.4940 -14.4702 -14.4698 -14.4297 -14.4296
   -13.5353 -13.5352 -13.5014 -13.5014 -13.4600 -13.4600 -13.3658 -13.3658
   -13.3301 -13.3301 -13.3067 -13.3066  -1.1387  -1.1387   1.7693   1.7693
     5.4688   5.4688   6.5073   6.5073   8.4033   8.4033  10.7084  10.7084
    11.0149  11.0149  13.2475  13.2475

     occupation numbers 
     1.0000   1.0000   1.0000   1.0000   1.0000   1.0000   1.0000   1.0000
     1.0000   1.0000   1.0000   1.0000   1.0000   1.0000   1.0000   1.0000
     1.0000   1.0000   1.0000   1.0000   1.0000   1.0000   1.0000   1.0000
     1.0000   1.0000   1.0000   1.0000   0.0000   0.0000   0.0000   0.0000
     0.0000   0.0000   0.0000   0.0000

          k =-0.1326-0.3094 0.3094 (  2988 PWs)   bands (ev):

   -14.5289 -14.5288 -14.4998 -14.4996 -14.4647 -14.4644 -14.4310 -14.4309
   -13.5457 -13.5456 -13.4926 -13.4926 -13.4562 -13.4562 -13.3673 -13.3673
   -13.3332 -13.3331 -13.3053 -13.3053  -1.4166  -1.4166   2.2757   2.2757
     5.5404   5.5404   6.6863   6.6863   8.4488   8.4488  10.7301  10.7301
    10.9153  10.9153  12.5993  12.5993

     occupation numbers 
     1.0000   1.0000   1.0000   1.0000   1.0000   1.0000   1.0000   1.0000
     1.0000   1.0000   1.0000   1.0000   1.0000   1.0000   1.0000   1.0000
     1.0000   1.0000   1.0000   1.0000   1.0000   1.0000   1.0000   1.0000
     1.0000   1.0000   1.0000   1.0000   0.0000   0.0000   0.0000   0.0000
     0.0000   0.0000   0.0000   0.0000

          k =-0.0884-0.2652 0.2652 (  2977 PWs)   bands (ev):

   -14.5277 -14.5276 -14.5054 -14.5053 -14.4590 -14.4588 -14.4330 -14.4329
   -13.5568 -13.5568 -13.4827 -13.4826 -13.4514 -13.4513 -13.3691 -13.3691
   -13.3391 -13.3390 -13.3025 -13.3025  -1.7087  -1.7087   2.9031   2.9031
     5.6969   5.6969   6.8983   6.8983   8.5105   8.5105  10.5745  10.5745
    10.8279  10.8279  11.9932  11.9932

     occupation numbers 
     1.0000   1.0000   1.0000   1.0000   1.0000   1.0000   1.0000   1.0000
     1.0000   1.0000   1.0000   1.0000   1.0000   1.0000   1.0000   1.0000
     1.0000   1.0000   1.0000   1.0000   1.0000   1.0000   1.0000   1.0000
     1.0000   1.0000   1.0000   1.0000   0.0000   0.0000   0.0000   0.0000
     0.0000   0.0000   0.0000   0.0000

          k =-0.0442-0.2210 0.2210 (  2980 PWs)   bands (ev):

   -14.5264 -14.5262 -14.5105 -14.5105 -14.4538 -14.4537 -14.4353 -14.4352
   -13.5675 -13.5675 -13.4718 -13.4717 -13.4463 -13.4462 -13.3714 -13.3713
   -13.3476 -13.3475 -13.2987 -13.2987  -1.9694  -1.9694   3.5780   3.5780
     5.9522   5.9523   7.1201   7.1201   8.5446   8.5446  10.3252  10.3252
    10.5626  10.5626  11.6101  11.6101

     occupation numbers 
     1.0000   1.0000   1.0000   1.0000   1.0000   1.0000   1.0000   1.0000
     1.0000   1.0000   1.0000   1.0000   1.0000   1.0000   1.0000   1.0000
     1.0000   1.0000   1.0000   1.0000   1.0000   1.0000   1.0000   1.0000
     1.0000   1.0000   1.0000   1.0000   0.0000   0.0000   0.0000   0.0000
     0.0000   0.0000   0.0000   0.0000

          k = 0.0000-0.1768 0.1768 (  2984 PWs)   bands (ev):

   -14.5250 -14.5249 -14.5146 -14.5146 -14.4495 -14.4495 -14.4375 -14.4374
   -13.5767 -13.5767 -13.4603 -13.4602 -13.4416 -13.4415 -13.3736 -13.3736
   -13.3576 -13.3576 -13.2949 -13.2949  -2.1779  -2.1779   4.2323   4.2323
     6.3240   6.3240   7.3134   7.3134   8.4656   8.4656  10.0678  10.0678
    10.2596  10.2596  11.2693  11.2693

     occupation numbers 
     1.0000   1.0000   1.0000   1.0000   1.0000   1.0000   1.0000   1.0000
     1.0000   1.0000   1.0000   1.0000   1.0000   1.0000   1.0000   1.0000
     1.0000   1.0000   1.0000   1.0000   1.0000   1.0000   1.0000   1.0000
     1.0000   1.0000   1.0000   1.0000   0.0000   0.0000   0.0000   0.0000
     0.0000   0.0000   0.0000   0.0000

          k = 0.2652 0.0000 0.0000 (  2970 PWs)   bands (ev):

   -14.5223 -14.5223 -14.5173 -14.5173 -14.4471 -14.4471 -14.4396 -14.4396
   -13.5743 -13.5743 -13.4636 -13.4636 -13.4422 -13.4422 -13.3670 -13.3670
   -13.3625 -13.3625 -13.2945 -13.2945  -2.1274  -2.1274   4.1916   4.1916
     6.4180   6.4180   6.5901   6.5901   8.8718   8.8718   9.3629   9.3629
    11.2928  11.2928  11.3300  11.3300

     occupation numbers 
     1.0000   1.0000   1.0000   1.0000   1.0000   1.0000   1.0000   1.0000
     1.0000   1.0000   1.0000   1.0000   1.0000   1.0000   1.0000   1.0000
     1.0000   1.0000   1.0000   1.0000   1.0000   1.0000   1.0000   1.0000
     1.0000   1.0000   1.0000   1.0000   0.0000   0.0000   0.0000   0.0000
     0.0000   0.0000   0.0000   0.0000

          k = 0.3094 0.0442-0.0442 (  2970 PWs)   bands (ev):

   -14.5231 -14.5231 -14.5147 -14.5147 -14.4496 -14.4496 -14.4383 -14.4382
   -13.5669 -13.5669 -13.4723 -13.4722 -13.4459 -13.4459 -13.3676 -13.3676
   -13.3538 -13.3537 -13.2965 -13.2965  -1.9580  -1.9580   3.6880   3.6880
     6.1860   6.1860   6.3645   6.3645   8.8524   8.8525   9.4676   9.4676
    11.6240  11.6240  11.6774  11.6774

     occupation numbers 
     1.0000   1.0000   1.0000   1.0000   1.0000   1.0000   1.0000   1.0000
     1.0000   1.0000   1.0000   1.0000   1.0000   1.0000   1.0000   1.0000
     1.0000   1.0000   1.0000   1.0000   1.0000   1.0000   1.0000   1.0000
     1.0000   1.0000   1.0000   1.0000   0.0000   0.0000   0.0000   0.0000
     0.0000   0.0000   0.0000   0.0000

          k = 0.3536 0.0884-0.0884 (  2971 PWs)   bands (ev):

   -14.5248 -14.5247 -14.5104 -14.5104 -14.4539 -14.4538 -14.4359 -14.4359
   -13.5577 -13.5577 -13.4815 -13.4815 -13.4497 -13.4497 -13.3697 -13.3697
   -13.3444 -13.3443 -13.2986 -13.2986  -1.7292  -1.7292   3.0974   3.0975
     5.8944   5.8944   6.1854   6.1854   8.9408   8.9409   9.6143   9.6143
    11.7025  11.7025  11.9013  11.9013

     occupation numbers 
     1.0000   1.0000   1.0000   1.0000   1.0000   1.0000   1.0000   1.0000
     1.0000   1.0000   1.0000   1.0000   1.0000   1.0000   1.0000   1.0000
     1.0000   1.0000   1.0000   1.0000   1.0000   1.0000   1.0000   1.0000
     1.0000   1.0000   1.0000   1.0000   0.0000   0.0000   0.0000   0.0000
     0.0000   0.0000   0.0000   0.0000

          k = 0.3977 0.1326-0.1326 (  2982 PWs)   bands (ev):

   -14.5265 -14.5264 -14.5053 -14.5052 -14.4592 -14.4590 -14.4333 -14.4333
   -13.5478 -13.5477 -13.4901 -13.4900 -13.4532 -13.4532 -13.3724 -13.3724
   -13.3369 -13.3368 -13.2999 -13.2999  -1.4533  -1.4533   2.4964   2.4965
     5.5901   5.5902   6.0756   6.0756   8.9145   8.9146   9.9897   9.9897
    11.7066  11.7066  11.9828  11.9828

     occupation numbers 
     1.0000   1.0000   1.0000   1.0000   1.0000   1.0000   1.0000   1.0000
     1.0000   1.0000   1.0000   1.0000   1.0000   1.0000   1.0000   1.0000
     1.0000   1.0000   1.0000   1.0000   1.0000   1.0000   1.0000   1.0000
     1.0000   1.0000   1.0000   1.0000   0.0000   0.0000   0.0000   0.0000
     0.0000   0.0000   0.0000   0.0000

          k = 0.4419 0.1768-0.1768 (  2990 PWs)   bands (ev):

   -14.5280 -14.5279 -14.4999 -14.4996 -14.4649 -14.4646 -14.4310 -14.4309
   -13.5384 -13.5384 -13.4971 -13.4970 -13.4563 -13.4562 -13.3753 -13.3753
   -13.3323 -13.3322 -13.2998 -13.2998  -1.1568  -1.1568   1.9490   1.9490
     5.3237   5.3237   6.0336   6.0336   8.8402   8.8402  10.4009  10.4009
    11.8329  11.8329  11.9863  11.9863

     occupation numbers 
     1.0000   1.0000   1.0000   1.0000   1.0000   1.0000   1.0000   1.0000
     1.0000   1.0000   1.0000   1.0000   1.0000   1.0000   1.0000   1.0000
     1.0000   1.0000   1.0000   1.0000   1.0000   1.0000   1.0000   1.0000
     1.0000   1.0000   1.0000   1.0000   0.0000   0.0000   0.0000   0.0000
     0.0000   0.0000   0.0000   0.0000

          k =-0.2210-0.4861 0.4861 (  2994 PWs)   bands (ev):

   -14.5290 -14.5290 -14.4948 -14.4943 -14.4704 -14.4699 -14.4292 -14.4292
   -13.5315 -13.5315 -13.5017 -13.5017 -13.4583 -13.4583 -13.3779 -13.3778
   -13.3301 -13.3301 -13.2989 -13.2989  -0.9001  -0.9001   1.5368   1.5368
     5.1195   5.1195   6.0572   6.0572   8.7833   8.7833  10.6578  10.6578
    11.7848  11.7848  12.3904  12.3904

     occupation numbers 
     1.0000   1.0000   1.0000   1.0000   1.0000   1.0000   1.0000   1.0000
     1.0000   1.0000   1.0000   1.0000   1.0000   1.0000   1.0000   1.0000
     1.0000   1.0000   1.0000   1.0000   1.0000   1.0000   1.0000   1.0000
     1.0000   1.0000   1.0000   1.0000   0.0000   0.0000   0.0000   0.0000
     0.0000   0.0000   0.0000   0.0000

          k =-0.1768-0.4419 0.4419 (  2999 PWs)   bands (ev):

   -14.5296 -14.5296 -14.4915 -14.4907 -14.4742 -14.4733 -14.4283 -14.4283
   -13.5291 -13.5291 -13.5033 -13.5033 -13.4587 -13.4586 -13.3795 -13.3794
   -13.3293 -13.3292 -13.2984 -13.2984  -0.7949  -0.7949   1.3822   1.3822
     4.9905   4.9905   6.1436   6.1436   8.7619   8.7619  10.7930  10.7930
    11.6354  11.6354  13.0171  13.0171

     occupation numbers 
     1.0000   1.0000   1.0000   1.0000   1.0000   1.0000   1.0000   1.0000
     1.0000   1.0000   1.0000   1.0000   1.0000   1.0000   1.0000   1.0000
     1.0000   1.0000   1.0000   1.0000   1.0000   1.0000   1.0000   1.0000
     1.0000   1.0000   1.0000   1.0000   0.0000   0.0000   0.0000   0.0000
     0.0000   0.0000   0.0000   0.0000

          k =-0.1326-0.3977 0.3977 (  2996 PWs)   bands (ev):

   -14.5297 -14.5296 -14.4924 -14.4917 -14.4733 -14.4726 -14.4283 -14.4283
   -13.5322 -13.5322 -13.5015 -13.5015 -13.4570 -13.4569 -13.3798 -13.3797
   -13.3291 -13.3290 -13.2990 -13.2989  -0.9143  -0.9143   1.5594   1.5594
     4.9470   4.9470   6.2873   6.2873   8.7754   8.7755  10.9006  10.9006
    11.4560  11.4560  13.1219  13.1220

     occupation numbers 
     1.0000   1.0000   1.0000   1.0000   1.0000   1.0000   1.0000   1.0000
     1.0000   1.0000   1.0000   1.0000   1.0000   1.0000   1.0000   1.0000
     1.0000   1.0000   1.0000   1.0000   1.0000   1.0000   1.0000   1.0000
     1.0000   1.0000   1.0000   1.0000   0.0000   0.0000   0.0000   0.0000
     0.0000   0.0000   0.0000   0.0000

          k =-0.0884-0.3536 0.3536 (  2993 PWs)   bands (ev):

   -14.5293 -14.5292 -14.4966 -14.4961 -14.4689 -14.4684 -14.4292 -14.4291
   -13.5394 -13.5393 -13.4970 -13.4970 -13.4540 -13.4540 -13.3788 -13.3787
   -13.3298 -13.3298 -13.3004 -13.3003  -1.1760  -1.1760   1.9781   1.9781
     5.0016   5.0016   6.4788   6.4788   8.8101   8.8101  11.0011  11.0011
    11.2407  11.2407  12.4584  12.4584

     occupation numbers 
     1.0000   1.0000   1.0000   1.0000   1.0000   1.0000   1.0000   1.0000
     1.0000   1.0000   1.0000   1.0000   1.0000   1.0000   1.0000   1.0000
     1.0000   1.0000   1.0000   1.0000   1.0000   1.0000   1.0000   1.0000
     1.0000   1.0000   1.0000   1.0000   0.0000   0.0000   0.0000   0.0000
     0.0000   0.0000   0.0000   0.0000

          k =-0.0442-0.3094 0.3094 (  2987 PWs)   bands (ev):

   -14.5285 -14.5284 -14.5016 -14.5014 -14.4635 -14.4632 -14.4309 -14.4308
   -13.5486 -13.5486 -13.4903 -13.4902 -13.4508 -13.4508 -13.3767 -13.3767
   -13.3327 -13.3326 -13.3013 -13.3013  -1.4716  -1.4716   2.5098   2.5098
     5.1728   5.1728   6.7018   6.7018   8.8325   8.8325  10.9244  10.9244
    11.0664  11.0664  11.8521  11.8521

     occupation numbers 
     1.0000   1.0000   1.0000   1.0000   1.0000   1.0000   1.0000   1.0000
     1.0000   1.0000   1.0000   1.0000   1.0000   1.0000   1.0000   1.0000
     1.0000   1.0000   1.0000   1.0000   1.0000   1.0000   1.0000   1.0000
     1.0000   1.0000   1.0000   1.0000   0.0000   0.0000   0.0000   0.0000
     0.0000   0.0000   0.0000   0.0000

          k = 0.0000-0.2652 0.2652 (  2970 PWs)   bands (ev):

   -14.5274 -14.5273 -14.5065 -14.5063 -14.4583 -14.4581 -14.4330 -14.4329
   -13.5585 -13.5584 -13.4817 -13.4816 -13.4481 -13.4481 -13.3740 -13.3740
   -13.3388 -13.3387 -13.3007 -13.3007  -1.7444  -1.7444   3.0643   3.0643
     5.4844   5.4844   6.9296   6.9296   8.7739   8.7739  10.6202  10.6202
    10.8061  10.8061  11.6594  11.6594

     occupation numbers 
     1.0000   1.0000   1.0000   1.0000   1.0000   1.0000   1.0000   1.0000
     1.0000   1.0000   1.0000   1.0000   1.0000   1.0000   1.0000   1.0000
     1.0000   1.0000   1.0000   1.0000   1.0000   1.0000   1.0000   1.0000
     1.0000   1.0000   1.0000   1.0000   0.0000   0.0000   0.0000   0.0000
     0.0000   0.0000   0.0000   0.0000

          k = 0.3536 0.0000 0.0000 (  2978 PWs)   bands (ev):

   -14.5220 -14.5220 -14.5148 -14.5148 -14.4496 -14.4496 -14.4389 -14.4389
   -13.5607 -13.5607 -13.4786 -13.4786 -13.4482 -13.4482 -13.3679 -13.3679
   -13.3493 -13.3493 -13.2971 -13.2971  -1.8084  -1.8084   3.3445   3.3445
     6.0346   6.0346   6.1536   6.1536   8.5905   8.5905   9.5277   9.5277
    12.0924  12.0925  12.1245  12.1245

     occupation numbers 
     1.0000   1.0000   1.0000   1.0000   1.0000   1.0000   1.0000   1.0000
     1.0000   1.0000   1.0000   1.0000   1.0000   1.0000   1.0000   1.0000
     1.0000   1.0000   1.0000   1.0000   1.0000   1.0000   1.0000   1.0000
     1.0000   1.0000   1.0000   1.0000   0.0000   0.0000   0.0000   0.0000
     0.0000   0.0000   0.0000   0.0000

          k = 0.3977 0.0442-0.0442 (  2981 PWs)   bands (ev):

   -14.5227 -14.5226 -14.5123 -14.5123 -14.4519 -14.4519 -14.4377 -14.4377
   -13.5527 -13.5527 -13.4859 -13.4858 -13.4504 -13.4504 -13.3719 -13.3719
   -13.3418 -13.3417 -13.2979 -13.2979  -1.5973  -1.5973   2.8790   2.8791
     5.8117   5.8118   5.9654   5.9654   8.6118   8.6118   9.4945   9.4945
    12.2425  12.2425  12.4520  12.4520

     occupation numbers 
     1.0000   1.0000   1.0000   1.0000   1.0000   1.0000   1.0000   1.0000
     1.0000   1.0000   1.0000   1.0000   1.0000   1.0000   1.0000   1.0000
     1.0000   1.0000   1.0000   1.0000   1.0000   1.0000   1.0000   1.0000
     1.0000   1.0000   1.0000   1.0000   0.0000   0.0000   0.0000   0.0000
     0.0000   0.0000   0.0000   0.0000

          k = 0.4419 0.0884-0.0884 (  2986 PWs)   bands (ev):

   -14.5243 -14.5243 -14.5081 -14.5080 -14.4563 -14.4561 -14.4353 -14.4352
   -13.5442 -13.5442 -13.4927 -13.4926 -13.4520 -13.4520 -13.3778 -13.3778
   -13.3348 -13.3347 -13.2980 -13.2980  -1.3337  -1.3337   2.3670   2.3671
     5.4923   5.4923   5.8454   5.8454   8.7537   8.7537   9.6289   9.6289
    12.1169  12.1169  12.6150  12.6151

     occupation numbers 
     1.0000   1.0000   1.0000   1.0000   1.0000   1.0000   1.0000   1.0000
     1.0000   1.0000   1.0000   1.0000   1.0000   1.0000   1.0000   1.0000
     1.0000   1.0000   1.0000   1.0000   1.0000   1.0000   1.0000   1.0000
     1.0000   1.0000   1.0000   1.0000   0.0000   0.0000   0.0000   0.0000
     0.0000   0.0000   0.0000   0.0000

          k = 0.4861 0.1326-0.1326 (  2990 PWs)   bands (ev):

   -14.5261 -14.5260 -14.5033 -14.5031 -14.4615 -14.4612 -14.4325 -14.4325
   -13.5366 -13.5366 -13.4975 -13.4974 -13.4532 -13.4531 -13.3842 -13.3841
   -13.3305 -13.3304 -13.2966 -13.2966  -1.0371  -1.0371   1.8674   1.8674
     5.1608   5.1608   5.7981   5.7981   8.7965   8.7965  10.0840  10.0840
    11.9936  11.9936  12.6078  12.6078

     occupation numbers 
     1.0000   1.0000   1.0000   1.0000   1.0000   1.0000   1.0000   1.0000
     1.0000   1.0000   1.0000   1.0000   1.0000   1.0000   1.0000   1.0000
     1.0000   1.0000   1.0000   1.0000   1.0000   1.0000   1.0000   1.0000
     1.0000   1.0000   1.0000   1.0000   0.0000   0.0000   0.0000   0.0000
     0.0000   0.0000   0.0000   0.0000

          k =-0.1768-0.5303 0.5303 (  3004 PWs)   bands (ev):

   -14.5276 -14.5275 -14.4985 -14.4980 -14.4670 -14.4665 -14.4301 -14.4300
   -13.5318 -13.5317 -13.4994 -13.4993 -13.4539 -13.4537 -13.3898 -13.3897
   -13.3289 -13.3288 -13.2943 -13.2943  -0.7533  -0.7533   1.4481   1.4482
     4.8816   4.8816   5.8182   5.8183   8.7937   8.7937  10.6968  10.6968
    11.9764  11.9764  12.4897  12.4897

     occupation numbers 
     1.0000   1.0000   1.0000   1.0000   1.0000   1.0000   1.0000   1.0000
[...]

     occupation numbers 
     1.0000   1.0000   1.0000   1.0000   1.0000   1.0000   1.0000   1.0000
     1.0000   1.0000   1.0000   1.0000   1.0000   1.0000   1.0000   1.0000
     1.0000   1.0000   1.0000   1.0000   1.0000   1.0000   1.0000   1.0000
     1.0000   1.0000   1.0000   1.0000   0.0000   0.0000   0.0000   0.0000
     0.0000   0.0000   0.0000   0.0000

          k =-0.1326-0.3977 0.5745 (  2999 PWs)   bands (ev):

   -14.5286 -14.5285 -14.4944 -14.4935 -14.4723 -14.4713 -14.4279 -14.4278
   -13.5312 -13.5311 -13.4967 -13.4966 -13.4520 -13.4518 -13.3984 -13.3982
   -13.3294 -13.3293 -13.2900 -13.2900  -0.4968  -0.4968   1.1514   1.1514
     4.6478   4.6478   5.6268   5.6268   9.4614   9.4614  10.7202  10.7202
    11.9857  11.9858  12.6996  12.6997

     occupation numbers 
     1.0000   1.0000   1.0000   1.0000   1.0000   1.0000   1.0000   1.0000
     1.0000   1.0000   1.0000   1.0000   1.0000   1.0000   1.0000   1.0000
     1.0000   1.0000   1.0000   1.0000   1.0000   1.0000   1.0000   1.0000
     1.0000   1.0000   1.0000   1.0000   0.0000   0.0000   0.0000   0.0000
     0.0000   0.0000   0.0000   0.0000

          k =-0.0884-0.3536 0.5303 (  3004 PWs)   bands (ev):

   -14.5288 -14.5288 -14.4939 -14.4929 -14.4729 -14.4719 -14.4277 -14.4276
   -13.5317 -13.5316 -13.4968 -13.4967 -13.4517 -13.4515 -13.3979 -13.3977
   -13.3295 -13.3294 -13.2903 -13.2902  -0.5513  -0.5513   1.2206   1.2206
     4.6154   4.6154   5.6951   5.6951   9.5053   9.5053  10.7141  10.7141
    12.0435  12.0435  12.6660  12.6661

     occupation numbers 
     1.0000   1.0000   1.0000   1.0000   1.0000   1.0000   1.0000   1.0000
     1.0000   1.0000   1.0000   1.0000   1.0000   1.0000   1.0000   1.0000
     1.0000   1.0000   1.0000   1.0000   1.0000   1.0000   1.0000   1.0000
     1.0000   1.0000   1.0000   1.0000   0.0000   0.0000   0.0000   0.0000
     0.0000   0.0000   0.0000   0.0000

          k =-0.0442-0.3094 0.4861 (  3006 PWs)   bands (ev):

   -14.5287 -14.5286 -14.4959 -14.4952 -14.4705 -14.4697 -14.4284 -14.4283
   -13.5339 -13.5338 -13.4974 -13.4973 -13.4513 -13.4512 -13.3935 -13.3933
   -13.3297 -13.3296 -13.2925 -13.2924  -0.7948  -0.7948   1.5397   1.5397
     4.6867   4.6867   5.8371   5.8371   9.5527   9.5528  10.6021  10.6021
    11.4849  11.4849  12.8715  12.8715

     occupation numbers 
     1.0000   1.0000   1.0000   1.0000   1.0000   1.0000   1.0000   1.0000
     1.0000   1.0000   1.0000   1.0000   1.0000   1.0000   1.0000   1.0000
     1.0000   1.0000   1.0000   1.0000   1.0000   1.0000   1.0000   1.0000
     1.0000   1.0000   1.0000   1.0000   0.0000   0.0000   0.0000   0.0000
     0.0000   0.0000   0.0000   0.0000

          k = 0.0000-0.2652 0.4419 (  3011 PWs)   bands (ev):

   -14.5281 -14.5281 -14.4993 -14.4989 -14.4664 -14.4659 -14.4298 -14.4297
   -13.5387 -13.5386 -13.4962 -13.4961 -13.4513 -13.4513 -13.3862 -13.3861
   -13.3308 -13.3307 -13.2959 -13.2958  -1.0926  -1.0926   1.9583   1.9583
     4.8807   4.8807   6.0273   6.0273   9.5432   9.5433  10.2587  10.2587
    11.3111  11.3111  12.6438  12.6439

     occupation numbers 
     1.0000   1.0000   1.0000   1.0000   1.0000   1.0000   1.0000   1.0000
     1.0000   1.0000   1.0000   1.0000   1.0000   1.0000   1.0000   1.0000
     1.0000   1.0000   1.0000   1.0000   1.0000   1.0000   1.0000   1.0000
     1.0000   1.0000   1.0000   1.0000   0.0000   0.0000   0.0000   0.0000
     0.0000   0.0000   0.0000   0.0000

          k =-0.1768-0.5303 0.7071 (  2992 PWs)   bands (ev):

   -14.5253 -14.5252 -14.5039 -14.5035 -14.4613 -14.4609 -14.4327 -14.4326
   -13.5331 -13.5331 -13.4988 -13.4987 -13.4500 -13.4499 -13.3942 -13.3941
   -13.3279 -13.3278 -13.2939 -13.2939  -0.8016  -0.8016   1.5774   1.5774
     5.0458   5.0458   5.5035   5.5035   9.1959   9.1960   9.5898   9.5898
    11.9949  11.9949  13.5935  13.5935

     occupation numbers 
     1.0000   1.0000   1.0000   1.0000   1.0000   1.0000   1.0000   1.0000
     1.0000   1.0000   1.0000   1.0000   1.0000   1.0000   1.0000   1.0000
     1.0000   1.0000   1.0000   1.0000   1.0000   1.0000   1.0000   1.0000
     1.0000   1.0000   1.0000   1.0000   0.0000   0.0000   0.0000   0.0000
     0.0000   0.0000   0.0000   0.0000

          k =-0.1326-0.4861 0.6629 (  2998 PWs)   bands (ev):

   -14.5264 -14.5263 -14.5007 -14.5001 -14.4652 -14.4646 -14.4306 -14.4305
   -13.5313 -13.5312 -13.4974 -13.4973 -13.4478 -13.4476 -13.4031 -13.4028
   -13.3276 -13.3275 -13.2904 -13.2903  -0.4980  -0.4980   1.1940   1.1940
     4.8181   4.8181   5.3813   5.3813   9.3674   9.3675  10.0548  10.0548
    11.8226  11.8226  13.5500  13.5500

     occupation numbers 
     1.0000   1.0000   1.0000   1.0000   1.0000   1.0000   1.0000   1.0000
     1.0000   1.0000   1.0000   1.0000   1.0000   1.0000   1.0000   1.0000
     1.0000   1.0000   1.0000   1.0000   1.0000   1.0000   1.0000   1.0000
     1.0000   1.0000   1.0000   1.0000   0.0000   0.0000   0.0000   0.0000
     0.0000   0.0000   0.0000   0.0000

          k =-0.0884-0.4419 0.6187 (  3004 PWs)   bands (ev):

   -14.5274 -14.5273 -14.4977 -14.4969 -14.4690 -14.4681 -14.4288 -14.4287
   -13.5314 -13.5313 -13.4948 -13.4947 -13.4461 -13.4457 -13.4092 -13.4088
   -13.3283 -13.3282 -13.2877 -13.2876  -0.2603  -0.2603   0.9189   0.9189
     4.6228   4.6228   5.3698   5.3698   9.4267   9.4267  10.7691  10.7691
    11.7242  11.7242  12.9808  12.9808

     occupation numbers 
     1.0000   1.0000   1.0000   1.0000   1.0000   1.0000   1.0000   1.0000
     1.0000   1.0000   1.0000   1.0000   1.0000   1.0000   1.0000   1.0000
     1.0000   1.0000   1.0000   1.0000   1.0000   1.0000   1.0000   1.0000
     1.0000   1.0000   1.0000   1.0000   0.0000   0.0000   0.0000   0.0000
     0.0000   0.0000   0.0000   0.0000

          k =-0.0442-0.3977 0.5745 (  2994 PWs)   bands (ev):

   -14.5282 -14.5281 -14.4954 -14.4944 -14.4717 -14.4706 -14.4278 -14.4276
   -13.5319 -13.5318 -13.4938 -13.4937 -13.4463 -13.4459 -13.4095 -13.4091
   -13.3290 -13.3289 -13.2869 -13.2869  -0.2624  -0.2623   0.9238   0.9238
     4.5117   4.5118   5.4573   5.4573   9.5033   9.5033  11.2286  11.2287
    11.9326  11.9327  12.2718  12.2719

     occupation numbers 
     1.0000   1.0000   1.0000   1.0000   1.0000   1.0000   1.0000   1.0000
     1.0000   1.0000   1.0000   1.0000   1.0000   1.0000   1.0000   1.0000
     1.0000   1.0000   1.0000   1.0000   1.0000   1.0000   1.0000   1.0000
     1.0000   1.0000   1.0000   1.0000   0.0000   0.0000   0.0000   0.0000
     0.0000   0.0000   0.0000   0.0000

          k = 0.0000-0.3536 0.5303 (  2995 PWs)   bands (ev):

   -14.5286 -14.5285 -14.4947 -14.4937 -14.4723 -14.4712 -14.4276 -14.4275
   -13.5325 -13.5324 -13.4953 -13.4952 -13.4485 -13.4482 -13.4035 -13.4032
   -13.3294 -13.3293 -13.2886 -13.2886  -0.4975  -0.4975   1.1924   1.1924
     4.5247   4.5247   5.6220   5.6220   9.5784   9.5784  11.0950  11.0950
    11.5634  11.5634  12.7421  12.7422

     occupation numbers 
     1.0000   1.0000   1.0000   1.0000   1.0000   1.0000   1.0000   1.0000
     1.0000   1.0000   1.0000   1.0000   1.0000   1.0000   1.0000   1.0000
     1.0000   1.0000   1.0000   1.0000   1.0000   1.0000   1.0000   1.0000
     1.0000   1.0000   1.0000   1.0000   0.0000   0.0000   0.0000   0.0000
     0.0000   0.0000   0.0000   0.0000

          k =-0.0884-0.5303 0.7071 (  2993 PWs)   bands (ev):

   -14.5245 -14.5244 -14.5039 -14.5034 -14.4614 -14.4609 -14.4329 -14.4328
   -13.5291 -13.5290 -13.4996 -13.4995 -13.4427 -13.4424 -13.4103 -13.4100
   -13.3241 -13.3240 -13.2913 -13.2912  -0.2759  -0.2759   0.9269   0.9269
     4.9645   4.9646   5.2218   5.2218   9.1605   9.1606   9.4155   9.4156
    12.6622  12.6622  13.8844  13.8844

     occupation numbers 
     1.0000   1.0000   1.0000   1.0000   1.0000   1.0000   1.0000   1.0000
     1.0000   1.0000   1.0000   1.0000   1.0000   1.0000   1.0000   1.0000
     1.0000   1.0000   1.0000   1.0000   1.0000   1.0000   1.0000   1.0000
     1.0000   1.0000   1.0000   1.0000   0.0000   0.0000   0.0000   0.0000
     0.0000   0.0000   0.0000   0.0000

          k =-0.0442-0.4861 0.6629 (  2992 PWs)   bands (ev):

   -14.5258 -14.5257 -14.5011 -14.5004 -14.4651 -14.4643 -14.4307 -14.4305
   -13.5303 -13.5302 -13.4959 -13.4958 -13.4393 -13.4387 -13.4179 -13.4173
   -13.3260 -13.3258 -13.2879 -13.2879   0.0073   0.0073   0.6276   0.6277
     4.7614   4.7614   5.1747   5.1747   9.3178   9.3178  10.0006  10.0006
    12.4805  12.4805  13.1989  13.1989

     occupation numbers 
     1.0000   1.0000   1.0000   1.0000   1.0000   1.0000   1.0000   1.0000
     1.0000   1.0000   1.0000   1.0000   1.0000   1.0000   1.0000   1.0000
     1.0000   1.0000   1.0000   1.0000   1.0000   1.0000   1.0000   1.0000
     1.0000   1.0000   1.0000   1.0000   0.0000   0.0000   0.0000   0.0000
     0.0000   0.0000   0.0000   0.0000

          k = 0.0000-0.4419 0.6187 (  2996 PWs)   bands (ev):

   -14.5271 -14.5270 -14.4981 -14.4972 -14.4688 -14.4678 -14.4288 -14.4287
   -13.5315 -13.5314 -13.4934 -13.4932 -13.4409 -13.4402 -13.4177 -13.4170
   -13.3279 -13.3277 -13.2862 -13.2861   0.0051   0.0051   0.6391   0.6392
     4.5739   4.5739   5.2743   5.2743   9.4077   9.4077  10.8069  10.8069
    12.2902  12.2902  12.3864  12.3865

     occupation numbers 
     1.0000   1.0000   1.0000   1.0000   1.0000   1.0000   1.0000   1.0000
     1.0000   1.0000   1.0000   1.0000   1.0000   1.0000   1.0000   1.0000
     1.0000   1.0000   1.0000   1.0000   1.0000   1.0000   1.0000   1.0000
     1.0000   1.0000   1.0000   1.0000   0.0000   0.0000   0.0000   0.0000
     0.0000   0.0000   0.0000   0.0000

          k =-0.7071 0.1768 0.0000 (  2986 PWs)   bands (ev):

   -14.5241 -14.5240 -14.5041 -14.5036 -14.4613 -14.4607 -14.4330 -14.4329
   -13.5283 -13.5283 -13.4993 -13.4992 -13.4341 -13.4329 -13.4228 -13.4217
   -13.3228 -13.3227 -13.2903 -13.2902   0.2887   0.2892   0.3200   0.3205
     4.9627   4.9627   5.1012   5.1012   9.1773   9.1774   9.3172   9.3173
    13.3045  13.3046  13.4643  13.4643

     occupation numbers 
     1.0000   1.0000   1.0000   1.0000   1.0000   1.0000   1.0000   1.0000
     1.0000   1.0000   1.0000   1.0000   1.0000   1.0000   1.0000   1.0000
     1.0000   1.0000   1.0000   1.0000   1.0000   1.0000   1.0000   1.0000
     1.0000   1.0000   1.0000   1.0000   0.0000   0.0000   0.0000   0.0000
     0.0000   0.0000   0.0000   0.0000

          k =-0.1768-0.4419 0.7071 (  3000 PWs)   bands (ev):

   -14.5276 -14.5275 -14.4985 -14.4978 -14.4679 -14.4671 -14.4293 -14.4292
   -13.5330 -13.5329 -13.4967 -13.4966 -13.4498 -13.4496 -13.3984 -13.3982
   -13.3294 -13.3293 -13.2907 -13.2906  -0.6680  -0.6680   1.4049   1.4049
     4.7413   4.7414   5.5371   5.5371   9.8911   9.8912  10.1706  10.1708
    11.2671  11.2671  13.3269  13.3270

     occupation numbers 
     1.0000   1.0000   1.0000   1.0000   1.0000   1.0000   1.0000   1.0000
     1.0000   1.0000   1.0000   1.0000   1.0000   1.0000   1.0000   1.0000
     1.0000   1.0000   1.0000   1.0000   1.0000   1.0000   1.0000   1.0000
     1.0000   1.0000   1.0000   1.0000   0.0000   0.0000   0.0000   0.0000
     0.0000   0.0000   0.0000   0.0000

          k =-0.1326-0.3977 0.6629 (  3005 PWs)   bands (ev):

   -14.5280 -14.5279 -14.4964 -14.4955 -14.4705 -14.4695 -14.4282 -14.4280
   -13.5322 -13.5321 -13.4944 -13.4943 -13.4477 -13.4474 -13.4063 -13.4060
   -13.3294 -13.3293 -13.2876 -13.2876  -0.3848  -0.3848   1.0665   1.0666
     4.6139   4.6140   5.3824   5.3824   9.9628   9.9629  10.6140  10.6141
    11.3772  11.3773  12.8681  12.8681

     occupation numbers 
     1.0000   1.0000   1.0000   1.0000   1.0000   1.0000   1.0000   1.0000
     1.0000   1.0000   1.0000   1.0000   1.0000   1.0000   1.0000   1.0000
     1.0000   1.0000   1.0000   1.0000   1.0000   1.0000   1.0000   1.0000
     1.0000   1.0000   1.0000   1.0000   0.0000   0.0000   0.0000   0.0000
     0.0000   0.0000   0.0000   0.0000

          k =-0.0884-0.3536 0.6187 (  3014 PWs)   bands (ev):

   -14.5281 -14.5280 -14.4956 -14.4946 -14.4716 -14.4705 -14.4278 -14.4276
   -13.5321 -13.5320 -13.4932 -13.4930 -13.4468 -13.4464 -13.4095 -13.4091
   -13.3295 -13.3294 -13.2865 -13.2864  -0.2470  -0.2470   0.9093   0.9093
     4.5734   4.5734   5.3259   5.3259   9.9679   9.9680  10.7333  10.7334
    11.8772  11.8773  12.2128  12.2129

     occupation numbers 
     1.0000   1.0000   1.0000   1.0000   1.0000   1.0000   1.0000   1.0000
     1.0000   1.0000   1.0000   1.0000   1.0000   1.0000   1.0000   1.0000
     1.0000   1.0000   1.0000   1.0000   1.0000   1.0000   1.0000   1.0000
     1.0000   1.0000   1.0000   1.0000   0.0000   0.0000   0.0000   0.0000
     0.0000   0.0000   0.0000   0.0000

          k =-0.0884-0.4419 0.7071 (  2996 PWs)   bands (ev):

   -14.5269 -14.5268 -14.4990 -14.4982 -14.4677 -14.4668 -14.4293 -14.4291
   -13.5316 -13.5315 -13.4941 -13.4939 -13.4436 -13.4432 -13.4129 -13.4125
   -13.3282 -13.3281 -13.2869 -13.2869  -0.1926  -0.1926   0.8571   0.8571
     4.7247   4.7247   5.1509   5.1509   9.9503   9.9505  10.1662  10.1663
    11.6458  11.6459  13.0342  13.0342

     occupation numbers 
     1.0000   1.0000   1.0000   1.0000   1.0000   1.0000   1.0000   1.0000
     1.0000   1.0000   1.0000   1.0000   1.0000   1.0000   1.0000   1.0000
     1.0000   1.0000   1.0000   1.0000   1.0000   1.0000   1.0000   1.0000
     1.0000   1.0000   1.0000   1.0000   0.0000   0.0000   0.0000   0.0000
     0.0000   0.0000   0.0000   0.0000

          k =-0.0442-0.3977 0.6629 (  3005 PWs)   bands (ev):

   -14.5274 -14.5273 -14.4975 -14.4965 -14.4698 -14.4687 -14.4282 -14.4281
   -13.5323 -13.5322 -13.4916 -13.4914 -13.4409 -13.4402 -13.4187 -13.4180
   -13.3291 -13.3289 -13.2849 -13.2849   0.0267   0.0268   0.6285   0.6286
     4.6426   4.6427   5.0716   5.0716  10.0925  10.0926  10.8026  10.8027
    11.5706  11.5706  12.1848  12.1848

     occupation numbers 
     1.0000   1.0000   1.0000   1.0000   1.0000   1.0000   1.0000   1.0000
     1.0000   1.0000   1.0000   1.0000   1.0000   1.0000   1.0000   1.0000
     1.0000   1.0000   1.0000   1.0000   1.0000   1.0000   1.0000   1.0000
     1.0000   1.0000   1.0000   1.0000   0.0000   0.0000   0.0000   0.0000
     0.0000   0.0000   0.0000   0.0000

          k =-0.0000-0.3536 0.6187 (  3003 PWs)   bands (ev):

   -14.5278 -14.5277 -14.4965 -14.4954 -14.4708 -14.4697 -14.4279 -14.4277
   -13.5325 -13.5324 -13.4917 -13.4915 -13.4431 -13.4425 -13.4156 -13.4151
   -13.3295 -13.3293 -13.2852 -13.2851  -0.0948  -0.0948   0.7581   0.7581
     4.5820   4.5820   5.1709   5.1709  10.1413  10.1413  10.9848  10.9848
    11.4576  11.4577  12.0927  12.0927

     occupation numbers 
     1.0000   1.0000   1.0000   1.0000   1.0000   1.0000   1.0000   1.0000
     1.0000   1.0000   1.0000   1.0000   1.0000   1.0000   1.0000   1.0000
     1.0000   1.0000   1.0000   1.0000   1.0000   1.0000   1.0000   1.0000
     1.0000   1.0000   1.0000   1.0000   0.0000   0.0000   0.0000   0.0000
     0.0000   0.0000   0.0000   0.0000

          k =-0.7071 0.2652 0.0000 (  3004 PWs)   bands (ev):

   -14.5266 -14.5264 -14.4994 -14.4986 -14.4674 -14.4665 -14.4293 -14.4291
   -13.5316 -13.5315 -13.4928 -13.4926 -13.4368 -13.4357 -13.4233 -13.4222
   -13.3278 -13.3276 -13.2856 -13.2855   0.2996   0.3001   0.3411   0.3417
     4.7863   4.7863   4.9512   4.9512   9.9495   9.9496  10.1466  10.1467
    12.2614  12.2614  12.3652  12.3653

     occupation numbers 
     1.0000   1.0000   1.0000   1.0000   1.0000   1.0000   1.0000   1.0000
     1.0000   1.0000   1.0000   1.0000   1.0000   1.0000   1.0000   1.0000
     1.0000   1.0000   1.0000   1.0000   1.0000   1.0000   1.0000   1.0000
     1.0000   1.0000   1.0000   1.0000   0.0000   0.0000   0.0000   0.0000
     0.0000   0.0000   0.0000   0.0000

          k =-0.7071 0.3536 0.0000 (  2996 PWs)   bands (ev):

   -14.5274 -14.5273 -14.4974 -14.4963 -14.4701 -14.4689 -14.4280 -14.4278
   -13.5327 -13.5326 -13.4902 -13.4900 -13.4379 -13.4367 -13.4238 -13.4227
   -13.3295 -13.3293 -13.2839 -13.2839   0.3045   0.3050   0.3498   0.3503
     4.7202   4.7203   4.8932   4.8932  10.5449  10.5451  10.8696  10.8698
    11.5458  11.5460  11.5712  11.5713

     occupation numbers 
     1.0000   1.0000   1.0000   1.0000   1.0000   1.0000   1.0000   1.0000
     1.0000   1.0000   1.0000   1.0000   1.0000   1.0000   1.0000   1.0000
     1.0000   1.0000   1.0000   1.0000   1.0000   1.0000   1.0000   1.0000
     1.0000   1.0000   1.0000   1.0000   0.0000   0.0000   0.0000   0.0000
     0.0000   0.0000   0.0000   0.0000

     the Fermi energy is     7.5787 ev

!    total energy              =    -885.88289569 Ry
     Harris-Foulkes estimate   =    -885.88289534 Ry
     estimated scf accuracy    <       0.00000030 Ry

     total all-electron energy =    -24716.582711 Ry

     The total energy is the sum of the following terms:

     one-electron contribution =    -155.27850469 Ry
     hartree contribution      =      78.92670096 Ry
     xc contribution           =     -54.74049173 Ry
     ewald contribution        =    -167.52979536 Ry
     one-center paw contrib.   =    -587.26080481 Ry
     smearing contrib. (-TS)   =      -0.00000006 Ry

     convergence has been achieved in   5 iterations

     Writing output data file Sn.save
 
     init_run     :      7.14s CPU      7.67s WALL (       1 calls)
     electrons    :    144.08s CPU    149.69s WALL (       1 calls)

     Called by init_run:
     wfcinit      :      6.57s CPU      6.84s WALL (       1 calls)
     potinit      :      0.22s CPU      0.25s WALL (       1 calls)

     Called by electrons:
     c_bands      :    122.12s CPU    126.95s WALL (       6 calls)
     sum_band     :     20.61s CPU     21.23s WALL (       6 calls)
     v_of_rho     :      0.05s CPU      0.06s WALL (       6 calls)
     v_h          :      0.01s CPU      0.01s WALL (       6 calls)
     v_xc         :      0.05s CPU      0.05s WALL (       6 calls)
     newd         :      0.36s CPU      0.40s WALL (       6 calls)
     PAW_pot      :      1.16s CPU      1.24s WALL (       6 calls)
     mix_rho      :      0.02s CPU      0.03s WALL (       6 calls)

     Called by c_bands:
     init_us_2    :      0.25s CPU      0.33s WALL (    1885 calls)
     cegterg      :    116.66s CPU    121.20s WALL (     870 calls)

     Called by sum_band:
     sum_band:bec :      2.81s CPU      2.88s WALL (     870 calls)
     addusdens    :      0.19s CPU      0.23s WALL (       6 calls)

     Called by *egterg:
     h_psi        :     89.59s CPU     92.29s WALL (    3460 calls)
     s_psi        :      3.42s CPU      3.44s WALL (    3460 calls)
     g_psi        :      0.30s CPU      0.30s WALL (    2445 calls)
     cdiaghg      :     14.46s CPU     14.72s WALL (    3170 calls)
     cegterg:over :      6.18s CPU      6.22s WALL (    2445 calls)
     cegterg:upda :      2.71s CPU      2.75s WALL (    2445 calls)
     cegterg:last :      1.94s CPU      1.95s WALL (    1012 calls)

     Called by h_psi:
     h_psi:vloc   :     81.18s CPU     83.74s WALL (    3460 calls)
     h_psi:vnl    :      8.20s CPU      8.29s WALL (    3460 calls)
     add_vuspsi   :      3.78s CPU      3.81s WALL (    3460 calls)

     General routines
     calbec       :      5.85s CPU      5.94s WALL (    4330 calls)
     fft          :      0.10s CPU      0.17s WALL (     116 calls)
     fftw         :     90.03s CPU     92.82s WALL (  429996 calls)
     davcio       :      0.02s CPU      0.41s WALL (     145 calls)
 
     Parallel routines
     fft_scatter  :     51.57s CPU     53.48s WALL (  430112 calls)

     PAW routines
     PAW_pot      :      1.16s CPU      1.24s WALL (       6 calls)
     PAW_symme    :      0.02s CPU      0.02s WALL (      12 calls)
 
     PWSCF        :  2m32.66s CPU     2m39.53s WALL

 
   This run was terminated on:  19:55:35  15Mar2020            

=------------------------------------------------------------------------------=
   JOB DONE.
=------------------------------------------------------------------------------=
