
     Program PWSCF v.5.4.0 starts on  9Mar2020 at  6: 4:14 

     This program is part of the open-source Quantum ESPRESSO suite
     for quantum simulation of materials; please cite
         "P. Giannozzi et al., J. Phys.:Condens. Matter 21 395502 (2009);
          URL http://www.quantum-espresso.org", 
     in publications or presentations arising from this work. More details at
     http://www.quantum-espresso.org/quote

     Parallel version (MPI & OpenMP), running on      16 processor cores
     Number of MPI processes:                16
     Threads/MPI process:                     1
     R & G space division:  proc/nbgrp/npool/nimage =      16
     Waiting for input...
     Reading input from standard input
Warning: card &IONS ignored
Warning: card / ignored
Warning: card &CELL ignored
Warning: card / ignored

     Current dimensions of program PWSCF are:
     Max number of different atomic species (ntypx) = 10
     Max number of k-points (npk) =  40000
     Max angular momentum in pseudopotentials (lmaxx) =  3
               file Sn.rel-pbe-dn-kjpaw_psl.1.0.0.UPF: wavefunction(s)  5S 5P 5P 4D 4D renormalized

     Subspace diagonalization in iterative solution of the eigenvalue problem:
     a serial algorithm will be used

 
     Parallelization info
     --------------------
     sticks:   dense  smooth     PW     G-vecs:    dense   smooth      PW
     Min         103     103     29                 2794     2794     428
     Max         104     104     30                 2798     2798     431
     Sum        1663    1663    475                44735    44735    6879
 

     Title: 
     Sn                                                                         


     bravais-lattice index     =            0
     lattice parameter (alat)  =       8.9127  a.u.
     unit-cell volume          =     500.6268 (a.u.)^3
     number of atoms/cell      =            2
     number of atomic types    =            1
     number of electrons       =        28.00
     number of Kohn-Sham states=           36
     kinetic-energy cutoff     =      76.0000  Ry
     charge density cutoff     =     304.0000  Ry
     convergence threshold     =      1.0E-06
     mixing beta               =       0.7000
     number of iterations used =            8  plain     mixing
     Exchange-correlation      =  SLA  PW   PBX  PBC ( 1  4  3  4 0 0)
     Non magnetic calculation with spin-orbit


     celldm(1)=   8.912709  celldm(2)=   0.000000  celldm(3)=   0.000000
     celldm(4)=   0.000000  celldm(5)=   0.000000  celldm(6)=   0.000000

     crystal axes: (cart. coord. in units of alat)
               a(1) = (   0.000000   0.707107   0.707107 )  
               a(2) = (   0.707107   0.000000   0.707107 )  
               a(3) = (   0.707107   0.707107   0.000000 )  

     reciprocal axes: (cart. coord. in units 2 pi/alat)
               b(1) = ( -0.707107  0.707107  0.707107 )  
               b(2) = (  0.707107 -0.707107  0.707107 )  
               b(3) = (  0.707107  0.707107 -0.707107 )  


     PseudoPot. # 1 for Sn read from file:
     ../PseudopotentialDatabase/Sn.rel-pbe-dn-kjpaw_psl.1.0.0.UPF
     MD5 check sum: 6bcaba2b82cf8d008985ef5bb9854e68
     Pseudo is Projector augmented-wave + core cor, Zval = 14.0
     Generated using "atomic" code by A. Dal Corso  v.6.3
     Shape of augmentation charge: PSQ
     Using radial grid of 1243 points, 10 beta functions with: 
                l(1) =   0
                l(2) =   0
                l(3) =   1
                l(4) =   1
                l(5) =   1
                l(6) =   1
                l(7) =   2
                l(8) =   2
                l(9) =   2
               l(10) =   2
     Q(r) pseudized with 0 coefficients 


     atomic species   valence    mass     pseudopotential
        Sn            14.00   118.71000     Sn( 1.00)

     24 Sym. Ops. (no inversion) found
          (note: 24 additional sym.ops. were found but ignored
           their fractional translations are incommensurate with FFT grid)

                                    s                        frac. trans.

      isym =  1     identity                                     

 cryst.   s( 1) = (     1          0          0      )
                  (     0          1          0      )
                  (     0          0          1      )

 cart.    s( 1) = (  1.0000000  0.0000000  0.0000000 )
                  (  0.0000000  1.0000000  0.0000000 )
                  (  0.0000000  0.0000000  1.0000000 )


      isym =  2     180 deg rotation - cart. axis [0,0,1]        

 cryst.   s( 2) = (     0          1         -1      )
                  (     1          0         -1      )
                  (     0          0         -1      )

 cart.    s( 2) = ( -1.0000000  0.0000000  0.0000000 )
                  (  0.0000000 -1.0000000  0.0000000 )
                  (  0.0000000  0.0000000  1.0000000 )


      isym =  3     180 deg rotation - cart. axis [0,1,0]        

 cryst.   s( 3) = (     0         -1          1      )
                  (     0         -1          0      )
                  (     1         -1          0      )

 cart.    s( 3) = ( -1.0000000  0.0000000  0.0000000 )
                  (  0.0000000  1.0000000  0.0000000 )
                  (  0.0000000  0.0000000 -1.0000000 )


      isym =  4     180 deg rotation - cart. axis [1,0,0]        

 cryst.   s( 4) = (    -1          0          0      )
                  (    -1          0          1      )
                  (    -1          1          0      )

 cart.    s( 4) = (  1.0000000  0.0000000  0.0000000 )
                  (  0.0000000 -1.0000000  0.0000000 )
                  (  0.0000000  0.0000000 -1.0000000 )


      isym =  5     120 deg rotation - cart. axis [-1,-1,-1]     

 cryst.   s( 5) = (     0          0          1      )
                  (     1          0          0      )
                  (     0          1          0      )

 cart.    s( 5) = (  0.0000000  1.0000000  0.0000000 )
                  (  0.0000000  0.0000000  1.0000000 )
                  (  1.0000000  0.0000000  0.0000000 )


      isym =  6     120 deg rotation - cart. axis [-1,1,1]       

 cryst.   s( 6) = (     1         -1          0      )
                  (     0         -1          1      )
                  (     0         -1          0      )

 cart.    s( 6) = (  0.0000000 -1.0000000  0.0000000 )
                  (  0.0000000  0.0000000  1.0000000 )
                  ( -1.0000000  0.0000000  0.0000000 )


      isym =  7     120 deg rotation - cart. axis [1,1,-1]       

 cryst.   s( 7) = (    -1          1          0      )
                  (    -1          0          0      )
                  (    -1          0          1      )

 cart.    s( 7) = (  0.0000000  1.0000000  0.0000000 )
                  (  0.0000000  0.0000000 -1.0000000 )
                  ( -1.0000000  0.0000000  0.0000000 )


      isym =  8     120 deg rotation - cart. axis [1,-1,1]       

 cryst.   s( 8) = (     0          0         -1      )
                  (     0          1         -1      )
                  (     1          0         -1      )

 cart.    s( 8) = (  0.0000000 -1.0000000  0.0000000 )
                  (  0.0000000  0.0000000 -1.0000000 )
                  (  1.0000000  0.0000000  0.0000000 )


      isym =  9     120 deg rotation - cart. axis [1,1,1]        

 cryst.   s( 9) = (     0          1          0      )
                  (     0          0          1      )
                  (     1          0          0      )

 cart.    s( 9) = (  0.0000000  0.0000000  1.0000000 )
                  (  1.0000000  0.0000000  0.0000000 )
                  (  0.0000000  1.0000000  0.0000000 )


      isym = 10     120 deg rotation - cart. axis [-1,1,-1]      

 cryst.   s(10) = (    -1          0          1      )
                  (    -1          1          0      )
                  (    -1          0          0      )

 cart.    s(10) = (  0.0000000  0.0000000  1.0000000 )
                  ( -1.0000000  0.0000000  0.0000000 )
                  (  0.0000000 -1.0000000  0.0000000 )


      isym = 11     120 deg rotation - cart. axis [1,-1,-1]      

 cryst.   s(11) = (     1          0         -1      )
                  (     0          0         -1      )
                  (     0          1         -1      )

 cart.    s(11) = (  0.0000000  0.0000000 -1.0000000 )
                  ( -1.0000000  0.0000000  0.0000000 )
                  (  0.0000000  1.0000000  0.0000000 )


      isym = 12     120 deg rotation - cart. axis [-1,-1,1]      

 cryst.   s(12) = (     0         -1          0      )
                  (     1         -1          0      )
                  (     0         -1          1      )

 cart.    s(12) = (  0.0000000  0.0000000 -1.0000000 )
                  (  1.0000000  0.0000000  0.0000000 )
                  (  0.0000000 -1.0000000  0.0000000 )


      isym = 13     inv. 180 deg rotation - cart. axis [1,1,0]   

 cryst.   s(13) = (     1          0         -1      )
                  (     0          1         -1      )
                  (     0          0         -1      )

 cart.    s(13) = (  0.0000000 -1.0000000  0.0000000 )
                  ( -1.0000000  0.0000000  0.0000000 )
                  (  0.0000000  0.0000000  1.0000000 )


      isym = 14     inv. 180 deg rotation - cart. axis [1,-1,0]  

 cryst.   s(14) = (     0          1          0      )
                  (     1          0          0      )
                  (     0          0          1      )

 cart.    s(14) = (  0.0000000  1.0000000  0.0000000 )
                  (  1.0000000  0.0000000  0.0000000 )
                  (  0.0000000  0.0000000  1.0000000 )


      isym = 15     inv.  90 deg rotation - cart. axis [0,0,-1]  

 cryst.   s(15) = (     0         -1          0      )
                  (     0         -1          1      )
                  (     1         -1          0      )

 cart.    s(15) = (  0.0000000 -1.0000000  0.0000000 )
                  (  1.0000000  0.0000000  0.0000000 )
                  (  0.0000000  0.0000000 -1.0000000 )


      isym = 16     inv.  90 deg rotation - cart. axis [0,0,1]   

 cryst.   s(16) = (    -1          0          1      )
                  (    -1          0          0      )
                  (    -1          1          0      )

 cart.    s(16) = (  0.0000000  1.0000000  0.0000000 )
                  ( -1.0000000  0.0000000  0.0000000 )
                  (  0.0000000  0.0000000 -1.0000000 )


      isym = 17     inv. 180 deg rotation - cart. axis [1,0,1]   

 cryst.   s(17) = (     1         -1          0      )
                  (     0         -1          0      )
                  (     0         -1          1      )

 cart.    s(17) = (  0.0000000  0.0000000 -1.0000000 )
                  (  0.0000000  1.0000000  0.0000000 )
                  ( -1.0000000  0.0000000  0.0000000 )


      isym = 18     inv. 180 deg rotation - cart. axis [-1,0,1]  

 cryst.   s(18) = (     0          0          1      )
                  (     0          1          0      )
                  (     1          0          0      )

 cart.    s(18) = (  0.0000000  0.0000000  1.0000000 )
                  (  0.0000000  1.0000000  0.0000000 )
                  (  1.0000000  0.0000000  0.0000000 )


      isym = 19     inv.  90 deg rotation - cart. axis [0,1,0]   

 cryst.   s(19) = (     0          0         -1      )
                  (     1          0         -1      )
                  (     0          1         -1      )

 cart.    s(19) = (  0.0000000  0.0000000 -1.0000000 )
                  (  0.0000000 -1.0000000  0.0000000 )
                  (  1.0000000  0.0000000  0.0000000 )


      isym = 20     inv.  90 deg rotation - cart. axis [0,-1,0]  

 cryst.   s(20) = (    -1          1          0      )
                  (    -1          0          1      )
                  (    -1          0          0      )

 cart.    s(20) = (  0.0000000  0.0000000  1.0000000 )
                  (  0.0000000 -1.0000000  0.0000000 )
                  ( -1.0000000  0.0000000  0.0000000 )


      isym = 21     inv. 180 deg rotation - cart. axis [0,1,1]   

 cryst.   s(21) = (    -1          0          0      )
                  (    -1          1          0      )
                  (    -1          0          1      )

 cart.    s(21) = (  1.0000000  0.0000000  0.0000000 )
                  (  0.0000000  0.0000000 -1.0000000 )
                  (  0.0000000 -1.0000000  0.0000000 )


      isym = 22     inv. 180 deg rotation - cart. axis [0,1,-1]  

 cryst.   s(22) = (     1          0          0      )
                  (     0          0          1      )
                  (     0          1          0      )

 cart.    s(22) = (  1.0000000  0.0000000  0.0000000 )
                  (  0.0000000  0.0000000  1.0000000 )
                  (  0.0000000  1.0000000  0.0000000 )


      isym = 23     inv.  90 deg rotation - cart. axis [-1,0,0]  

 cryst.   s(23) = (     0          1         -1      )
                  (     0          0         -1      )
                  (     1          0         -1      )

 cart.    s(23) = ( -1.0000000  0.0000000  0.0000000 )
                  (  0.0000000  0.0000000 -1.0000000 )
                  (  0.0000000  1.0000000  0.0000000 )


      isym = 24     inv.  90 deg rotation - cart. axis [1,0,0]   

 cryst.   s(24) = (     0         -1          1      )
                  (     1         -1          0      )
                  (     0         -1          0      )

 cart.    s(24) = ( -1.0000000  0.0000000  0.0000000 )
                  (  0.0000000  0.0000000  1.0000000 )
                  (  0.0000000 -1.0000000  0.0000000 )


   Cartesian axes

     site n.     atom                  positions (alat units)
         1           Sn  tau(   1) = (   0.0000000   0.0000000   0.0000000  )
         2           Sn  tau(   2) = (   0.3535534   0.3535534   0.3535534  )

   Crystallographic axes

     site n.     atom                  positions (cryst. coord.)
         1           Sn  tau(   1) = (  0.0000000  0.0000000  0.0000000  )
         2           Sn  tau(   2) = (  0.2500000  0.2500000  0.2500000  )

     number of k points=   145  gaussian smearing, width (Ry)=  0.0001
                       cart. coord. in units 2pi/alat
        k(    1) = (   0.0000000   0.0000000   0.0000000), wk =   0.0002441
        k(    2) = (   0.0441942   0.0441942  -0.0441942), wk =   0.0019531
        k(    3) = (   0.0883883   0.0883883  -0.0883883), wk =   0.0019531
        k(    4) = (   0.1325825   0.1325825  -0.1325825), wk =   0.0019531
        k(    5) = (   0.1767767   0.1767767  -0.1767767), wk =   0.0019531
        k(    6) = (   0.2209709   0.2209709  -0.2209709), wk =   0.0019531
        k(    7) = (   0.2651650   0.2651650  -0.2651650), wk =   0.0019531
        k(    8) = (   0.3093592   0.3093592  -0.3093592), wk =   0.0019531
        k(    9) = (  -0.3535534  -0.3535534   0.3535534), wk =   0.0009766
        k(   10) = (   0.0883883   0.0000000   0.0000000), wk =   0.0014648
        k(   11) = (   0.1325825   0.0441942  -0.0441942), wk =   0.0058594
        k(   12) = (   0.1767767   0.0883883  -0.0883883), wk =   0.0058594
        k(   13) = (   0.2209709   0.1325825  -0.1325825), wk =   0.0058594
        k(   14) = (   0.2651650   0.1767767  -0.1767767), wk =   0.0058594
        k(   15) = (   0.3093592   0.2209709  -0.2209709), wk =   0.0058594
        k(   16) = (   0.3535534   0.2651650  -0.2651650), wk =   0.0058594
        k(   17) = (  -0.3093592  -0.3977476   0.3977476), wk =   0.0058594
        k(   18) = (  -0.2651650  -0.3535534   0.3535534), wk =   0.0058594
        k(   19) = (  -0.2209709  -0.3093592   0.3093592), wk =   0.0058594
        k(   20) = (  -0.1767767  -0.2651650   0.2651650), wk =   0.0058594
        k(   21) = (  -0.1325825  -0.2209709   0.2209709), wk =   0.0058594
        k(   22) = (  -0.0883883  -0.1767767   0.1767767), wk =   0.0058594
        k(   23) = (  -0.0441942  -0.1325825   0.1325825), wk =   0.0058594
        k(   24) = (   0.0000000  -0.0883883   0.0883883), wk =   0.0029297
        k(   25) = (   0.1767767   0.0000000   0.0000000), wk =   0.0014648
        k(   26) = (   0.2209709   0.0441942  -0.0441942), wk =   0.0058594
        k(   27) = (   0.2651650   0.0883883  -0.0883883), wk =   0.0058594
        k(   28) = (   0.3093592   0.1325825  -0.1325825), wk =   0.0058594
        k(   29) = (   0.3535534   0.1767767  -0.1767767), wk =   0.0058594
        k(   30) = (   0.3977476   0.2209709  -0.2209709), wk =   0.0058594
        k(   31) = (  -0.2651650  -0.4419417   0.4419417), wk =   0.0058594
        k(   32) = (  -0.2209709  -0.3977476   0.3977476), wk =   0.0058594
        k(   33) = (  -0.1767767  -0.3535534   0.3535534), wk =   0.0058594
        k(   34) = (  -0.1325825  -0.3093592   0.3093592), wk =   0.0058594
        k(   35) = (  -0.0883883  -0.2651650   0.2651650), wk =   0.0058594
        k(   36) = (  -0.0441942  -0.2209709   0.2209709), wk =   0.0058594
        k(   37) = (   0.0000000  -0.1767767   0.1767767), wk =   0.0029297
        k(   38) = (   0.2651650   0.0000000   0.0000000), wk =   0.0014648
        k(   39) = (   0.3093592   0.0441942  -0.0441942), wk =   0.0058594
        k(   40) = (   0.3535534   0.0883883  -0.0883883), wk =   0.0058594
        k(   41) = (   0.3977476   0.1325825  -0.1325825), wk =   0.0058594
        k(   42) = (   0.4419417   0.1767767  -0.1767767), wk =   0.0058594
        k(   43) = (  -0.2209709  -0.4861359   0.4861359), wk =   0.0058594
        k(   44) = (  -0.1767767  -0.4419417   0.4419417), wk =   0.0058594
        k(   45) = (  -0.1325825  -0.3977476   0.3977476), wk =   0.0058594
        k(   46) = (  -0.0883883  -0.3535534   0.3535534), wk =   0.0058594
        k(   47) = (  -0.0441942  -0.3093592   0.3093592), wk =   0.0058594
        k(   48) = (   0.0000000  -0.2651650   0.2651650), wk =   0.0029297
        k(   49) = (   0.3535534   0.0000000   0.0000000), wk =   0.0014648
        k(   50) = (   0.3977476   0.0441942  -0.0441942), wk =   0.0058594
        k(   51) = (   0.4419417   0.0883883  -0.0883883), wk =   0.0058594
        k(   52) = (   0.4861359   0.1325825  -0.1325825), wk =   0.0058594
        k(   53) = (  -0.1767767  -0.5303301   0.5303301), wk =   0.0058594
        k(   54) = (  -0.1325825  -0.4861359   0.4861359), wk =   0.0058594
        k(   55) = (  -0.0883883  -0.4419417   0.4419417), wk =   0.0058594
        k(   56) = (  -0.0441942  -0.3977476   0.3977476), wk =   0.0058594
        k(   57) = (   0.0000000  -0.3535534   0.3535534), wk =   0.0029297
        k(   58) = (   0.4419417   0.0000000   0.0000000), wk =   0.0014648
        k(   59) = (   0.4861359   0.0441942  -0.0441942), wk =   0.0058594
        k(   60) = (   0.5303301   0.0883883  -0.0883883), wk =   0.0058594
        k(   61) = (  -0.1325825  -0.5745243   0.5745243), wk =   0.0058594
        k(   62) = (  -0.0883883  -0.5303301   0.5303301), wk =   0.0058594
        k(   63) = (  -0.0441942  -0.4861359   0.4861359), wk =   0.0058594
        k(   64) = (   0.0000000  -0.4419417   0.4419417), wk =   0.0029297
        k(   65) = (   0.5303301   0.0000000   0.0000000), wk =   0.0014648
        k(   66) = (   0.5745243   0.0441942  -0.0441942), wk =   0.0058594
        k(   67) = (  -0.0883883  -0.6187184   0.6187184), wk =   0.0058594
        k(   68) = (  -0.0441942  -0.5745243   0.5745243), wk =   0.0058594
        k(   69) = (   0.0000000  -0.5303301   0.5303301), wk =   0.0029297
        k(   70) = (   0.6187184   0.0000000   0.0000000), wk =   0.0014648
        k(   71) = (  -0.0441942  -0.6629126   0.6629126), wk =   0.0058594
        k(   72) = (   0.0000000  -0.6187184   0.6187184), wk =   0.0029297
        k(   73) = (  -0.7071068   0.0000000   0.0000000), wk =   0.0007324
        k(   74) = (   0.1767767   0.0883883   0.0000000), wk =   0.0058594
        k(   75) = (   0.2209709   0.1325825  -0.0441942), wk =   0.0117188
        k(   76) = (   0.2651650   0.1767767  -0.0883883), wk =   0.0117188
        k(   77) = (   0.3093592   0.2209709  -0.1325825), wk =   0.0117188
        k(   78) = (   0.3535534   0.2651650  -0.1767767), wk =   0.0117188
        k(   79) = (  -0.3093592  -0.3977476   0.4861359), wk =   0.0117188
        k(   80) = (  -0.2651650  -0.3535534   0.4419417), wk =   0.0058594
        k(   81) = (   0.2651650   0.0883883   0.0000000), wk =   0.0058594
        k(   82) = (   0.3093592   0.1325825  -0.0441942), wk =   0.0117188
        k(   83) = (   0.3535534   0.1767767  -0.0883883), wk =   0.0117188
        k(   84) = (   0.3977476   0.2209709  -0.1325825), wk =   0.0117188
        k(   85) = (  -0.2651650  -0.4419417   0.5303301), wk =   0.0117188
        k(   86) = (  -0.2209709  -0.3977476   0.4861359), wk =   0.0117188
        k(   87) = (  -0.1767767  -0.3535534   0.4419417), wk =   0.0117188
        k(   88) = (  -0.1325825  -0.3093592   0.3977476), wk =   0.0117188
        k(   89) = (  -0.0883883  -0.2651650   0.3535534), wk =   0.0117188
        k(   90) = (  -0.0441942  -0.2209709   0.3093592), wk =   0.0117188
        k(   91) = (   0.0000000  -0.1767767   0.2651650), wk =   0.0058594
        k(   92) = (   0.3535534   0.0883883   0.0000000), wk =   0.0058594
        k(   93) = (   0.3977476   0.1325825  -0.0441942), wk =   0.0117188
        k(   94) = (   0.4419417   0.1767767  -0.0883883), wk =   0.0117188
        k(   95) = (  -0.2209709  -0.4861359   0.5745243), wk =   0.0117188
        k(   96) = (  -0.1767767  -0.4419417   0.5303301), wk =   0.0117188
        k(   97) = (  -0.1325825  -0.3977476   0.4861359), wk =   0.0117188
        k(   98) = (  -0.0883883  -0.3535534   0.4419417), wk =   0.0117188
        k(   99) = (  -0.0441942  -0.3093592   0.3977476), wk =   0.0117188
        k(  100) = (   0.0000000  -0.2651650   0.3535534), wk =   0.0058594
        k(  101) = (   0.4419417   0.0883883   0.0000000), wk =   0.0058594
        k(  102) = (   0.4861359   0.1325825  -0.0441942), wk =   0.0117188
        k(  103) = (  -0.1767767  -0.5303301   0.6187184), wk =   0.0117188
        k(  104) = (  -0.1325825  -0.4861359   0.5745243), wk =   0.0117188
        k(  105) = (  -0.0883883  -0.4419417   0.5303301), wk =   0.0117188
        k(  106) = (  -0.0441942  -0.3977476   0.4861359), wk =   0.0117188
        k(  107) = (   0.0000000  -0.3535534   0.4419417), wk =   0.0058594
        k(  108) = (   0.5303301   0.0883883   0.0000000), wk =   0.0058594
        k(  109) = (  -0.1325825  -0.5745243   0.6629126), wk =   0.0117188
        k(  110) = (  -0.0883883  -0.5303301   0.6187184), wk =   0.0117188
        k(  111) = (  -0.0441942  -0.4861359   0.5745243), wk =   0.0117188
        k(  112) = (   0.0000000  -0.4419417   0.5303301), wk =   0.0058594
        k(  113) = (  -0.0883883  -0.6187184   0.7071068), wk =   0.0058594
        k(  114) = (  -0.0441942  -0.5745243   0.6629126), wk =   0.0117188
        k(  115) = (  -0.0000000  -0.5303301   0.6187184), wk =   0.0058594
        k(  116) = (  -0.7071068   0.0883883   0.0000000), wk =   0.0029297
        k(  117) = (   0.3535534   0.1767767   0.0000000), wk =   0.0058594
        k(  118) = (   0.3977476   0.2209709  -0.0441942), wk =   0.0117188
        k(  119) = (  -0.2651650  -0.4419417   0.6187184), wk =   0.0117188
        k(  120) = (  -0.2209709  -0.3977476   0.5745243), wk =   0.0117188
        k(  121) = (  -0.1767767  -0.3535534   0.5303301), wk =   0.0058594
        k(  122) = (   0.4419417   0.1767767   0.0000000), wk =   0.0058594
        k(  123) = (  -0.2209709  -0.4861359   0.6629126), wk =   0.0117188
        k(  124) = (  -0.1767767  -0.4419417   0.6187184), wk =   0.0117188
        k(  125) = (  -0.1325825  -0.3977476   0.5745243), wk =   0.0117188
        k(  126) = (  -0.0883883  -0.3535534   0.5303301), wk =   0.0117188
        k(  127) = (  -0.0441942  -0.3093592   0.4861359), wk =   0.0117188
        k(  128) = (   0.0000000  -0.2651650   0.4419417), wk =   0.0058594
        k(  129) = (  -0.1767767  -0.5303301   0.7071068), wk =   0.0058594
        k(  130) = (  -0.1325825  -0.4861359   0.6629126), wk =   0.0117188
        k(  131) = (  -0.0883883  -0.4419417   0.6187184), wk =   0.0117188
        k(  132) = (  -0.0441942  -0.3977476   0.5745243), wk =   0.0117188
        k(  133) = (   0.0000000  -0.3535534   0.5303301), wk =   0.0058594
        k(  134) = (  -0.0883883  -0.5303301   0.7071068), wk =   0.0058594
        k(  135) = (  -0.0441942  -0.4861359   0.6629126), wk =   0.0117188
        k(  136) = (   0.0000000  -0.4419417   0.6187184), wk =   0.0058594
        k(  137) = (  -0.7071068   0.1767767   0.0000000), wk =   0.0029297
        k(  138) = (  -0.1767767  -0.4419417   0.7071068), wk =   0.0058594
        k(  139) = (  -0.1325825  -0.3977476   0.6629126), wk =   0.0117188
        k(  140) = (  -0.0883883  -0.3535534   0.6187184), wk =   0.0058594
        k(  141) = (  -0.0883883  -0.4419417   0.7071068), wk =   0.0058594
        k(  142) = (  -0.0441942  -0.3977476   0.6629126), wk =   0.0117188
        k(  143) = (  -0.0000000  -0.3535534   0.6187184), wk =   0.0058594
        k(  144) = (  -0.7071068   0.2651650   0.0000000), wk =   0.0029297
        k(  145) = (  -0.7071068   0.3535534   0.0000000), wk =   0.0014648

                       cryst. coord.
        k(    1) = (   0.0000000   0.0000000   0.0000000), wk =   0.0002441
        k(    2) = (   0.0000000   0.0000000   0.0625000), wk =   0.0019531
        k(    3) = (   0.0000000   0.0000000   0.1250000), wk =   0.0019531
        k(    4) = (   0.0000000   0.0000000   0.1875000), wk =   0.0019531
        k(    5) = (   0.0000000   0.0000000   0.2500000), wk =   0.0019531
        k(    6) = (   0.0000000   0.0000000   0.3125000), wk =   0.0019531
        k(    7) = (   0.0000000   0.0000000   0.3750000), wk =   0.0019531
        k(    8) = (   0.0000000   0.0000000   0.4375000), wk =   0.0019531
        k(    9) = (   0.0000000   0.0000000  -0.5000000), wk =   0.0009766
        k(   10) = (   0.0000000   0.0625000   0.0625000), wk =   0.0014648
        k(   11) = (   0.0000000   0.0625000   0.1250000), wk =   0.0058594
        k(   12) = (   0.0000000   0.0625000   0.1875000), wk =   0.0058594
        k(   13) = (   0.0000000   0.0625000   0.2500000), wk =   0.0058594
        k(   14) = (   0.0000000   0.0625000   0.3125000), wk =   0.0058594
        k(   15) = (   0.0000000   0.0625000   0.3750000), wk =   0.0058594
        k(   16) = (   0.0000000   0.0625000   0.4375000), wk =   0.0058594
        k(   17) = (   0.0000000   0.0625000  -0.5000000), wk =   0.0058594
        k(   18) = (   0.0000000   0.0625000  -0.4375000), wk =   0.0058594
        k(   19) = (   0.0000000   0.0625000  -0.3750000), wk =   0.0058594
        k(   20) = (   0.0000000   0.0625000  -0.3125000), wk =   0.0058594
        k(   21) = (   0.0000000   0.0625000  -0.2500000), wk =   0.0058594
        k(   22) = (   0.0000000   0.0625000  -0.1875000), wk =   0.0058594
        k(   23) = (   0.0000000   0.0625000  -0.1250000), wk =   0.0058594
        k(   24) = (   0.0000000   0.0625000  -0.0625000), wk =   0.0029297
        k(   25) = (   0.0000000   0.1250000   0.1250000), wk =   0.0014648
        k(   26) = (   0.0000000   0.1250000   0.1875000), wk =   0.0058594
        k(   27) = (   0.0000000   0.1250000   0.2500000), wk =   0.0058594
        k(   28) = (   0.0000000   0.1250000   0.3125000), wk =   0.0058594
        k(   29) = (   0.0000000   0.1250000   0.3750000), wk =   0.0058594
        k(   30) = (   0.0000000   0.1250000   0.4375000), wk =   0.0058594
        k(   31) = (   0.0000000   0.1250000  -0.5000000), wk =   0.0058594
        k(   32) = (   0.0000000   0.1250000  -0.4375000), wk =   0.0058594
        k(   33) = (   0.0000000   0.1250000  -0.3750000), wk =   0.0058594
        k(   34) = (   0.0000000   0.1250000  -0.3125000), wk =   0.0058594
        k(   35) = (   0.0000000   0.1250000  -0.2500000), wk =   0.0058594
        k(   36) = (   0.0000000   0.1250000  -0.1875000), wk =   0.0058594
        k(   37) = (   0.0000000   0.1250000  -0.1250000), wk =   0.0029297
        k(   38) = (   0.0000000   0.1875000   0.1875000), wk =   0.0014648
        k(   39) = (   0.0000000   0.1875000   0.2500000), wk =   0.0058594
        k(   40) = (   0.0000000   0.1875000   0.3125000), wk =   0.0058594
        k(   41) = (   0.0000000   0.1875000   0.3750000), wk =   0.0058594
        k(   42) = (   0.0000000   0.1875000   0.4375000), wk =   0.0058594
        k(   43) = (   0.0000000   0.1875000  -0.5000000), wk =   0.0058594
        k(   44) = (   0.0000000   0.1875000  -0.4375000), wk =   0.0058594
        k(   45) = (   0.0000000   0.1875000  -0.3750000), wk =   0.0058594
        k(   46) = (   0.0000000   0.1875000  -0.3125000), wk =   0.0058594
        k(   47) = (   0.0000000   0.1875000  -0.2500000), wk =   0.0058594
        k(   48) = (   0.0000000   0.1875000  -0.1875000), wk =   0.0029297
        k(   49) = (   0.0000000   0.2500000   0.2500000), wk =   0.0014648
        k(   50) = (   0.0000000   0.2500000   0.3125000), wk =   0.0058594
        k(   51) = (   0.0000000   0.2500000   0.3750000), wk =   0.0058594
        k(   52) = (   0.0000000   0.2500000   0.4375000), wk =   0.0058594
        k(   53) = (   0.0000000   0.2500000  -0.5000000), wk =   0.0058594
        k(   54) = (   0.0000000   0.2500000  -0.4375000), wk =   0.0058594
        k(   55) = (   0.0000000   0.2500000  -0.3750000), wk =   0.0058594
        k(   56) = (   0.0000000   0.2500000  -0.3125000), wk =   0.0058594
        k(   57) = (   0.0000000   0.2500000  -0.2500000), wk =   0.0029297
        k(   58) = (   0.0000000   0.3125000   0.3125000), wk =   0.0014648
        k(   59) = (   0.0000000   0.3125000   0.3750000), wk =   0.0058594
        k(   60) = (   0.0000000   0.3125000   0.4375000), wk =   0.0058594
        k(   61) = (   0.0000000   0.3125000  -0.5000000), wk =   0.0058594
        k(   62) = (   0.0000000   0.3125000  -0.4375000), wk =   0.0058594
        k(   63) = (   0.0000000   0.3125000  -0.3750000), wk =   0.0058594
        k(   64) = (   0.0000000   0.3125000  -0.3125000), wk =   0.0029297
        k(   65) = (   0.0000000   0.3750000   0.3750000), wk =   0.0014648
        k(   66) = (   0.0000000   0.3750000   0.4375000), wk =   0.0058594
        k(   67) = (   0.0000000   0.3750000  -0.5000000), wk =   0.0058594
        k(   68) = (   0.0000000   0.3750000  -0.4375000), wk =   0.0058594
        k(   69) = (   0.0000000   0.3750000  -0.3750000), wk =   0.0029297
        k(   70) = (   0.0000000   0.4375000   0.4375000), wk =   0.0014648
        k(   71) = (   0.0000000   0.4375000  -0.5000000), wk =   0.0058594
        k(   72) = (   0.0000000   0.4375000  -0.4375000), wk =   0.0029297
        k(   73) = (   0.0000000  -0.5000000  -0.5000000), wk =   0.0007324
        k(   74) = (   0.0625000   0.1250000   0.1875000), wk =   0.0058594
        k(   75) = (   0.0625000   0.1250000   0.2500000), wk =   0.0117188
        k(   76) = (   0.0625000   0.1250000   0.3125000), wk =   0.0117188
        k(   77) = (   0.0625000   0.1250000   0.3750000), wk =   0.0117188
        k(   78) = (   0.0625000   0.1250000   0.4375000), wk =   0.0117188
        k(   79) = (   0.0625000   0.1250000  -0.5000000), wk =   0.0117188
        k(   80) = (   0.0625000   0.1250000  -0.4375000), wk =   0.0058594
        k(   81) = (   0.0625000   0.1875000   0.2500000), wk =   0.0058594
        k(   82) = (   0.0625000   0.1875000   0.3125000), wk =   0.0117188
        k(   83) = (   0.0625000   0.1875000   0.3750000), wk =   0.0117188
        k(   84) = (   0.0625000   0.1875000   0.4375000), wk =   0.0117188
        k(   85) = (   0.0625000   0.1875000  -0.5000000), wk =   0.0117188
        k(   86) = (   0.0625000   0.1875000  -0.4375000), wk =   0.0117188
        k(   87) = (   0.0625000   0.1875000  -0.3750000), wk =   0.0117188
        k(   88) = (   0.0625000   0.1875000  -0.3125000), wk =   0.0117188
        k(   89) = (   0.0625000   0.1875000  -0.2500000), wk =   0.0117188
        k(   90) = (   0.0625000   0.1875000  -0.1875000), wk =   0.0117188
        k(   91) = (   0.0625000   0.1875000  -0.1250000), wk =   0.0058594
        k(   92) = (   0.0625000   0.2500000   0.3125000), wk =   0.0058594
        k(   93) = (   0.0625000   0.2500000   0.3750000), wk =   0.0117188
        k(   94) = (   0.0625000   0.2500000   0.4375000), wk =   0.0117188
        k(   95) = (   0.0625000   0.2500000  -0.5000000), wk =   0.0117188
        k(   96) = (   0.0625000   0.2500000  -0.4375000), wk =   0.0117188
        k(   97) = (   0.0625000   0.2500000  -0.3750000), wk =   0.0117188
        k(   98) = (   0.0625000   0.2500000  -0.3125000), wk =   0.0117188
        k(   99) = (   0.0625000   0.2500000  -0.2500000), wk =   0.0117188
        k(  100) = (   0.0625000   0.2500000  -0.1875000), wk =   0.0058594
        k(  101) = (   0.0625000   0.3125000   0.3750000), wk =   0.0058594
        k(  102) = (   0.0625000   0.3125000   0.4375000), wk =   0.0117188
        k(  103) = (   0.0625000   0.3125000  -0.5000000), wk =   0.0117188
        k(  104) = (   0.0625000   0.3125000  -0.4375000), wk =   0.0117188
        k(  105) = (   0.0625000   0.3125000  -0.3750000), wk =   0.0117188
        k(  106) = (   0.0625000   0.3125000  -0.3125000), wk =   0.0117188
        k(  107) = (   0.0625000   0.3125000  -0.2500000), wk =   0.0058594
        k(  108) = (   0.0625000   0.3750000   0.4375000), wk =   0.0058594
        k(  109) = (   0.0625000   0.3750000  -0.5000000), wk =   0.0117188
        k(  110) = (   0.0625000   0.3750000  -0.4375000), wk =   0.0117188
        k(  111) = (   0.0625000   0.3750000  -0.3750000), wk =   0.0117188
        k(  112) = (   0.0625000   0.3750000  -0.3125000), wk =   0.0058594
        k(  113) = (   0.0625000   0.4375000  -0.5000000), wk =   0.0058594
        k(  114) = (   0.0625000   0.4375000  -0.4375000), wk =   0.0117188
        k(  115) = (   0.0625000   0.4375000  -0.3750000), wk =   0.0058594
        k(  116) = (   0.0625000  -0.5000000  -0.4375000), wk =   0.0029297
        k(  117) = (   0.1250000   0.2500000   0.3750000), wk =   0.0058594
        k(  118) = (   0.1250000   0.2500000   0.4375000), wk =   0.0117188
        k(  119) = (   0.1250000   0.2500000  -0.5000000), wk =   0.0117188
        k(  120) = (   0.1250000   0.2500000  -0.4375000), wk =   0.0117188
        k(  121) = (   0.1250000   0.2500000  -0.3750000), wk =   0.0058594
        k(  122) = (   0.1250000   0.3125000   0.4375000), wk =   0.0058594
        k(  123) = (   0.1250000   0.3125000  -0.5000000), wk =   0.0117188
        k(  124) = (   0.1250000   0.3125000  -0.4375000), wk =   0.0117188
        k(  125) = (   0.1250000   0.3125000  -0.3750000), wk =   0.0117188
        k(  126) = (   0.1250000   0.3125000  -0.3125000), wk =   0.0117188
        k(  127) = (   0.1250000   0.3125000  -0.2500000), wk =   0.0117188
        k(  128) = (   0.1250000   0.3125000  -0.1875000), wk =   0.0058594
        k(  129) = (   0.1250000   0.3750000  -0.5000000), wk =   0.0058594
        k(  130) = (   0.1250000   0.3750000  -0.4375000), wk =   0.0117188
        k(  131) = (   0.1250000   0.3750000  -0.3750000), wk =   0.0117188
        k(  132) = (   0.1250000   0.3750000  -0.3125000), wk =   0.0117188
        k(  133) = (   0.1250000   0.3750000  -0.2500000), wk =   0.0058594
        k(  134) = (   0.1250000   0.4375000  -0.4375000), wk =   0.0058594
        k(  135) = (   0.1250000   0.4375000  -0.3750000), wk =   0.0117188
        k(  136) = (   0.1250000   0.4375000  -0.3125000), wk =   0.0058594
        k(  137) = (   0.1250000  -0.5000000  -0.3750000), wk =   0.0029297
        k(  138) = (   0.1875000   0.3750000  -0.4375000), wk =   0.0058594
        k(  139) = (   0.1875000   0.3750000  -0.3750000), wk =   0.0117188
        k(  140) = (   0.1875000   0.3750000  -0.3125000), wk =   0.0058594
        k(  141) = (   0.1875000   0.4375000  -0.3750000), wk =   0.0058594
        k(  142) = (   0.1875000   0.4375000  -0.3125000), wk =   0.0117188
        k(  143) = (   0.1875000   0.4375000  -0.2500000), wk =   0.0058594
        k(  144) = (   0.1875000  -0.5000000  -0.3125000), wk =   0.0029297
        k(  145) = (   0.2500000  -0.5000000  -0.2500000), wk =   0.0014648

     Dense  grid:    44735 G-vectors     FFT dimensions: (  50,  50,  50)

     Largest allocated arrays     est. size (Mb)     dimensions
        Kohn-Sham Wavefunctions         0.39 Mb     (     712,   36)
        NL pseudopotentials             0.37 Mb     (     356,   68)
        Each V/rho on FFT grid          0.15 Mb     (   10000)
        Each G-vector array             0.02 Mb     (    2796)
        G-vector shells                 0.00 Mb     (     378)
     Largest temporary arrays     est. size (Mb)     dimensions
        Auxiliary wavefunctions         1.56 Mb     (     712,  144)
        Each subspace H/S matrix        0.32 Mb     (     144,  144)
        Each <psi_i|beta_j> matrix      0.07 Mb     (      68,   2,   36)
        Arrays for rho mixing           1.22 Mb     (   10000,    8)

     Check: negative/imaginary core charge=   -0.000001    0.000000

     Initial potential from superposition of free atoms

     starting charge   27.99781, renormalised to   28.00000
     Starting wfc are   36 randomized atomic wfcs
     Checking if some PAW data can be deallocated... 

     total cpu time spent up to now is       12.0 secs

     Self-consistent Calculation

     iteration #  1     ecut=    76.00 Ry     beta=0.70
     Davidson diagonalization with overlap
     ethr =  1.00E-02,  avg # of iterations =  3.5

     Threshold (ethr) on eigenvalues was too large:
     Diagonalizing with lowered threshold

     Davidson diagonalization with overlap
     ethr =  5.70E-05,  avg # of iterations =  3.5

     total cpu time spent up to now is       88.8 secs

     total energy              =    -885.87907439 Ry
     Harris-Foulkes estimate   =    -885.88131422 Ry
     estimated scf accuracy    <       0.01889340 Ry

     iteration #  2     ecut=    76.00 Ry     beta=0.70
     Davidson diagonalization with overlap
     ethr =  6.75E-05,  avg # of iterations =  1.2

     total cpu time spent up to now is      118.5 secs

     total energy              =    -885.88003123 Ry
     Harris-Foulkes estimate   =    -885.88016136 Ry
     estimated scf accuracy    <       0.00177299 Ry

     iteration #  3     ecut=    76.00 Ry     beta=0.70
     Davidson diagonalization with overlap
     ethr =  6.33E-06,  avg # of iterations =  2.2

     total cpu time spent up to now is      158.3 secs

     total energy              =    -885.88033235 Ry
     Harris-Foulkes estimate   =    -885.88038972 Ry
     estimated scf accuracy    <       0.00010697 Ry

     iteration #  4     ecut=    76.00 Ry     beta=0.70
     Davidson diagonalization with overlap
     ethr =  3.82E-07,  avg # of iterations =  2.1

     total cpu time spent up to now is      197.5 secs

     total energy              =    -885.88036659 Ry
     Harris-Foulkes estimate   =    -885.88036827 Ry
     estimated scf accuracy    <       0.00000849 Ry

     iteration #  5     ecut=    76.00 Ry     beta=0.70
     Davidson diagonalization with overlap
     ethr =  3.03E-08,  avg # of iterations =  2.0

     total cpu time spent up to now is      231.5 secs

     total energy              =    -885.88036888 Ry
     Harris-Foulkes estimate   =    -885.88036873 Ry
     estimated scf accuracy    <       0.00000119 Ry

     iteration #  6     ecut=    76.00 Ry     beta=0.70
     Davidson diagonalization with overlap
     ethr =  4.24E-09,  avg # of iterations =  2.0

     total cpu time spent up to now is      267.3 secs

     End of self-consistent calculation

          k = 0.0000 0.0000 0.0000 (  5601 PWs)   bands (ev):

   -15.1512 -15.1512 -15.1512 -15.1512 -15.0716 -15.0716 -15.0716 -15.0716
   -14.2228 -14.2228 -14.0549 -14.0549 -14.0549 -14.0549 -14.0178 -14.0178
   -14.0178 -14.0178 -13.9144 -13.9144  -3.1745  -3.1745   5.7195   5.7195
     6.5479   6.5479   7.1950   7.1950   7.1950   7.1950   8.7302   8.7302
     9.1992   9.1992   9.1992   9.1992

     occupation numbers 
     1.0000   1.0000   1.0000   1.0000   1.0000   1.0000   1.0000   1.0000
     1.0000   1.0000   1.0000   1.0000   1.0000   1.0000   1.0000   1.0000
     1.0000   1.0000   1.0000   1.0000   1.0000   1.0000   1.0000   1.0000
     1.0000   1.0000   0.0000   0.0000   0.0000   0.0000   0.0000   0.0000
     0.0000   0.0000   0.0000   0.0000

          k = 0.0442 0.0442-0.0442 (  5637 PWs)   bands (ev):

   -15.1515 -15.1515 -15.1504 -15.1504 -15.0724 -15.0724 -15.0711 -15.0711
   -14.2210 -14.2210 -14.0599 -14.0599 -14.0580 -14.0580 -14.0145 -14.0145
   -14.0135 -14.0135 -13.9153 -13.9153  -3.1397  -3.1397   5.3109   5.3109
     6.5939   6.5939   7.1202   7.1202   7.2565   7.2565   8.8870   8.8870
     9.2818   9.2818   9.2961   9.2961

     occupation numbers 
     1.0000   1.0000   1.0000   1.0000   1.0000   1.0000   1.0000   1.0000
     1.0000   1.0000   1.0000   1.0000   1.0000   1.0000   1.0000   1.0000
     1.0000   1.0000   1.0000   1.0000   1.0000   1.0000   1.0000   1.0000
     1.0000   1.0000   0.0000   0.0000   0.0000   0.0000   0.0000   0.0000
     0.0000   0.0000   0.0000   0.0000

          k = 0.0884 0.0884-0.0884 (  5660 PWs)   bands (ev):

   -15.1526 -15.1526 -15.1481 -15.1481 -15.0746 -15.0746 -15.0697 -15.0697
   -14.2159 -14.2159 -14.0709 -14.0709 -14.0651 -14.0651 -14.0069 -14.0069
   -14.0045 -14.0045 -13.9181 -13.9181  -3.0363  -3.0363   4.5481   4.5481
     6.4871   6.4871   6.9384   6.9384   7.3041   7.3041   9.2133   9.2133
     9.5333   9.5333   9.6364   9.6364

     occupation numbers 
     1.0000   1.0000   1.0000   1.0000   1.0000   1.0000   1.0000   1.0000
     1.0000   1.0000   1.0000   1.0000   1.0000   1.0000   1.0000   1.0000
     1.0000   1.0000   1.0000   1.0000   1.0000   1.0000   1.0000   1.0000
     1.0000   1.0000   1.0000   1.0000   0.0000   0.0000   0.0000   0.0000
     0.0000   0.0000   0.0000   0.0000

          k = 0.1326 0.1326-0.1326 (  5636 PWs)   bands (ev):

   -15.1541 -15.1541 -15.1445 -15.1445 -15.0781 -15.0781 -15.0676 -15.0676
   -14.2079 -14.2079 -14.0839 -14.0839 -14.0731 -14.0730 -13.9981 -13.9981
   -13.9947 -13.9947 -13.9224 -13.9224  -2.8671  -2.8671   3.7203   3.7203
     6.2915   6.2915   6.7202   6.7202   7.2256   7.2256   9.4996   9.4996
     9.8076   9.8076  10.3043  10.3043

     occupation numbers 
     1.0000   1.0000   1.0000   1.0000   1.0000   1.0000   1.0000   1.0000
     1.0000   1.0000   1.0000   1.0000   1.0000   1.0000   1.0000   1.0000
     1.0000   1.0000   1.0000   1.0000   1.0000   1.0000   1.0000   1.0000
     1.0000   1.0000   1.0000   1.0000   0.0000   0.0000   0.0000   0.0000
     0.0000   0.0000   0.0000   0.0000

          k = 0.1768 0.1768-0.1768 (  5630 PWs)   bands (ev):

   -15.1557 -15.1557 -15.1397 -15.1397 -15.0827 -15.0827 -15.0653 -15.0653
   -14.1977 -14.1977 -14.0973 -14.0973 -14.0805 -14.0805 -13.9896 -13.9896
   -13.9853 -13.9853 -13.9280 -13.9280  -2.6385  -2.6385   2.9103   2.9103
     6.0914   6.0914   6.5113   6.5113   7.0869   7.0869   9.7316   9.7316
    10.0301  10.0301  11.1125  11.1125

     occupation numbers 
     1.0000   1.0000   1.0000   1.0000   1.0000   1.0000   1.0000   1.0000
     1.0000   1.0000   1.0000   1.0000   1.0000   1.0000   1.0000   1.0000
     1.0000   1.0000   1.0000   1.0000   1.0000   1.0000   1.0000   1.0000
     1.0000   1.0000   1.0000   1.0000   0.0000   0.0000   0.0000   0.0000
     0.0000   0.0000   0.0000   0.0000

          k = 0.2210 0.2210-0.2210 (  5600 PWs)   bands (ev):

   -15.1572 -15.1572 -15.1341 -15.1341 -15.0881 -15.0881 -15.0631 -15.0631
   -14.1860 -14.1860 -14.1104 -14.1104 -14.0867 -14.0867 -13.9824 -13.9824
   -13.9769 -13.9769 -13.9345 -13.9345  -2.3635  -2.3635   2.1634   2.1634
     5.9194   5.9194   6.3353   6.3353   6.9478   6.9478   9.8817   9.8817
    10.1560  10.1560  11.9736  11.9736

     occupation numbers 
     1.0000   1.0000   1.0000   1.0000   1.0000   1.0000   1.0000   1.0000
     1.0000   1.0000   1.0000   1.0000   1.0000   1.0000   1.0000   1.0000
     1.0000   1.0000   1.0000   1.0000   1.0000   1.0000   1.0000   1.0000
     1.0000   1.0000   1.0000   1.0000   0.1250   0.1250   0.0000   0.0000
     0.0000   0.0000   0.0000   0.0000

          k = 0.2652 0.2652-0.2652 (  5606 PWs)   bands (ev):

   -15.1584 -15.1584 -15.1281 -15.1281 -15.0939 -15.0939 -15.0614 -15.0614
   -14.1737 -14.1737 -14.1230 -14.1230 -14.0914 -14.0914 -13.9769 -13.9769
   -13.9692 -13.9692 -13.9413 -13.9413  -2.0702  -2.0702   1.5241   1.5241
     5.7901   5.7901   6.2039   6.2039   6.8371   6.8371   9.9520   9.9520
    10.1992  10.1992  12.6290  12.6290

     occupation numbers 
     1.0000   1.0000   1.0000   1.0000   1.0000   1.0000   1.0000   1.0000
     1.0000   1.0000   1.0000   1.0000   1.0000   1.0000   1.0000   1.0000
     1.0000   1.0000   1.0000   1.0000   1.0000   1.0000   1.0000   1.0000
     1.0000   1.0000   1.0000   1.0000   1.0000   1.0000   0.0000   0.0000
     0.0000   0.0000   0.0000   0.0000

          k = 0.3094 0.3094-0.3094 (  5600 PWs)   bands (ev):

   -15.1591 -15.1591 -15.1227 -15.1227 -15.0992 -15.0992 -15.0602 -15.0602
   -14.1617 -14.1617 -14.1348 -14.1348 -14.0943 -14.0943 -13.9734 -13.9734
   -13.9622 -13.9622 -13.9481 -13.9481  -1.8186  -1.8186   1.0618   1.0618
     5.7104   5.7104   6.1232   6.1232   6.7673   6.7673   9.9741   9.9741
    10.2024  10.2024  12.6529  12.6529

     occupation numbers 
     1.0000   1.0000   1.0000   1.0000   1.0000   1.0000   1.0000   1.0000
     1.0000   1.0000   1.0000   1.0000   1.0000   1.0000   1.0000   1.0000
     1.0000   1.0000   1.0000   1.0000   1.0000   1.0000   1.0000   1.0000
     1.0000   1.0000   1.0000   1.0000   1.0000   1.0000   0.0000   0.0000
     0.0000   0.0000   0.0000   0.0000

          k =-0.3536-0.3536 0.3536 (  5600 PWs)   bands (ev):

   -15.1594 -15.1594 -15.1201 -15.1201 -15.1018 -15.1018 -15.0598 -15.0598
   -14.1535 -14.1535 -14.1429 -14.1429 -14.0953 -14.0953 -13.9723 -13.9723
   -13.9570 -13.9570 -13.9533 -13.9533  -1.7122  -1.7122   0.8846   0.8846
     5.6835   5.6835   6.0961   6.0961   6.7436   6.7436   9.9778   9.9778
    10.1995  10.1995  12.6278  12.6278

     occupation numbers 
     1.0000   1.0000   1.0000   1.0000   1.0000   1.0000   1.0000   1.0000
     1.0000   1.0000   1.0000   1.0000   1.0000   1.0000   1.0000   1.0000
     1.0000   1.0000   1.0000   1.0000   1.0000   1.0000   1.0000   1.0000
     1.0000   1.0000   1.0000   1.0000   1.0000   1.0000   0.0000   0.0000
     0.0000   0.0000   0.0000   0.0000

          k = 0.0884 0.0000 0.0000 (  5637 PWs)   bands (ev):

   -15.1513 -15.1513 -15.1506 -15.1506 -15.0723 -15.0723 -15.0712 -15.0712
   -14.2204 -14.2204 -14.0623 -14.0623 -14.0579 -14.0579 -14.0138 -14.0138
   -14.0121 -14.0121 -13.9156 -13.9156  -3.1281  -3.1281   5.2302   5.2302
     6.5265   6.5265   6.9400   6.9400   7.5133   7.5133   8.8044   8.8044
     9.2954   9.2954   9.4301   9.4301

     occupation numbers 
     1.0000   1.0000   1.0000   1.0000   1.0000   1.0000   1.0000   1.0000
     1.0000   1.0000   1.0000   1.0000   1.0000   1.0000   1.0000   1.0000
     1.0000   1.0000   1.0000   1.0000   1.0000   1.0000   1.0000   1.0000
     1.0000   1.0000   1.0000   1.0000   0.0000   0.0000   0.0000   0.0000
     0.0000   0.0000   0.0000   0.0000

          k = 0.1326 0.0442-0.0442 (  5649 PWs)   bands (ev):

   -15.1520 -15.1520 -15.1489 -15.1489 -15.0739 -15.0739 -15.0702 -15.0702
   -14.2164 -14.2164 -14.0712 -14.0712 -14.0628 -14.0628 -14.0085 -14.0085
   -14.0048 -14.0048 -13.9177 -13.9177  -3.0474  -3.0474   4.6649   4.6649
     6.3871   6.3871   6.7295   6.7295   7.7166   7.7166   8.8710   8.8710
     9.5815   9.5815   9.7315   9.7315

     occupation numbers 
     1.0000   1.0000   1.0000   1.0000   1.0000   1.0000   1.0000   1.0000
     1.0000   1.0000   1.0000   1.0000   1.0000   1.0000   1.0000   1.0000
     1.0000   1.0000   1.0000   1.0000   1.0000   1.0000   1.0000   1.0000
     1.0000   1.0000   1.0000   1.0000   0.0000   0.0000   0.0000   0.0000
     0.0000   0.0000   0.0000   0.0000

          k = 0.1768 0.0884-0.0884 (  5624 PWs)   bands (ev):

   -15.1534 -15.1534 -15.1457 -15.1457 -15.0770 -15.0770 -15.0682 -15.0682
   -14.2094 -14.2094 -14.0829 -14.0829 -14.0699 -14.0699 -14.0020 -14.0020
   -13.9948 -13.9948 -13.9213 -13.9213  -2.8996  -2.8996   3.9128   3.9128
     6.1824   6.1824   6.5111   6.5111   7.7122   7.7123   9.1140   9.1140
     9.9147   9.9147  10.2438  10.2438

     occupation numbers 
     1.0000   1.0000   1.0000   1.0000   1.0000   1.0000   1.0000   1.0000
     1.0000   1.0000   1.0000   1.0000   1.0000   1.0000   1.0000   1.0000
     1.0000   1.0000   1.0000   1.0000   1.0000   1.0000   1.0000   1.0000
     1.0000   1.0000   1.0000   1.0000   0.0000   0.0000   0.0000   0.0000
     0.0000   0.0000   0.0000   0.0000

          k = 0.2210 0.1326-0.1326 (  5618 PWs)   bands (ev):

   -15.1550 -15.1550 -15.1413 -15.1413 -15.0813 -15.0813 -15.0659 -15.0659
   -14.1999 -14.1999 -14.0954 -14.0954 -14.0772 -14.0772 -13.9954 -13.9954
   -13.9846 -13.9846 -13.9262 -13.9262  -2.6899  -2.6899   3.1262   3.1262
     5.9667   5.9667   6.2935   6.2935   7.5953   7.5953   9.4191   9.4191
    10.1697  10.1697  10.8810  10.8810

     occupation numbers 
     1.0000   1.0000   1.0000   1.0000   1.0000   1.0000   1.0000   1.0000
     1.0000   1.0000   1.0000   1.0000   1.0000   1.0000   1.0000   1.0000
     1.0000   1.0000   1.0000   1.0000   1.0000   1.0000   1.0000   1.0000
     1.0000   1.0000   1.0000   1.0000   0.0000   0.0000   0.0000   0.0000
     0.0000   0.0000   0.0000   0.0000

          k = 0.2652 0.1768-0.1768 (  5602 PWs)   bands (ev):

   -15.1566 -15.1566 -15.1359 -15.1359 -15.0865 -15.0865 -15.0636 -15.0636
   -14.1888 -14.1888 -14.1078 -14.1078 -14.0838 -14.0838 -13.9896 -13.9895
   -13.9754 -13.9754 -13.9317 -13.9317  -2.4282  -2.4282   2.3738   2.3738
     5.7720   5.7720   6.1073   6.1073   7.4519   7.4519   9.6730   9.6730
    10.3100  10.3100  11.5565  11.5566

     occupation numbers 
     1.0000   1.0000   1.0000   1.0000   1.0000   1.0000   1.0000   1.0000
     1.0000   1.0000   1.0000   1.0000   1.0000   1.0000   1.0000   1.0000
     1.0000   1.0000   1.0000   1.0000   1.0000   1.0000   1.0000   1.0000
     1.0000   1.0000   1.0000   1.0000   0.0000   0.0000   0.0000   0.0000
     0.0000   0.0000   0.0000   0.0000

          k = 0.3094 0.2210-0.2210 (  5598 PWs)   bands (ev):

   -15.1579 -15.1579 -15.1300 -15.1300 -15.0922 -15.0922 -15.0616 -15.0616
   -14.1770 -14.1770 -14.1197 -14.1197 -14.0891 -14.0891 -13.9848 -13.9848
   -13.9677 -13.9677 -13.9374 -13.9374  -2.1361  -2.1361   1.7041   1.7041
     5.6117   5.6117   5.9728   5.9728   7.3242   7.3242   9.8298   9.8298
    10.3424  10.3424  12.2202  12.2202

     occupation numbers 
     1.0000   1.0000   1.0000   1.0000   1.0000   1.0000   1.0000   1.0000
     1.0000   1.0000   1.0000   1.0000   1.0000   1.0000   1.0000   1.0000
     1.0000   1.0000   1.0000   1.0000   1.0000   1.0000   1.0000   1.0000
     1.0000   1.0000   1.0000   1.0000   0.0000   0.0000   0.0000   0.0000
     0.0000   0.0000   0.0000   0.0000

          k = 0.3536 0.2652-0.2652 (  5594 PWs)   bands (ev):

   -15.1589 -15.1588 -15.1243 -15.1243 -15.0979 -15.0979 -15.0602 -15.0602
   -14.1653 -14.1653 -14.1309 -14.1309 -14.0927 -14.0927 -13.9815 -13.9815
   -13.9618 -13.9618 -13.9425 -13.9425  -1.8604  -1.8604   1.1785   1.1785
     5.4932   5.4932   5.8987   5.8987   7.2310   7.2310   9.9142   9.9142
    10.3119  10.3119  12.6475  12.6475

     occupation numbers 
     1.0000   1.0000   1.0000   1.0000   1.0000   1.0000   1.0000   1.0000
     1.0000   1.0000   1.0000   1.0000   1.0000   1.0000   1.0000   1.0000
     1.0000   1.0000   1.0000   1.0000   1.0000   1.0000   1.0000   1.0000
     1.0000   1.0000   1.0000   1.0000   0.0000   0.0000   0.0000   0.0000
     0.0000   0.0000   0.0000   0.0000

          k =-0.3094-0.3977 0.3977 (  5592 PWs)   bands (ev):

   -15.1593 -15.1593 -15.1203 -15.1203 -15.1018 -15.1018 -15.0595 -15.0595
   -14.1558 -14.1558 -14.1401 -14.1400 -14.0944 -14.0944 -13.9801 -13.9801
   -13.9583 -13.9583 -13.9457 -13.9457  -1.6925  -1.6925   0.8957   0.8957
     5.4225   5.4225   5.8866   5.8866   7.1807   7.1807   9.9664   9.9664
    10.2633  10.2633  12.7404  12.7404

     occupation numbers 
     1.0000   1.0000   1.0000   1.0000   1.0000   1.0000   1.0000   1.0000
     1.0000   1.0000   1.0000   1.0000   1.0000   1.0000   1.0000   1.0000
     1.0000   1.0000   1.0000   1.0000   1.0000   1.0000   1.0000   1.0000
     1.0000   1.0000   1.0000   1.0000   0.0000   0.0000   0.0000   0.0000
     0.0000   0.0000   0.0000   0.0000

          k =-0.2652-0.3536 0.3536 (  5594 PWs)   bands (ev):

   -15.1592 -15.1592 -15.1212 -15.1211 -15.1010 -15.1010 -15.0596 -15.0596
   -14.1584 -14.1584 -14.1375 -14.1375 -14.0940 -14.0940 -13.9806 -13.9806
   -13.9588 -13.9588 -13.9451 -13.9451  -1.7295  -1.7295   0.9560   0.9560
     5.4044   5.4044   5.9346   5.9346   7.1765   7.1765  10.0009  10.0009
    10.2263  10.2263  12.7531  12.7531

     occupation numbers 
     1.0000   1.0000   1.0000   1.0000   1.0000   1.0000   1.0000   1.0000
     1.0000   1.0000   1.0000   1.0000   1.0000   1.0000   1.0000   1.0000
     1.0000   1.0000   1.0000   1.0000   1.0000   1.0000   1.0000   1.0000
     1.0000   1.0000   1.0000   1.0000   0.0000   0.0000   0.0000   0.0000
     0.0000   0.0000   0.0000   0.0000

          k =-0.2210-0.3094 0.3094 (  5593 PWs)   bands (ev):

   -15.1586 -15.1586 -15.1260 -15.1260 -15.0962 -15.0962 -15.0605 -15.0605
   -14.1691 -14.1691 -14.1273 -14.1273 -14.0916 -14.0916 -13.9830 -13.9830
   -13.9629 -13.9629 -13.9411 -13.9411  -1.9464  -1.9464   1.3336   1.3336
     5.4422   5.4422   6.0385   6.0385   7.2178   7.2178   9.9954   9.9954
    10.2163  10.2163  12.6403  12.6403

     occupation numbers 
     1.0000   1.0000   1.0000   1.0000   1.0000   1.0000   1.0000   1.0000
     1.0000   1.0000   1.0000   1.0000   1.0000   1.0000   1.0000   1.0000
     1.0000   1.0000   1.0000   1.0000   1.0000   1.0000   1.0000   1.0000
     1.0000   1.0000   1.0000   1.0000   0.0000   0.0000   0.0000   0.0000
     0.0000   0.0000   0.0000   0.0000

          k =-0.1768-0.2652 0.2652 (  5615 PWs)   bands (ev):

   -15.1576 -15.1576 -15.1319 -15.1319 -15.0905 -15.0905 -15.0621 -15.0621
   -14.1810 -14.1810 -14.1159 -14.1159 -14.0873 -14.0873 -13.9871 -13.9871
   -13.9693 -13.9693 -13.9357 -13.9357  -2.2353  -2.2353   1.9160   1.9160
     5.5381   5.5381   6.1918   6.1918   7.2999   7.2999   9.9201   9.9201
    10.2060  10.2060  12.0757  12.0757

     occupation numbers 
     1.0000   1.0000   1.0000   1.0000   1.0000   1.0000   1.0000   1.0000
     1.0000   1.0000   1.0000   1.0000   1.0000   1.0000   1.0000   1.0000
     1.0000   1.0000   1.0000   1.0000   1.0000   1.0000   1.0000   1.0000
     1.0000   1.0000   1.0000   1.0000   0.0000   0.0000   0.0000   0.0000
     0.0000   0.0000   0.0000   0.0000

          k =-0.1326-0.2210 0.2210 (  5600 PWs)   bands (ev):

   -15.1562 -15.1562 -15.1376 -15.1376 -15.0849 -15.0849 -15.0642 -15.0642
   -14.1927 -14.1927 -14.1038 -14.1038 -14.0815 -14.0815 -13.9924 -13.9924
   -13.9774 -13.9774 -13.9299 -13.9299  -2.5207  -2.5207   2.6178   2.6178
     5.6927   5.6927   6.3841   6.3841   7.4108   7.4108   9.7622   9.7622
    10.1112  10.1112  11.3505  11.3505

     occupation numbers 
     1.0000   1.0000   1.0000   1.0000   1.0000   1.0000   1.0000   1.0000
     1.0000   1.0000   1.0000   1.0000   1.0000   1.0000   1.0000   1.0000
     1.0000   1.0000   1.0000   1.0000   1.0000   1.0000   1.0000   1.0000
     1.0000   1.0000   1.0000   1.0000   0.0000   0.0000   0.0000   0.0000
     0.0000   0.0000   0.0000   0.0000

          k =-0.0884-0.1768 0.1768 (  5622 PWs)   bands (ev):

   -15.1546 -15.1546 -15.1426 -15.1426 -15.0800 -15.0800 -15.0665 -15.0665
   -14.2033 -14.2033 -14.0913 -14.0913 -14.0747 -14.0747 -13.9986 -13.9986
   -13.9869 -13.9869 -13.9245 -13.9245  -2.7666  -2.7666   3.3842   3.3842
     5.9043   5.9043   6.5981   6.5981   7.5224   7.5224   9.5291   9.5291
     9.8584   9.8584  10.6984  10.6984

     occupation numbers 
     1.0000   1.0000   1.0000   1.0000   1.0000   1.0000   1.0000   1.0000
     1.0000   1.0000   1.0000   1.0000   1.0000   1.0000   1.0000   1.0000
     1.0000   1.0000   1.0000   1.0000   1.0000   1.0000   1.0000   1.0000
     1.0000   1.0000   1.0000   1.0000   0.0000   0.0000   0.0000   0.0000
     0.0000   0.0000   0.0000   0.0000

          k =-0.0442-0.1326 0.1326 (  5636 PWs)   bands (ev):

   -15.1531 -15.1531 -15.1466 -15.1466 -15.0761 -15.0761 -15.0687 -15.0687
   -14.2121 -14.2121 -14.0787 -14.0787 -14.0675 -14.0675 -14.0051 -14.0051
   -13.9973 -13.9973 -13.9200 -13.9200  -2.9564  -2.9564   4.1616   4.1616
     6.1665   6.1665   6.8039   6.8039   7.5724   7.5724   9.2622   9.2622
     9.5141   9.5141  10.1335  10.1335

     occupation numbers 
     1.0000   1.0000   1.0000   1.0000   1.0000   1.0000   1.0000   1.0000
     1.0000   1.0000   1.0000   1.0000   1.0000   1.0000   1.0000   1.0000
     1.0000   1.0000   1.0000   1.0000   1.0000   1.0000   1.0000   1.0000
     1.0000   1.0000   1.0000   1.0000   0.0000   0.0000   0.0000   0.0000
     0.0000   0.0000   0.0000   0.0000

          k = 0.0000-0.0884 0.0884 (  5653 PWs)   bands (ev):

   -15.1520 -15.1520 -15.1493 -15.1493 -15.0735 -15.0735 -15.0704 -15.0704
   -14.2182 -14.2182 -14.0673 -14.0673 -14.0613 -14.0613 -14.0110 -14.0110
   -14.0072 -14.0072 -13.9168 -13.9168  -3.0820  -3.0820   4.8635   4.8635
     6.4479   6.4479   6.9661   6.9661   7.4660   7.4660   9.0204   9.0204
     9.3002   9.3002   9.6335   9.6335

     occupation numbers 
     1.0000   1.0000   1.0000   1.0000   1.0000   1.0000   1.0000   1.0000
     1.0000   1.0000   1.0000   1.0000   1.0000   1.0000   1.0000   1.0000
     1.0000   1.0000   1.0000   1.0000   1.0000   1.0000   1.0000   1.0000
     1.0000   1.0000   0.0000   0.0000   0.0000   0.0000   0.0000   0.0000
     0.0000   0.0000   0.0000   0.0000

          k = 0.1768 0.0000 0.0000 (  5641 PWs)   bands (ev):

   -15.1514 -15.1514 -15.1489 -15.1489 -15.0741 -15.0741 -15.0703 -15.0703
   -14.2136 -14.2136 -14.0772 -14.0772 -14.0645 -14.0645 -14.0042 -14.0042
   -14.0026 -14.0026 -13.9189 -13.9189  -2.9892  -2.9892   4.4158   4.4158
     6.1966   6.1966   6.4513   6.4513   8.1807   8.1807   8.5648   8.5648
     9.8829   9.8829   9.9862   9.9862

     occupation numbers 
     1.0000   1.0000   1.0000   1.0000   1.0000   1.0000   1.0000   1.0000
     1.0000   1.0000   1.0000   1.0000   1.0000   1.0000   1.0000   1.0000
     1.0000   1.0000   1.0000   1.0000   1.0000   1.0000   1.0000   1.0000
     1.0000   1.0000   1.0000   1.0000   0.0000   0.0000   0.0000   0.0000
     0.0000   0.0000   0.0000   0.0000

          k = 0.2210 0.0442-0.0442 (  5623 PWs)   bands (ev):

   -15.1523 -15.1523 -15.1466 -15.1466 -15.0763 -15.0763 -15.0689 -15.0689
   -14.2077 -14.2077 -14.0866 -14.0866 -14.0692 -14.0692 -14.0008 -14.0008
   -13.9943 -13.9943 -13.9214 -13.9214  -2.8634  -2.8634   3.8740   3.8740
     5.9770   5.9770   6.2098   6.2098   8.3272   8.3272   8.5936   8.5936
    10.2539  10.2539  10.3809  10.3809

     occupation numbers 
     1.0000   1.0000   1.0000   1.0000   1.0000   1.0000   1.0000   1.0000
     1.0000   1.0000   1.0000   1.0000   1.0000   1.0000   1.0000   1.0000
     1.0000   1.0000   1.0000   1.0000   1.0000   1.0000   1.0000   1.0000
     1.0000   1.0000   1.0000   1.0000   0.0000   0.0000   0.0000   0.0000
     0.0000   0.0000   0.0000   0.0000

          k = 0.2652 0.0884-0.0884 (  5616 PWs)   bands (ev):

   -15.1539 -15.1539 -15.1427 -15.1427 -15.0802 -15.0802 -15.0667 -15.0667
   -14.1992 -14.1992 -14.0974 -14.0974 -14.0748 -14.0748 -13.9982 -13.9982
   -13.9839 -13.9839 -13.9250 -13.9250  -2.6735  -2.6735   3.1997   3.1997
     5.7269   5.7269   5.9877   5.9877   8.2542   8.2543   8.8820   8.8820
    10.5498  10.5498  10.8036  10.8036

     occupation numbers 
     1.0000   1.0000   1.0000   1.0000   1.0000   1.0000   1.0000   1.0000
     1.0000   1.0000   1.0000   1.0000   1.0000   1.0000   1.0000   1.0000
     1.0000   1.0000   1.0000   1.0000   1.0000   1.0000   1.0000   1.0000
     1.0000   1.0000   1.0000   1.0000   0.0000   0.0000   0.0000   0.0000
     0.0000   0.0000   0.0000   0.0000

          k = 0.3094 0.1326-0.1326 (  5590 PWs)   bands (ev):

   -15.1556 -15.1556 -15.1377 -15.1377 -15.0851 -15.0851 -15.0642 -15.0642
   -14.1890 -14.1890 -14.1084 -14.1084 -14.0805 -14.0804 -13.9960 -13.9960
   -13.9743 -13.9743 -13.9290 -13.9290  -2.4274  -2.4274   2.4991   2.4991
     5.4718   5.4718   5.8107   5.8107   8.1197   8.1197   9.2543   9.2543
    10.7212  10.7212  11.1215  11.1215

     occupation numbers 
     1.0000   1.0000   1.0000   1.0000   1.0000   1.0000   1.0000   1.0000
     1.0000   1.0000   1.0000   1.0000   1.0000   1.0000   1.0000   1.0000
     1.0000   1.0000   1.0000   1.0000   1.0000   1.0000   1.0000   1.0000
     1.0000   1.0000   1.0000   1.0000   0.0000   0.0000   0.0000   0.0000
     0.0000   0.0000   0.0000   0.0000

          k = 0.3536 0.1768-0.1768 (  5604 PWs)   bands (ev):

   -15.1571 -15.1571 -15.1321 -15.1321 -15.0907 -15.0907 -15.0619 -15.0619
   -14.1780 -14.1780 -14.1187 -14.1187 -14.0855 -14.0855 -13.9944 -13.9944
   -13.9666 -13.9666 -13.9325 -13.9325  -2.1413  -2.1413   1.8389   1.8389
     5.2388   5.2388   5.6969   5.6969   7.9809   7.9809   9.5732   9.5732
    10.7594  10.7594  11.4780  11.4780

     occupation numbers 
     1.0000   1.0000   1.0000   1.0000   1.0000   1.0000   1.0000   1.0000
     1.0000   1.0000   1.0000   1.0000   1.0000   1.0000   1.0000   1.0000
     1.0000   1.0000   1.0000   1.0000   1.0000   1.0000   1.0000   1.0000
     1.0000   1.0000   1.0000   1.0000   0.0000   0.0000   0.0000   0.0000
     0.0000   0.0000   0.0000   0.0000

          k = 0.3977 0.2210-0.2210 (  5585 PWs)   bands (ev):

   -15.1583 -15.1583 -15.1263 -15.1263 -15.0965 -15.0965 -15.0600 -15.0600
   -14.1674 -14.1674 -14.1278 -14.1278 -14.0895 -14.0895 -13.9937 -13.9937
   -13.9614 -13.9614 -13.9347 -13.9347  -1.8511  -1.8511   1.2813   1.2813
     5.0486   5.0486   5.6487   5.6487   7.8670   7.8670   9.7712   9.7712
    10.7052  10.7052  11.9912  11.9912

     occupation numbers 
     1.0000   1.0000   1.0000   1.0000   1.0000   1.0000   1.0000   1.0000
     1.0000   1.0000   1.0000   1.0000   1.0000   1.0000   1.0000   1.0000
     1.0000   1.0000   1.0000   1.0000   1.0000   1.0000   1.0000   1.0000
     1.0000   1.0000   1.0000   1.0000   0.0000   0.0000   0.0000   0.0000
     0.0000   0.0000   0.0000   0.0000

          k =-0.2652-0.4419 0.4419 (  5589 PWs)   bands (ev):

   -15.1590 -15.1590 -15.1214 -15.1214 -15.1014 -15.1014 -15.0589 -15.0589
   -14.1590 -14.1590 -14.1350 -14.1350 -14.0918 -14.0918 -13.9936 -13.9936
   -13.9588 -13.9588 -13.9358 -13.9358  -1.6326  -1.6326   0.9161   0.9161
     4.9133   4.9133   5.6644   5.6644   7.7916   7.7916   9.8898   9.8898
    10.6077  10.6077  12.5541  12.5541

     occupation numbers 
     1.0000   1.0000   1.0000   1.0000   1.0000   1.0000   1.0000   1.0000
     1.0000   1.0000   1.0000   1.0000   1.0000   1.0000   1.0000   1.0000
     1.0000   1.0000   1.0000   1.0000   1.0000   1.0000   1.0000   1.0000
     1.0000   1.0000   1.0000   1.0000   0.0000   0.0000   0.0000   0.0000
     0.0000   0.0000   0.0000   0.0000

          k =-0.2210-0.3977 0.3977 (  5586 PWs)   bands (ev):

   -15.1592 -15.1592 -15.1200 -15.1200 -15.1029 -15.1029 -15.0586 -15.0586
   -14.1575 -14.1575 -14.1364 -14.1364 -14.0919 -14.0919 -13.9941 -13.9941
   -13.9579 -13.9579 -13.9360 -13.9360  -1.5972  -1.5972   0.8609   0.8609
     4.8405   4.8405   5.7410   5.7410   7.7596   7.7596   9.9862   9.9862
    10.4961  10.4961  12.8568  12.8568

     occupation numbers 
     1.0000   1.0000   1.0000   1.0000   1.0000   1.0000   1.0000   1.0000
     1.0000   1.0000   1.0000   1.0000   1.0000   1.0000   1.0000   1.0000
     1.0000   1.0000   1.0000   1.0000   1.0000   1.0000   1.0000   1.0000
     1.0000   1.0000   1.0000   1.0000   0.0000   0.0000   0.0000   0.0000
     0.0000   0.0000   0.0000   0.0000

          k =-0.1768-0.3536 0.3536 (  5594 PWs)   bands (ev):

   -15.1589 -15.1589 -15.1235 -15.1235 -15.0994 -15.0994 -15.0591 -15.0591
   -14.1645 -14.1645 -14.1305 -14.1305 -14.0898 -14.0898 -13.9951 -13.9951
   -13.9588 -13.9588 -13.9356 -13.9356  -1.7693  -1.7693   1.1402   1.1402
     4.8365   4.8365   5.8730   5.8730   7.7701   7.7701  10.0761  10.0761
    10.3791  10.3791  12.6038  12.6038

     occupation numbers 
     1.0000   1.0000   1.0000   1.0000   1.0000   1.0000   1.0000   1.0000
     1.0000   1.0000   1.0000   1.0000   1.0000   1.0000   1.0000   1.0000
     1.0000   1.0000   1.0000   1.0000   1.0000   1.0000   1.0000   1.0000
     1.0000   1.0000   1.0000   1.0000   0.0000   0.0000   0.0000   0.0000
     0.0000   0.0000   0.0000   0.0000

          k =-0.1326-0.3094 0.3094 (  5608 PWs)   bands (ev):

   -15.1581 -15.1581 -15.1290 -15.1290 -15.0940 -15.0940 -15.0605 -15.0605
   -14.1747 -14.1747 -14.1220 -14.1220 -14.0860 -14.0860 -13.9966 -13.9966
   -13.9620 -13.9620 -13.9340 -13.9340  -2.0475  -2.0475   1.6468   1.6468
     4.9080   4.9080   6.0519   6.0519   7.8156   7.8156  10.0994  10.0994
    10.2768  10.2768  11.9577  11.9577

     occupation numbers 
     1.0000   1.0000   1.0000   1.0000   1.0000   1.0000   1.0000   1.0000
     1.0000   1.0000   1.0000   1.0000   1.0000   1.0000   1.0000   1.0000
     1.0000   1.0000   1.0000   1.0000   1.0000   1.0000   1.0000   1.0000
     1.0000   1.0000   1.0000   1.0000   0.0000   0.0000   0.0000   0.0000
     0.0000   0.0000   0.0000   0.0000

          k =-0.0884-0.2652 0.2652 (  5609 PWs)   bands (ev):

   -15.1569 -15.1569 -15.1346 -15.1346 -15.0884 -15.0884 -15.0624 -15.0624
   -14.1857 -14.1857 -14.1122 -14.1122 -14.0811 -14.0811 -13.9986 -13.9986
   -13.9682 -13.9682 -13.9310 -13.9310  -2.3399  -2.3399   2.2742   2.2742
     5.0643   5.0643   6.2639   6.2639   7.8772   7.8772   9.9421   9.9421
    10.1899  10.1899  11.3528  11.3528

     occupation numbers 
     1.0000   1.0000   1.0000   1.0000   1.0000   1.0000   1.0000   1.0000
     1.0000   1.0000   1.0000   1.0000   1.0000   1.0000   1.0000   1.0000
     1.0000   1.0000   1.0000   1.0000   1.0000   1.0000   1.0000   1.0000
     1.0000   1.0000   1.0000   1.0000   0.0000   0.0000   0.0000   0.0000
     0.0000   0.0000   0.0000   0.0000

          k =-0.0442-0.2210 0.2210 (  5609 PWs)   bands (ev):

   -15.1555 -15.1555 -15.1397 -15.1397 -15.0832 -15.0832 -15.0647 -15.0647
   -14.1962 -14.1962 -14.1013 -14.1013 -14.0759 -14.0758 -14.0008 -14.0008
   -13.9769 -13.9769 -13.9271 -13.9271  -2.6009  -2.6009   2.9491   2.9491
     5.3196   5.3196   6.4856   6.4856   7.9114   7.9114   9.6915   9.6915
     9.9250   9.9250  10.9710  10.9710

     occupation numbers 
     1.0000   1.0000   1.0000   1.0000   1.0000   1.0000   1.0000   1.0000
     1.0000   1.0000   1.0000   1.0000   1.0000   1.0000   1.0000   1.0000
     1.0000   1.0000   1.0000   1.0000   1.0000   1.0000   1.0000   1.0000
     1.0000   1.0000   1.0000   1.0000   0.0000   0.0000   0.0000   0.0000
     0.0000   0.0000   0.0000   0.0000

          k = 0.0000-0.1768 0.1768 (  5601 PWs)   bands (ev):

   -15.1541 -15.1541 -15.1438 -15.1438 -15.0790 -15.0790 -15.0670 -15.0670
   -14.2053 -14.2053 -14.0898 -14.0898 -14.0711 -14.0711 -14.0032 -14.0032
   -13.9870 -13.9870 -13.9232 -13.9232  -2.8096  -2.8096   3.6033   3.6033
     5.6912   5.6912   6.6789   6.6789   7.8324   7.8324   9.4339   9.4339
     9.6223   9.6223  10.6315  10.6315

     occupation numbers 
     1.0000   1.0000   1.0000   1.0000   1.0000   1.0000   1.0000   1.0000
     1.0000   1.0000   1.0000   1.0000   1.0000   1.0000   1.0000   1.0000
     1.0000   1.0000   1.0000   1.0000   1.0000   1.0000   1.0000   1.0000
     1.0000   1.0000   1.0000   1.0000   0.0000   0.0000   0.0000   0.0000
     0.0000   0.0000   0.0000   0.0000

          k = 0.2652 0.0000 0.0000 (  5617 PWs)   bands (ev):

   -15.1515 -15.1515 -15.1465 -15.1465 -15.0766 -15.0766 -15.0691 -15.0691
   -14.2029 -14.2029 -14.0933 -14.0933 -14.0718 -14.0718 -13.9965 -13.9965
   -13.9920 -13.9920 -13.9228 -13.9228  -2.7591  -2.7591   3.5629   3.5629
     5.7852   5.7852   5.9563   5.9563   8.2375   8.2375   8.7277   8.7277
    10.6578  10.6578  10.6912  10.6912

     occupation numbers 
     1.0000   1.0000   1.0000   1.0000   1.0000   1.0000   1.0000   1.0000
     1.0000   1.0000   1.0000   1.0000   1.0000   1.0000   1.0000   1.0000
     1.0000   1.0000   1.0000   1.0000   1.0000   1.0000   1.0000   1.0000
     1.0000   1.0000   1.0000   1.0000   0.0000   0.0000   0.0000   0.0000
     0.0000   0.0000   0.0000   0.0000

          k = 0.3094 0.0442-0.0442 (  5615 PWs)   bands (ev):

   -15.1523 -15.1523 -15.1439 -15.1439 -15.0791 -15.0791 -15.0678 -15.0678
   -14.1956 -14.1956 -14.1019 -14.1019 -14.0755 -14.0755 -13.9970 -13.9970
   -13.9831 -13.9831 -13.9249 -13.9249  -2.5895  -2.5895   3.0593   3.0593
     5.5533   5.5533   5.7307   5.7307   8.2184   8.2184   8.8325   8.8325
    10.9873  10.9873  11.0390  11.0390

     occupation numbers 
     1.0000   1.0000   1.0000   1.0000   1.0000   1.0000   1.0000   1.0000
     1.0000   1.0000   1.0000   1.0000   1.0000   1.0000   1.0000   1.0000
     1.0000   1.0000   1.0000   1.0000   1.0000   1.0000   1.0000   1.0000
     1.0000   1.0000   1.0000   1.0000   0.0000   0.0000   0.0000   0.0000
     0.0000   0.0000   0.0000   0.0000

          k = 0.3536 0.0884-0.0884 (  5588 PWs)   bands (ev):

   -15.1540 -15.1540 -15.1396 -15.1396 -15.0833 -15.0833 -15.0654 -15.0654
   -14.1865 -14.1865 -14.1111 -14.1111 -14.0792 -14.0792 -13.9990 -13.9990
   -13.9736 -13.9736 -13.9271 -13.9271  -2.3604  -2.3604   2.4688   2.4688
     5.2618   5.2618   5.5516   5.5516   8.3069   8.3069   8.9793   8.9793
    11.0642  11.0642  11.2643  11.2643

     occupation numbers 
     1.0000   1.0000   1.0000   1.0000   1.0000   1.0000   1.0000   1.0000
     1.0000   1.0000   1.0000   1.0000   1.0000   1.0000   1.0000   1.0000
     1.0000   1.0000   1.0000   1.0000   1.0000   1.0000   1.0000   1.0000
     1.0000   1.0000   1.0000   1.0000   0.0000   0.0000   0.0000   0.0000
     0.0000   0.0000   0.0000   0.0000

          k = 0.3977 0.1326-0.1326 (  5594 PWs)   bands (ev):

   -15.1557 -15.1557 -15.1345 -15.1345 -15.0886 -15.0885 -15.0628 -15.0628
   -14.1767 -14.1767 -14.1196 -14.1196 -14.0828 -14.0828 -14.0017 -14.0017
   -13.9659 -13.9659 -13.9286 -13.9286  -2.0842  -2.0842   1.8677   1.8677
     4.9577   4.9577   5.4419   5.4419   8.2810   8.2810   9.3545   9.3545
    11.0679  11.0679  11.3467  11.3467

     occupation numbers 
     1.0000   1.0000   1.0000   1.0000   1.0000   1.0000   1.0000   1.0000
     1.0000   1.0000   1.0000   1.0000   1.0000   1.0000   1.0000   1.0000
     1.0000   1.0000   1.0000   1.0000   1.0000   1.0000   1.0000   1.0000
     1.0000   1.0000   1.0000   1.0000   0.0000   0.0000   0.0000   0.0000
     0.0000   0.0000   0.0000   0.0000

          k = 0.4419 0.1768-0.1768 (  5598 PWs)   bands (ev):

   -15.1572 -15.1571 -15.1291 -15.1291 -15.0942 -15.0942 -15.0605 -15.0605
   -14.1677 -14.1677 -14.1264 -14.1264 -14.0859 -14.0859 -14.0046 -14.0046
   -13.9611 -13.9610 -13.9287 -13.9287  -1.7874  -1.7874   1.3201   1.3201
     4.6914   4.6914   5.3998   5.3998   8.2070   8.2070   9.7657   9.7657
    11.1949  11.1949  11.3493  11.3493

     occupation numbers 
     1.0000   1.0000   1.0000   1.0000   1.0000   1.0000   1.0000   1.0000
     1.0000   1.0000   1.0000   1.0000   1.0000   1.0000   1.0000   1.0000
     1.0000   1.0000   1.0000   1.0000   1.0000   1.0000   1.0000   1.0000
     1.0000   1.0000   1.0000   1.0000   0.0000   0.0000   0.0000   0.0000
     0.0000   0.0000   0.0000   0.0000

          k =-0.2210-0.4861 0.4861 (  5602 PWs)   bands (ev):

   -15.1582 -15.1582 -15.1239 -15.1239 -15.0996 -15.0996 -15.0587 -15.0587
   -14.1611 -14.1611 -14.1308 -14.1308 -14.0880 -14.0880 -14.0071 -14.0071
   -13.9587 -13.9587 -13.9280 -13.9280  -1.5304  -1.5304   0.9078   0.9078
     4.4874   4.4874   5.4233   5.4233   8.1503   8.1503  10.0223  10.0223
    11.1499  11.1499  11.7494  11.7494

     occupation numbers 
     1.0000   1.0000   1.0000   1.0000   1.0000   1.0000   1.0000   1.0000
     1.0000   1.0000   1.0000   1.0000   1.0000   1.0000   1.0000   1.0000
     1.0000   1.0000   1.0000   1.0000   1.0000   1.0000   1.0000   1.0000
     1.0000   1.0000   1.0000   1.0000   0.0000   0.0000   0.0000   0.0000
     0.0000   0.0000   0.0000   0.0000

          k =-0.1768-0.4419 0.4419 (  5609 PWs)   bands (ev):

   -15.1588 -15.1588 -15.1205 -15.1205 -15.1032 -15.1031 -15.0578 -15.0578
   -14.1589 -14.1589 -14.1322 -14.1322 -14.0883 -14.0883 -14.0087 -14.0087
   -13.9578 -13.9578 -13.9275 -13.9275  -1.4252  -1.4252   0.7531   0.7531
     4.3584   4.3584   5.5097   5.5097   8.1290   8.1290  10.1572  10.1572
    11.0007  11.0007  12.3747  12.3747

     occupation numbers 
     1.0000   1.0000   1.0000   1.0000   1.0000   1.0000   1.0000   1.0000
     1.0000   1.0000   1.0000   1.0000   1.0000   1.0000   1.0000   1.0000
     1.0000   1.0000   1.0000   1.0000   1.0000   1.0000   1.0000   1.0000
     1.0000   1.0000   1.0000   1.0000   0.0000   0.0000   0.0000   0.0000
     0.0000   0.0000   0.0000   0.0000

          k =-0.1326-0.3977 0.3977 (  5592 PWs)   bands (ev):

   -15.1589 -15.1589 -15.1214 -15.1214 -15.1024 -15.1023 -15.0578 -15.0578
   -14.1617 -14.1617 -14.1306 -14.1306 -14.0867 -14.0867 -14.0091 -14.0090
   -13.9576 -13.9576 -13.9281 -13.9281  -1.5447  -1.5447   0.9304   0.9304
     4.3149   4.3149   5.6533   5.6533   8.1425   8.1425  10.2645  10.2645
    10.8209  10.8209  12.4803  12.4803

     occupation numbers 
     1.0000   1.0000   1.0000   1.0000   1.0000   1.0000   1.0000   1.0000
     1.0000   1.0000   1.0000   1.0000   1.0000   1.0000   1.0000   1.0000
     1.0000   1.0000   1.0000   1.0000   1.0000   1.0000   1.0000   1.0000
     1.0000   1.0000   1.0000   1.0000   0.0000   0.0000   0.0000   0.0000
     0.0000   0.0000   0.0000   0.0000

          k =-0.0884-0.3536 0.3536 (  5600 PWs)   bands (ev):

   -15.1585 -15.1585 -15.1257 -15.1256 -15.0981 -15.0981 -15.0587 -15.0587
   -14.1686 -14.1686 -14.1263 -14.1263 -14.0837 -14.0837 -14.0081 -14.0081
   -13.9585 -13.9585 -13.9293 -13.9293  -1.8066  -1.8066   1.3493   1.3493
     4.3694   4.3694   5.8447   5.8447   8.1771   8.1771  10.3654  10.3654
    10.6044  10.6044  11.8175  11.8175

     occupation numbers 
     1.0000   1.0000   1.0000   1.0000   1.0000   1.0000   1.0000   1.0000
     1.0000   1.0000   1.0000   1.0000   1.0000   1.0000   1.0000   1.0000
     1.0000   1.0000   1.0000   1.0000   1.0000   1.0000   1.0000   1.0000
     1.0000   1.0000   1.0000   1.0000   0.0000   0.0000   0.0000   0.0000
     0.0000   0.0000   0.0000   0.0000

          k =-0.0442-0.3094 0.3094 (  5612 PWs)   bands (ev):

   -15.1576 -15.1576 -15.1308 -15.1308 -15.0928 -15.0928 -15.0603 -15.0603
   -14.1776 -14.1776 -14.1197 -14.1197 -14.0805 -14.0805 -14.0061 -14.0061
   -13.9616 -13.9616 -13.9301 -13.9301  -2.1025  -2.1025   1.8810   1.8810
     4.5404   4.5404   6.0676   6.0676   8.1995   8.1995  10.2901  10.2901
    10.4284  10.4284  11.2115  11.2115

     occupation numbers 
     1.0000   1.0000   1.0000   1.0000   1.0000   1.0000   1.0000   1.0000
     1.0000   1.0000   1.0000   1.0000   1.0000   1.0000   1.0000   1.0000
     1.0000   1.0000   1.0000   1.0000   1.0000   1.0000   1.0000   1.0000
     1.0000   1.0000   1.0000   1.0000   0.0000   0.0000   0.0000   0.0000
     0.0000   0.0000   0.0000   0.0000

          k = 0.0000-0.2652 0.2652 (  5588 PWs)   bands (ev):

   -15.1566 -15.1566 -15.1356 -15.1356 -15.0877 -15.0877 -15.0625 -15.0625
   -14.1873 -14.1873 -14.1112 -14.1112 -14.0777 -14.0777 -14.0035 -14.0035
   -13.9679 -13.9679 -13.9292 -13.9292  -2.3756  -2.3756   2.4356   2.4356
     4.8519   4.8519   6.2953   6.2953   8.1409   8.1409   9.9854   9.9854
    10.1687  10.1687  11.0194  11.0194

     occupation numbers 
     1.0000   1.0000   1.0000   1.0000   1.0000   1.0000   1.0000   1.0000
     1.0000   1.0000   1.0000   1.0000   1.0000   1.0000   1.0000   1.0000
     1.0000   1.0000   1.0000   1.0000   1.0000   1.0000   1.0000   1.0000
     1.0000   1.0000   1.0000   1.0000   0.0000   0.0000   0.0000   0.0000
     0.0000   0.0000   0.0000   0.0000

          k = 0.3536 0.0000 0.0000 (  5601 PWs)   bands (ev):

   -15.1512 -15.1512 -15.1440 -15.1440 -15.0790 -15.0790 -15.0684 -15.0684
   -14.1895 -14.1895 -14.1083 -14.1083 -14.0777 -14.0777 -13.9972 -13.9972
   -13.9787 -13.9787 -13.9256 -13.9256  -2.4397  -2.4397   2.7159   2.7159
     5.4017   5.4017   5.5199   5.5199   7.9568   7.9568   8.8929   8.8929
    11.4520  11.4520  11.4887  11.4887

     occupation numbers 
     1.0000   1.0000   1.0000   1.0000   1.0000   1.0000   1.0000   1.0000
     1.0000   1.0000   1.0000   1.0000   1.0000   1.0000   1.0000   1.0000
     1.0000   1.0000   1.0000   1.0000   1.0000   1.0000   1.0000   1.0000
     1.0000   1.0000   1.0000   1.0000   0.0000   0.0000   0.0000   0.0000
     0.0000   0.0000   0.0000   0.0000

          k = 0.3977 0.0442-0.0442 (  5609 PWs)   bands (ev):

   -15.1519 -15.1519 -15.1415 -15.1415 -15.0814 -15.0814 -15.0672 -15.0672
   -14.1816 -14.1816 -14.1156 -14.1156 -14.0799 -14.0799 -14.0011 -14.0011
   -13.9710 -13.9710 -13.9265 -13.9265  -2.2283  -2.2283   2.2505   2.2505
     5.1789   5.1789   5.3317   5.3317   7.9783   7.9783   8.8601   8.8601
    11.6032  11.6032  11.8147  11.8147

     occupation numbers 
     1.0000   1.0000   1.0000   1.0000   1.0000   1.0000   1.0000   1.0000
     1.0000   1.0000   1.0000   1.0000   1.0000   1.0000   1.0000   1.0000
     1.0000   1.0000   1.0000   1.0000   1.0000   1.0000   1.0000   1.0000
     1.0000   1.0000   1.0000   1.0000   0.0000   0.0000   0.0000   0.0000
     0.0000   0.0000   0.0000   0.0000

          k = 0.4419 0.0884-0.0884 (  5600 PWs)   bands (ev):

   -15.1535 -15.1535 -15.1373 -15.1373 -15.0857 -15.0857 -15.0648 -15.0648
   -14.1732 -14.1732 -14.1223 -14.1223 -14.0815 -14.0815 -14.0070 -14.0070
   -13.9639 -13.9639 -13.9267 -13.9267  -1.9645  -1.9645   1.7384   1.7384
     4.8596   4.8596   5.2118   5.2118   8.1204   8.1204   8.9943   8.9943
    11.4779  11.4779  11.9780  11.9780

     occupation numbers 
     1.0000   1.0000   1.0000   1.0000   1.0000   1.0000   1.0000   1.0000
     1.0000   1.0000   1.0000   1.0000   1.0000   1.0000   1.0000   1.0000
     1.0000   1.0000   1.0000   1.0000   1.0000   1.0000   1.0000   1.0000
     1.0000   1.0000   1.0000   1.0000   0.0000   0.0000   0.0000   0.0000
     0.0000   0.0000   0.0000   0.0000

          k = 0.4861 0.1326-0.1326 (  5607 PWs)   bands (ev):

   -15.1553 -15.1553 -15.1325 -15.1325 -15.0908 -15.0908 -15.0620 -15.0620
   -14.1659 -14.1659 -14.1270 -14.1270 -14.0826 -14.0826 -14.0134 -14.0134
   -13.9594 -13.9593 -13.9255 -13.9255  -1.6676  -1.6676   1.2386   1.2386
     4.5284   4.5284   5.1644   5.1644   8.1636   8.1636   9.4487   9.4487
    11.3545  11.3545  11.9712  11.9712

     occupation numbers 
     1.0000   1.0000   1.0000   1.0000   1.0000   1.0000   1.0000   1.0000
     1.0000   1.0000   1.0000   1.0000   1.0000   1.0000   1.0000   1.0000
     1.0000   1.0000   1.0000   1.0000   1.0000   1.0000   1.0000   1.0000
     1.0000   1.0000   1.0000   1.0000   0.0000   0.0000   0.0000   0.0000
     0.0000   0.0000   0.0000   0.0000

          k =-0.1768-0.5303 0.5303 (  5605 PWs)   bands (ev):

   -15.1568 -15.1568 -15.1276 -15.1276 -15.0962 -15.0962 -15.0595 -15.0595
   -14.1614 -14.1613 -14.1286 -14.1286 -14.0833 -14.0833 -14.0189 -14.0189
[...]

     occupation numbers 
     1.0000   1.0000   1.0000   1.0000   1.0000   1.0000   1.0000   1.0000
     1.0000   1.0000   1.0000   1.0000   1.0000   1.0000   1.0000   1.0000
     1.0000   1.0000   1.0000   1.0000   1.0000   1.0000   1.0000   1.0000
     1.0000   1.0000   1.0000   1.0000   0.0000   0.0000   0.0000   0.0000
     0.0000   0.0000   0.0000   0.0000

          k =-0.1326-0.3977 0.5745 (  5597 PWs)   bands (ev):

   -15.1578 -15.1578 -15.1233 -15.1233 -15.1012 -15.1011 -15.0574 -15.0574
   -14.1610 -14.1610 -14.1258 -14.1258 -14.0813 -14.0813 -14.0276 -14.0276
   -13.9579 -13.9579 -13.9192 -13.9191  -1.1268  -1.1268   0.5224   0.5224
     4.0158   4.0158   4.9935   4.9935   8.8279   8.8279  10.0841  10.0841
    11.3472  11.3472  12.0603  12.0603

     occupation numbers 
     1.0000   1.0000   1.0000   1.0000   1.0000   1.0000   1.0000   1.0000
     1.0000   1.0000   1.0000   1.0000   1.0000   1.0000   1.0000   1.0000
     1.0000   1.0000   1.0000   1.0000   1.0000   1.0000   1.0000   1.0000
     1.0000   1.0000   1.0000   1.0000   0.0000   0.0000   0.0000   0.0000
     0.0000   0.0000   0.0000   0.0000

          k =-0.0884-0.3536 0.5303 (  5602 PWs)   bands (ev):

   -15.1580 -15.1580 -15.1228 -15.1227 -15.1018 -15.1018 -15.0571 -15.0571
   -14.1614 -14.1614 -14.1259 -14.1259 -14.0810 -14.0810 -14.0271 -14.0271
   -13.9580 -13.9580 -13.9194 -13.9194  -1.1813  -1.1813   0.5916   0.5916
     3.9833   3.9833   5.0619   5.0619   8.8717   8.8717  10.0778  10.0778
    11.4049  11.4049  12.0265  12.0265

     occupation numbers 
     1.0000   1.0000   1.0000   1.0000   1.0000   1.0000   1.0000   1.0000
     1.0000   1.0000   1.0000   1.0000   1.0000   1.0000   1.0000   1.0000
     1.0000   1.0000   1.0000   1.0000   1.0000   1.0000   1.0000   1.0000
     1.0000   1.0000   1.0000   1.0000   0.0000   0.0000   0.0000   0.0000
     0.0000   0.0000   0.0000   0.0000

          k =-0.0442-0.3094 0.4861 (  5599 PWs)   bands (ev):

   -15.1579 -15.1578 -15.1249 -15.1248 -15.0996 -15.0995 -15.0578 -15.0578
   -14.1635 -14.1635 -14.1266 -14.1266 -14.0808 -14.0807 -14.0227 -14.0227
   -13.9583 -13.9583 -13.9216 -13.9216  -1.4250  -1.4250   0.9108   0.9108
     4.0546   4.0546   5.2038   5.2038   8.9191   8.9191   9.9661   9.9661
    10.8462  10.8462  12.2333  12.2333

     occupation numbers 
     1.0000   1.0000   1.0000   1.0000   1.0000   1.0000   1.0000   1.0000
     1.0000   1.0000   1.0000   1.0000   1.0000   1.0000   1.0000   1.0000
     1.0000   1.0000   1.0000   1.0000   1.0000   1.0000   1.0000   1.0000
     1.0000   1.0000   1.0000   1.0000   0.0000   0.0000   0.0000   0.0000
     0.0000   0.0000   0.0000   0.0000

          k = 0.0000-0.2652 0.4419 (  5604 PWs)   bands (ev):

   -15.1573 -15.1573 -15.1284 -15.1284 -15.0957 -15.0956 -15.0593 -15.0593
   -14.1680 -14.1679 -14.1255 -14.1255 -14.0809 -14.0809 -14.0154 -14.0154
   -13.9595 -13.9594 -13.9249 -13.9249  -1.7231  -1.7231   1.3295   1.3295
     4.2484   4.2484   5.3939   5.3939   8.9096   8.9096   9.6230   9.6230
    10.6726  10.6726  12.0058  12.0059

     occupation numbers 
     1.0000   1.0000   1.0000   1.0000   1.0000   1.0000   1.0000   1.0000
     1.0000   1.0000   1.0000   1.0000   1.0000   1.0000   1.0000   1.0000
     1.0000   1.0000   1.0000   1.0000   1.0000   1.0000   1.0000   1.0000
     1.0000   1.0000   1.0000   1.0000   0.0000   0.0000   0.0000   0.0000
     0.0000   0.0000   0.0000   0.0000

          k =-0.1768-0.5303 0.7071 (  5616 PWs)   bands (ev):

   -15.1545 -15.1545 -15.1330 -15.1330 -15.0906 -15.0905 -15.0622 -15.0622
   -14.1626 -14.1626 -14.1283 -14.1283 -14.0793 -14.0793 -14.0233 -14.0233
   -13.9567 -13.9567 -13.9229 -13.9229  -1.4319  -1.4319   0.9486   0.9486
     4.4133   4.4133   4.8703   4.8703   8.5624   8.5624   8.9555   8.9556
    11.3565  11.3565  12.9557  12.9557

     occupation numbers 
     1.0000   1.0000   1.0000   1.0000   1.0000   1.0000   1.0000   1.0000
     1.0000   1.0000   1.0000   1.0000   1.0000   1.0000   1.0000   1.0000
     1.0000   1.0000   1.0000   1.0000   1.0000   1.0000   1.0000   1.0000
     1.0000   1.0000   1.0000   1.0000   0.0000   0.0000   0.0000   0.0000
     0.0000   0.0000   0.0000   0.0000

          k =-0.1326-0.4861 0.6629 (  5616 PWs)   bands (ev):

   -15.1556 -15.1556 -15.1298 -15.1297 -15.0944 -15.0943 -15.0600 -15.0600
   -14.1610 -14.1610 -14.1268 -14.1267 -14.0769 -14.0769 -14.0322 -14.0321
   -13.9562 -13.9562 -13.9195 -13.9195  -1.1280  -1.1280   0.5650   0.5650
     4.1858   4.1858   4.7482   4.7482   8.7339   8.7339   9.4198   9.4198
    11.1843  11.1843  12.9117  12.9117

     occupation numbers 
     1.0000   1.0000   1.0000   1.0000   1.0000   1.0000   1.0000   1.0000
     1.0000   1.0000   1.0000   1.0000   1.0000   1.0000   1.0000   1.0000
     1.0000   1.0000   1.0000   1.0000   1.0000   1.0000   1.0000   1.0000
     1.0000   1.0000   1.0000   1.0000   0.0000   0.0000   0.0000   0.0000
     0.0000   0.0000   0.0000   0.0000

          k =-0.0884-0.4419 0.6187 (  5594 PWs)   bands (ev):

   -15.1566 -15.1566 -15.1266 -15.1266 -15.0980 -15.0979 -15.0582 -15.0582
   -14.1612 -14.1612 -14.1240 -14.1240 -14.0751 -14.0751 -14.0383 -14.0383
   -13.9569 -13.9569 -13.9168 -13.9168  -0.8901  -0.8901   0.2898   0.2898
     3.9907   3.9907   4.7368   4.7368   8.7932   8.7932  10.1331  10.1331
    11.0857  11.0857  12.3414  12.3415

     occupation numbers 
     1.0000   1.0000   1.0000   1.0000   1.0000   1.0000   1.0000   1.0000
     1.0000   1.0000   1.0000   1.0000   1.0000   1.0000   1.0000   1.0000
     1.0000   1.0000   1.0000   1.0000   1.0000   1.0000   1.0000   1.0000
     1.0000   1.0000   1.0000   1.0000   0.0000   0.0000   0.0000   0.0000
     0.0000   0.0000   0.0000   0.0000

          k =-0.0442-0.3977 0.5745 (  5598 PWs)   bands (ev):

   -15.1574 -15.1574 -15.1243 -15.1242 -15.1006 -15.1005 -15.0572 -15.0572
   -14.1617 -14.1617 -14.1230 -14.1230 -14.0753 -14.0753 -14.0387 -14.0386
   -13.9576 -13.9576 -13.9161 -13.9161  -0.8922  -0.8922   0.2947   0.2947
     3.8797   3.8797   4.8242   4.8242   8.8698   8.8698  10.5919  10.5919
    11.2939  11.2939  11.6324  11.6324

     occupation numbers 
     1.0000   1.0000   1.0000   1.0000   1.0000   1.0000   1.0000   1.0000
     1.0000   1.0000   1.0000   1.0000   1.0000   1.0000   1.0000   1.0000
     1.0000   1.0000   1.0000   1.0000   1.0000   1.0000   1.0000   1.0000
     1.0000   1.0000   1.0000   1.0000   0.0000   0.0000   0.0000   0.0000
     0.0000   0.0000   0.0000   0.0000

          k = 0.0000-0.3536 0.5303 (  5604 PWs)   bands (ev):

   -15.1578 -15.1578 -15.1236 -15.1235 -15.1012 -15.1012 -15.0571 -15.0571
   -14.1622 -14.1622 -14.1244 -14.1244 -14.0777 -14.0777 -14.0327 -14.0326
   -13.9579 -13.9579 -13.9178 -13.9178  -1.1275  -1.1275   0.5634   0.5634
     3.8927   3.8927   4.9888   4.9888   8.9448   8.9448  10.4584  10.4584
    10.9247  10.9247  12.1026  12.1027

     occupation numbers 
     1.0000   1.0000   1.0000   1.0000   1.0000   1.0000   1.0000   1.0000
     1.0000   1.0000   1.0000   1.0000   1.0000   1.0000   1.0000   1.0000
     1.0000   1.0000   1.0000   1.0000   1.0000   1.0000   1.0000   1.0000
     1.0000   1.0000   1.0000   1.0000   0.0000   0.0000   0.0000   0.0000
     0.0000   0.0000   0.0000   0.0000

          k =-0.0884-0.5303 0.7071 (  5609 PWs)   bands (ev):

   -15.1537 -15.1537 -15.1330 -15.1330 -15.0906 -15.0906 -15.0623 -15.0623
   -14.1588 -14.1588 -14.1290 -14.1290 -14.0716 -14.0716 -14.0393 -14.0393
   -13.9529 -13.9529 -13.9204 -13.9204  -0.9057  -0.9057   0.2978   0.2978
     4.3321   4.3321   4.5887   4.5887   8.5273   8.5273   8.7818   8.7818
    12.0231  12.0231  13.2463  13.2463

     occupation numbers 
     1.0000   1.0000   1.0000   1.0000   1.0000   1.0000   1.0000   1.0000
     1.0000   1.0000   1.0000   1.0000   1.0000   1.0000   1.0000   1.0000
     1.0000   1.0000   1.0000   1.0000   1.0000   1.0000   1.0000   1.0000
     1.0000   1.0000   1.0000   1.0000   0.0000   0.0000   0.0000   0.0000
     0.0000   0.0000   0.0000   0.0000

          k =-0.0442-0.4861 0.6629 (  5593 PWs)   bands (ev):

   -15.1550 -15.1550 -15.1301 -15.1301 -15.0942 -15.0941 -15.0601 -15.0601
   -14.1601 -14.1601 -14.1253 -14.1253 -14.0679 -14.0679 -14.0469 -14.0469
   -13.9546 -13.9546 -13.9170 -13.9170  -0.6223  -0.6223  -0.0016  -0.0016
     4.1291   4.1291   4.5416   4.5416   8.6844   8.6844   9.3659   9.3659
    11.8413  11.8413  12.5596  12.5596

     occupation numbers 
     1.0000   1.0000   1.0000   1.0000   1.0000   1.0000   1.0000   1.0000
     1.0000   1.0000   1.0000   1.0000   1.0000   1.0000   1.0000   1.0000
     1.0000   1.0000   1.0000   1.0000   1.0000   1.0000   1.0000   1.0000
     1.0000   1.0000   1.0000   1.0000   0.0000   0.0000   0.0000   0.0000
     0.0000   0.0000   0.0000   0.0000

          k = 0.0000-0.4419 0.6187 (  5590 PWs)   bands (ev):

   -15.1563 -15.1563 -15.1270 -15.1270 -15.0977 -15.0977 -15.0582 -15.0582
   -14.1613 -14.1613 -14.1227 -14.1227 -14.0695 -14.0695 -14.0467 -14.0467
   -13.9564 -13.9564 -13.9153 -13.9153  -0.6245  -0.6245   0.0099   0.0099
     3.9417   3.9417   4.6413   4.6413   8.7742   8.7742  10.1708  10.1708
    11.6497  11.6497  11.7488  11.7488

     occupation numbers 
     1.0000   1.0000   1.0000   1.0000   1.0000   1.0000   1.0000   1.0000
     1.0000   1.0000   1.0000   1.0000   1.0000   1.0000   1.0000   1.0000
     1.0000   1.0000   1.0000   1.0000   1.0000   1.0000   1.0000   1.0000
     1.0000   1.0000   1.0000   1.0000   0.0000   0.0000   0.0000   0.0000
     0.0000   0.0000   0.0000   0.0000

          k =-0.7071 0.1768 0.0000 (  5594 PWs)   bands (ev):

   -15.1533 -15.1533 -15.1332 -15.1332 -15.0904 -15.0904 -15.0624 -15.0624
   -14.1581 -14.1581 -14.1287 -14.1287 -14.0623 -14.0622 -14.0517 -14.0516
   -13.9515 -13.9515 -13.9194 -13.9194  -0.3402  -0.3402  -0.3094  -0.3094
     4.3303   4.3303   4.4680   4.4680   8.5442   8.5442   8.6836   8.6836
    12.6641  12.6641  12.8260  12.8260

     occupation numbers 
     1.0000   1.0000   1.0000   1.0000   1.0000   1.0000   1.0000   1.0000
     1.0000   1.0000   1.0000   1.0000   1.0000   1.0000   1.0000   1.0000
     1.0000   1.0000   1.0000   1.0000   1.0000   1.0000   1.0000   1.0000
     1.0000   1.0000   1.0000   1.0000   0.0000   0.0000   0.0000   0.0000
     0.0000   0.0000   0.0000   0.0000

          k =-0.1768-0.4419 0.7071 (  5610 PWs)   bands (ev):

   -15.1568 -15.1568 -15.1275 -15.1274 -15.0970 -15.0969 -15.0587 -15.0587
   -14.1626 -14.1626 -14.1259 -14.1259 -14.0791 -14.0791 -14.0275 -14.0275
   -13.9580 -13.9580 -13.9198 -13.9198  -1.2982  -1.2982   0.7760   0.7760
     4.1091   4.1091   4.9040   4.9040   9.2574   9.2574   9.5350   9.5350
    10.6292  10.6292  12.6886  12.6886

     occupation numbers 
     1.0000   1.0000   1.0000   1.0000   1.0000   1.0000   1.0000   1.0000
     1.0000   1.0000   1.0000   1.0000   1.0000   1.0000   1.0000   1.0000
     1.0000   1.0000   1.0000   1.0000   1.0000   1.0000   1.0000   1.0000
     1.0000   1.0000   1.0000   1.0000   0.0000   0.0000   0.0000   0.0000
     0.0000   0.0000   0.0000   0.0000

          k =-0.1326-0.3977 0.6629 (  5595 PWs)   bands (ev):

   -15.1572 -15.1572 -15.1253 -15.1252 -15.0995 -15.0994 -15.0576 -15.0576
   -14.1619 -14.1619 -14.1236 -14.1236 -14.0768 -14.0768 -14.0354 -14.0354
   -13.9580 -13.9580 -13.9168 -13.9167  -1.0147  -1.0147   0.4375   0.4375
     3.9818   3.9818   4.7495   4.7495   9.3289   9.3289   9.9780   9.9780
    10.7391  10.7391  12.2285  12.2285

     occupation numbers 
     1.0000   1.0000   1.0000   1.0000   1.0000   1.0000   1.0000   1.0000
     1.0000   1.0000   1.0000   1.0000   1.0000   1.0000   1.0000   1.0000
     1.0000   1.0000   1.0000   1.0000   1.0000   1.0000   1.0000   1.0000
     1.0000   1.0000   1.0000   1.0000   0.0000   0.0000   0.0000   0.0000
     0.0000   0.0000   0.0000   0.0000

          k =-0.0884-0.3536 0.6187 (  5598 PWs)   bands (ev):

   -15.1573 -15.1573 -15.1245 -15.1244 -15.1005 -15.1004 -15.0572 -15.0572
   -14.1619 -14.1619 -14.1223 -14.1223 -14.0758 -14.0758 -14.0386 -14.0386
   -13.9581 -13.9580 -13.9156 -13.9156  -0.8768  -0.8768   0.2802   0.2802
     3.9413   3.9413   4.6930   4.6930   9.3339   9.3340  10.0969  10.0969
    11.2392  11.2392  11.5732  11.5732

     occupation numbers 
     1.0000   1.0000   1.0000   1.0000   1.0000   1.0000   1.0000   1.0000
     1.0000   1.0000   1.0000   1.0000   1.0000   1.0000   1.0000   1.0000
     1.0000   1.0000   1.0000   1.0000   1.0000   1.0000   1.0000   1.0000
     1.0000   1.0000   1.0000   1.0000   0.0000   0.0000   0.0000   0.0000
     0.0000   0.0000   0.0000   0.0000

          k =-0.0884-0.4419 0.7071 (  5594 PWs)   bands (ev):

   -15.1561 -15.1561 -15.1279 -15.1279 -15.0967 -15.0967 -15.0587 -15.0586
   -14.1614 -14.1614 -14.1234 -14.1234 -14.0725 -14.0725 -14.0420 -14.0420
   -13.9568 -13.9568 -13.9160 -13.9160  -0.8223  -0.8223   0.2280   0.2280
     4.0925   4.0925   4.5180   4.5180   9.3163   9.3163   9.5309   9.5309
    11.0077  11.0077  12.3947  12.3947

     occupation numbers 
     1.0000   1.0000   1.0000   1.0000   1.0000   1.0000   1.0000   1.0000
     1.0000   1.0000   1.0000   1.0000   1.0000   1.0000   1.0000   1.0000
     1.0000   1.0000   1.0000   1.0000   1.0000   1.0000   1.0000   1.0000
     1.0000   1.0000   1.0000   1.0000   0.0000   0.0000   0.0000   0.0000
     0.0000   0.0000   0.0000   0.0000

          k =-0.0442-0.3977 0.6629 (  5599 PWs)   bands (ev):

   -15.1566 -15.1566 -15.1263 -15.1263 -15.0987 -15.0986 -15.0576 -15.0576
   -14.1621 -14.1621 -14.1208 -14.1208 -14.0695 -14.0695 -14.0479 -14.0478
   -13.9576 -13.9576 -13.9141 -13.9141  -0.6028  -0.6028  -0.0007  -0.0007
     4.0106   4.0106   4.4387   4.4387   9.4582   9.4582  10.1666  10.1666
    10.9323  10.9323  11.5460  11.5460

     occupation numbers 
     1.0000   1.0000   1.0000   1.0000   1.0000   1.0000   1.0000   1.0000
     1.0000   1.0000   1.0000   1.0000   1.0000   1.0000   1.0000   1.0000
     1.0000   1.0000   1.0000   1.0000   1.0000   1.0000   1.0000   1.0000
     1.0000   1.0000   1.0000   1.0000   0.0000   0.0000   0.0000   0.0000
     0.0000   0.0000   0.0000   0.0000

          k =-0.0000-0.3536 0.6187 (  5600 PWs)   bands (ev):

   -15.1570 -15.1570 -15.1253 -15.1253 -15.0997 -15.0997 -15.0572 -15.0572
   -14.1623 -14.1623 -14.1209 -14.1209 -14.0719 -14.0719 -14.0448 -14.0448
   -13.9580 -13.9580 -13.9143 -13.9143  -0.7245  -0.7245   0.1289   0.1289
     3.9499   3.9499   4.5380   4.5380   9.5071   9.5071  10.3482  10.3482
    10.8197  10.8197  11.4536  11.4536

     occupation numbers 
     1.0000   1.0000   1.0000   1.0000   1.0000   1.0000   1.0000   1.0000
     1.0000   1.0000   1.0000   1.0000   1.0000   1.0000   1.0000   1.0000
     1.0000   1.0000   1.0000   1.0000   1.0000   1.0000   1.0000   1.0000
     1.0000   1.0000   1.0000   1.0000   0.0000   0.0000   0.0000   0.0000
     0.0000   0.0000   0.0000   0.0000

          k =-0.7071 0.2652 0.0000 (  5604 PWs)   bands (ev):

   -15.1558 -15.1558 -15.1283 -15.1283 -15.0964 -15.0964 -15.0587 -15.0587
   -14.1614 -14.1614 -14.1221 -14.1221 -14.0650 -14.0649 -14.0524 -14.0523
   -13.9563 -13.9563 -13.9147 -13.9147  -0.3293  -0.3292  -0.2883  -0.2883
     4.1543   4.1543   4.3182   4.3182   9.3154   9.3154   9.5115   9.5115
    11.6213  11.6213  11.7275  11.7275

     occupation numbers 
     1.0000   1.0000   1.0000   1.0000   1.0000   1.0000   1.0000   1.0000
     1.0000   1.0000   1.0000   1.0000   1.0000   1.0000   1.0000   1.0000
     1.0000   1.0000   1.0000   1.0000   1.0000   1.0000   1.0000   1.0000
     1.0000   1.0000   1.0000   1.0000   0.0000   0.0000   0.0000   0.0000
     0.0000   0.0000   0.0000   0.0000

          k =-0.7071 0.3536 0.0000 (  5604 PWs)   bands (ev):

   -15.1566 -15.1566 -15.1262 -15.1262 -15.0989 -15.0989 -15.0574 -15.0574
   -14.1626 -14.1626 -14.1195 -14.1194 -14.0660 -14.0659 -14.0530 -14.0529
   -13.9580 -13.9580 -13.9131 -13.9131  -0.3244  -0.3243  -0.2797  -0.2797
     4.0884   4.0884   4.2602   4.2602   9.9110   9.9110  10.2326  10.2326
    10.9099  10.9099  10.9310  10.9310

     occupation numbers 
     1.0000   1.0000   1.0000   1.0000   1.0000   1.0000   1.0000   1.0000
     1.0000   1.0000   1.0000   1.0000   1.0000   1.0000   1.0000   1.0000
     1.0000   1.0000   1.0000   1.0000   1.0000   1.0000   1.0000   1.0000
     1.0000   1.0000   1.0000   1.0000   0.0000   0.0000   0.0000   0.0000
     0.0000   0.0000   0.0000   0.0000

     the Fermi energy is     6.9467 ev

!    total energy              =    -885.88036914 Ry
     Harris-Foulkes estimate   =    -885.88036914 Ry
     estimated scf accuracy    <       0.00000003 Ry

     total all-electron energy =    -24716.580119 Ry

     The total energy is the sum of the following terms:

     one-electron contribution =    -153.97277971 Ry
     hartree contribution      =      95.61171328 Ry
     xc contribution           =     -96.12345956 Ry
     ewald contribution        =    -167.52979533 Ry
     one-center paw contrib.   =    -563.86604775 Ry
     smearing contrib. (-TS)   =      -0.00000006 Ry

     convergence has been achieved in   6 iterations

     Writing output data file Sn.save
 
     init_run     :      9.65s CPU     10.73s WALL (       1 calls)
     electrons    :    231.96s CPU    255.38s WALL (       1 calls)

     Called by init_run:
     wfcinit      :      8.95s CPU      9.93s WALL (       1 calls)
     potinit      :      0.29s CPU      0.31s WALL (       1 calls)

     Called by electrons:
     c_bands      :    192.55s CPU    212.21s WALL (       7 calls)
     sum_band     :     37.15s CPU     40.68s WALL (       7 calls)
     v_of_rho     :      0.08s CPU      0.09s WALL (       7 calls)
     v_h          :      0.01s CPU      0.01s WALL (       7 calls)
     v_xc         :      0.08s CPU      0.09s WALL (       7 calls)
     newd         :      0.61s CPU      0.70s WALL (       7 calls)
     PAW_pot      :      1.85s CPU      1.94s WALL (       7 calls)
     mix_rho      :      0.03s CPU      0.06s WALL (       7 calls)

     Called by c_bands:
     init_us_2    :      0.78s CPU      0.86s WALL (    2175 calls)
     cegterg      :    179.46s CPU    198.89s WALL (    1015 calls)

     Called by sum_band:
     sum_band:bec :      3.46s CPU      3.52s WALL (    1015 calls)
     addusdens    :      0.50s CPU      0.62s WALL (       7 calls)

     Called by *egterg:
     h_psi        :    142.45s CPU    158.13s WALL (    3522 calls)
     s_psi        :      6.03s CPU      6.06s WALL (    3522 calls)
     g_psi        :      0.57s CPU      0.58s WALL (    2362 calls)
     cdiaghg      :     13.64s CPU     13.86s WALL (    3232 calls)
     cegterg:over :      9.97s CPU     10.01s WALL (    2362 calls)
     cegterg:upda :      5.21s CPU      5.24s WALL (    2362 calls)
     cegterg:last :      2.85s CPU      2.86s WALL (    1015 calls)

     Called by h_psi:
     h_psi:vloc   :    127.77s CPU    143.14s WALL (    3522 calls)
     h_psi:vnl    :     13.95s CPU     14.21s WALL (    3522 calls)
     add_vuspsi   :      6.42s CPU      6.49s WALL (    3522 calls)

     General routines
     calbec       :     10.20s CPU     10.43s WALL (    4537 calls)
     fft          :      0.09s CPU      0.11s WALL (     135 calls)
     fftw         :    136.37s CPU    152.93s WALL (  459112 calls)
     davcio       :      0.10s CPU      0.61s WALL (     145 calls)
 
     Parallel routines
     fft_scatter  :     59.91s CPU     67.04s WALL (  459247 calls)

     PAW routines
     PAW_pot      :      1.85s CPU      1.94s WALL (       7 calls)
     PAW_symme    :      0.03s CPU      0.03s WALL (      14 calls)
 
     PWSCF        :  4m 3.20s CPU     4m28.40s WALL

 
   This run was terminated on:   6: 8:42   9Mar2020            

=------------------------------------------------------------------------------=
   JOB DONE.
=------------------------------------------------------------------------------=
