
     Program PWSCF v.5.4.0 starts on  9Mar2020 at  5:19:25 

     This program is part of the open-source Quantum ESPRESSO suite
     for quantum simulation of materials; please cite
         "P. Giannozzi et al., J. Phys.:Condens. Matter 21 395502 (2009);
          URL http://www.quantum-espresso.org", 
     in publications or presentations arising from this work. More details at
     http://www.quantum-espresso.org/quote

     Parallel version (MPI & OpenMP), running on      16 processor cores
     Number of MPI processes:                16
     Threads/MPI process:                     1
     R & G space division:  proc/nbgrp/npool/nimage =      16
     Waiting for input...
     Reading input from standard input
Warning: card &IONS ignored
Warning: card / ignored
Warning: card &CELL ignored
Warning: card / ignored

     Current dimensions of program PWSCF are:
     Max number of different atomic species (ntypx) = 10
     Max number of k-points (npk) =  40000
     Max angular momentum in pseudopotentials (lmaxx) =  3
               file Sn.rel-pbe-dn-kjpaw_psl.1.0.0.UPF: wavefunction(s)  5S 5P 5P 4D 4D renormalized

     Subspace diagonalization in iterative solution of the eigenvalue problem:
     a serial algorithm will be used

 
     Parallelization info
     --------------------
     sticks:   dense  smooth     PW     G-vecs:    dense   smooth      PW
     Min         103     103     30                 2825     2825     444
     Max         104     104     32                 2829     2829     446
     Sum        1663    1663    499                45239    45239    7119
 

     Title: 
     Sn                                                                         


     bravais-lattice index     =            0
     lattice parameter (alat)  =       8.9528  a.u.
     unit-cell volume          =     507.4123 (a.u.)^3
     number of atoms/cell      =            2
     number of atomic types    =            1
     number of electrons       =        28.00
     number of Kohn-Sham states=           36
     kinetic-energy cutoff     =      76.0000  Ry
     charge density cutoff     =     304.0000  Ry
     convergence threshold     =      1.0E-06
     mixing beta               =       0.7000
     number of iterations used =            8  plain     mixing
     Exchange-correlation      =  SLA  PW   PBX  PBC ( 1  4  3  4 0 0)
     Non magnetic calculation with spin-orbit


     celldm(1)=   8.952796  celldm(2)=   0.000000  celldm(3)=   0.000000
     celldm(4)=   0.000000  celldm(5)=   0.000000  celldm(6)=   0.000000

     crystal axes: (cart. coord. in units of alat)
               a(1) = (   0.000000   0.707107   0.707107 )  
               a(2) = (   0.707107   0.000000   0.707107 )  
               a(3) = (   0.707107   0.707107   0.000000 )  

     reciprocal axes: (cart. coord. in units 2 pi/alat)
               b(1) = ( -0.707107  0.707107  0.707107 )  
               b(2) = (  0.707107 -0.707107  0.707107 )  
               b(3) = (  0.707107  0.707107 -0.707107 )  


     PseudoPot. # 1 for Sn read from file:
     ../PseudopotentialDatabase/Sn.rel-pbe-dn-kjpaw_psl.1.0.0.UPF
     MD5 check sum: 6bcaba2b82cf8d008985ef5bb9854e68
     Pseudo is Projector augmented-wave + core cor, Zval = 14.0
     Generated using "atomic" code by A. Dal Corso  v.6.3
     Shape of augmentation charge: PSQ
     Using radial grid of 1243 points, 10 beta functions with: 
                l(1) =   0
                l(2) =   0
                l(3) =   1
                l(4) =   1
                l(5) =   1
                l(6) =   1
                l(7) =   2
                l(8) =   2
                l(9) =   2
               l(10) =   2
     Q(r) pseudized with 0 coefficients 


     atomic species   valence    mass     pseudopotential
        Sn            14.00   118.71000     Sn( 1.00)

     24 Sym. Ops. (no inversion) found
          (note: 24 additional sym.ops. were found but ignored
           their fractional translations are incommensurate with FFT grid)

                                    s                        frac. trans.

      isym =  1     identity                                     

 cryst.   s( 1) = (     1          0          0      )
                  (     0          1          0      )
                  (     0          0          1      )

 cart.    s( 1) = (  1.0000000  0.0000000  0.0000000 )
                  (  0.0000000  1.0000000  0.0000000 )
                  (  0.0000000  0.0000000  1.0000000 )


      isym =  2     180 deg rotation - cart. axis [0,0,1]        

 cryst.   s( 2) = (     0          1         -1      )
                  (     1          0         -1      )
                  (     0          0         -1      )

 cart.    s( 2) = ( -1.0000000  0.0000000  0.0000000 )
                  (  0.0000000 -1.0000000  0.0000000 )
                  (  0.0000000  0.0000000  1.0000000 )


      isym =  3     180 deg rotation - cart. axis [0,1,0]        

 cryst.   s( 3) = (     0         -1          1      )
                  (     0         -1          0      )
                  (     1         -1          0      )

 cart.    s( 3) = ( -1.0000000  0.0000000  0.0000000 )
                  (  0.0000000  1.0000000  0.0000000 )
                  (  0.0000000  0.0000000 -1.0000000 )


      isym =  4     180 deg rotation - cart. axis [1,0,0]        

 cryst.   s( 4) = (    -1          0          0      )
                  (    -1          0          1      )
                  (    -1          1          0      )

 cart.    s( 4) = (  1.0000000  0.0000000  0.0000000 )
                  (  0.0000000 -1.0000000  0.0000000 )
                  (  0.0000000  0.0000000 -1.0000000 )


      isym =  5     120 deg rotation - cart. axis [-1,-1,-1]     

 cryst.   s( 5) = (     0          0          1      )
                  (     1          0          0      )
                  (     0          1          0      )

 cart.    s( 5) = (  0.0000000  1.0000000  0.0000000 )
                  (  0.0000000  0.0000000  1.0000000 )
                  (  1.0000000  0.0000000  0.0000000 )


      isym =  6     120 deg rotation - cart. axis [-1,1,1]       

 cryst.   s( 6) = (     1         -1          0      )
                  (     0         -1          1      )
                  (     0         -1          0      )

 cart.    s( 6) = (  0.0000000 -1.0000000  0.0000000 )
                  (  0.0000000  0.0000000  1.0000000 )
                  ( -1.0000000  0.0000000  0.0000000 )


      isym =  7     120 deg rotation - cart. axis [1,1,-1]       

 cryst.   s( 7) = (    -1          1          0      )
                  (    -1          0          0      )
                  (    -1          0          1      )

 cart.    s( 7) = (  0.0000000  1.0000000  0.0000000 )
                  (  0.0000000  0.0000000 -1.0000000 )
                  ( -1.0000000  0.0000000  0.0000000 )


      isym =  8     120 deg rotation - cart. axis [1,-1,1]       

 cryst.   s( 8) = (     0          0         -1      )
                  (     0          1         -1      )
                  (     1          0         -1      )

 cart.    s( 8) = (  0.0000000 -1.0000000  0.0000000 )
                  (  0.0000000  0.0000000 -1.0000000 )
                  (  1.0000000  0.0000000  0.0000000 )


      isym =  9     120 deg rotation - cart. axis [1,1,1]        

 cryst.   s( 9) = (     0          1          0      )
                  (     0          0          1      )
                  (     1          0          0      )

 cart.    s( 9) = (  0.0000000  0.0000000  1.0000000 )
                  (  1.0000000  0.0000000  0.0000000 )
                  (  0.0000000  1.0000000  0.0000000 )


      isym = 10     120 deg rotation - cart. axis [-1,1,-1]      

 cryst.   s(10) = (    -1          0          1      )
                  (    -1          1          0      )
                  (    -1          0          0      )

 cart.    s(10) = (  0.0000000  0.0000000  1.0000000 )
                  ( -1.0000000  0.0000000  0.0000000 )
                  (  0.0000000 -1.0000000  0.0000000 )


      isym = 11     120 deg rotation - cart. axis [1,-1,-1]      

 cryst.   s(11) = (     1          0         -1      )
                  (     0          0         -1      )
                  (     0          1         -1      )

 cart.    s(11) = (  0.0000000  0.0000000 -1.0000000 )
                  ( -1.0000000  0.0000000  0.0000000 )
                  (  0.0000000  1.0000000  0.0000000 )


      isym = 12     120 deg rotation - cart. axis [-1,-1,1]      

 cryst.   s(12) = (     0         -1          0      )
                  (     1         -1          0      )
                  (     0         -1          1      )

 cart.    s(12) = (  0.0000000  0.0000000 -1.0000000 )
                  (  1.0000000  0.0000000  0.0000000 )
                  (  0.0000000 -1.0000000  0.0000000 )


      isym = 13     inv. 180 deg rotation - cart. axis [1,1,0]   

 cryst.   s(13) = (     1          0         -1      )
                  (     0          1         -1      )
                  (     0          0         -1      )

 cart.    s(13) = (  0.0000000 -1.0000000  0.0000000 )
                  ( -1.0000000  0.0000000  0.0000000 )
                  (  0.0000000  0.0000000  1.0000000 )


      isym = 14     inv. 180 deg rotation - cart. axis [1,-1,0]  

 cryst.   s(14) = (     0          1          0      )
                  (     1          0          0      )
                  (     0          0          1      )

 cart.    s(14) = (  0.0000000  1.0000000  0.0000000 )
                  (  1.0000000  0.0000000  0.0000000 )
                  (  0.0000000  0.0000000  1.0000000 )


      isym = 15     inv.  90 deg rotation - cart. axis [0,0,-1]  

 cryst.   s(15) = (     0         -1          0      )
                  (     0         -1          1      )
                  (     1         -1          0      )

 cart.    s(15) = (  0.0000000 -1.0000000  0.0000000 )
                  (  1.0000000  0.0000000  0.0000000 )
                  (  0.0000000  0.0000000 -1.0000000 )


      isym = 16     inv.  90 deg rotation - cart. axis [0,0,1]   

 cryst.   s(16) = (    -1          0          1      )
                  (    -1          0          0      )
                  (    -1          1          0      )

 cart.    s(16) = (  0.0000000  1.0000000  0.0000000 )
                  ( -1.0000000  0.0000000  0.0000000 )
                  (  0.0000000  0.0000000 -1.0000000 )


      isym = 17     inv. 180 deg rotation - cart. axis [1,0,1]   

 cryst.   s(17) = (     1         -1          0      )
                  (     0         -1          0      )
                  (     0         -1          1      )

 cart.    s(17) = (  0.0000000  0.0000000 -1.0000000 )
                  (  0.0000000  1.0000000  0.0000000 )
                  ( -1.0000000  0.0000000  0.0000000 )


      isym = 18     inv. 180 deg rotation - cart. axis [-1,0,1]  

 cryst.   s(18) = (     0          0          1      )
                  (     0          1          0      )
                  (     1          0          0      )

 cart.    s(18) = (  0.0000000  0.0000000  1.0000000 )
                  (  0.0000000  1.0000000  0.0000000 )
                  (  1.0000000  0.0000000  0.0000000 )


      isym = 19     inv.  90 deg rotation - cart. axis [0,1,0]   

 cryst.   s(19) = (     0          0         -1      )
                  (     1          0         -1      )
                  (     0          1         -1      )

 cart.    s(19) = (  0.0000000  0.0000000 -1.0000000 )
                  (  0.0000000 -1.0000000  0.0000000 )
                  (  1.0000000  0.0000000  0.0000000 )


      isym = 20     inv.  90 deg rotation - cart. axis [0,-1,0]  

 cryst.   s(20) = (    -1          1          0      )
                  (    -1          0          1      )
                  (    -1          0          0      )

 cart.    s(20) = (  0.0000000  0.0000000  1.0000000 )
                  (  0.0000000 -1.0000000  0.0000000 )
                  ( -1.0000000  0.0000000  0.0000000 )


      isym = 21     inv. 180 deg rotation - cart. axis [0,1,1]   

 cryst.   s(21) = (    -1          0          0      )
                  (    -1          1          0      )
                  (    -1          0          1      )

 cart.    s(21) = (  1.0000000  0.0000000  0.0000000 )
                  (  0.0000000  0.0000000 -1.0000000 )
                  (  0.0000000 -1.0000000  0.0000000 )


      isym = 22     inv. 180 deg rotation - cart. axis [0,1,-1]  

 cryst.   s(22) = (     1          0          0      )
                  (     0          0          1      )
                  (     0          1          0      )

 cart.    s(22) = (  1.0000000  0.0000000  0.0000000 )
                  (  0.0000000  0.0000000  1.0000000 )
                  (  0.0000000  1.0000000  0.0000000 )


      isym = 23     inv.  90 deg rotation - cart. axis [-1,0,0]  

 cryst.   s(23) = (     0          1         -1      )
                  (     0          0         -1      )
                  (     1          0         -1      )

 cart.    s(23) = ( -1.0000000  0.0000000  0.0000000 )
                  (  0.0000000  0.0000000 -1.0000000 )
                  (  0.0000000  1.0000000  0.0000000 )


      isym = 24     inv.  90 deg rotation - cart. axis [1,0,0]   

 cryst.   s(24) = (     0         -1          1      )
                  (     1         -1          0      )
                  (     0         -1          0      )

 cart.    s(24) = ( -1.0000000  0.0000000  0.0000000 )
                  (  0.0000000  0.0000000  1.0000000 )
                  (  0.0000000 -1.0000000  0.0000000 )


   Cartesian axes

     site n.     atom                  positions (alat units)
         1           Sn  tau(   1) = (   0.0000000   0.0000000   0.0000000  )
         2           Sn  tau(   2) = (   0.3535534   0.3535534   0.3535534  )

   Crystallographic axes

     site n.     atom                  positions (cryst. coord.)
         1           Sn  tau(   1) = (  0.0000000  0.0000000  0.0000000  )
         2           Sn  tau(   2) = (  0.2500000  0.2500000  0.2500000  )

     number of k points=   145  gaussian smearing, width (Ry)=  0.0001
                       cart. coord. in units 2pi/alat
        k(    1) = (   0.0000000   0.0000000   0.0000000), wk =   0.0002441
        k(    2) = (   0.0441942   0.0441942  -0.0441942), wk =   0.0019531
        k(    3) = (   0.0883883   0.0883883  -0.0883883), wk =   0.0019531
        k(    4) = (   0.1325825   0.1325825  -0.1325825), wk =   0.0019531
        k(    5) = (   0.1767767   0.1767767  -0.1767767), wk =   0.0019531
        k(    6) = (   0.2209709   0.2209709  -0.2209709), wk =   0.0019531
        k(    7) = (   0.2651650   0.2651650  -0.2651650), wk =   0.0019531
        k(    8) = (   0.3093592   0.3093592  -0.3093592), wk =   0.0019531
        k(    9) = (  -0.3535534  -0.3535534   0.3535534), wk =   0.0009766
        k(   10) = (   0.0883883   0.0000000   0.0000000), wk =   0.0014648
        k(   11) = (   0.1325825   0.0441942  -0.0441942), wk =   0.0058594
        k(   12) = (   0.1767767   0.0883883  -0.0883883), wk =   0.0058594
        k(   13) = (   0.2209709   0.1325825  -0.1325825), wk =   0.0058594
        k(   14) = (   0.2651650   0.1767767  -0.1767767), wk =   0.0058594
        k(   15) = (   0.3093592   0.2209709  -0.2209709), wk =   0.0058594
        k(   16) = (   0.3535534   0.2651650  -0.2651650), wk =   0.0058594
        k(   17) = (  -0.3093592  -0.3977476   0.3977476), wk =   0.0058594
        k(   18) = (  -0.2651650  -0.3535534   0.3535534), wk =   0.0058594
        k(   19) = (  -0.2209709  -0.3093592   0.3093592), wk =   0.0058594
        k(   20) = (  -0.1767767  -0.2651650   0.2651650), wk =   0.0058594
        k(   21) = (  -0.1325825  -0.2209709   0.2209709), wk =   0.0058594
        k(   22) = (  -0.0883883  -0.1767767   0.1767767), wk =   0.0058594
        k(   23) = (  -0.0441942  -0.1325825   0.1325825), wk =   0.0058594
        k(   24) = (   0.0000000  -0.0883883   0.0883883), wk =   0.0029297
        k(   25) = (   0.1767767   0.0000000   0.0000000), wk =   0.0014648
        k(   26) = (   0.2209709   0.0441942  -0.0441942), wk =   0.0058594
        k(   27) = (   0.2651650   0.0883883  -0.0883883), wk =   0.0058594
        k(   28) = (   0.3093592   0.1325825  -0.1325825), wk =   0.0058594
        k(   29) = (   0.3535534   0.1767767  -0.1767767), wk =   0.0058594
        k(   30) = (   0.3977476   0.2209709  -0.2209709), wk =   0.0058594
        k(   31) = (  -0.2651650  -0.4419417   0.4419417), wk =   0.0058594
        k(   32) = (  -0.2209709  -0.3977476   0.3977476), wk =   0.0058594
        k(   33) = (  -0.1767767  -0.3535534   0.3535534), wk =   0.0058594
        k(   34) = (  -0.1325825  -0.3093592   0.3093592), wk =   0.0058594
        k(   35) = (  -0.0883883  -0.2651650   0.2651650), wk =   0.0058594
        k(   36) = (  -0.0441942  -0.2209709   0.2209709), wk =   0.0058594
        k(   37) = (   0.0000000  -0.1767767   0.1767767), wk =   0.0029297
        k(   38) = (   0.2651650   0.0000000   0.0000000), wk =   0.0014648
        k(   39) = (   0.3093592   0.0441942  -0.0441942), wk =   0.0058594
        k(   40) = (   0.3535534   0.0883883  -0.0883883), wk =   0.0058594
        k(   41) = (   0.3977476   0.1325825  -0.1325825), wk =   0.0058594
        k(   42) = (   0.4419417   0.1767767  -0.1767767), wk =   0.0058594
        k(   43) = (  -0.2209709  -0.4861359   0.4861359), wk =   0.0058594
        k(   44) = (  -0.1767767  -0.4419417   0.4419417), wk =   0.0058594
        k(   45) = (  -0.1325825  -0.3977476   0.3977476), wk =   0.0058594
        k(   46) = (  -0.0883883  -0.3535534   0.3535534), wk =   0.0058594
        k(   47) = (  -0.0441942  -0.3093592   0.3093592), wk =   0.0058594
        k(   48) = (   0.0000000  -0.2651650   0.2651650), wk =   0.0029297
        k(   49) = (   0.3535534   0.0000000   0.0000000), wk =   0.0014648
        k(   50) = (   0.3977476   0.0441942  -0.0441942), wk =   0.0058594
        k(   51) = (   0.4419417   0.0883883  -0.0883883), wk =   0.0058594
        k(   52) = (   0.4861359   0.1325825  -0.1325825), wk =   0.0058594
        k(   53) = (  -0.1767767  -0.5303301   0.5303301), wk =   0.0058594
        k(   54) = (  -0.1325825  -0.4861359   0.4861359), wk =   0.0058594
        k(   55) = (  -0.0883883  -0.4419417   0.4419417), wk =   0.0058594
        k(   56) = (  -0.0441942  -0.3977476   0.3977476), wk =   0.0058594
        k(   57) = (   0.0000000  -0.3535534   0.3535534), wk =   0.0029297
        k(   58) = (   0.4419417   0.0000000   0.0000000), wk =   0.0014648
        k(   59) = (   0.4861359   0.0441942  -0.0441942), wk =   0.0058594
        k(   60) = (   0.5303301   0.0883883  -0.0883883), wk =   0.0058594
        k(   61) = (  -0.1325825  -0.5745243   0.5745243), wk =   0.0058594
        k(   62) = (  -0.0883883  -0.5303301   0.5303301), wk =   0.0058594
        k(   63) = (  -0.0441942  -0.4861359   0.4861359), wk =   0.0058594
        k(   64) = (   0.0000000  -0.4419417   0.4419417), wk =   0.0029297
        k(   65) = (   0.5303301   0.0000000   0.0000000), wk =   0.0014648
        k(   66) = (   0.5745243   0.0441942  -0.0441942), wk =   0.0058594
        k(   67) = (  -0.0883883  -0.6187184   0.6187184), wk =   0.0058594
        k(   68) = (  -0.0441942  -0.5745243   0.5745243), wk =   0.0058594
        k(   69) = (   0.0000000  -0.5303301   0.5303301), wk =   0.0029297
        k(   70) = (   0.6187184   0.0000000   0.0000000), wk =   0.0014648
        k(   71) = (  -0.0441942  -0.6629126   0.6629126), wk =   0.0058594
        k(   72) = (   0.0000000  -0.6187184   0.6187184), wk =   0.0029297
        k(   73) = (  -0.7071068   0.0000000   0.0000000), wk =   0.0007324
        k(   74) = (   0.1767767   0.0883883   0.0000000), wk =   0.0058594
        k(   75) = (   0.2209709   0.1325825  -0.0441942), wk =   0.0117188
        k(   76) = (   0.2651650   0.1767767  -0.0883883), wk =   0.0117188
        k(   77) = (   0.3093592   0.2209709  -0.1325825), wk =   0.0117188
        k(   78) = (   0.3535534   0.2651650  -0.1767767), wk =   0.0117188
        k(   79) = (  -0.3093592  -0.3977476   0.4861359), wk =   0.0117188
        k(   80) = (  -0.2651650  -0.3535534   0.4419417), wk =   0.0058594
        k(   81) = (   0.2651650   0.0883883   0.0000000), wk =   0.0058594
        k(   82) = (   0.3093592   0.1325825  -0.0441942), wk =   0.0117188
        k(   83) = (   0.3535534   0.1767767  -0.0883883), wk =   0.0117188
        k(   84) = (   0.3977476   0.2209709  -0.1325825), wk =   0.0117188
        k(   85) = (  -0.2651650  -0.4419417   0.5303301), wk =   0.0117188
        k(   86) = (  -0.2209709  -0.3977476   0.4861359), wk =   0.0117188
        k(   87) = (  -0.1767767  -0.3535534   0.4419417), wk =   0.0117188
        k(   88) = (  -0.1325825  -0.3093592   0.3977476), wk =   0.0117188
        k(   89) = (  -0.0883883  -0.2651650   0.3535534), wk =   0.0117188
        k(   90) = (  -0.0441942  -0.2209709   0.3093592), wk =   0.0117188
        k(   91) = (   0.0000000  -0.1767767   0.2651650), wk =   0.0058594
        k(   92) = (   0.3535534   0.0883883   0.0000000), wk =   0.0058594
        k(   93) = (   0.3977476   0.1325825  -0.0441942), wk =   0.0117188
        k(   94) = (   0.4419417   0.1767767  -0.0883883), wk =   0.0117188
        k(   95) = (  -0.2209709  -0.4861359   0.5745243), wk =   0.0117188
        k(   96) = (  -0.1767767  -0.4419417   0.5303301), wk =   0.0117188
        k(   97) = (  -0.1325825  -0.3977476   0.4861359), wk =   0.0117188
        k(   98) = (  -0.0883883  -0.3535534   0.4419417), wk =   0.0117188
        k(   99) = (  -0.0441942  -0.3093592   0.3977476), wk =   0.0117188
        k(  100) = (   0.0000000  -0.2651650   0.3535534), wk =   0.0058594
        k(  101) = (   0.4419417   0.0883883   0.0000000), wk =   0.0058594
        k(  102) = (   0.4861359   0.1325825  -0.0441942), wk =   0.0117188
        k(  103) = (  -0.1767767  -0.5303301   0.6187184), wk =   0.0117188
        k(  104) = (  -0.1325825  -0.4861359   0.5745243), wk =   0.0117188
        k(  105) = (  -0.0883883  -0.4419417   0.5303301), wk =   0.0117188
        k(  106) = (  -0.0441942  -0.3977476   0.4861359), wk =   0.0117188
        k(  107) = (   0.0000000  -0.3535534   0.4419417), wk =   0.0058594
        k(  108) = (   0.5303301   0.0883883   0.0000000), wk =   0.0058594
        k(  109) = (  -0.1325825  -0.5745243   0.6629126), wk =   0.0117188
        k(  110) = (  -0.0883883  -0.5303301   0.6187184), wk =   0.0117188
        k(  111) = (  -0.0441942  -0.4861359   0.5745243), wk =   0.0117188
        k(  112) = (   0.0000000  -0.4419417   0.5303301), wk =   0.0058594
        k(  113) = (  -0.0883883  -0.6187184   0.7071068), wk =   0.0058594
        k(  114) = (  -0.0441942  -0.5745243   0.6629126), wk =   0.0117188
        k(  115) = (  -0.0000000  -0.5303301   0.6187184), wk =   0.0058594
        k(  116) = (  -0.7071068   0.0883883   0.0000000), wk =   0.0029297
        k(  117) = (   0.3535534   0.1767767   0.0000000), wk =   0.0058594
        k(  118) = (   0.3977476   0.2209709  -0.0441942), wk =   0.0117188
        k(  119) = (  -0.2651650  -0.4419417   0.6187184), wk =   0.0117188
        k(  120) = (  -0.2209709  -0.3977476   0.5745243), wk =   0.0117188
        k(  121) = (  -0.1767767  -0.3535534   0.5303301), wk =   0.0058594
        k(  122) = (   0.4419417   0.1767767   0.0000000), wk =   0.0058594
        k(  123) = (  -0.2209709  -0.4861359   0.6629126), wk =   0.0117188
        k(  124) = (  -0.1767767  -0.4419417   0.6187184), wk =   0.0117188
        k(  125) = (  -0.1325825  -0.3977476   0.5745243), wk =   0.0117188
        k(  126) = (  -0.0883883  -0.3535534   0.5303301), wk =   0.0117188
        k(  127) = (  -0.0441942  -0.3093592   0.4861359), wk =   0.0117188
        k(  128) = (   0.0000000  -0.2651650   0.4419417), wk =   0.0058594
        k(  129) = (  -0.1767767  -0.5303301   0.7071068), wk =   0.0058594
        k(  130) = (  -0.1325825  -0.4861359   0.6629126), wk =   0.0117188
        k(  131) = (  -0.0883883  -0.4419417   0.6187184), wk =   0.0117188
        k(  132) = (  -0.0441942  -0.3977476   0.5745243), wk =   0.0117188
        k(  133) = (   0.0000000  -0.3535534   0.5303301), wk =   0.0058594
        k(  134) = (  -0.0883883  -0.5303301   0.7071068), wk =   0.0058594
        k(  135) = (  -0.0441942  -0.4861359   0.6629126), wk =   0.0117188
        k(  136) = (   0.0000000  -0.4419417   0.6187184), wk =   0.0058594
        k(  137) = (  -0.7071068   0.1767767   0.0000000), wk =   0.0029297
        k(  138) = (  -0.1767767  -0.4419417   0.7071068), wk =   0.0058594
        k(  139) = (  -0.1325825  -0.3977476   0.6629126), wk =   0.0117188
        k(  140) = (  -0.0883883  -0.3535534   0.6187184), wk =   0.0058594
        k(  141) = (  -0.0883883  -0.4419417   0.7071068), wk =   0.0058594
        k(  142) = (  -0.0441942  -0.3977476   0.6629126), wk =   0.0117188
        k(  143) = (  -0.0000000  -0.3535534   0.6187184), wk =   0.0058594
        k(  144) = (  -0.7071068   0.2651650   0.0000000), wk =   0.0029297
        k(  145) = (  -0.7071068   0.3535534   0.0000000), wk =   0.0014648

                       cryst. coord.
        k(    1) = (   0.0000000   0.0000000   0.0000000), wk =   0.0002441
        k(    2) = (   0.0000000   0.0000000   0.0625000), wk =   0.0019531
        k(    3) = (   0.0000000   0.0000000   0.1250000), wk =   0.0019531
        k(    4) = (   0.0000000   0.0000000   0.1875000), wk =   0.0019531
        k(    5) = (   0.0000000   0.0000000   0.2500000), wk =   0.0019531
        k(    6) = (   0.0000000   0.0000000   0.3125000), wk =   0.0019531
        k(    7) = (   0.0000000   0.0000000   0.3750000), wk =   0.0019531
        k(    8) = (   0.0000000   0.0000000   0.4375000), wk =   0.0019531
        k(    9) = (   0.0000000   0.0000000  -0.5000000), wk =   0.0009766
        k(   10) = (   0.0000000   0.0625000   0.0625000), wk =   0.0014648
        k(   11) = (   0.0000000   0.0625000   0.1250000), wk =   0.0058594
        k(   12) = (   0.0000000   0.0625000   0.1875000), wk =   0.0058594
        k(   13) = (   0.0000000   0.0625000   0.2500000), wk =   0.0058594
        k(   14) = (   0.0000000   0.0625000   0.3125000), wk =   0.0058594
        k(   15) = (   0.0000000   0.0625000   0.3750000), wk =   0.0058594
        k(   16) = (   0.0000000   0.0625000   0.4375000), wk =   0.0058594
        k(   17) = (   0.0000000   0.0625000  -0.5000000), wk =   0.0058594
        k(   18) = (   0.0000000   0.0625000  -0.4375000), wk =   0.0058594
        k(   19) = (   0.0000000   0.0625000  -0.3750000), wk =   0.0058594
        k(   20) = (   0.0000000   0.0625000  -0.3125000), wk =   0.0058594
        k(   21) = (   0.0000000   0.0625000  -0.2500000), wk =   0.0058594
        k(   22) = (   0.0000000   0.0625000  -0.1875000), wk =   0.0058594
        k(   23) = (   0.0000000   0.0625000  -0.1250000), wk =   0.0058594
        k(   24) = (   0.0000000   0.0625000  -0.0625000), wk =   0.0029297
        k(   25) = (   0.0000000   0.1250000   0.1250000), wk =   0.0014648
        k(   26) = (   0.0000000   0.1250000   0.1875000), wk =   0.0058594
        k(   27) = (   0.0000000   0.1250000   0.2500000), wk =   0.0058594
        k(   28) = (   0.0000000   0.1250000   0.3125000), wk =   0.0058594
        k(   29) = (   0.0000000   0.1250000   0.3750000), wk =   0.0058594
        k(   30) = (   0.0000000   0.1250000   0.4375000), wk =   0.0058594
        k(   31) = (   0.0000000   0.1250000  -0.5000000), wk =   0.0058594
        k(   32) = (   0.0000000   0.1250000  -0.4375000), wk =   0.0058594
        k(   33) = (   0.0000000   0.1250000  -0.3750000), wk =   0.0058594
        k(   34) = (   0.0000000   0.1250000  -0.3125000), wk =   0.0058594
        k(   35) = (   0.0000000   0.1250000  -0.2500000), wk =   0.0058594
        k(   36) = (   0.0000000   0.1250000  -0.1875000), wk =   0.0058594
        k(   37) = (   0.0000000   0.1250000  -0.1250000), wk =   0.0029297
        k(   38) = (   0.0000000   0.1875000   0.1875000), wk =   0.0014648
        k(   39) = (   0.0000000   0.1875000   0.2500000), wk =   0.0058594
        k(   40) = (   0.0000000   0.1875000   0.3125000), wk =   0.0058594
        k(   41) = (   0.0000000   0.1875000   0.3750000), wk =   0.0058594
        k(   42) = (   0.0000000   0.1875000   0.4375000), wk =   0.0058594
        k(   43) = (   0.0000000   0.1875000  -0.5000000), wk =   0.0058594
        k(   44) = (   0.0000000   0.1875000  -0.4375000), wk =   0.0058594
        k(   45) = (   0.0000000   0.1875000  -0.3750000), wk =   0.0058594
        k(   46) = (   0.0000000   0.1875000  -0.3125000), wk =   0.0058594
        k(   47) = (   0.0000000   0.1875000  -0.2500000), wk =   0.0058594
        k(   48) = (   0.0000000   0.1875000  -0.1875000), wk =   0.0029297
        k(   49) = (   0.0000000   0.2500000   0.2500000), wk =   0.0014648
        k(   50) = (   0.0000000   0.2500000   0.3125000), wk =   0.0058594
        k(   51) = (   0.0000000   0.2500000   0.3750000), wk =   0.0058594
        k(   52) = (   0.0000000   0.2500000   0.4375000), wk =   0.0058594
        k(   53) = (   0.0000000   0.2500000  -0.5000000), wk =   0.0058594
        k(   54) = (   0.0000000   0.2500000  -0.4375000), wk =   0.0058594
        k(   55) = (   0.0000000   0.2500000  -0.3750000), wk =   0.0058594
        k(   56) = (   0.0000000   0.2500000  -0.3125000), wk =   0.0058594
        k(   57) = (   0.0000000   0.2500000  -0.2500000), wk =   0.0029297
        k(   58) = (   0.0000000   0.3125000   0.3125000), wk =   0.0014648
        k(   59) = (   0.0000000   0.3125000   0.3750000), wk =   0.0058594
        k(   60) = (   0.0000000   0.3125000   0.4375000), wk =   0.0058594
        k(   61) = (   0.0000000   0.3125000  -0.5000000), wk =   0.0058594
        k(   62) = (   0.0000000   0.3125000  -0.4375000), wk =   0.0058594
        k(   63) = (   0.0000000   0.3125000  -0.3750000), wk =   0.0058594
        k(   64) = (   0.0000000   0.3125000  -0.3125000), wk =   0.0029297
        k(   65) = (   0.0000000   0.3750000   0.3750000), wk =   0.0014648
        k(   66) = (   0.0000000   0.3750000   0.4375000), wk =   0.0058594
        k(   67) = (   0.0000000   0.3750000  -0.5000000), wk =   0.0058594
        k(   68) = (   0.0000000   0.3750000  -0.4375000), wk =   0.0058594
        k(   69) = (   0.0000000   0.3750000  -0.3750000), wk =   0.0029297
        k(   70) = (   0.0000000   0.4375000   0.4375000), wk =   0.0014648
        k(   71) = (   0.0000000   0.4375000  -0.5000000), wk =   0.0058594
        k(   72) = (   0.0000000   0.4375000  -0.4375000), wk =   0.0029297
        k(   73) = (   0.0000000  -0.5000000  -0.5000000), wk =   0.0007324
        k(   74) = (   0.0625000   0.1250000   0.1875000), wk =   0.0058594
        k(   75) = (   0.0625000   0.1250000   0.2500000), wk =   0.0117188
        k(   76) = (   0.0625000   0.1250000   0.3125000), wk =   0.0117188
        k(   77) = (   0.0625000   0.1250000   0.3750000), wk =   0.0117188
        k(   78) = (   0.0625000   0.1250000   0.4375000), wk =   0.0117188
        k(   79) = (   0.0625000   0.1250000  -0.5000000), wk =   0.0117188
        k(   80) = (   0.0625000   0.1250000  -0.4375000), wk =   0.0058594
        k(   81) = (   0.0625000   0.1875000   0.2500000), wk =   0.0058594
        k(   82) = (   0.0625000   0.1875000   0.3125000), wk =   0.0117188
        k(   83) = (   0.0625000   0.1875000   0.3750000), wk =   0.0117188
        k(   84) = (   0.0625000   0.1875000   0.4375000), wk =   0.0117188
        k(   85) = (   0.0625000   0.1875000  -0.5000000), wk =   0.0117188
        k(   86) = (   0.0625000   0.1875000  -0.4375000), wk =   0.0117188
        k(   87) = (   0.0625000   0.1875000  -0.3750000), wk =   0.0117188
        k(   88) = (   0.0625000   0.1875000  -0.3125000), wk =   0.0117188
        k(   89) = (   0.0625000   0.1875000  -0.2500000), wk =   0.0117188
        k(   90) = (   0.0625000   0.1875000  -0.1875000), wk =   0.0117188
        k(   91) = (   0.0625000   0.1875000  -0.1250000), wk =   0.0058594
        k(   92) = (   0.0625000   0.2500000   0.3125000), wk =   0.0058594
        k(   93) = (   0.0625000   0.2500000   0.3750000), wk =   0.0117188
        k(   94) = (   0.0625000   0.2500000   0.4375000), wk =   0.0117188
        k(   95) = (   0.0625000   0.2500000  -0.5000000), wk =   0.0117188
        k(   96) = (   0.0625000   0.2500000  -0.4375000), wk =   0.0117188
        k(   97) = (   0.0625000   0.2500000  -0.3750000), wk =   0.0117188
        k(   98) = (   0.0625000   0.2500000  -0.3125000), wk =   0.0117188
        k(   99) = (   0.0625000   0.2500000  -0.2500000), wk =   0.0117188
        k(  100) = (   0.0625000   0.2500000  -0.1875000), wk =   0.0058594
        k(  101) = (   0.0625000   0.3125000   0.3750000), wk =   0.0058594
        k(  102) = (   0.0625000   0.3125000   0.4375000), wk =   0.0117188
        k(  103) = (   0.0625000   0.3125000  -0.5000000), wk =   0.0117188
        k(  104) = (   0.0625000   0.3125000  -0.4375000), wk =   0.0117188
        k(  105) = (   0.0625000   0.3125000  -0.3750000), wk =   0.0117188
        k(  106) = (   0.0625000   0.3125000  -0.3125000), wk =   0.0117188
        k(  107) = (   0.0625000   0.3125000  -0.2500000), wk =   0.0058594
        k(  108) = (   0.0625000   0.3750000   0.4375000), wk =   0.0058594
        k(  109) = (   0.0625000   0.3750000  -0.5000000), wk =   0.0117188
        k(  110) = (   0.0625000   0.3750000  -0.4375000), wk =   0.0117188
        k(  111) = (   0.0625000   0.3750000  -0.3750000), wk =   0.0117188
        k(  112) = (   0.0625000   0.3750000  -0.3125000), wk =   0.0058594
        k(  113) = (   0.0625000   0.4375000  -0.5000000), wk =   0.0058594
        k(  114) = (   0.0625000   0.4375000  -0.4375000), wk =   0.0117188
        k(  115) = (   0.0625000   0.4375000  -0.3750000), wk =   0.0058594
        k(  116) = (   0.0625000  -0.5000000  -0.4375000), wk =   0.0029297
        k(  117) = (   0.1250000   0.2500000   0.3750000), wk =   0.0058594
        k(  118) = (   0.1250000   0.2500000   0.4375000), wk =   0.0117188
        k(  119) = (   0.1250000   0.2500000  -0.5000000), wk =   0.0117188
        k(  120) = (   0.1250000   0.2500000  -0.4375000), wk =   0.0117188
        k(  121) = (   0.1250000   0.2500000  -0.3750000), wk =   0.0058594
        k(  122) = (   0.1250000   0.3125000   0.4375000), wk =   0.0058594
        k(  123) = (   0.1250000   0.3125000  -0.5000000), wk =   0.0117188
        k(  124) = (   0.1250000   0.3125000  -0.4375000), wk =   0.0117188
        k(  125) = (   0.1250000   0.3125000  -0.3750000), wk =   0.0117188
        k(  126) = (   0.1250000   0.3125000  -0.3125000), wk =   0.0117188
        k(  127) = (   0.1250000   0.3125000  -0.2500000), wk =   0.0117188
        k(  128) = (   0.1250000   0.3125000  -0.1875000), wk =   0.0058594
        k(  129) = (   0.1250000   0.3750000  -0.5000000), wk =   0.0058594
        k(  130) = (   0.1250000   0.3750000  -0.4375000), wk =   0.0117188
        k(  131) = (   0.1250000   0.3750000  -0.3750000), wk =   0.0117188
        k(  132) = (   0.1250000   0.3750000  -0.3125000), wk =   0.0117188
        k(  133) = (   0.1250000   0.3750000  -0.2500000), wk =   0.0058594
        k(  134) = (   0.1250000   0.4375000  -0.4375000), wk =   0.0058594
        k(  135) = (   0.1250000   0.4375000  -0.3750000), wk =   0.0117188
        k(  136) = (   0.1250000   0.4375000  -0.3125000), wk =   0.0058594
        k(  137) = (   0.1250000  -0.5000000  -0.3750000), wk =   0.0029297
        k(  138) = (   0.1875000   0.3750000  -0.4375000), wk =   0.0058594
        k(  139) = (   0.1875000   0.3750000  -0.3750000), wk =   0.0117188
        k(  140) = (   0.1875000   0.3750000  -0.3125000), wk =   0.0058594
        k(  141) = (   0.1875000   0.4375000  -0.3750000), wk =   0.0058594
        k(  142) = (   0.1875000   0.4375000  -0.3125000), wk =   0.0117188
        k(  143) = (   0.1875000   0.4375000  -0.2500000), wk =   0.0058594
        k(  144) = (   0.1875000  -0.5000000  -0.3125000), wk =   0.0029297
        k(  145) = (   0.2500000  -0.5000000  -0.2500000), wk =   0.0014648

     Dense  grid:    45239 G-vectors     FFT dimensions: (  50,  50,  50)

     Largest allocated arrays     est. size (Mb)     dimensions
        Kohn-Sham Wavefunctions         0.39 Mb     (     718,   36)
        NL pseudopotentials             0.37 Mb     (     359,   68)
        Each V/rho on FFT grid          0.15 Mb     (   10000)
        Each G-vector array             0.02 Mb     (    2828)
        G-vector shells                 0.00 Mb     (     400)
     Largest temporary arrays     est. size (Mb)     dimensions
        Auxiliary wavefunctions         1.58 Mb     (     718,  144)
        Each subspace H/S matrix        0.32 Mb     (     144,  144)
        Each <psi_i|beta_j> matrix      0.07 Mb     (      68,   2,   36)
        Arrays for rho mixing           1.22 Mb     (   10000,    8)

     Initial potential from superposition of free atoms

     starting charge   27.99781, renormalised to   28.00000
     Starting wfc are   36 randomized atomic wfcs
     Checking if some PAW data can be deallocated... 

     total cpu time spent up to now is        8.2 secs

     Self-consistent Calculation

     iteration #  1     ecut=    76.00 Ry     beta=0.70
     Davidson diagonalization with overlap
     ethr =  1.00E-02,  avg # of iterations =  3.4

     Threshold (ethr) on eigenvalues was too large:
     Diagonalizing with lowered threshold

     Davidson diagonalization with overlap
     ethr =  5.58E-05,  avg # of iterations =  3.5

     total cpu time spent up to now is       56.7 secs

     total energy              =    -885.87889697 Ry
     Harris-Foulkes estimate   =    -885.88105022 Ry
     estimated scf accuracy    <       0.01850733 Ry

     iteration #  2     ecut=    76.00 Ry     beta=0.70
     Davidson diagonalization with overlap
     ethr =  6.61E-05,  avg # of iterations =  1.3

     total cpu time spent up to now is       75.9 secs

     total energy              =    -885.87984407 Ry
     Harris-Foulkes estimate   =    -885.87997669 Ry
     estimated scf accuracy    <       0.00175758 Ry

     iteration #  3     ecut=    76.00 Ry     beta=0.70
     Davidson diagonalization with overlap
     ethr =  6.28E-06,  avg # of iterations =  2.1

     total cpu time spent up to now is      101.1 secs

     total energy              =    -885.88014176 Ry
     Harris-Foulkes estimate   =    -885.88019978 Ry
     estimated scf accuracy    <       0.00010784 Ry

     iteration #  4     ecut=    76.00 Ry     beta=0.70
     Davidson diagonalization with overlap
     ethr =  3.85E-07,  avg # of iterations =  2.1

     total cpu time spent up to now is      126.0 secs

     total energy              =    -885.88017604 Ry
     Harris-Foulkes estimate   =    -885.88017787 Ry
     estimated scf accuracy    <       0.00000848 Ry

     iteration #  5     ecut=    76.00 Ry     beta=0.70
     Davidson diagonalization with overlap
     ethr =  3.03E-08,  avg # of iterations =  2.0

     total cpu time spent up to now is      147.5 secs

     total energy              =    -885.88017835 Ry
     Harris-Foulkes estimate   =    -885.88017819 Ry
     estimated scf accuracy    <       0.00000118 Ry

     iteration #  6     ecut=    76.00 Ry     beta=0.70
     Davidson diagonalization with overlap
     ethr =  4.22E-09,  avg # of iterations =  2.0

     total cpu time spent up to now is      170.3 secs

     End of self-consistent calculation

          k = 0.0000 0.0000 0.0000 (  5769 PWs)   bands (ev):

   -15.2914 -15.2914 -15.2914 -15.2914 -15.2144 -15.2144 -15.2144 -15.2144
   -14.3593 -14.3593 -14.1978 -14.1978 -14.1978 -14.1978 -14.1629 -14.1629
   -14.1629 -14.1629 -14.0618 -14.0618  -3.2505  -3.2505   5.4744   5.4744
     6.3947   6.3947   7.0368   7.0368   7.0368   7.0368   8.5701   8.5701
     9.0384   9.0384   9.0384   9.0384

     occupation numbers 
     1.0000   1.0000   1.0000   1.0000   1.0000   1.0000   1.0000   1.0000
     1.0000   1.0000   1.0000   1.0000   1.0000   1.0000   1.0000   1.0000
     1.0000   1.0000   1.0000   1.0000   1.0000   1.0000   1.0000   1.0000
     1.0000   1.0000   0.0000   0.0000   0.0000   0.0000   0.0000   0.0000
     0.0000   0.0000   0.0000   0.0000

          k = 0.0442 0.0442-0.0442 (  5706 PWs)   bands (ev):

   -15.2917 -15.2917 -15.2906 -15.2906 -15.2151 -15.2151 -15.2139 -15.2139
   -14.3576 -14.3576 -14.2026 -14.2026 -14.2009 -14.2009 -14.1595 -14.1595
   -14.1586 -14.1586 -14.0626 -14.0626  -3.2163  -3.2163   5.0930   5.0930
     6.4349   6.4349   6.9637   6.9637   7.0852   7.0852   8.7232   8.7232
     9.1181   9.1181   9.1335   9.1335

     occupation numbers 
     1.0000   1.0000   1.0000   1.0000   1.0000   1.0000   1.0000   1.0000
     1.0000   1.0000   1.0000   1.0000   1.0000   1.0000   1.0000   1.0000
     1.0000   1.0000   1.0000   1.0000   1.0000   1.0000   1.0000   1.0000
     1.0000   1.0000   0.0000   0.0000   0.0000   0.0000   0.0000   0.0000
     0.0000   0.0000   0.0000   0.0000

          k = 0.0884 0.0884-0.0884 (  5709 PWs)   bands (ev):

   -15.2927 -15.2927 -15.2884 -15.2884 -15.2172 -15.2172 -15.2125 -15.2125
   -14.3527 -14.3527 -14.2133 -14.2133 -14.2078 -14.2078 -14.1521 -14.1520
   -14.1498 -14.1498 -14.0653 -14.0653  -3.1143  -3.1143   4.3572   4.3572
     6.3345   6.3345   6.7856   6.7856   7.1214   7.1214   9.0458   9.0458
     9.3668   9.3668   9.4582   9.4582

     occupation numbers 
     1.0000   1.0000   1.0000   1.0000   1.0000   1.0000   1.0000   1.0000
     1.0000   1.0000   1.0000   1.0000   1.0000   1.0000   1.0000   1.0000
     1.0000   1.0000   1.0000   1.0000   1.0000   1.0000   1.0000   1.0000
     1.0000   1.0000   0.7957   0.7957   0.0000   0.0000   0.0000   0.0000
     0.0000   0.0000   0.0000   0.0000

          k = 0.1326 0.1326-0.1326 (  5702 PWs)   bands (ev):

   -15.2942 -15.2942 -15.2849 -15.2849 -15.2206 -15.2206 -15.2106 -15.2106
   -14.3450 -14.3450 -14.2258 -14.2258 -14.2156 -14.2156 -14.1435 -14.1435
   -14.1402 -14.1402 -14.0695 -14.0695  -2.9476  -2.9476   3.5495   3.5495
     6.1446   6.1446   6.5712   6.5712   7.0424   7.0424   9.3302   9.3302
     9.6378   9.6378  10.1088  10.1088

     occupation numbers 
     1.0000   1.0000   1.0000   1.0000   1.0000   1.0000   1.0000   1.0000
     1.0000   1.0000   1.0000   1.0000   1.0000   1.0000   1.0000   1.0000
     1.0000   1.0000   1.0000   1.0000   1.0000   1.0000   1.0000   1.0000
     1.0000   1.0000   1.0000   1.0000   0.0000   0.0000   0.0000   0.0000
     0.0000   0.0000   0.0000   0.0000

          k = 0.1768 0.1768-0.1768 (  5687 PWs)   bands (ev):

   -15.2957 -15.2957 -15.2803 -15.2803 -15.2250 -15.2250 -15.2084 -15.2083
   -14.3352 -14.3352 -14.2387 -14.2387 -14.2229 -14.2229 -14.1353 -14.1353
   -14.1311 -14.1311 -14.0750 -14.0750  -2.7224  -2.7224   2.7559   2.7559
     5.9483   5.9483   6.3656   6.3656   6.9052   6.9052   9.5607   9.5607
     9.8593   9.8593  10.9042  10.9042

     occupation numbers 
     1.0000   1.0000   1.0000   1.0000   1.0000   1.0000   1.0000   1.0000
     1.0000   1.0000   1.0000   1.0000   1.0000   1.0000   1.0000   1.0000
     1.0000   1.0000   1.0000   1.0000   1.0000   1.0000   1.0000   1.0000
     1.0000   1.0000   1.0000   1.0000   0.0000   0.0000   0.0000   0.0000
     0.0000   0.0000   0.0000   0.0000

          k = 0.2210 0.2210-0.2210 (  5681 PWs)   bands (ev):

   -15.2972 -15.2972 -15.2749 -15.2749 -15.2303 -15.2303 -15.2063 -15.2063
   -14.3241 -14.3241 -14.2514 -14.2514 -14.2290 -14.2290 -14.1282 -14.1282
   -14.1228 -14.1228 -14.0813 -14.0813  -2.4519  -2.4519   2.0229   2.0229
     5.7792   5.7792   6.1922   6.1922   6.7673   6.7673   9.7114   9.7114
     9.9867   9.9867  11.7570  11.7570

     occupation numbers 
     1.0000   1.0000   1.0000   1.0000   1.0000   1.0000   1.0000   1.0000
     1.0000   1.0000   1.0000   1.0000   1.0000   1.0000   1.0000   1.0000
     1.0000   1.0000   1.0000   1.0000   1.0000   1.0000   1.0000   1.0000
     1.0000   1.0000   1.0000   1.0000   1.0000   1.0000   0.0000   0.0000
     0.0000   0.0000   0.0000   0.0000

          k = 0.2652 0.2652-0.2652 (  5657 PWs)   bands (ev):

   -15.2983 -15.2983 -15.2691 -15.2691 -15.2359 -15.2359 -15.2046 -15.2046
   -14.3123 -14.3123 -14.2635 -14.2635 -14.2335 -14.2335 -14.1229 -14.1229
   -14.1153 -14.1153 -14.0879 -14.0879  -2.1637  -2.1637   1.3952   1.3952
     5.6519   5.6519   6.0628   6.0628   6.6574   6.6574   9.7835   9.7835
    10.0324  10.0324  12.4428  12.4428

     occupation numbers 
     1.0000   1.0000   1.0000   1.0000   1.0000   1.0000   1.0000   1.0000
     1.0000   1.0000   1.0000   1.0000   1.0000   1.0000   1.0000   1.0000
     1.0000   1.0000   1.0000   1.0000   1.0000   1.0000   1.0000   1.0000
     1.0000   1.0000   1.0000   1.0000   1.0000   1.0000   0.0000   0.0000
     0.0000   0.0000   0.0000   0.0000

          k = 0.3094 0.3094-0.3094 (  5657 PWs)   bands (ev):

   -15.2990 -15.2990 -15.2638 -15.2638 -15.2410 -15.2410 -15.2035 -15.2035
   -14.3006 -14.3006 -14.2751 -14.2751 -14.2363 -14.2363 -14.1195 -14.1195
   -14.1085 -14.1085 -14.0946 -14.0946  -1.9171  -1.9171   0.9417   0.9417
     5.5734   5.5734   5.9832   5.9832   6.5880   6.5880   9.8073   9.8073
    10.0376  10.0376  12.4944  12.4944

     occupation numbers 
     1.0000   1.0000   1.0000   1.0000   1.0000   1.0000   1.0000   1.0000
     1.0000   1.0000   1.0000   1.0000   1.0000   1.0000   1.0000   1.0000
     1.0000   1.0000   1.0000   1.0000   1.0000   1.0000   1.0000   1.0000
     1.0000   1.0000   1.0000   1.0000   1.0000   1.0000   0.0000   0.0000
     0.0000   0.0000   0.0000   0.0000

          k =-0.3536-0.3536 0.3536 (  5624 PWs)   bands (ev):

   -15.2993 -15.2993 -15.2613 -15.2613 -15.2435 -15.2435 -15.2031 -15.2031
   -14.2925 -14.2925 -14.2831 -14.2831 -14.2372 -14.2372 -14.1184 -14.1184
   -14.1032 -14.1032 -14.0998 -14.0998  -1.8130  -1.8130   0.7682   0.7682
     5.5469   5.5469   5.9564   5.9564   6.5644   6.5644   9.8116   9.8116
    10.0354  10.0354  12.4720  12.4720

     occupation numbers 
     1.0000   1.0000   1.0000   1.0000   1.0000   1.0000   1.0000   1.0000
     1.0000   1.0000   1.0000   1.0000   1.0000   1.0000   1.0000   1.0000
     1.0000   1.0000   1.0000   1.0000   1.0000   1.0000   1.0000   1.0000
     1.0000   1.0000   1.0000   1.0000   1.0000   1.0000   0.0000   0.0000
     0.0000   0.0000   0.0000   0.0000

          k = 0.0884 0.0000 0.0000 (  5709 PWs)   bands (ev):

   -15.2914 -15.2914 -15.2908 -15.2908 -15.2150 -15.2150 -15.2141 -15.2141
   -14.3570 -14.3570 -14.2049 -14.2049 -14.2008 -14.2008 -14.1588 -14.1588
   -14.1573 -14.1573 -14.0629 -14.0629  -3.2048  -3.2048   5.0139   5.0139
     6.3715   6.3715   6.7876   6.7876   7.3330   7.3330   8.6443   8.6443
     9.1305   9.1305   9.2645   9.2645

     occupation numbers 
     1.0000   1.0000   1.0000   1.0000   1.0000   1.0000   1.0000   1.0000
     1.0000   1.0000   1.0000   1.0000   1.0000   1.0000   1.0000   1.0000
     1.0000   1.0000   1.0000   1.0000   1.0000   1.0000   1.0000   1.0000
     1.0000   1.0000   0.1057   0.1057   0.0000   0.0000   0.0000   0.0000
     0.0000   0.0000   0.0000   0.0000

          k = 0.1326 0.0442-0.0442 (  5719 PWs)   bands (ev):

   -15.2922 -15.2922 -15.2892 -15.2892 -15.2166 -15.2166 -15.2131 -15.2130
   -14.3532 -14.3532 -14.2135 -14.2135 -14.2057 -14.2057 -14.1536 -14.1536
   -14.1501 -14.1501 -14.0649 -14.0649  -3.1252  -3.1252   4.4678   4.4678
     6.2371   6.2371   6.5793   6.5793   7.5274   7.5274   8.7105   8.7105
     9.4094   9.4094   9.5585   9.5585

     occupation numbers 
     1.0000   1.0000   1.0000   1.0000   1.0000   1.0000   1.0000   1.0000
     1.0000   1.0000   1.0000   1.0000   1.0000   1.0000   1.0000   1.0000
     1.0000   1.0000   1.0000   1.0000   1.0000   1.0000   1.0000   1.0000
     1.0000   1.0000   1.0000   1.0000   0.0000   0.0000   0.0000   0.0000
     0.0000   0.0000   0.0000   0.0000

          k = 0.1768 0.0884-0.0884 (  5727 PWs)   bands (ev):

   -15.2935 -15.2935 -15.2861 -15.2861 -15.2196 -15.2196 -15.2112 -15.2112
   -14.3465 -14.3465 -14.2249 -14.2249 -14.2126 -14.2126 -14.1472 -14.1472
   -14.1403 -14.1403 -14.0685 -14.0685  -2.9796  -2.9796   3.7354   3.7354
     6.0372   6.0372   6.3629   6.3629   7.5247   7.5247   8.9497   8.9497
     9.7396   9.7396  10.0558  10.0558

     occupation numbers 
     1.0000   1.0000   1.0000   1.0000   1.0000   1.0000   1.0000   1.0000
     1.0000   1.0000   1.0000   1.0000   1.0000   1.0000   1.0000   1.0000
     1.0000   1.0000   1.0000   1.0000   1.0000   1.0000   1.0000   1.0000
     1.0000   1.0000   1.0000   1.0000   0.0000   0.0000   0.0000   0.0000
     0.0000   0.0000   0.0000   0.0000

          k = 0.2210 0.1326-0.1326 (  5691 PWs)   bands (ev):

   -15.2951 -15.2951 -15.2818 -15.2818 -15.2237 -15.2237 -15.2090 -15.2090
   -14.3374 -14.3374 -14.2370 -14.2370 -14.2197 -14.2197 -14.1408 -14.1408
   -14.1304 -14.1304 -14.0732 -14.0732  -2.7730  -2.7730   2.9658   2.9658
     5.8249   5.8249   6.1481   6.1481   7.4113   7.4113   9.2519   9.2519
     9.9935   9.9935  10.6825  10.6825

     occupation numbers 
     1.0000   1.0000   1.0000   1.0000   1.0000   1.0000   1.0000   1.0000
     1.0000   1.0000   1.0000   1.0000   1.0000   1.0000   1.0000   1.0000
     1.0000   1.0000   1.0000   1.0000   1.0000   1.0000   1.0000   1.0000
     1.0000   1.0000   1.0000   1.0000   0.0000   0.0000   0.0000   0.0000
     0.0000   0.0000   0.0000   0.0000

          k = 0.2652 0.1768-0.1768 (  5688 PWs)   bands (ev):

   -15.2966 -15.2966 -15.2766 -15.2766 -15.2287 -15.2287 -15.2068 -15.2067
   -14.3268 -14.3268 -14.2489 -14.2489 -14.2261 -14.2261 -14.1351 -14.1351
   -14.1215 -14.1215 -14.0787 -14.0787  -2.5155  -2.5155   2.2279   2.2279
     5.6324   5.6324   5.9647   5.9647   7.2705   7.2705   9.5052   9.5052
    10.1354  10.1354  11.3539  11.3539

     occupation numbers 
     1.0000   1.0000   1.0000   1.0000   1.0000   1.0000   1.0000   1.0000
     1.0000   1.0000   1.0000   1.0000   1.0000   1.0000   1.0000   1.0000
     1.0000   1.0000   1.0000   1.0000   1.0000   1.0000   1.0000   1.0000
     1.0000   1.0000   1.0000   1.0000   0.0000   0.0000   0.0000   0.0000
     0.0000   0.0000   0.0000   0.0000

          k = 0.3094 0.2210-0.2210 (  5665 PWs)   bands (ev):

   -15.2979 -15.2979 -15.2709 -15.2709 -15.2343 -15.2343 -15.2049 -15.2048
   -14.3154 -14.3154 -14.2604 -14.2604 -14.2312 -14.2312 -14.1304 -14.1304
   -14.1140 -14.1140 -14.0842 -14.0842  -2.2283  -2.2283   1.5707   1.5707
     5.4736   5.4736   5.8325   5.8325   7.1445   7.1445   9.6635   9.6635
    10.1710  10.1710  12.0212  12.0213

     occupation numbers 
     1.0000   1.0000   1.0000   1.0000   1.0000   1.0000   1.0000   1.0000
     1.0000   1.0000   1.0000   1.0000   1.0000   1.0000   1.0000   1.0000
     1.0000   1.0000   1.0000   1.0000   1.0000   1.0000   1.0000   1.0000
     1.0000   1.0000   1.0000   1.0000   0.0000   0.0000   0.0000   0.0000
     0.0000   0.0000   0.0000   0.0000

          k = 0.3536 0.2652-0.2652 (  5671 PWs)   bands (ev):

   -15.2988 -15.2988 -15.2654 -15.2653 -15.2398 -15.2398 -15.2035 -15.2035
   -14.3041 -14.3041 -14.2713 -14.2713 -14.2347 -14.2347 -14.1272 -14.1272
   -14.1082 -14.1082 -14.0893 -14.0893  -1.9578  -1.9578   1.0549   1.0549
     5.3563   5.3563   5.7597   5.7597   7.0522   7.0522   9.7495   9.7495
    10.1437  10.1437  12.4701  12.4701

     occupation numbers 
     1.0000   1.0000   1.0000   1.0000   1.0000   1.0000   1.0000   1.0000
     1.0000   1.0000   1.0000   1.0000   1.0000   1.0000   1.0000   1.0000
     1.0000   1.0000   1.0000   1.0000   1.0000   1.0000   1.0000   1.0000
     1.0000   1.0000   1.0000   1.0000   0.0000   0.0000   0.0000   0.0000
     0.0000   0.0000   0.0000   0.0000

          k =-0.3094-0.3977 0.3977 (  5655 PWs)   bands (ev):

   -15.2992 -15.2992 -15.2615 -15.2615 -15.2436 -15.2436 -15.2028 -15.2028
   -14.2948 -14.2948 -14.2802 -14.2802 -14.2364 -14.2364 -14.1257 -14.1257
   -14.1046 -14.1046 -14.0925 -14.0925  -1.7935  -1.7935   0.7779   0.7779
     5.2865   5.2865   5.7480   5.7480   7.0023   7.0023   9.8019   9.8019
    10.0974  10.0974  12.5748  12.5748

     occupation numbers 
     1.0000   1.0000   1.0000   1.0000   1.0000   1.0000   1.0000   1.0000
     1.0000   1.0000   1.0000   1.0000   1.0000   1.0000   1.0000   1.0000
     1.0000   1.0000   1.0000   1.0000   1.0000   1.0000   1.0000   1.0000
     1.0000   1.0000   1.0000   1.0000   0.0000   0.0000   0.0000   0.0000
     0.0000   0.0000   0.0000   0.0000

          k =-0.2652-0.3536 0.3536 (  5655 PWs)   bands (ev):

   -15.2991 -15.2991 -15.2623 -15.2623 -15.2428 -15.2428 -15.2029 -15.2029
   -14.2974 -14.2974 -14.2777 -14.2777 -14.2360 -14.2360 -14.1262 -14.1262
   -14.1052 -14.1051 -14.0919 -14.0919  -1.8296  -1.8296   0.8369   0.8369
     5.2689   5.2689   5.7954   5.7954   6.9979   6.9979   9.8350   9.8350
    10.0615  10.0615  12.5861  12.5861

     occupation numbers 
     1.0000   1.0000   1.0000   1.0000   1.0000   1.0000   1.0000   1.0000
     1.0000   1.0000   1.0000   1.0000   1.0000   1.0000   1.0000   1.0000
     1.0000   1.0000   1.0000   1.0000   1.0000   1.0000   1.0000   1.0000
     1.0000   1.0000   1.0000   1.0000   0.0000   0.0000   0.0000   0.0000
     0.0000   0.0000   0.0000   0.0000

          k =-0.2210-0.3094 0.3094 (  5670 PWs)   bands (ev):

   -15.2986 -15.2986 -15.2670 -15.2670 -15.2382 -15.2382 -15.2038 -15.2038
   -14.3078 -14.3078 -14.2678 -14.2678 -14.2336 -14.2336 -14.1286 -14.1286
   -14.1093 -14.1093 -14.0879 -14.0879  -2.0422  -2.0422   1.2071   1.2071
     5.3068   5.3068   5.8977   5.8977   7.0386   7.0386   9.8274   9.8274
    10.0506  10.0506  12.4530  12.4530

     occupation numbers 
     1.0000   1.0000   1.0000   1.0000   1.0000   1.0000   1.0000   1.0000
     1.0000   1.0000   1.0000   1.0000   1.0000   1.0000   1.0000   1.0000
     1.0000   1.0000   1.0000   1.0000   1.0000   1.0000   1.0000   1.0000
     1.0000   1.0000   1.0000   1.0000   0.0000   0.0000   0.0000   0.0000
     0.0000   0.0000   0.0000   0.0000

          k =-0.1768-0.2652 0.2652 (  5668 PWs)   bands (ev):

   -15.2976 -15.2976 -15.2727 -15.2727 -15.2326 -15.2326 -15.2053 -15.2053
   -14.3192 -14.3192 -14.2567 -14.2567 -14.2295 -14.2295 -14.1326 -14.1326
   -14.1155 -14.1155 -14.0825 -14.0825  -2.3258  -2.3258   1.7786   1.7786
     5.4022   5.4022   6.0485   6.0485   7.1194   7.1194   9.7506   9.7506
    10.0368  10.0368  11.8682  11.8682

     occupation numbers 
     1.0000   1.0000   1.0000   1.0000   1.0000   1.0000   1.0000   1.0000
     1.0000   1.0000   1.0000   1.0000   1.0000   1.0000   1.0000   1.0000
     1.0000   1.0000   1.0000   1.0000   1.0000   1.0000   1.0000   1.0000
     1.0000   1.0000   1.0000   1.0000   0.0000   0.0000   0.0000   0.0000
     0.0000   0.0000   0.0000   0.0000

          k =-0.1326-0.2210 0.2210 (  5695 PWs)   bands (ev):

   -15.2962 -15.2962 -15.2783 -15.2783 -15.2272 -15.2272 -15.2073 -15.2073
   -14.3305 -14.3305 -14.2451 -14.2451 -14.2239 -14.2238 -14.1378 -14.1378
   -14.1234 -14.1234 -14.0769 -14.0769  -2.6065  -2.6065   2.4673   2.4673
     5.5555   5.5555   6.2377   6.2377   7.2284   7.2284   9.5924   9.5924
     9.9383   9.9383  11.1462  11.1462

     occupation numbers 
     1.0000   1.0000   1.0000   1.0000   1.0000   1.0000   1.0000   1.0000
     1.0000   1.0000   1.0000   1.0000   1.0000   1.0000   1.0000   1.0000
     1.0000   1.0000   1.0000   1.0000   1.0000   1.0000   1.0000   1.0000
     1.0000   1.0000   1.0000   1.0000   0.0000   0.0000   0.0000   0.0000
     0.0000   0.0000   0.0000   0.0000

          k =-0.0884-0.1768 0.1768 (  5695 PWs)   bands (ev):

   -15.2947 -15.2947 -15.2831 -15.2831 -15.2224 -15.2224 -15.2096 -15.2096
   -14.3407 -14.3407 -14.2330 -14.2330 -14.2172 -14.2172 -14.1439 -14.1439
   -14.1327 -14.1327 -14.0716 -14.0716  -2.8486  -2.8486   3.2185   3.2185
     5.7651   5.7651   6.4481   6.4481   7.3373   7.3373   9.3606   9.3606
     9.6844   9.6844  10.5024  10.5024

     occupation numbers 
     1.0000   1.0000   1.0000   1.0000   1.0000   1.0000   1.0000   1.0000
     1.0000   1.0000   1.0000   1.0000   1.0000   1.0000   1.0000   1.0000
     1.0000   1.0000   1.0000   1.0000   1.0000   1.0000   1.0000   1.0000
     1.0000   1.0000   1.0000   1.0000   0.0000   0.0000   0.0000   0.0000
     0.0000   0.0000   0.0000   0.0000

          k =-0.0442-0.1326 0.1326 (  5721 PWs)   bands (ev):

   -15.2933 -15.2932 -15.2870 -15.2870 -15.2187 -15.2187 -15.2117 -15.2117
   -14.3490 -14.3490 -14.2209 -14.2209 -14.2102 -14.2102 -14.1503 -14.1503
   -14.1428 -14.1428 -14.0672 -14.0672  -3.0355  -3.0355   3.9786   3.9786
     6.0235   6.0235   6.6502   6.6502   7.3850   7.3850   9.0955   9.0955
     9.3446   9.3446   9.9487   9.9487

     occupation numbers 
     1.0000   1.0000   1.0000   1.0000   1.0000   1.0000   1.0000   1.0000
     1.0000   1.0000   1.0000   1.0000   1.0000   1.0000   1.0000   1.0000
     1.0000   1.0000   1.0000   1.0000   1.0000   1.0000   1.0000   1.0000
     1.0000   1.0000   1.0000   1.0000   0.0000   0.0000   0.0000   0.0000
     0.0000   0.0000   0.0000   0.0000

          k = 0.0000-0.0884 0.0884 (  5715 PWs)   bands (ev):

   -15.2922 -15.2922 -15.2895 -15.2895 -15.2162 -15.2162 -15.2132 -15.2132
   -14.3549 -14.3549 -14.2098 -14.2098 -14.2041 -14.2041 -14.1561 -14.1561
   -14.1524 -14.1524 -14.0641 -14.0641  -3.1594  -3.1594   4.6617   4.6617
     6.2973   6.2973   6.8102   6.8102   7.2829   7.2829   8.8554   8.8554
     9.1363   9.1363   9.4611   9.4611

     occupation numbers 
     1.0000   1.0000   1.0000   1.0000   1.0000   1.0000   1.0000   1.0000
     1.0000   1.0000   1.0000   1.0000   1.0000   1.0000   1.0000   1.0000
     1.0000   1.0000   1.0000   1.0000   1.0000   1.0000   1.0000   1.0000
     1.0000   1.0000   0.0000   0.0000   0.0000   0.0000   0.0000   0.0000
     0.0000   0.0000   0.0000   0.0000

          k = 0.1768 0.0000 0.0000 (  5733 PWs)   bands (ev):

   -15.2916 -15.2916 -15.2892 -15.2892 -15.2168 -15.2168 -15.2132 -15.2132
   -14.3505 -14.3505 -14.2193 -14.2193 -14.2074 -14.2074 -14.1493 -14.1493
   -14.1480 -14.1480 -14.0661 -14.0661  -3.0679  -3.0679   4.2216   4.2216
     6.0518   6.0518   6.3078   6.3078   7.9793   7.9793   8.4105   8.4105
     9.7058   9.7058   9.8109   9.8109

     occupation numbers 
     1.0000   1.0000   1.0000   1.0000   1.0000   1.0000   1.0000   1.0000
     1.0000   1.0000   1.0000   1.0000   1.0000   1.0000   1.0000   1.0000
     1.0000   1.0000   1.0000   1.0000   1.0000   1.0000   1.0000   1.0000
     1.0000   1.0000   1.0000   1.0000   0.0000   0.0000   0.0000   0.0000
     0.0000   0.0000   0.0000   0.0000

          k = 0.2210 0.0442-0.0442 (  5713 PWs)   bands (ev):

   -15.2924 -15.2924 -15.2870 -15.2870 -15.2189 -15.2189 -15.2119 -15.2119
   -14.3449 -14.3449 -14.2284 -14.2284 -14.2120 -14.2120 -14.1461 -14.1461
   -14.1398 -14.1398 -14.0686 -14.0686  -2.9439  -2.9439   3.6923   3.6923
     5.8367   5.8367   6.0690   6.0690   8.1331   8.1331   8.4311   8.4311
    10.0720  10.0720  10.1976  10.1976

     occupation numbers 
     1.0000   1.0000   1.0000   1.0000   1.0000   1.0000   1.0000   1.0000
     1.0000   1.0000   1.0000   1.0000   1.0000   1.0000   1.0000   1.0000
     1.0000   1.0000   1.0000   1.0000   1.0000   1.0000   1.0000   1.0000
     1.0000   1.0000   1.0000   1.0000   0.0000   0.0000   0.0000   0.0000
     0.0000   0.0000   0.0000   0.0000

          k = 0.2652 0.0884-0.0884 (  5690 PWs)   bands (ev):

   -15.2940 -15.2940 -15.2832 -15.2832 -15.2226 -15.2226 -15.2098 -15.2098
   -14.3368 -14.3368 -14.2389 -14.2389 -14.2174 -14.2174 -14.1435 -14.1435
   -14.1297 -14.1297 -14.0721 -14.0721  -2.7568  -2.7568   3.0329   3.0329
     5.5900   5.5900   5.8494   5.8494   8.0661   8.0661   8.7140   8.7140
    10.3661  10.3661  10.6180  10.6180

     occupation numbers 
     1.0000   1.0000   1.0000   1.0000   1.0000   1.0000   1.0000   1.0000
     1.0000   1.0000   1.0000   1.0000   1.0000   1.0000   1.0000   1.0000
     1.0000   1.0000   1.0000   1.0000   1.0000   1.0000   1.0000   1.0000
     1.0000   1.0000   1.0000   1.0000   0.0000   0.0000   0.0000   0.0000
     0.0000   0.0000   0.0000   0.0000

          k = 0.3094 0.1326-0.1326 (  5682 PWs)   bands (ev):

   -15.2956 -15.2956 -15.2784 -15.2784 -15.2274 -15.2273 -15.2074 -15.2074
   -14.3270 -14.3270 -14.2495 -14.2495 -14.2228 -14.2228 -14.1413 -14.1413
   -14.1203 -14.1203 -14.0760 -14.0760  -2.5145  -2.5145   2.3466   2.3466
     5.3374   5.3374   5.6749   5.6749   7.9344   7.9344   9.0841   9.0841
    10.5385  10.5385  10.9416  10.9416

     occupation numbers 
     1.0000   1.0000   1.0000   1.0000   1.0000   1.0000   1.0000   1.0000
     1.0000   1.0000   1.0000   1.0000   1.0000   1.0000   1.0000   1.0000
     1.0000   1.0000   1.0000   1.0000   1.0000   1.0000   1.0000   1.0000
     1.0000   1.0000   1.0000   1.0000   0.0000   0.0000   0.0000   0.0000
     0.0000   0.0000   0.0000   0.0000

          k = 0.3536 0.1768-0.1768 (  5684 PWs)   bands (ev):

   -15.2971 -15.2971 -15.2729 -15.2729 -15.2328 -15.2328 -15.2051 -15.2051
   -14.3165 -14.3165 -14.2594 -14.2594 -14.2277 -14.2277 -14.1397 -14.1397
   -14.1128 -14.1128 -14.0795 -14.0795  -2.2331  -2.2331   1.6991   1.6991
     5.1066   5.1066   5.5628   5.5628   7.7976   7.7976   9.4037   9.4037
    10.5799  10.5799  11.2989  11.2989

     occupation numbers 
     1.0000   1.0000   1.0000   1.0000   1.0000   1.0000   1.0000   1.0000
     1.0000   1.0000   1.0000   1.0000   1.0000   1.0000   1.0000   1.0000
     1.0000   1.0000   1.0000   1.0000   1.0000   1.0000   1.0000   1.0000
     1.0000   1.0000   1.0000   1.0000   0.0000   0.0000   0.0000   0.0000
     0.0000   0.0000   0.0000   0.0000

          k = 0.3977 0.2210-0.2210 (  5666 PWs)   bands (ev):

   -15.2982 -15.2982 -15.2673 -15.2673 -15.2384 -15.2384 -15.2034 -15.2034
   -14.3063 -14.3063 -14.2683 -14.2683 -14.2316 -14.2316 -14.1388 -14.1388
   -14.1078 -14.1078 -14.0819 -14.0819  -1.9480  -1.9480   1.1522   1.1522
     4.9185   4.9185   5.5152   5.5152   7.6849   7.6849   9.6048   9.6048
    10.5294  10.5294  11.8069  11.8069

     occupation numbers 
     1.0000   1.0000   1.0000   1.0000   1.0000   1.0000   1.0000   1.0000
     1.0000   1.0000   1.0000   1.0000   1.0000   1.0000   1.0000   1.0000
     1.0000   1.0000   1.0000   1.0000   1.0000   1.0000   1.0000   1.0000
     1.0000   1.0000   1.0000   1.0000   0.0000   0.0000   0.0000   0.0000
     0.0000   0.0000   0.0000   0.0000

          k =-0.2652-0.4419 0.4419 (  5672 PWs)   bands (ev):

   -15.2989 -15.2989 -15.2625 -15.2624 -15.2433 -15.2432 -15.2023 -15.2023
   -14.2981 -14.2981 -14.2753 -14.2753 -14.2338 -14.2338 -14.1386 -14.1386
   -14.1052 -14.1052 -14.0830 -14.0830  -1.7340  -1.7340   0.7944   0.7944
     4.7850   4.7850   5.5305   5.5305   7.6099   7.6099   9.7258   9.7258
    10.4349  10.4349  12.3648  12.3649

     occupation numbers 
     1.0000   1.0000   1.0000   1.0000   1.0000   1.0000   1.0000   1.0000
     1.0000   1.0000   1.0000   1.0000   1.0000   1.0000   1.0000   1.0000
     1.0000   1.0000   1.0000   1.0000   1.0000   1.0000   1.0000   1.0000
     1.0000   1.0000   1.0000   1.0000   0.0000   0.0000   0.0000   0.0000
     0.0000   0.0000   0.0000   0.0000

          k =-0.2210-0.3977 0.3977 (  5669 PWs)   bands (ev):

   -15.2991 -15.2991 -15.2611 -15.2611 -15.2447 -15.2446 -15.2020 -15.2020
   -14.2966 -14.2966 -14.2767 -14.2767 -14.2339 -14.2339 -14.1391 -14.1391
   -14.1044 -14.1044 -14.0833 -14.0833  -1.6994  -1.6994   0.7403   0.7404
     4.7138   4.7138   5.6056   5.6056   7.5776   7.5776   9.8225   9.8225
    10.3251  10.3251  12.6650  12.6650

     occupation numbers 
     1.0000   1.0000   1.0000   1.0000   1.0000   1.0000   1.0000   1.0000
     1.0000   1.0000   1.0000   1.0000   1.0000   1.0000   1.0000   1.0000
     1.0000   1.0000   1.0000   1.0000   1.0000   1.0000   1.0000   1.0000
     1.0000   1.0000   1.0000   1.0000   0.0000   0.0000   0.0000   0.0000
     0.0000   0.0000   0.0000   0.0000

          k =-0.1768-0.3536 0.3536 (  5682 PWs)   bands (ev):

   -15.2988 -15.2988 -15.2646 -15.2645 -15.2413 -15.2412 -15.2025 -15.2025
   -14.3034 -14.3034 -14.2709 -14.2709 -14.2319 -14.2319 -14.1401 -14.1401
   -14.1053 -14.1053 -14.0828 -14.0828  -1.8679  -1.8679   1.0140   1.0140
     4.7109   4.7109   5.7353   5.7353   7.5871   7.5871   9.9099   9.9099
    10.2093  10.2094  12.4019  12.4020

     occupation numbers 
     1.0000   1.0000   1.0000   1.0000   1.0000   1.0000   1.0000   1.0000
     1.0000   1.0000   1.0000   1.0000   1.0000   1.0000   1.0000   1.0000
     1.0000   1.0000   1.0000   1.0000   1.0000   1.0000   1.0000   1.0000
     1.0000   1.0000   1.0000   1.0000   0.0000   0.0000   0.0000   0.0000
     0.0000   0.0000   0.0000   0.0000

          k =-0.1326-0.3094 0.3094 (  5678 PWs)   bands (ev):

   -15.2980 -15.2980 -15.2699 -15.2699 -15.2360 -15.2360 -15.2038 -15.2038
   -14.3133 -14.3132 -14.2627 -14.2627 -14.2281 -14.2281 -14.1417 -14.1417
   -14.1085 -14.1085 -14.0811 -14.0811  -2.1409  -2.1409   1.5107   1.5107
     4.7830   4.7830   5.9112   5.9112   7.6308   7.6308   9.9280   9.9280
    10.1080  10.1080  11.7577  11.7577

     occupation numbers 
     1.0000   1.0000   1.0000   1.0000   1.0000   1.0000   1.0000   1.0000
     1.0000   1.0000   1.0000   1.0000   1.0000   1.0000   1.0000   1.0000
     1.0000   1.0000   1.0000   1.0000   1.0000   1.0000   1.0000   1.0000
     1.0000   1.0000   1.0000   1.0000   0.0000   0.0000   0.0000   0.0000
     0.0000   0.0000   0.0000   0.0000

          k =-0.0884-0.2652 0.2652 (  5686 PWs)   bands (ev):

   -15.2969 -15.2969 -15.2754 -15.2754 -15.2305 -15.2305 -15.2057 -15.2057
   -14.3238 -14.3238 -14.2532 -14.2532 -14.2234 -14.2234 -14.1436 -14.1436
   -14.1146 -14.1146 -14.0780 -14.0780  -2.4284  -2.4284   2.1262   2.1262
     4.9390   4.9390   6.1195   6.1195   7.6900   7.6900   9.7701   9.7701
    10.0159  10.0159  11.1605  11.1605

     occupation numbers 
     1.0000   1.0000   1.0000   1.0000   1.0000   1.0000   1.0000   1.0000
     1.0000   1.0000   1.0000   1.0000   1.0000   1.0000   1.0000   1.0000
     1.0000   1.0000   1.0000   1.0000   1.0000   1.0000   1.0000   1.0000
     1.0000   1.0000   1.0000   1.0000   0.0000   0.0000   0.0000   0.0000
     0.0000   0.0000   0.0000   0.0000

          k =-0.0442-0.2210 0.2210 (  5681 PWs)   bands (ev):

   -15.2955 -15.2955 -15.2803 -15.2803 -15.2256 -15.2256 -15.2079 -15.2079
   -14.3339 -14.3339 -14.2427 -14.2427 -14.2184 -14.2183 -14.1459 -14.1459
   -14.1230 -14.1230 -14.0741 -14.0741  -2.6853  -2.6853   2.7882   2.7882
     5.1923   5.1923   6.3372   6.3372   7.7210   7.7210   9.5214   9.5214
     9.7489   9.7489  10.7819  10.7819

     occupation numbers 
     1.0000   1.0000   1.0000   1.0000   1.0000   1.0000   1.0000   1.0000
     1.0000   1.0000   1.0000   1.0000   1.0000   1.0000   1.0000   1.0000
     1.0000   1.0000   1.0000   1.0000   1.0000   1.0000   1.0000   1.0000
     1.0000   1.0000   1.0000   1.0000   0.0000   0.0000   0.0000   0.0000
     0.0000   0.0000   0.0000   0.0000

          k = 0.0000-0.1768 0.1768 (  5701 PWs)   bands (ev):

   -15.2942 -15.2942 -15.2843 -15.2843 -15.2215 -15.2215 -15.2100 -15.2100
   -14.3426 -14.3426 -14.2316 -14.2316 -14.2137 -14.2137 -14.1483 -14.1483
   -14.1328 -14.1328 -14.0703 -14.0703  -2.8909  -2.8909   3.4301   3.4301
     5.5587   5.5587   6.5270   6.5270   7.6406   7.6406   9.2657   9.2657
     9.4510   9.4510  10.4415  10.4415

     occupation numbers 
     1.0000   1.0000   1.0000   1.0000   1.0000   1.0000   1.0000   1.0000
     1.0000   1.0000   1.0000   1.0000   1.0000   1.0000   1.0000   1.0000
     1.0000   1.0000   1.0000   1.0000   1.0000   1.0000   1.0000   1.0000
     1.0000   1.0000   1.0000   1.0000   0.0000   0.0000   0.0000   0.0000
     0.0000   0.0000   0.0000   0.0000

          k = 0.2652 0.0000 0.0000 (  5705 PWs)   bands (ev):

   -15.2916 -15.2916 -15.2869 -15.2869 -15.2191 -15.2191 -15.2122 -15.2122
   -14.3403 -14.3403 -14.2348 -14.2348 -14.2145 -14.2145 -14.1420 -14.1420
   -14.1373 -14.1373 -14.0699 -14.0699  -2.8410  -2.8410   3.3846   3.3846
     5.6489   5.6489   5.8206   5.8206   8.0876   8.0877   8.5223   8.5223
    10.4692  10.4692  10.5054  10.5054

     occupation numbers 
     1.0000   1.0000   1.0000   1.0000   1.0000   1.0000   1.0000   1.0000
     1.0000   1.0000   1.0000   1.0000   1.0000   1.0000   1.0000   1.0000
     1.0000   1.0000   1.0000   1.0000   1.0000   1.0000   1.0000   1.0000
     1.0000   1.0000   1.0000   1.0000   0.0000   0.0000   0.0000   0.0000
     0.0000   0.0000   0.0000   0.0000

          k = 0.3094 0.0442-0.0442 (  5689 PWs)   bands (ev):

   -15.2924 -15.2924 -15.2844 -15.2844 -15.2215 -15.2215 -15.2109 -15.2109
   -14.3333 -14.3333 -14.2431 -14.2431 -14.2181 -14.2181 -14.1424 -14.1424
   -14.1288 -14.1288 -14.0720 -14.0720  -2.6739  -2.6739   2.8905   2.8905
     5.4210   5.4210   5.5978   5.5978   8.0669   8.0669   8.6329   8.6329
    10.7996  10.7996  10.8495  10.8495

     occupation numbers 
     1.0000   1.0000   1.0000   1.0000   1.0000   1.0000   1.0000   1.0000
     1.0000   1.0000   1.0000   1.0000   1.0000   1.0000   1.0000   1.0000
     1.0000   1.0000   1.0000   1.0000   1.0000   1.0000   1.0000   1.0000
     1.0000   1.0000   1.0000   1.0000   0.0000   0.0000   0.0000   0.0000
     0.0000   0.0000   0.0000   0.0000

          k = 0.3536 0.0884-0.0884 (  5685 PWs)   bands (ev):

   -15.2940 -15.2940 -15.2803 -15.2803 -15.2256 -15.2256 -15.2086 -15.2086
   -14.3246 -14.3246 -14.2521 -14.2521 -14.2216 -14.2216 -14.1442 -14.1442
   -14.1196 -14.1196 -14.0743 -14.0743  -2.4483  -2.4483   2.3115   2.3115
     5.1337   5.1337   5.4209   5.4209   8.1457   8.1457   8.7893   8.7893
    10.8897  10.8897  11.0725  11.0725

     occupation numbers 
     1.0000   1.0000   1.0000   1.0000   1.0000   1.0000   1.0000   1.0000
     1.0000   1.0000   1.0000   1.0000   1.0000   1.0000   1.0000   1.0000
     1.0000   1.0000   1.0000   1.0000   1.0000   1.0000   1.0000   1.0000
     1.0000   1.0000   1.0000   1.0000   0.0000   0.0000   0.0000   0.0000
     0.0000   0.0000   0.0000   0.0000

          k = 0.3977 0.1326-0.1326 (  5664 PWs)   bands (ev):

   -15.2957 -15.2957 -15.2753 -15.2753 -15.2307 -15.2307 -15.2061 -15.2061
   -14.3153 -14.3153 -14.2603 -14.2603 -14.2250 -14.2250 -14.1467 -14.1467
   -14.1121 -14.1121 -14.0759 -14.0759  -2.1765  -2.1765   1.7220   1.7220
     4.8334   4.8334   5.3126   5.3126   8.1115   8.1115   9.1689   9.1689
    10.9001  10.9001  11.1575  11.1575

     occupation numbers 
     1.0000   1.0000   1.0000   1.0000   1.0000   1.0000   1.0000   1.0000
     1.0000   1.0000   1.0000   1.0000   1.0000   1.0000   1.0000   1.0000
     1.0000   1.0000   1.0000   1.0000   1.0000   1.0000   1.0000   1.0000
     1.0000   1.0000   1.0000   1.0000   0.0000   0.0000   0.0000   0.0000
     0.0000   0.0000   0.0000   0.0000

          k = 0.4419 0.1768-0.1768 (  5672 PWs)   bands (ev):

   -15.2971 -15.2971 -15.2699 -15.2699 -15.2362 -15.2362 -15.2038 -15.2038
   -14.3066 -14.3066 -14.2669 -14.2669 -14.2279 -14.2279 -14.1493 -14.1493
   -14.1074 -14.1074 -14.0762 -14.0762  -1.8848  -1.8848   1.1850   1.1850
     4.5703   4.5703   5.2709   5.2709   8.0347   8.0347   9.5806   9.5806
    11.0205  11.0205  11.1698  11.1698

     occupation numbers 
     1.0000   1.0000   1.0000   1.0000   1.0000   1.0000   1.0000   1.0000
     1.0000   1.0000   1.0000   1.0000   1.0000   1.0000   1.0000   1.0000
     1.0000   1.0000   1.0000   1.0000   1.0000   1.0000   1.0000   1.0000
     1.0000   1.0000   1.0000   1.0000   0.0000   0.0000   0.0000   0.0000
     0.0000   0.0000   0.0000   0.0000

          k =-0.2210-0.4861 0.4861 (  5676 PWs)   bands (ev):

   -15.2981 -15.2981 -15.2649 -15.2648 -15.2415 -15.2415 -15.2021 -15.2021
   -14.3002 -14.3002 -14.2712 -14.2712 -14.2299 -14.2299 -14.1516 -14.1516
   -14.1051 -14.1051 -14.0756 -14.0756  -1.6327  -1.6327   0.7809   0.7809
     4.3690   4.3690   5.2938   5.2938   7.9761   7.9761   9.8423   9.8423
    10.9685  10.9685  11.5695  11.5695

     occupation numbers 
     1.0000   1.0000   1.0000   1.0000   1.0000   1.0000   1.0000   1.0000
     1.0000   1.0000   1.0000   1.0000   1.0000   1.0000   1.0000   1.0000
     1.0000   1.0000   1.0000   1.0000   1.0000   1.0000   1.0000   1.0000
     1.0000   1.0000   1.0000   1.0000   0.0000   0.0000   0.0000   0.0000
     0.0000   0.0000   0.0000   0.0000

          k =-0.1768-0.4419 0.4419 (  5665 PWs)   bands (ev):

   -15.2987 -15.2987 -15.2615 -15.2614 -15.2451 -15.2450 -15.2012 -15.2012
   -14.2980 -14.2980 -14.2727 -14.2727 -14.2302 -14.2302 -14.1531 -14.1531
   -14.1043 -14.1043 -14.0752 -14.0752  -1.5298  -1.5298   0.6296   0.6296
     4.2423   4.2423   5.3786   5.3786   7.9525   7.9525   9.9822   9.9822
    10.8214  10.8214  12.1783  12.1783

     occupation numbers 
     1.0000   1.0000   1.0000   1.0000   1.0000   1.0000   1.0000   1.0000
     1.0000   1.0000   1.0000   1.0000   1.0000   1.0000   1.0000   1.0000
     1.0000   1.0000   1.0000   1.0000   1.0000   1.0000   1.0000   1.0000
     1.0000   1.0000   1.0000   1.0000   0.0000   0.0000   0.0000   0.0000
     0.0000   0.0000   0.0000   0.0000

          k =-0.1326-0.3977 0.3977 (  5674 PWs)   bands (ev):

   -15.2988 -15.2988 -15.2624 -15.2623 -15.2443 -15.2442 -15.2012 -15.2012
   -14.3008 -14.3008 -14.2711 -14.2711 -14.2287 -14.2286 -14.1534 -14.1534
   -14.1041 -14.1041 -14.0757 -14.0757  -1.6469  -1.6469   0.8032   0.8032
     4.2004   4.2004   5.5197   5.5197   7.9631   7.9631  10.0915  10.0915
    10.6430  10.6430  12.2699  12.2699

     occupation numbers 
     1.0000   1.0000   1.0000   1.0000   1.0000   1.0000   1.0000   1.0000
     1.0000   1.0000   1.0000   1.0000   1.0000   1.0000   1.0000   1.0000
     1.0000   1.0000   1.0000   1.0000   1.0000   1.0000   1.0000   1.0000
     1.0000   1.0000   1.0000   1.0000   0.0000   0.0000   0.0000   0.0000
     0.0000   0.0000   0.0000   0.0000

          k =-0.0884-0.3536 0.3536 (  5684 PWs)   bands (ev):

   -15.2984 -15.2984 -15.2666 -15.2666 -15.2400 -15.2400 -15.2021 -15.2021
   -14.3074 -14.3074 -14.2669 -14.2669 -14.2258 -14.2258 -14.1526 -14.1526
   -14.1050 -14.1050 -14.0768 -14.0768  -1.9039  -1.9039   1.2139   1.2139
     4.2557   4.2557   5.7077   5.7077   7.9941   7.9941  10.1905  10.1905
    10.4280  10.4280  11.6182  11.6182

     occupation numbers 
     1.0000   1.0000   1.0000   1.0000   1.0000   1.0000   1.0000   1.0000
     1.0000   1.0000   1.0000   1.0000   1.0000   1.0000   1.0000   1.0000
     1.0000   1.0000   1.0000   1.0000   1.0000   1.0000   1.0000   1.0000
     1.0000   1.0000   1.0000   1.0000   0.0000   0.0000   0.0000   0.0000
     0.0000   0.0000   0.0000   0.0000

          k =-0.0442-0.3094 0.3094 (  5678 PWs)   bands (ev):

   -15.2976 -15.2976 -15.2716 -15.2716 -15.2348 -15.2348 -15.2037 -15.2037
   -14.3161 -14.3161 -14.2605 -14.2605 -14.2228 -14.2228 -14.1507 -14.1507
   -14.1081 -14.1081 -14.0773 -14.0773  -2.1947  -2.1947   1.7359   1.7359
     4.4258   4.4258   5.9268   5.9268   8.0122   8.0122  10.1128  10.1128
    10.2496  10.2496  11.0267  11.0267

     occupation numbers 
     1.0000   1.0000   1.0000   1.0000   1.0000   1.0000   1.0000   1.0000
     1.0000   1.0000   1.0000   1.0000   1.0000   1.0000   1.0000   1.0000
     1.0000   1.0000   1.0000   1.0000   1.0000   1.0000   1.0000   1.0000
     1.0000   1.0000   1.0000   1.0000   0.0000   0.0000   0.0000   0.0000
     0.0000   0.0000   0.0000   0.0000

          k = 0.0000-0.2652 0.2652 (  5683 PWs)   bands (ev):

   -15.2965 -15.2965 -15.2764 -15.2764 -15.2298 -15.2298 -15.2058 -15.2058
   -14.3253 -14.3253 -14.2523 -14.2522 -14.2202 -14.2202 -14.1484 -14.1484
   -14.1143 -14.1143 -14.0763 -14.0763  -2.4635  -2.4635   2.2814   2.2814
     4.7332   4.7332   6.1504   6.1504   7.9500   7.9500   9.8119   9.8119
     9.9877   9.9877  10.8394  10.8394

     occupation numbers 
     1.0000   1.0000   1.0000   1.0000   1.0000   1.0000   1.0000   1.0000
     1.0000   1.0000   1.0000   1.0000   1.0000   1.0000   1.0000   1.0000
     1.0000   1.0000   1.0000   1.0000   1.0000   1.0000   1.0000   1.0000
     1.0000   1.0000   1.0000   1.0000   0.0000   0.0000   0.0000   0.0000
     0.0000   0.0000   0.0000   0.0000

          k = 0.3536 0.0000 0.0000 (  5694 PWs)   bands (ev):

   -15.2912 -15.2912 -15.2846 -15.2846 -15.2214 -15.2214 -15.2116 -15.2116
   -14.3275 -14.3275 -14.2492 -14.2492 -14.2202 -14.2202 -14.1426 -14.1426
   -14.1245 -14.1245 -14.0728 -14.0728  -2.5262  -2.5262   2.5515   2.5515
     5.2722   5.2722   5.3907   5.3907   7.8103   7.8103   8.7021   8.7021
    11.2564  11.2564  11.2889  11.2889

     occupation numbers 
     1.0000   1.0000   1.0000   1.0000   1.0000   1.0000   1.0000   1.0000
     1.0000   1.0000   1.0000   1.0000   1.0000   1.0000   1.0000   1.0000
     1.0000   1.0000   1.0000   1.0000   1.0000   1.0000   1.0000   1.0000
     1.0000   1.0000   1.0000   1.0000   0.0000   0.0000   0.0000   0.0000
     0.0000   0.0000   0.0000   0.0000

          k = 0.3977 0.0442-0.0442 (  5682 PWs)   bands (ev):

   -15.2919 -15.2919 -15.2821 -15.2821 -15.2236 -15.2236 -15.2104 -15.2104
   -14.3200 -14.3200 -14.2563 -14.2563 -14.2223 -14.2223 -14.1463 -14.1463
   -14.1171 -14.1171 -14.0738 -14.0738  -2.3180  -2.3180   2.0938   2.0938
     5.0533   5.0533   5.2049   5.2049   7.8305   7.8305   8.6773   8.6773
    11.4114  11.4114  11.6129  11.6129

     occupation numbers 
     1.0000   1.0000   1.0000   1.0000   1.0000   1.0000   1.0000   1.0000
     1.0000   1.0000   1.0000   1.0000   1.0000   1.0000   1.0000   1.0000
     1.0000   1.0000   1.0000   1.0000   1.0000   1.0000   1.0000   1.0000
     1.0000   1.0000   1.0000   1.0000   0.0000   0.0000   0.0000   0.0000
     0.0000   0.0000   0.0000   0.0000

          k = 0.4419 0.0884-0.0884 (  5664 PWs)   bands (ev):

   -15.2936 -15.2936 -15.2780 -15.2780 -15.2278 -15.2278 -15.2080 -15.2080
   -14.3120 -14.3120 -14.2629 -14.2629 -14.2237 -14.2237 -14.1518 -14.1518
   -14.1101 -14.1101 -14.0741 -14.0741  -2.0582  -2.0582   1.5908   1.5908
     4.7394   4.7394   5.0864   5.0864   7.9675   7.9675   8.8148   8.8148
    11.2924  11.2924  11.7772  11.7772

     occupation numbers 
     1.0000   1.0000   1.0000   1.0000   1.0000   1.0000   1.0000   1.0000
     1.0000   1.0000   1.0000   1.0000   1.0000   1.0000   1.0000   1.0000
     1.0000   1.0000   1.0000   1.0000   1.0000   1.0000   1.0000   1.0000
     1.0000   1.0000   1.0000   1.0000   0.0000   0.0000   0.0000   0.0000
     0.0000   0.0000   0.0000   0.0000

          k = 0.4861 0.1326-0.1326 (  5668 PWs)   bands (ev):

   -15.2953 -15.2953 -15.2733 -15.2732 -15.2330 -15.2329 -15.2053 -15.2053
   -14.3049 -14.3049 -14.2675 -14.2675 -14.2247 -14.2247 -14.1578 -14.1578
   -14.1058 -14.1058 -14.0731 -14.0731  -1.7662  -1.7662   1.0999   1.0999
     4.4132   4.4132   5.0396   5.0396   8.0057   8.0057   9.2661   9.2661
    11.1742  11.1742  11.7744  11.7744

     occupation numbers 
     1.0000   1.0000   1.0000   1.0000   1.0000   1.0000   1.0000   1.0000
     1.0000   1.0000   1.0000   1.0000   1.0000   1.0000   1.0000   1.0000
     1.0000   1.0000   1.0000   1.0000   1.0000   1.0000   1.0000   1.0000
     1.0000   1.0000   1.0000   1.0000   0.0000   0.0000   0.0000   0.0000
     0.0000   0.0000   0.0000   0.0000

          k =-0.1768-0.5303 0.5303 (  5674 PWs)   bands (ev):

   -15.2967 -15.2967 -15.2684 -15.2684 -15.2383 -15.2382 -15.2030 -15.2030
   -14.3006 -14.3006 -14.2692 -14.2692 -14.2252 -14.2252 -14.1630 -14.1630
   -14.1040 -14.1040 -14.0712 -14.0712  -1.4873  -1.4873   0.6884   0.6884
[...]

     occupation numbers 
     1.0000   1.0000   1.0000   1.0000   1.0000   1.0000   1.0000   1.0000
     1.0000   1.0000   1.0000   1.0000   1.0000   1.0000   1.0000   1.0000
     1.0000   1.0000   1.0000   1.0000   1.0000   1.0000   1.0000   1.0000
     1.0000   1.0000   1.0000   1.0000   0.0000   0.0000   0.0000   0.0000
     0.0000   0.0000   0.0000   0.0000

          k =-0.1326-0.3977 0.5745 (  5674 PWs)   bands (ev):

   -15.2978 -15.2978 -15.2640 -15.2639 -15.2433 -15.2432 -15.2009 -15.2009
   -14.3002 -14.3002 -14.2666 -14.2666 -14.2232 -14.2232 -14.1712 -14.1712
   -14.1044 -14.1044 -14.0672 -14.0672  -1.2352  -1.2352   0.3956   0.3956
     3.9093   3.9093   4.8726   4.8726   8.6474   8.6474   9.9097   9.9097
    11.1631  11.1631  11.8571  11.8571

     occupation numbers 
     1.0000   1.0000   1.0000   1.0000   1.0000   1.0000   1.0000   1.0000
     1.0000   1.0000   1.0000   1.0000   1.0000   1.0000   1.0000   1.0000
     1.0000   1.0000   1.0000   1.0000   1.0000   1.0000   1.0000   1.0000
     1.0000   1.0000   1.0000   1.0000   0.0000   0.0000   0.0000   0.0000
     0.0000   0.0000   0.0000   0.0000

          k =-0.0884-0.3536 0.5303 (  5677 PWs)   bands (ev):

   -15.2980 -15.2980 -15.2635 -15.2634 -15.2440 -15.2438 -15.2007 -15.2007
   -14.3006 -14.3006 -14.2667 -14.2666 -14.2230 -14.2229 -14.1708 -14.1707
   -14.1045 -14.1045 -14.0674 -14.0674  -1.2888  -1.2888   0.4636   0.4636
     3.8778   3.8778   4.9397   4.9397   8.6871   8.6871   9.9088   9.9088
    11.2160  11.2160  11.8227  11.8228

     occupation numbers 
     1.0000   1.0000   1.0000   1.0000   1.0000   1.0000   1.0000   1.0000
     1.0000   1.0000   1.0000   1.0000   1.0000   1.0000   1.0000   1.0000
     1.0000   1.0000   1.0000   1.0000   1.0000   1.0000   1.0000   1.0000
     1.0000   1.0000   1.0000   1.0000   0.0000   0.0000   0.0000   0.0000
     0.0000   0.0000   0.0000   0.0000

          k =-0.0442-0.3094 0.4861 (  5679 PWs)   bands (ev):

   -15.2978 -15.2978 -15.2657 -15.2656 -15.2416 -15.2415 -15.2013 -15.2013
   -14.3026 -14.3026 -14.2672 -14.2672 -14.2228 -14.2228 -14.1665 -14.1665
   -14.1048 -14.1048 -14.0694 -14.0694  -1.5281  -1.5281   0.7772   0.7772
     3.9485   3.9485   5.0789   5.0789   8.7297   8.7297   9.7941   9.7941
    10.6760  10.6761  12.0223  12.0223

     occupation numbers 
     1.0000   1.0000   1.0000   1.0000   1.0000   1.0000   1.0000   1.0000
     1.0000   1.0000   1.0000   1.0000   1.0000   1.0000   1.0000   1.0000
     1.0000   1.0000   1.0000   1.0000   1.0000   1.0000   1.0000   1.0000
     1.0000   1.0000   1.0000   1.0000   0.0000   0.0000   0.0000   0.0000
     0.0000   0.0000   0.0000   0.0000

          k = 0.0000-0.2652 0.4419 (  5678 PWs)   bands (ev):

   -15.2973 -15.2973 -15.2693 -15.2692 -15.2377 -15.2376 -15.2027 -15.2027
   -14.3069 -14.3069 -14.2661 -14.2661 -14.2230 -14.2230 -14.1596 -14.1596
   -14.1059 -14.1059 -14.0725 -14.0725  -1.8212  -1.8212   1.1895   1.1895
     4.1394   4.1394   5.2654   5.2654   8.7152   8.7152   9.4517   9.4517
    10.5127  10.5127  11.7991  11.7991

     occupation numbers 
     1.0000   1.0000   1.0000   1.0000   1.0000   1.0000   1.0000   1.0000
     1.0000   1.0000   1.0000   1.0000   1.0000   1.0000   1.0000   1.0000
     1.0000   1.0000   1.0000   1.0000   1.0000   1.0000   1.0000   1.0000
     1.0000   1.0000   1.0000   1.0000   0.0000   0.0000   0.0000   0.0000
     0.0000   0.0000   0.0000   0.0000

          k =-0.1768-0.5303 0.7071 (  5656 PWs)   bands (ev):

   -15.2945 -15.2945 -15.2737 -15.2736 -15.2328 -15.2327 -15.2055 -15.2055
   -14.3018 -14.3018 -14.2688 -14.2688 -14.2213 -14.2213 -14.1673 -14.1672
   -14.1032 -14.1032 -14.0707 -14.0707  -1.5338  -1.5338   0.8119   0.8119
     4.3013   4.3013   4.7514   4.7514   8.4041   8.4041   8.7821   8.7821
    11.1729  11.1729  12.7341  12.7341

     occupation numbers 
     1.0000   1.0000   1.0000   1.0000   1.0000   1.0000   1.0000   1.0000
     1.0000   1.0000   1.0000   1.0000   1.0000   1.0000   1.0000   1.0000
     1.0000   1.0000   1.0000   1.0000   1.0000   1.0000   1.0000   1.0000
     1.0000   1.0000   1.0000   1.0000   0.0000   0.0000   0.0000   0.0000
     0.0000   0.0000   0.0000   0.0000

          k =-0.1326-0.4861 0.6629 (  5673 PWs)   bands (ev):

   -15.2956 -15.2956 -15.2704 -15.2704 -15.2366 -15.2365 -15.2035 -15.2034
   -14.3003 -14.3003 -14.2674 -14.2674 -14.2190 -14.2189 -14.1757 -14.1757
   -14.1028 -14.1028 -14.0675 -14.0674  -1.2350  -1.2350   0.4341   0.4341
     4.0778   4.0778   4.6316   4.6316   8.5687   8.5687   9.2430   9.2430
    11.0057  11.0057  12.6915  12.6915

     occupation numbers 
     1.0000   1.0000   1.0000   1.0000   1.0000   1.0000   1.0000   1.0000
     1.0000   1.0000   1.0000   1.0000   1.0000   1.0000   1.0000   1.0000
     1.0000   1.0000   1.0000   1.0000   1.0000   1.0000   1.0000   1.0000
     1.0000   1.0000   1.0000   1.0000   0.0000   0.0000   0.0000   0.0000
     0.0000   0.0000   0.0000   0.0000

          k =-0.0884-0.4419 0.6187 (  5676 PWs)   bands (ev):

   -15.2966 -15.2966 -15.2672 -15.2671 -15.2402 -15.2401 -15.2017 -15.2017
   -14.3005 -14.3005 -14.2649 -14.2649 -14.2171 -14.2171 -14.1816 -14.1815
   -14.1034 -14.1034 -14.0649 -14.0649  -1.0015  -1.0015   0.1635   0.1635
     3.8864   3.8864   4.6203   4.6203   8.6241   8.6241   9.9442   9.9442
    10.9131  10.9131  12.1357  12.1357

     occupation numbers 
     1.0000   1.0000   1.0000   1.0000   1.0000   1.0000   1.0000   1.0000
     1.0000   1.0000   1.0000   1.0000   1.0000   1.0000   1.0000   1.0000
     1.0000   1.0000   1.0000   1.0000   1.0000   1.0000   1.0000   1.0000
     1.0000   1.0000   1.0000   1.0000   0.0000   0.0000   0.0000   0.0000
     0.0000   0.0000   0.0000   0.0000

          k =-0.0442-0.3977 0.5745 (  5671 PWs)   bands (ev):

   -15.2973 -15.2973 -15.2649 -15.2647 -15.2429 -15.2427 -15.2007 -15.2007
   -14.3010 -14.3010 -14.2640 -14.2640 -14.2173 -14.2173 -14.1819 -14.1818
   -14.1041 -14.1041 -14.0642 -14.0642  -1.0039  -1.0039   0.1687   0.1687
     3.7775   3.7775   4.7062   4.7062   8.6959   8.6959  10.3992  10.3992
    11.1103  11.1103  11.4471  11.4471

     occupation numbers 
     1.0000   1.0000   1.0000   1.0000   1.0000   1.0000   1.0000   1.0000
     1.0000   1.0000   1.0000   1.0000   1.0000   1.0000   1.0000   1.0000
     1.0000   1.0000   1.0000   1.0000   1.0000   1.0000   1.0000   1.0000
     1.0000   1.0000   1.0000   1.0000   0.0000   0.0000   0.0000   0.0000
     0.0000   0.0000   0.0000   0.0000

          k = 0.0000-0.3536 0.5303 (  5662 PWs)   bands (ev):

   -15.2977 -15.2977 -15.2643 -15.2641 -15.2434 -15.2433 -15.2006 -15.2006
   -14.3014 -14.3014 -14.2653 -14.2653 -14.2197 -14.2197 -14.1761 -14.1760
   -14.1044 -14.1044 -14.0658 -14.0658  -1.2354  -1.2354   0.4337   0.4337
     3.7902   3.7902   4.8678   4.8678   8.7638   8.7638  10.2728  10.2728
    10.7512  10.7512  11.8988  11.8988

     occupation numbers 
     1.0000   1.0000   1.0000   1.0000   1.0000   1.0000   1.0000   1.0000
     1.0000   1.0000   1.0000   1.0000   1.0000   1.0000   1.0000   1.0000
     1.0000   1.0000   1.0000   1.0000   1.0000   1.0000   1.0000   1.0000
     1.0000   1.0000   1.0000   1.0000   0.0000   0.0000   0.0000   0.0000
     0.0000   0.0000   0.0000   0.0000

          k =-0.0884-0.5303 0.7071 (  5673 PWs)   bands (ev):

   -15.2938 -15.2938 -15.2736 -15.2735 -15.2329 -15.2329 -15.2056 -15.2056
   -14.2982 -14.2982 -14.2696 -14.2696 -14.2138 -14.2138 -14.1827 -14.1827
   -14.0995 -14.0995 -14.0683 -14.0683  -1.0156  -1.0156   0.1702   0.1702
     4.2214   4.2214   4.4749   4.4749   8.3689   8.3689   8.6184   8.6184
    11.8255  11.8255  13.0218  13.0218

     occupation numbers 
     1.0000   1.0000   1.0000   1.0000   1.0000   1.0000   1.0000   1.0000
     1.0000   1.0000   1.0000   1.0000   1.0000   1.0000   1.0000   1.0000
     1.0000   1.0000   1.0000   1.0000   1.0000   1.0000   1.0000   1.0000
     1.0000   1.0000   1.0000   1.0000   0.0000   0.0000   0.0000   0.0000
     0.0000   0.0000   0.0000   0.0000

          k =-0.0442-0.4861 0.6629 (  5675 PWs)   bands (ev):

   -15.2951 -15.2951 -15.2706 -15.2706 -15.2365 -15.2364 -15.2035 -15.2035
   -14.2995 -14.2995 -14.2661 -14.2661 -14.2101 -14.2101 -14.1900 -14.1899
   -14.1012 -14.1012 -14.0652 -14.0652  -0.7370  -0.7370  -0.1248  -0.1248
     4.0227   4.0227   4.4285   4.4285   8.5214   8.5214   9.1948   9.1948
    11.6479  11.6479  12.3521  12.3521

     occupation numbers 
     1.0000   1.0000   1.0000   1.0000   1.0000   1.0000   1.0000   1.0000
     1.0000   1.0000   1.0000   1.0000   1.0000   1.0000   1.0000   1.0000
     1.0000   1.0000   1.0000   1.0000   1.0000   1.0000   1.0000   1.0000
     1.0000   1.0000   1.0000   1.0000   0.0000   0.0000   0.0000   0.0000
     0.0000   0.0000   0.0000   0.0000

          k = 0.0000-0.4419 0.6187 (  5661 PWs)   bands (ev):

   -15.2963 -15.2963 -15.2675 -15.2674 -15.2401 -15.2400 -15.2017 -15.2017
   -14.3006 -14.3006 -14.2637 -14.2637 -14.2116 -14.2115 -14.1897 -14.1897
   -14.1030 -14.1030 -14.0635 -14.0635  -0.7400  -0.7400  -0.1128  -0.1128
     3.8390   3.8390   4.5264   4.5264   8.6073   8.6073   9.9854   9.9854
    11.4612  11.4612  11.5581  11.5581

     occupation numbers 
     1.0000   1.0000   1.0000   1.0000   1.0000   1.0000   1.0000   1.0000
     1.0000   1.0000   1.0000   1.0000   1.0000   1.0000   1.0000   1.0000
     1.0000   1.0000   1.0000   1.0000   1.0000   1.0000   1.0000   1.0000
     1.0000   1.0000   1.0000   1.0000   0.0000   0.0000   0.0000   0.0000
     0.0000   0.0000   0.0000   0.0000

          k =-0.7071 0.1768 0.0000 (  5676 PWs)   bands (ev):

   -15.2934 -15.2934 -15.2737 -15.2737 -15.2328 -15.2327 -15.2057 -15.2057
   -14.2976 -14.2976 -14.2694 -14.2694 -14.2047 -14.2045 -14.1947 -14.1946
   -14.0982 -14.0982 -14.0674 -14.0674  -0.4584  -0.4583  -0.4284  -0.4284
     4.2195   4.2195   4.3565   4.3565   8.3840   8.3840   8.5250   8.5250
    12.4543  12.4543  12.6145  12.6146

     occupation numbers 
     1.0000   1.0000   1.0000   1.0000   1.0000   1.0000   1.0000   1.0000
     1.0000   1.0000   1.0000   1.0000   1.0000   1.0000   1.0000   1.0000
     1.0000   1.0000   1.0000   1.0000   1.0000   1.0000   1.0000   1.0000
     1.0000   1.0000   1.0000   1.0000   0.0000   0.0000   0.0000   0.0000
     0.0000   0.0000   0.0000   0.0000

          k =-0.1768-0.4419 0.7071 (  5676 PWs)   bands (ev):

   -15.2968 -15.2968 -15.2682 -15.2681 -15.2391 -15.2390 -15.2022 -15.2022
   -14.3018 -14.3018 -14.2666 -14.2666 -14.2211 -14.2211 -14.1712 -14.1712
   -14.1045 -14.1045 -14.0677 -14.0677  -1.4028  -1.4028   0.6426   0.6426
     4.0026   4.0026   4.7848   4.7848   9.0678   9.0678   9.3597   9.3597
    10.4706  10.4706  12.4691  12.4692

     occupation numbers 
     1.0000   1.0000   1.0000   1.0000   1.0000   1.0000   1.0000   1.0000
     1.0000   1.0000   1.0000   1.0000   1.0000   1.0000   1.0000   1.0000
     1.0000   1.0000   1.0000   1.0000   1.0000   1.0000   1.0000   1.0000
     1.0000   1.0000   1.0000   1.0000   0.0000   0.0000   0.0000   0.0000
     0.0000   0.0000   0.0000   0.0000

          k =-0.1326-0.3977 0.6629 (  5677 PWs)   bands (ev):

   -15.2972 -15.2971 -15.2659 -15.2658 -15.2417 -15.2416 -15.2011 -15.2011
   -14.3012 -14.3012 -14.2645 -14.2645 -14.2188 -14.2188 -14.1788 -14.1788
   -14.1045 -14.1044 -14.0649 -14.0649  -1.1241  -1.1241   0.3090   0.3090
     3.8776   3.8776   4.6331   4.6332   9.1384   9.1384   9.8002   9.8003
    10.5748  10.5748  12.0246  12.0247

     occupation numbers 
     1.0000   1.0000   1.0000   1.0000   1.0000   1.0000   1.0000   1.0000
     1.0000   1.0000   1.0000   1.0000   1.0000   1.0000   1.0000   1.0000
     1.0000   1.0000   1.0000   1.0000   1.0000   1.0000   1.0000   1.0000
     1.0000   1.0000   1.0000   1.0000   0.0000   0.0000   0.0000   0.0000
     0.0000   0.0000   0.0000   0.0000

          k =-0.0884-0.3536 0.6187 (  5678 PWs)   bands (ev):

   -15.2973 -15.2973 -15.2650 -15.2649 -15.2428 -15.2426 -15.2007 -15.2007
   -14.3011 -14.3011 -14.2633 -14.2633 -14.2178 -14.2178 -14.1818 -14.1818
   -14.1045 -14.1045 -14.0638 -14.0638  -0.9887  -0.9887   0.1543   0.1543
     3.8377   3.8377   4.5777   4.5777   9.1434   9.1434   9.9262   9.9262
    11.0512  11.0512  11.3904  11.3904

     occupation numbers 
     1.0000   1.0000   1.0000   1.0000   1.0000   1.0000   1.0000   1.0000
     1.0000   1.0000   1.0000   1.0000   1.0000   1.0000   1.0000   1.0000
     1.0000   1.0000   1.0000   1.0000   1.0000   1.0000   1.0000   1.0000
     1.0000   1.0000   1.0000   1.0000   0.0000   0.0000   0.0000   0.0000
     0.0000   0.0000   0.0000   0.0000

          k =-0.0884-0.4419 0.7071 (  5678 PWs)   bands (ev):

   -15.2961 -15.2961 -15.2685 -15.2684 -15.2390 -15.2389 -15.2021 -15.2021
   -14.3007 -14.3007 -14.2643 -14.2643 -14.2146 -14.2145 -14.1852 -14.1851
   -14.1033 -14.1033 -14.0642 -14.0642  -0.9342  -0.9342   0.1014   0.1014
     3.9865   3.9865   4.4060   4.4060   9.1389   9.1389   9.3543   9.3543
    10.8343  10.8343  12.1899  12.1899

     occupation numbers 
     1.0000   1.0000   1.0000   1.0000   1.0000   1.0000   1.0000   1.0000
     1.0000   1.0000   1.0000   1.0000   1.0000   1.0000   1.0000   1.0000
     1.0000   1.0000   1.0000   1.0000   1.0000   1.0000   1.0000   1.0000
     1.0000   1.0000   1.0000   1.0000   0.0000   0.0000   0.0000   0.0000
     0.0000   0.0000   0.0000   0.0000

          k =-0.0442-0.3977 0.6629 (  5674 PWs)   bands (ev):

   -15.2966 -15.2966 -15.2668 -15.2667 -15.2411 -15.2409 -15.2012 -15.2011
   -14.3014 -14.3014 -14.2619 -14.2619 -14.2116 -14.2116 -14.1908 -14.1907
   -14.1041 -14.1041 -14.0623 -14.0623  -0.7184  -0.7184  -0.1240  -0.1240
     3.9064   3.9064   4.3281   4.3281   9.2757   9.2757   9.9760   9.9760
    10.7644  10.7644  11.3607  11.3607

     occupation numbers 
     1.0000   1.0000   1.0000   1.0000   1.0000   1.0000   1.0000   1.0000
     1.0000   1.0000   1.0000   1.0000   1.0000   1.0000   1.0000   1.0000
     1.0000   1.0000   1.0000   1.0000   1.0000   1.0000   1.0000   1.0000
     1.0000   1.0000   1.0000   1.0000   0.0000   0.0000   0.0000   0.0000
     0.0000   0.0000   0.0000   0.0000

          k =-0.0000-0.3536 0.6187 (  5673 PWs)   bands (ev):

   -15.2970 -15.2970 -15.2658 -15.2657 -15.2421 -15.2420 -15.2008 -15.2008
   -14.3015 -14.3015 -14.2620 -14.2620 -14.2139 -14.2139 -14.1878 -14.1877
   -14.1045 -14.1045 -14.0625 -14.0625  -0.8384  -0.8384   0.0040   0.0040
     3.8468   3.8468   4.4256   4.4256   9.3179   9.3179  10.1580  10.1580
    10.6523  10.6523  11.2730  11.2730

     occupation numbers 
     1.0000   1.0000   1.0000   1.0000   1.0000   1.0000   1.0000   1.0000
     1.0000   1.0000   1.0000   1.0000   1.0000   1.0000   1.0000   1.0000
     1.0000   1.0000   1.0000   1.0000   1.0000   1.0000   1.0000   1.0000
     1.0000   1.0000   1.0000   1.0000   0.0000   0.0000   0.0000   0.0000
     0.0000   0.0000   0.0000   0.0000

          k =-0.7071 0.2652 0.0000 (  5664 PWs)   bands (ev):

   -15.2958 -15.2958 -15.2688 -15.2687 -15.2388 -15.2387 -15.2022 -15.2021
   -14.3007 -14.3007 -14.2631 -14.2631 -14.2072 -14.2071 -14.1953 -14.1951
   -14.1029 -14.1029 -14.0629 -14.0629  -0.4480  -0.4480  -0.4082  -0.4081
     4.0471   4.0471   4.2101   4.2101   9.1393   9.1393   9.3387   9.3387
    11.4335  11.4335  11.5370  11.5370

     occupation numbers 
     1.0000   1.0000   1.0000   1.0000   1.0000   1.0000   1.0000   1.0000
     1.0000   1.0000   1.0000   1.0000   1.0000   1.0000   1.0000   1.0000
     1.0000   1.0000   1.0000   1.0000   1.0000   1.0000   1.0000   1.0000
     1.0000   1.0000   1.0000   1.0000   0.0000   0.0000   0.0000   0.0000
     0.0000   0.0000   0.0000   0.0000

          k =-0.7071 0.3536 0.0000 (  5680 PWs)   bands (ev):

   -15.2966 -15.2966 -15.2666 -15.2665 -15.2414 -15.2412 -15.2009 -15.2009
   -14.3018 -14.3018 -14.2607 -14.2606 -14.2081 -14.2080 -14.1957 -14.1956
   -14.1045 -14.1045 -14.0614 -14.0613  -0.4434  -0.4434  -0.4000  -0.3999
     3.9825   3.9825   4.1534   4.1534   9.7135   9.7135  10.0359  10.0359
    10.7454  10.7454  10.7664  10.7665

     occupation numbers 
     1.0000   1.0000   1.0000   1.0000   1.0000   1.0000   1.0000   1.0000
     1.0000   1.0000   1.0000   1.0000   1.0000   1.0000   1.0000   1.0000
     1.0000   1.0000   1.0000   1.0000   1.0000   1.0000   1.0000   1.0000
     1.0000   1.0000   1.0000   1.0000   0.0000   0.0000   0.0000   0.0000
     0.0000   0.0000   0.0000   0.0000

     the Fermi energy is     6.7864 ev

!    total energy              =    -885.88017860 Ry
     Harris-Foulkes estimate   =    -885.88017861 Ry
     estimated scf accuracy    <       0.00000003 Ry

     total all-electron energy =    -24716.579928 Ry

     The total energy is the sum of the following terms:

     one-electron contribution =    -155.20005987 Ry
     hartree contribution      =      96.07445042 Ry
     xc contribution           =     -96.11054117 Ry
     ewald contribution        =    -166.77966192 Ry
     one-center paw contrib.   =    -563.86436593 Ry
     smearing contrib. (-TS)   =      -0.00000012 Ry

     convergence has been achieved in   6 iterations

     Writing output data file Sn.save
 
     init_run     :      6.32s CPU      7.01s WALL (       1 calls)
     electrons    :    145.88s CPU    162.15s WALL (       1 calls)

     Called by init_run:
     wfcinit      :      5.88s CPU      6.47s WALL (       1 calls)
     potinit      :      0.13s CPU      0.15s WALL (       1 calls)

     Called by electrons:
     c_bands      :    122.65s CPU    136.61s WALL (       7 calls)
     sum_band     :     22.08s CPU     24.22s WALL (       7 calls)
     v_of_rho     :      0.05s CPU      0.06s WALL (       7 calls)
     v_h          :      0.00s CPU      0.00s WALL (       7 calls)
     v_xc         :      0.05s CPU      0.05s WALL (       7 calls)
     newd         :      0.43s CPU      0.47s WALL (       7 calls)
     PAW_pot      :      0.80s CPU      0.87s WALL (       7 calls)
     mix_rho      :      0.02s CPU      0.04s WALL (       7 calls)

     Called by c_bands:
     init_us_2    :      0.47s CPU      0.54s WALL (    2175 calls)
     cegterg      :    114.28s CPU    128.07s WALL (    1015 calls)

     Called by sum_band:
     sum_band:bec :      2.26s CPU      2.32s WALL (    1015 calls)
     addusdens    :      0.22s CPU      0.29s WALL (       7 calls)

     Called by *egterg:
     h_psi        :     96.19s CPU    106.50s WALL (    3541 calls)
     s_psi        :      3.05s CPU      3.07s WALL (    3541 calls)
     g_psi        :      0.28s CPU      0.28s WALL (    2381 calls)
     cdiaghg      :      8.57s CPU      8.74s WALL (    3251 calls)
     cegterg:over :      4.41s CPU      4.43s WALL (    2381 calls)
     cegterg:upda :      2.24s CPU      2.25s WALL (    2381 calls)
     cegterg:last :      1.13s CPU      1.14s WALL (    1015 calls)

     Called by h_psi:
     h_psi:vloc   :     89.10s CPU     99.20s WALL (    3541 calls)
     h_psi:vnl    :      6.83s CPU      7.02s WALL (    3541 calls)
     add_vuspsi   :      3.28s CPU      3.32s WALL (    3541 calls)

     General routines
     calbec       :      4.75s CPU      4.95s WALL (    4556 calls)
     fft          :      0.06s CPU      0.07s WALL (     135 calls)
     fftw         :    100.12s CPU    111.57s WALL (  458616 calls)
     davcio       :      0.06s CPU      0.36s WALL (     145 calls)
 
     Parallel routines
     fft_scatter  :     53.53s CPU     59.72s WALL (  458751 calls)

     PAW routines
     PAW_pot      :      0.80s CPU      0.87s WALL (       7 calls)
     PAW_symme    :      0.02s CPU      0.02s WALL (      14 calls)
 
     PWSCF        :  2m33.44s CPU     2m50.98s WALL

 
   This run was terminated on:   5:22:16   9Mar2020            

=------------------------------------------------------------------------------=
   JOB DONE.
=------------------------------------------------------------------------------=
