
     Program PWSCF v.5.4.0 starts on 27Feb2020 at 22:48:45 

     This program is part of the open-source Quantum ESPRESSO suite
     for quantum simulation of materials; please cite
         "P. Giannozzi et al., J. Phys.:Condens. Matter 21 395502 (2009);
          URL http://www.quantum-espresso.org", 
     in publications or presentations arising from this work. More details at
     http://www.quantum-espresso.org/quote

     Parallel version (MPI & OpenMP), running on      16 processor cores
     Number of MPI processes:                16
     Threads/MPI process:                     1
     R & G space division:  proc/nbgrp/npool/nimage =      16
     Waiting for input...
     Reading input from standard input
Warning: card &IONS ignored
Warning: card / ignored
Warning: card &CELL ignored
Warning: card / ignored

     Current dimensions of program PWSCF are:
     Max number of different atomic species (ntypx) = 10
     Max number of k-points (npk) =  40000
     Max angular momentum in pseudopotentials (lmaxx) =  3

     Subspace diagonalization in iterative solution of the eigenvalue problem:
     a serial algorithm will be used

 
     Parallelization info
     --------------------
     sticks:   dense  smooth     PW     G-vecs:    dense   smooth      PW
     Min         109     109     31                 3006     3006     473
     Max         111     111     32                 3009     3009     477
     Sum        1759    1759    511                48119    48119    7583
 

     Title: 
     Sn                                                                         


     bravais-lattice index     =            0
     lattice parameter (alat)  =       8.8993  a.u.
     unit-cell volume          =     498.3785 (a.u.)^3
     number of atoms/cell      =            2
     number of atomic types    =            1
     number of electrons       =        28.00
     number of Kohn-Sham states=           18
     kinetic-energy cutoff     =      80.0000  Ry
     charge density cutoff     =     320.0000  Ry
     convergence threshold     =      1.0E-06
     mixing beta               =       0.7000
     number of iterations used =            8  plain     mixing
     Exchange-correlation      = PBE ( 1  4  3  4 0 0)

     celldm(1)=   8.899346  celldm(2)=   0.000000  celldm(3)=   0.000000
     celldm(4)=   0.000000  celldm(5)=   0.000000  celldm(6)=   0.000000

     crystal axes: (cart. coord. in units of alat)
               a(1) = (   0.000000   0.707107   0.707107 )  
               a(2) = (   0.707107   0.000000   0.707107 )  
               a(3) = (   0.707107   0.707107   0.000000 )  

     reciprocal axes: (cart. coord. in units 2 pi/alat)
               b(1) = ( -0.707107  0.707107  0.707107 )  
               b(2) = (  0.707107 -0.707107  0.707107 )  
               b(3) = (  0.707107  0.707107 -0.707107 )  


     PseudoPot. # 1 for Sn read from file:
     ../PseudopotentialDatabase/Sn_ONCV_PBE_FR-1.1.upf
     MD5 check sum: 6dd2180f739ea5ae1610ead5e1628a0e
     Pseudo is Norm-conserving, Zval = 14.0
     Generated using ONCVPSP code by D. R. Hamann
     Using radial grid of  602 points,  6 beta functions with: 
                l(1) =   0
                l(2) =   0
                l(3) =   1
                l(4) =   1
                l(5) =   2
                l(6) =   2

     atomic species   valence    mass     pseudopotential
        Sn            14.00   118.71000     Sn( 1.00)

     24 Sym. Ops. (no inversion) found
          (note: 24 additional sym.ops. were found but ignored
           their fractional translations are incommensurate with FFT grid)

                                    s                        frac. trans.

      isym =  1     identity                                     

 cryst.   s( 1) = (     1          0          0      )
                  (     0          1          0      )
                  (     0          0          1      )

 cart.    s( 1) = (  1.0000000  0.0000000  0.0000000 )
                  (  0.0000000  1.0000000  0.0000000 )
                  (  0.0000000  0.0000000  1.0000000 )


      isym =  2     180 deg rotation - cart. axis [0,0,1]        

 cryst.   s( 2) = (     0          1         -1      )
                  (     1          0         -1      )
                  (     0          0         -1      )

 cart.    s( 2) = ( -1.0000000  0.0000000  0.0000000 )
                  (  0.0000000 -1.0000000  0.0000000 )
                  (  0.0000000  0.0000000  1.0000000 )


      isym =  3     180 deg rotation - cart. axis [0,1,0]        

 cryst.   s( 3) = (     0         -1          1      )
                  (     0         -1          0      )
                  (     1         -1          0      )

 cart.    s( 3) = ( -1.0000000  0.0000000  0.0000000 )
                  (  0.0000000  1.0000000  0.0000000 )
                  (  0.0000000  0.0000000 -1.0000000 )


      isym =  4     180 deg rotation - cart. axis [1,0,0]        

 cryst.   s( 4) = (    -1          0          0      )
                  (    -1          0          1      )
                  (    -1          1          0      )

 cart.    s( 4) = (  1.0000000  0.0000000  0.0000000 )
                  (  0.0000000 -1.0000000  0.0000000 )
                  (  0.0000000  0.0000000 -1.0000000 )


      isym =  5     120 deg rotation - cart. axis [-1,-1,-1]     

 cryst.   s( 5) = (     0          0          1      )
                  (     1          0          0      )
                  (     0          1          0      )

 cart.    s( 5) = (  0.0000000  1.0000000  0.0000000 )
                  (  0.0000000  0.0000000  1.0000000 )
                  (  1.0000000  0.0000000  0.0000000 )


      isym =  6     120 deg rotation - cart. axis [-1,1,1]       

 cryst.   s( 6) = (     1         -1          0      )
                  (     0         -1          1      )
                  (     0         -1          0      )

 cart.    s( 6) = (  0.0000000 -1.0000000  0.0000000 )
                  (  0.0000000  0.0000000  1.0000000 )
                  ( -1.0000000  0.0000000  0.0000000 )


      isym =  7     120 deg rotation - cart. axis [1,1,-1]       

 cryst.   s( 7) = (    -1          1          0      )
                  (    -1          0          0      )
                  (    -1          0          1      )

 cart.    s( 7) = (  0.0000000  1.0000000  0.0000000 )
                  (  0.0000000  0.0000000 -1.0000000 )
                  ( -1.0000000  0.0000000  0.0000000 )


      isym =  8     120 deg rotation - cart. axis [1,-1,1]       

 cryst.   s( 8) = (     0          0         -1      )
                  (     0          1         -1      )
                  (     1          0         -1      )

 cart.    s( 8) = (  0.0000000 -1.0000000  0.0000000 )
                  (  0.0000000  0.0000000 -1.0000000 )
                  (  1.0000000  0.0000000  0.0000000 )


      isym =  9     120 deg rotation - cart. axis [1,1,1]        

 cryst.   s( 9) = (     0          1          0      )
                  (     0          0          1      )
                  (     1          0          0      )

 cart.    s( 9) = (  0.0000000  0.0000000  1.0000000 )
                  (  1.0000000  0.0000000  0.0000000 )
                  (  0.0000000  1.0000000  0.0000000 )


      isym = 10     120 deg rotation - cart. axis [-1,1,-1]      

 cryst.   s(10) = (    -1          0          1      )
                  (    -1          1          0      )
                  (    -1          0          0      )

 cart.    s(10) = (  0.0000000  0.0000000  1.0000000 )
                  ( -1.0000000  0.0000000  0.0000000 )
                  (  0.0000000 -1.0000000  0.0000000 )


      isym = 11     120 deg rotation - cart. axis [1,-1,-1]      

 cryst.   s(11) = (     1          0         -1      )
                  (     0          0         -1      )
                  (     0          1         -1      )

 cart.    s(11) = (  0.0000000  0.0000000 -1.0000000 )
                  ( -1.0000000  0.0000000  0.0000000 )
                  (  0.0000000  1.0000000  0.0000000 )


      isym = 12     120 deg rotation - cart. axis [-1,-1,1]      

 cryst.   s(12) = (     0         -1          0      )
                  (     1         -1          0      )
                  (     0         -1          1      )

 cart.    s(12) = (  0.0000000  0.0000000 -1.0000000 )
                  (  1.0000000  0.0000000  0.0000000 )
                  (  0.0000000 -1.0000000  0.0000000 )


      isym = 13     inv. 180 deg rotation - cart. axis [1,1,0]   

 cryst.   s(13) = (     1          0         -1      )
                  (     0          1         -1      )
                  (     0          0         -1      )

 cart.    s(13) = (  0.0000000 -1.0000000  0.0000000 )
                  ( -1.0000000  0.0000000  0.0000000 )
                  (  0.0000000  0.0000000  1.0000000 )


      isym = 14     inv. 180 deg rotation - cart. axis [1,-1,0]  

 cryst.   s(14) = (     0          1          0      )
                  (     1          0          0      )
                  (     0          0          1      )

 cart.    s(14) = (  0.0000000  1.0000000  0.0000000 )
                  (  1.0000000  0.0000000  0.0000000 )
                  (  0.0000000  0.0000000  1.0000000 )


      isym = 15     inv.  90 deg rotation - cart. axis [0,0,-1]  

 cryst.   s(15) = (     0         -1          0      )
                  (     0         -1          1      )
                  (     1         -1          0      )

 cart.    s(15) = (  0.0000000 -1.0000000  0.0000000 )
                  (  1.0000000  0.0000000  0.0000000 )
                  (  0.0000000  0.0000000 -1.0000000 )


      isym = 16     inv.  90 deg rotation - cart. axis [0,0,1]   

 cryst.   s(16) = (    -1          0          1      )
                  (    -1          0          0      )
                  (    -1          1          0      )

 cart.    s(16) = (  0.0000000  1.0000000  0.0000000 )
                  ( -1.0000000  0.0000000  0.0000000 )
                  (  0.0000000  0.0000000 -1.0000000 )


      isym = 17     inv. 180 deg rotation - cart. axis [1,0,1]   

 cryst.   s(17) = (     1         -1          0      )
                  (     0         -1          0      )
                  (     0         -1          1      )

 cart.    s(17) = (  0.0000000  0.0000000 -1.0000000 )
                  (  0.0000000  1.0000000  0.0000000 )
                  ( -1.0000000  0.0000000  0.0000000 )


      isym = 18     inv. 180 deg rotation - cart. axis [-1,0,1]  

 cryst.   s(18) = (     0          0          1      )
                  (     0          1          0      )
                  (     1          0          0      )

 cart.    s(18) = (  0.0000000  0.0000000  1.0000000 )
                  (  0.0000000  1.0000000  0.0000000 )
                  (  1.0000000  0.0000000  0.0000000 )


      isym = 19     inv.  90 deg rotation - cart. axis [0,1,0]   

 cryst.   s(19) = (     0          0         -1      )
                  (     1          0         -1      )
                  (     0          1         -1      )

 cart.    s(19) = (  0.0000000  0.0000000 -1.0000000 )
                  (  0.0000000 -1.0000000  0.0000000 )
                  (  1.0000000  0.0000000  0.0000000 )


      isym = 20     inv.  90 deg rotation - cart. axis [0,-1,0]  

 cryst.   s(20) = (    -1          1          0      )
                  (    -1          0          1      )
                  (    -1          0          0      )

 cart.    s(20) = (  0.0000000  0.0000000  1.0000000 )
                  (  0.0000000 -1.0000000  0.0000000 )
                  ( -1.0000000  0.0000000  0.0000000 )


      isym = 21     inv. 180 deg rotation - cart. axis [0,1,1]   

 cryst.   s(21) = (    -1          0          0      )
                  (    -1          1          0      )
                  (    -1          0          1      )

 cart.    s(21) = (  1.0000000  0.0000000  0.0000000 )
                  (  0.0000000  0.0000000 -1.0000000 )
                  (  0.0000000 -1.0000000  0.0000000 )


      isym = 22     inv. 180 deg rotation - cart. axis [0,1,-1]  

 cryst.   s(22) = (     1          0          0      )
                  (     0          0          1      )
                  (     0          1          0      )

 cart.    s(22) = (  1.0000000  0.0000000  0.0000000 )
                  (  0.0000000  0.0000000  1.0000000 )
                  (  0.0000000  1.0000000  0.0000000 )


      isym = 23     inv.  90 deg rotation - cart. axis [-1,0,0]  

 cryst.   s(23) = (     0          1         -1      )
                  (     0          0         -1      )
                  (     1          0         -1      )

 cart.    s(23) = ( -1.0000000  0.0000000  0.0000000 )
                  (  0.0000000  0.0000000 -1.0000000 )
                  (  0.0000000  1.0000000  0.0000000 )


      isym = 24     inv.  90 deg rotation - cart. axis [1,0,0]   

 cryst.   s(24) = (     0         -1          1      )
                  (     1         -1          0      )
                  (     0         -1          0      )

 cart.    s(24) = ( -1.0000000  0.0000000  0.0000000 )
                  (  0.0000000  0.0000000  1.0000000 )
                  (  0.0000000 -1.0000000  0.0000000 )


   Cartesian axes

     site n.     atom                  positions (alat units)
         1           Sn  tau(   1) = (   0.0000000   0.0000000   0.0000000  )
         2           Sn  tau(   2) = (   0.3535534   0.3535534   0.3535534  )

   Crystallographic axes

     site n.     atom                  positions (cryst. coord.)
         1           Sn  tau(   1) = (  0.0000000  0.0000000  0.0000000  )
         2           Sn  tau(   2) = (  0.2500000  0.2500000  0.2500000  )

     number of k points=   752  gaussian smearing, width (Ry)=  0.0001
                       cart. coord. in units 2pi/alat
        k(    1) = (   0.0000000   0.0000000   0.0000000), wk =   0.0000741
        k(    2) = (   0.0235702   0.0235702  -0.0235702), wk =   0.0005926
        k(    3) = (   0.0471405   0.0471405  -0.0471405), wk =   0.0005926
        k(    4) = (   0.0707107   0.0707107  -0.0707107), wk =   0.0005926
        k(    5) = (   0.0942809   0.0942809  -0.0942809), wk =   0.0005926
        k(    6) = (   0.1178511   0.1178511  -0.1178511), wk =   0.0005926
        k(    7) = (   0.1414214   0.1414214  -0.1414214), wk =   0.0005926
        k(    8) = (   0.1649916   0.1649916  -0.1649916), wk =   0.0005926
        k(    9) = (   0.1885618   0.1885618  -0.1885618), wk =   0.0005926
        k(   10) = (   0.2121320   0.2121320  -0.2121320), wk =   0.0005926
        k(   11) = (   0.2357023   0.2357023  -0.2357023), wk =   0.0005926
        k(   12) = (   0.2592725   0.2592725  -0.2592725), wk =   0.0005926
        k(   13) = (   0.2828427   0.2828427  -0.2828427), wk =   0.0005926
        k(   14) = (   0.3064129   0.3064129  -0.3064129), wk =   0.0005926
        k(   15) = (   0.3299832   0.3299832  -0.3299832), wk =   0.0005926
        k(   16) = (  -0.3535534  -0.3535534   0.3535534), wk =   0.0002963
        k(   17) = (   0.0471405   0.0000000   0.0000000), wk =   0.0004444
        k(   18) = (   0.0707107   0.0235702  -0.0235702), wk =   0.0017778
        k(   19) = (   0.0942809   0.0471405  -0.0471405), wk =   0.0017778
        k(   20) = (   0.1178511   0.0707107  -0.0707107), wk =   0.0017778
        k(   21) = (   0.1414214   0.0942809  -0.0942809), wk =   0.0017778
        k(   22) = (   0.1649916   0.1178511  -0.1178511), wk =   0.0017778
        k(   23) = (   0.1885618   0.1414214  -0.1414214), wk =   0.0017778
        k(   24) = (   0.2121320   0.1649916  -0.1649916), wk =   0.0017778
        k(   25) = (   0.2357023   0.1885618  -0.1885618), wk =   0.0017778
        k(   26) = (   0.2592725   0.2121320  -0.2121320), wk =   0.0017778
        k(   27) = (   0.2828427   0.2357023  -0.2357023), wk =   0.0017778
        k(   28) = (   0.3064129   0.2592725  -0.2592725), wk =   0.0017778
        k(   29) = (   0.3299832   0.2828427  -0.2828427), wk =   0.0017778
        k(   30) = (   0.3535534   0.3064129  -0.3064129), wk =   0.0017778
        k(   31) = (  -0.3299832  -0.3771236   0.3771236), wk =   0.0017778
        k(   32) = (  -0.3064129  -0.3535534   0.3535534), wk =   0.0017778
        k(   33) = (  -0.2828427  -0.3299832   0.3299832), wk =   0.0017778
        k(   34) = (  -0.2592725  -0.3064129   0.3064129), wk =   0.0017778
        k(   35) = (  -0.2357023  -0.2828427   0.2828427), wk =   0.0017778
        k(   36) = (  -0.2121320  -0.2592725   0.2592725), wk =   0.0017778
        k(   37) = (  -0.1885618  -0.2357023   0.2357023), wk =   0.0017778
        k(   38) = (  -0.1649916  -0.2121320   0.2121320), wk =   0.0017778
        k(   39) = (  -0.1414214  -0.1885618   0.1885618), wk =   0.0017778
        k(   40) = (  -0.1178511  -0.1649916   0.1649916), wk =   0.0017778
        k(   41) = (  -0.0942809  -0.1414214   0.1414214), wk =   0.0017778
        k(   42) = (  -0.0707107  -0.1178511   0.1178511), wk =   0.0017778
        k(   43) = (  -0.0471405  -0.0942809   0.0942809), wk =   0.0017778
        k(   44) = (  -0.0235702  -0.0707107   0.0707107), wk =   0.0017778
        k(   45) = (   0.0000000  -0.0471405   0.0471405), wk =   0.0008889
        k(   46) = (   0.0942809   0.0000000   0.0000000), wk =   0.0004444
        k(   47) = (   0.1178511   0.0235702  -0.0235702), wk =   0.0017778
        k(   48) = (   0.1414214   0.0471405  -0.0471405), wk =   0.0017778
        k(   49) = (   0.1649916   0.0707107  -0.0707107), wk =   0.0017778
        k(   50) = (   0.1885618   0.0942809  -0.0942809), wk =   0.0017778
        k(   51) = (   0.2121320   0.1178511  -0.1178511), wk =   0.0017778
        k(   52) = (   0.2357023   0.1414214  -0.1414214), wk =   0.0017778
        k(   53) = (   0.2592725   0.1649916  -0.1649916), wk =   0.0017778
        k(   54) = (   0.2828427   0.1885618  -0.1885618), wk =   0.0017778
        k(   55) = (   0.3064129   0.2121320  -0.2121320), wk =   0.0017778
        k(   56) = (   0.3299832   0.2357023  -0.2357023), wk =   0.0017778
        k(   57) = (   0.3535534   0.2592725  -0.2592725), wk =   0.0017778
        k(   58) = (   0.3771236   0.2828427  -0.2828427), wk =   0.0017778
        k(   59) = (  -0.3064129  -0.4006938   0.4006938), wk =   0.0017778
        k(   60) = (  -0.2828427  -0.3771236   0.3771236), wk =   0.0017778
        k(   61) = (  -0.2592725  -0.3535534   0.3535534), wk =   0.0017778
        k(   62) = (  -0.2357023  -0.3299832   0.3299832), wk =   0.0017778
        k(   63) = (  -0.2121320  -0.3064129   0.3064129), wk =   0.0017778
        k(   64) = (  -0.1885618  -0.2828427   0.2828427), wk =   0.0017778
        k(   65) = (  -0.1649916  -0.2592725   0.2592725), wk =   0.0017778
        k(   66) = (  -0.1414214  -0.2357023   0.2357023), wk =   0.0017778
        k(   67) = (  -0.1178511  -0.2121320   0.2121320), wk =   0.0017778
        k(   68) = (  -0.0942809  -0.1885618   0.1885618), wk =   0.0017778
        k(   69) = (  -0.0707107  -0.1649916   0.1649916), wk =   0.0017778
        k(   70) = (  -0.0471405  -0.1414214   0.1414214), wk =   0.0017778
        k(   71) = (  -0.0235702  -0.1178511   0.1178511), wk =   0.0017778
        k(   72) = (   0.0000000  -0.0942809   0.0942809), wk =   0.0008889
        k(   73) = (   0.1414214   0.0000000   0.0000000), wk =   0.0004444
        k(   74) = (   0.1649916   0.0235702  -0.0235702), wk =   0.0017778
        k(   75) = (   0.1885618   0.0471405  -0.0471405), wk =   0.0017778
        k(   76) = (   0.2121320   0.0707107  -0.0707107), wk =   0.0017778
        k(   77) = (   0.2357023   0.0942809  -0.0942809), wk =   0.0017778
        k(   78) = (   0.2592725   0.1178511  -0.1178511), wk =   0.0017778
        k(   79) = (   0.2828427   0.1414214  -0.1414214), wk =   0.0017778
        k(   80) = (   0.3064129   0.1649916  -0.1649916), wk =   0.0017778
        k(   81) = (   0.3299832   0.1885618  -0.1885618), wk =   0.0017778
        k(   82) = (   0.3535534   0.2121320  -0.2121320), wk =   0.0017778
        k(   83) = (   0.3771236   0.2357023  -0.2357023), wk =   0.0017778
        k(   84) = (   0.4006938   0.2592725  -0.2592725), wk =   0.0017778
        k(   85) = (  -0.2828427  -0.4242641   0.4242641), wk =   0.0017778
        k(   86) = (  -0.2592725  -0.4006938   0.4006938), wk =   0.0017778
        k(   87) = (  -0.2357023  -0.3771236   0.3771236), wk =   0.0017778
        k(   88) = (  -0.2121320  -0.3535534   0.3535534), wk =   0.0017778
        k(   89) = (  -0.1885618  -0.3299832   0.3299832), wk =   0.0017778
        k(   90) = (  -0.1649916  -0.3064129   0.3064129), wk =   0.0017778
        k(   91) = (  -0.1414214  -0.2828427   0.2828427), wk =   0.0017778
        k(   92) = (  -0.1178511  -0.2592725   0.2592725), wk =   0.0017778
        k(   93) = (  -0.0942809  -0.2357023   0.2357023), wk =   0.0017778
        k(   94) = (  -0.0707107  -0.2121320   0.2121320), wk =   0.0017778
        k(   95) = (  -0.0471405  -0.1885618   0.1885618), wk =   0.0017778
        k(   96) = (  -0.0235702  -0.1649916   0.1649916), wk =   0.0017778
        k(   97) = (   0.0000000  -0.1414214   0.1414214), wk =   0.0008889
        k(   98) = (   0.1885618   0.0000000   0.0000000), wk =   0.0004444
        k(   99) = (   0.2121320   0.0235702  -0.0235702), wk =   0.0017778
        k(  100) = (   0.2357023   0.0471405  -0.0471405), wk =   0.0017778
        k(  101) = (   0.2592725   0.0707107  -0.0707107), wk =   0.0017778
        k(  102) = (   0.2828427   0.0942809  -0.0942809), wk =   0.0017778
        k(  103) = (   0.3064129   0.1178511  -0.1178511), wk =   0.0017778
        k(  104) = (   0.3299832   0.1414214  -0.1414214), wk =   0.0017778
        k(  105) = (   0.3535534   0.1649916  -0.1649916), wk =   0.0017778
        k(  106) = (   0.3771236   0.1885618  -0.1885618), wk =   0.0017778
        k(  107) = (   0.4006938   0.2121320  -0.2121320), wk =   0.0017778
        k(  108) = (   0.4242641   0.2357023  -0.2357023), wk =   0.0017778
        k(  109) = (  -0.2592725  -0.4478343   0.4478343), wk =   0.0017778
        k(  110) = (  -0.2357023  -0.4242641   0.4242641), wk =   0.0017778
        k(  111) = (  -0.2121320  -0.4006938   0.4006938), wk =   0.0017778
        k(  112) = (  -0.1885618  -0.3771236   0.3771236), wk =   0.0017778
        k(  113) = (  -0.1649916  -0.3535534   0.3535534), wk =   0.0017778
        k(  114) = (  -0.1414214  -0.3299832   0.3299832), wk =   0.0017778
        k(  115) = (  -0.1178511  -0.3064129   0.3064129), wk =   0.0017778
        k(  116) = (  -0.0942809  -0.2828427   0.2828427), wk =   0.0017778
        k(  117) = (  -0.0707107  -0.2592725   0.2592725), wk =   0.0017778
        k(  118) = (  -0.0471405  -0.2357023   0.2357023), wk =   0.0017778
        k(  119) = (  -0.0235702  -0.2121320   0.2121320), wk =   0.0017778
        k(  120) = (   0.0000000  -0.1885618   0.1885618), wk =   0.0008889
        k(  121) = (   0.2357023   0.0000000   0.0000000), wk =   0.0004444
        k(  122) = (   0.2592725   0.0235702  -0.0235702), wk =   0.0017778
        k(  123) = (   0.2828427   0.0471405  -0.0471405), wk =   0.0017778
        k(  124) = (   0.3064129   0.0707107  -0.0707107), wk =   0.0017778
        k(  125) = (   0.3299832   0.0942809  -0.0942809), wk =   0.0017778
        k(  126) = (   0.3535534   0.1178511  -0.1178511), wk =   0.0017778
        k(  127) = (   0.3771236   0.1414214  -0.1414214), wk =   0.0017778
        k(  128) = (   0.4006938   0.1649916  -0.1649916), wk =   0.0017778
        k(  129) = (   0.4242641   0.1885618  -0.1885618), wk =   0.0017778
        k(  130) = (   0.4478343   0.2121320  -0.2121320), wk =   0.0017778
        k(  131) = (  -0.2357023  -0.4714045   0.4714045), wk =   0.0017778
        k(  132) = (  -0.2121320  -0.4478343   0.4478343), wk =   0.0017778
        k(  133) = (  -0.1885618  -0.4242641   0.4242641), wk =   0.0017778
        k(  134) = (  -0.1649916  -0.4006938   0.4006938), wk =   0.0017778
        k(  135) = (  -0.1414214  -0.3771236   0.3771236), wk =   0.0017778
        k(  136) = (  -0.1178511  -0.3535534   0.3535534), wk =   0.0017778
        k(  137) = (  -0.0942809  -0.3299832   0.3299832), wk =   0.0017778
        k(  138) = (  -0.0707107  -0.3064129   0.3064129), wk =   0.0017778
        k(  139) = (  -0.0471405  -0.2828427   0.2828427), wk =   0.0017778
        k(  140) = (  -0.0235702  -0.2592725   0.2592725), wk =   0.0017778
        k(  141) = (   0.0000000  -0.2357023   0.2357023), wk =   0.0008889
        k(  142) = (   0.2828427   0.0000000   0.0000000), wk =   0.0004444
        k(  143) = (   0.3064129   0.0235702  -0.0235702), wk =   0.0017778
        k(  144) = (   0.3299832   0.0471405  -0.0471405), wk =   0.0017778
        k(  145) = (   0.3535534   0.0707107  -0.0707107), wk =   0.0017778
        k(  146) = (   0.3771236   0.0942809  -0.0942809), wk =   0.0017778
        k(  147) = (   0.4006938   0.1178511  -0.1178511), wk =   0.0017778
        k(  148) = (   0.4242641   0.1414214  -0.1414214), wk =   0.0017778
        k(  149) = (   0.4478343   0.1649916  -0.1649916), wk =   0.0017778
        k(  150) = (   0.4714045   0.1885618  -0.1885618), wk =   0.0017778
        k(  151) = (  -0.2121320  -0.4949747   0.4949747), wk =   0.0017778
        k(  152) = (  -0.1885618  -0.4714045   0.4714045), wk =   0.0017778
        k(  153) = (  -0.1649916  -0.4478343   0.4478343), wk =   0.0017778
        k(  154) = (  -0.1414214  -0.4242641   0.4242641), wk =   0.0017778
        k(  155) = (  -0.1178511  -0.4006938   0.4006938), wk =   0.0017778
        k(  156) = (  -0.0942809  -0.3771236   0.3771236), wk =   0.0017778
        k(  157) = (  -0.0707107  -0.3535534   0.3535534), wk =   0.0017778
        k(  158) = (  -0.0471405  -0.3299832   0.3299832), wk =   0.0017778
        k(  159) = (  -0.0235702  -0.3064129   0.3064129), wk =   0.0017778
        k(  160) = (   0.0000000  -0.2828427   0.2828427), wk =   0.0008889
        k(  161) = (   0.3299832   0.0000000   0.0000000), wk =   0.0004444
        k(  162) = (   0.3535534   0.0235702  -0.0235702), wk =   0.0017778
        k(  163) = (   0.3771236   0.0471405  -0.0471405), wk =   0.0017778
        k(  164) = (   0.4006938   0.0707107  -0.0707107), wk =   0.0017778
        k(  165) = (   0.4242641   0.0942809  -0.0942809), wk =   0.0017778
        k(  166) = (   0.4478343   0.1178511  -0.1178511), wk =   0.0017778
        k(  167) = (   0.4714045   0.1414214  -0.1414214), wk =   0.0017778
        k(  168) = (   0.4949747   0.1649916  -0.1649916), wk =   0.0017778
        k(  169) = (  -0.1885618  -0.5185450   0.5185450), wk =   0.0017778
        k(  170) = (  -0.1649916  -0.4949747   0.4949747), wk =   0.0017778
        k(  171) = (  -0.1414214  -0.4714045   0.4714045), wk =   0.0017778
        k(  172) = (  -0.1178511  -0.4478343   0.4478343), wk =   0.0017778
        k(  173) = (  -0.0942809  -0.4242641   0.4242641), wk =   0.0017778
        k(  174) = (  -0.0707107  -0.4006938   0.4006938), wk =   0.0017778
        k(  175) = (  -0.0471405  -0.3771236   0.3771236), wk =   0.0017778
        k(  176) = (  -0.0235702  -0.3535534   0.3535534), wk =   0.0017778
        k(  177) = (   0.0000000  -0.3299832   0.3299832), wk =   0.0008889
        k(  178) = (   0.3771236   0.0000000   0.0000000), wk =   0.0004444
        k(  179) = (   0.4006938   0.0235702  -0.0235702), wk =   0.0017778
        k(  180) = (   0.4242641   0.0471405  -0.0471405), wk =   0.0017778
        k(  181) = (   0.4478343   0.0707107  -0.0707107), wk =   0.0017778
        k(  182) = (   0.4714045   0.0942809  -0.0942809), wk =   0.0017778
        k(  183) = (   0.4949747   0.1178511  -0.1178511), wk =   0.0017778
        k(  184) = (   0.5185450   0.1414214  -0.1414214), wk =   0.0017778
        k(  185) = (  -0.1649916  -0.5421152   0.5421152), wk =   0.0017778
        k(  186) = (  -0.1414214  -0.5185450   0.5185450), wk =   0.0017778
        k(  187) = (  -0.1178511  -0.4949747   0.4949747), wk =   0.0017778
        k(  188) = (  -0.0942809  -0.4714045   0.4714045), wk =   0.0017778
        k(  189) = (  -0.0707107  -0.4478343   0.4478343), wk =   0.0017778
        k(  190) = (  -0.0471405  -0.4242641   0.4242641), wk =   0.0017778
        k(  191) = (  -0.0235702  -0.4006938   0.4006938), wk =   0.0017778
        k(  192) = (  -0.0000000  -0.3771236   0.3771236), wk =   0.0008889
        k(  193) = (   0.4242641   0.0000000   0.0000000), wk =   0.0004444
        k(  194) = (   0.4478343   0.0235702  -0.0235702), wk =   0.0017778
        k(  195) = (   0.4714045   0.0471405  -0.0471405), wk =   0.0017778
        k(  196) = (   0.4949747   0.0707107  -0.0707107), wk =   0.0017778
        k(  197) = (   0.5185450   0.0942809  -0.0942809), wk =   0.0017778
        k(  198) = (   0.5421152   0.1178511  -0.1178511), wk =   0.0017778
        k(  199) = (  -0.1414214  -0.5656854   0.5656854), wk =   0.0017778
        k(  200) = (  -0.1178511  -0.5421152   0.5421152), wk =   0.0017778
        k(  201) = (  -0.0942809  -0.5185450   0.5185450), wk =   0.0017778
        k(  202) = (  -0.0707107  -0.4949747   0.4949747), wk =   0.0017778
        k(  203) = (  -0.0471405  -0.4714045   0.4714045), wk =   0.0017778
        k(  204) = (  -0.0235702  -0.4478343   0.4478343), wk =   0.0017778
        k(  205) = (  -0.0000000  -0.4242641   0.4242641), wk =   0.0008889
        k(  206) = (   0.4714045   0.0000000   0.0000000), wk =   0.0004444
        k(  207) = (   0.4949747   0.0235702  -0.0235702), wk =   0.0017778
        k(  208) = (   0.5185450   0.0471405  -0.0471405), wk =   0.0017778
        k(  209) = (   0.5421152   0.0707107  -0.0707107), wk =   0.0017778
        k(  210) = (   0.5656854   0.0942809  -0.0942809), wk =   0.0017778
        k(  211) = (  -0.1178511  -0.5892557   0.5892557), wk =   0.0017778
        k(  212) = (  -0.0942809  -0.5656854   0.5656854), wk =   0.0017778
        k(  213) = (  -0.0707107  -0.5421152   0.5421152), wk =   0.0017778
        k(  214) = (  -0.0471405  -0.5185450   0.5185450), wk =   0.0017778
        k(  215) = (  -0.0235702  -0.4949747   0.4949747), wk =   0.0017778
        k(  216) = (  -0.0000000  -0.4714045   0.4714045), wk =   0.0008889
        k(  217) = (   0.5185450   0.0000000   0.0000000), wk =   0.0004444
        k(  218) = (   0.5421152   0.0235702  -0.0235702), wk =   0.0017778
        k(  219) = (   0.5656854   0.0471405  -0.0471405), wk =   0.0017778
        k(  220) = (   0.5892557   0.0707107  -0.0707107), wk =   0.0017778
        k(  221) = (  -0.0942809  -0.6128259   0.6128259), wk =   0.0017778
        k(  222) = (  -0.0707107  -0.5892557   0.5892557), wk =   0.0017778
        k(  223) = (  -0.0471405  -0.5656854   0.5656854), wk =   0.0017778
        k(  224) = (  -0.0235702  -0.5421152   0.5421152), wk =   0.0017778
        k(  225) = (   0.0000000  -0.5185450   0.5185450), wk =   0.0008889
        k(  226) = (   0.5656854   0.0000000   0.0000000), wk =   0.0004444
        k(  227) = (   0.5892557   0.0235702  -0.0235702), wk =   0.0017778
        k(  228) = (   0.6128259   0.0471405  -0.0471405), wk =   0.0017778
        k(  229) = (  -0.0707107  -0.6363961   0.6363961), wk =   0.0017778
        k(  230) = (  -0.0471405  -0.6128259   0.6128259), wk =   0.0017778
        k(  231) = (  -0.0235702  -0.5892557   0.5892557), wk =   0.0017778
        k(  232) = (   0.0000000  -0.5656854   0.5656854), wk =   0.0008889
        k(  233) = (   0.6128259   0.0000000   0.0000000), wk =   0.0004444
        k(  234) = (   0.6363961   0.0235702  -0.0235702), wk =   0.0017778
        k(  235) = (  -0.0471405  -0.6599663   0.6599663), wk =   0.0017778
        k(  236) = (  -0.0235702  -0.6363961   0.6363961), wk =   0.0017778
        k(  237) = (   0.0000000  -0.6128259   0.6128259), wk =   0.0008889
        k(  238) = (   0.6599663   0.0000000   0.0000000), wk =   0.0004444
        k(  239) = (  -0.0235702  -0.6835366   0.6835366), wk =   0.0017778
        k(  240) = (   0.0000000  -0.6599663   0.6599663), wk =   0.0008889
        k(  241) = (  -0.7071068   0.0000000   0.0000000), wk =   0.0002222
        k(  242) = (   0.0942809   0.0471405  -0.0000000), wk =   0.0017778
        k(  243) = (   0.1178511   0.0707107  -0.0235702), wk =   0.0035556
        k(  244) = (   0.1414214   0.0942809  -0.0471405), wk =   0.0035556
        k(  245) = (   0.1649916   0.1178511  -0.0707107), wk =   0.0035556
        k(  246) = (   0.1885618   0.1414214  -0.0942809), wk =   0.0035556
        k(  247) = (   0.2121320   0.1649916  -0.1178511), wk =   0.0035556
        k(  248) = (   0.2357023   0.1885618  -0.1414214), wk =   0.0035556
        k(  249) = (   0.2592725   0.2121320  -0.1649916), wk =   0.0035556
        k(  250) = (   0.2828427   0.2357023  -0.1885618), wk =   0.0035556
        k(  251) = (   0.3064129   0.2592725  -0.2121320), wk =   0.0035556
        k(  252) = (   0.3299832   0.2828427  -0.2357023), wk =   0.0035556
        k(  253) = (   0.3535534   0.3064129  -0.2592725), wk =   0.0035556
        k(  254) = (  -0.3299832  -0.3771236   0.4242641), wk =   0.0035556
        k(  255) = (  -0.3064129  -0.3535534   0.4006938), wk =   0.0017778
        k(  256) = (   0.1414214   0.0471405   0.0000000), wk =   0.0017778
        k(  257) = (   0.1649916   0.0707107  -0.0235702), wk =   0.0035556
        k(  258) = (   0.1885618   0.0942809  -0.0471405), wk =   0.0035556
        k(  259) = (   0.2121320   0.1178511  -0.0707107), wk =   0.0035556
        k(  260) = (   0.2357023   0.1414214  -0.0942809), wk =   0.0035556
        k(  261) = (   0.2592725   0.1649916  -0.1178511), wk =   0.0035556
        k(  262) = (   0.2828427   0.1885618  -0.1414214), wk =   0.0035556
        k(  263) = (   0.3064129   0.2121320  -0.1649916), wk =   0.0035556
        k(  264) = (   0.3299832   0.2357023  -0.1885618), wk =   0.0035556
        k(  265) = (   0.3535534   0.2592725  -0.2121320), wk =   0.0035556
        k(  266) = (   0.3771236   0.2828427  -0.2357023), wk =   0.0035556
        k(  267) = (  -0.3064129  -0.4006938   0.4478343), wk =   0.0035556
        k(  268) = (  -0.2828427  -0.3771236   0.4242641), wk =   0.0035556
        k(  269) = (  -0.2592725  -0.3535534   0.4006938), wk =   0.0035556
        k(  270) = (  -0.2357023  -0.3299832   0.3771236), wk =   0.0035556
        k(  271) = (  -0.2121320  -0.3064129   0.3535534), wk =   0.0035556
        k(  272) = (  -0.1885618  -0.2828427   0.3299832), wk =   0.0035556
        k(  273) = (  -0.1649916  -0.2592725   0.3064129), wk =   0.0035556
        k(  274) = (  -0.1414214  -0.2357023   0.2828427), wk =   0.0035556
        k(  275) = (  -0.1178511  -0.2121320   0.2592725), wk =   0.0035556
        k(  276) = (  -0.0942809  -0.1885618   0.2357023), wk =   0.0035556
        k(  277) = (  -0.0707107  -0.1649916   0.2121320), wk =   0.0035556
        k(  278) = (  -0.0471405  -0.1414214   0.1885618), wk =   0.0035556
        k(  279) = (  -0.0235702  -0.1178511   0.1649916), wk =   0.0035556
        k(  280) = (   0.0000000  -0.0942809   0.1414214), wk =   0.0017778
        k(  281) = (   0.1885618   0.0471405   0.0000000), wk =   0.0017778
        k(  282) = (   0.2121320   0.0707107  -0.0235702), wk =   0.0035556
        k(  283) = (   0.2357023   0.0942809  -0.0471405), wk =   0.0035556
        k(  284) = (   0.2592725   0.1178511  -0.0707107), wk =   0.0035556
        k(  285) = (   0.2828427   0.1414214  -0.0942809), wk =   0.0035556
        k(  286) = (   0.3064129   0.1649916  -0.1178511), wk =   0.0035556
        k(  287) = (   0.3299832   0.1885618  -0.1414214), wk =   0.0035556
        k(  288) = (   0.3535534   0.2121320  -0.1649916), wk =   0.0035556
        k(  289) = (   0.3771236   0.2357023  -0.1885618), wk =   0.0035556
        k(  290) = (   0.4006938   0.2592725  -0.2121320), wk =   0.0035556
        k(  291) = (  -0.2828427  -0.4242641   0.4714045), wk =   0.0035556
        k(  292) = (  -0.2592725  -0.4006938   0.4478343), wk =   0.0035556
        k(  293) = (  -0.2357023  -0.3771236   0.4242641), wk =   0.0035556
        k(  294) = (  -0.2121320  -0.3535534   0.4006938), wk =   0.0035556
        k(  295) = (  -0.1885618  -0.3299832   0.3771236), wk =   0.0035556
        k(  296) = (  -0.1649916  -0.3064129   0.3535534), wk =   0.0035556
        k(  297) = (  -0.1414214  -0.2828427   0.3299832), wk =   0.0035556
        k(  298) = (  -0.1178511  -0.2592725   0.3064129), wk =   0.0035556
        k(  299) = (  -0.0942809  -0.2357023   0.2828427), wk =   0.0035556
        k(  300) = (  -0.0707107  -0.2121320   0.2592725), wk =   0.0035556
        k(  301) = (  -0.0471405  -0.1885618   0.2357023), wk =   0.0035556
        k(  302) = (  -0.0235702  -0.1649916   0.2121320), wk =   0.0035556
        k(  303) = (   0.0000000  -0.1414214   0.1885618), wk =   0.0017778
        k(  304) = (   0.2357023   0.0471405  -0.0000000), wk =   0.0017778
        k(  305) = (   0.2592725   0.0707107  -0.0235702), wk =   0.0035556
        k(  306) = (   0.2828427   0.0942809  -0.0471405), wk =   0.0035556
        k(  307) = (   0.3064129   0.1178511  -0.0707107), wk =   0.0035556
        k(  308) = (   0.3299832   0.1414214  -0.0942809), wk =   0.0035556
        k(  309) = (   0.3535534   0.1649916  -0.1178511), wk =   0.0035556
        k(  310) = (   0.3771236   0.1885618  -0.1414214), wk =   0.0035556
        k(  311) = (   0.4006938   0.2121320  -0.1649916), wk =   0.0035556
        k(  312) = (   0.4242641   0.2357023  -0.1885618), wk =   0.0035556
        k(  313) = (  -0.2592725  -0.4478343   0.4949747), wk =   0.0035556
        k(  314) = (  -0.2357023  -0.4242641   0.4714045), wk =   0.0035556
        k(  315) = (  -0.2121320  -0.4006938   0.4478343), wk =   0.0035556
        k(  316) = (  -0.1885618  -0.3771236   0.4242641), wk =   0.0035556
        k(  317) = (  -0.1649916  -0.3535534   0.4006938), wk =   0.0035556
        k(  318) = (  -0.1414214  -0.3299832   0.3771236), wk =   0.0035556
        k(  319) = (  -0.1178511  -0.3064129   0.3535534), wk =   0.0035556
        k(  320) = (  -0.0942809  -0.2828427   0.3299832), wk =   0.0035556
        k(  321) = (  -0.0707107  -0.2592725   0.3064129), wk =   0.0035556
        k(  322) = (  -0.0471405  -0.2357023   0.2828427), wk =   0.0035556
        k(  323) = (  -0.0235702  -0.2121320   0.2592725), wk =   0.0035556
        k(  324) = (   0.0000000  -0.1885618   0.2357023), wk =   0.0017778
        k(  325) = (   0.2828427   0.0471405   0.0000000), wk =   0.0017778
        k(  326) = (   0.3064129   0.0707107  -0.0235702), wk =   0.0035556
        k(  327) = (   0.3299832   0.0942809  -0.0471405), wk =   0.0035556
        k(  328) = (   0.3535534   0.1178511  -0.0707107), wk =   0.0035556
        k(  329) = (   0.3771236   0.1414214  -0.0942809), wk =   0.0035556
        k(  330) = (   0.4006938   0.1649916  -0.1178511), wk =   0.0035556
        k(  331) = (   0.4242641   0.1885618  -0.1414214), wk =   0.0035556
        k(  332) = (   0.4478343   0.2121320  -0.1649916), wk =   0.0035556
        k(  333) = (  -0.2357023  -0.4714045   0.5185450), wk =   0.0035556
        k(  334) = (  -0.2121320  -0.4478343   0.4949747), wk =   0.0035556
        k(  335) = (  -0.1885618  -0.4242641   0.4714045), wk =   0.0035556
        k(  336) = (  -0.1649916  -0.4006938   0.4478343), wk =   0.0035556
        k(  337) = (  -0.1414214  -0.3771236   0.4242641), wk =   0.0035556
        k(  338) = (  -0.1178511  -0.3535534   0.4006938), wk =   0.0035556
        k(  339) = (  -0.0942809  -0.3299832   0.3771236), wk =   0.0035556
        k(  340) = (  -0.0707107  -0.3064129   0.3535534), wk =   0.0035556
        k(  341) = (  -0.0471405  -0.2828427   0.3299832), wk =   0.0035556
        k(  342) = (  -0.0235702  -0.2592725   0.3064129), wk =   0.0035556
        k(  343) = (   0.0000000  -0.2357023   0.2828427), wk =   0.0017778
        k(  344) = (   0.3299832   0.0471405   0.0000000), wk =   0.0017778
        k(  345) = (   0.3535534   0.0707107  -0.0235702), wk =   0.0035556
        k(  346) = (   0.3771236   0.0942809  -0.0471405), wk =   0.0035556
        k(  347) = (   0.4006938   0.1178511  -0.0707107), wk =   0.0035556
        k(  348) = (   0.4242641   0.1414214  -0.0942809), wk =   0.0035556
        k(  349) = (   0.4478343   0.1649916  -0.1178511), wk =   0.0035556
        k(  350) = (   0.4714045   0.1885618  -0.1414214), wk =   0.0035556
        k(  351) = (  -0.2121320  -0.4949747   0.5421152), wk =   0.0035556
        k(  352) = (  -0.1885618  -0.4714045   0.5185450), wk =   0.0035556
        k(  353) = (  -0.1649916  -0.4478343   0.4949747), wk =   0.0035556
        k(  354) = (  -0.1414214  -0.4242641   0.4714045), wk =   0.0035556
        k(  355) = (  -0.1178511  -0.4006938   0.4478343), wk =   0.0035556
        k(  356) = (  -0.0942809  -0.3771236   0.4242641), wk =   0.0035556
        k(  357) = (  -0.0707107  -0.3535534   0.4006938), wk =   0.0035556
        k(  358) = (  -0.0471405  -0.3299832   0.3771236), wk =   0.0035556
        k(  359) = (  -0.0235702  -0.3064129   0.3535534), wk =   0.0035556
        k(  360) = (   0.0000000  -0.2828427   0.3299832), wk =   0.0017778
        k(  361) = (   0.3771236   0.0471405   0.0000000), wk =   0.0017778
        k(  362) = (   0.4006938   0.0707107  -0.0235702), wk =   0.0035556
        k(  363) = (   0.4242641   0.0942809  -0.0471405), wk =   0.0035556
        k(  364) = (   0.4478343   0.1178511  -0.0707107), wk =   0.0035556
        k(  365) = (   0.4714045   0.1414214  -0.0942809), wk =   0.0035556
        k(  366) = (   0.4949747   0.1649916  -0.1178511), wk =   0.0035556
        k(  367) = (  -0.1885618  -0.5185450   0.5656854), wk =   0.0035556
        k(  368) = (  -0.1649916  -0.4949747   0.5421152), wk =   0.0035556
        k(  369) = (  -0.1414214  -0.4714045   0.5185450), wk =   0.0035556
        k(  370) = (  -0.1178511  -0.4478343   0.4949747), wk =   0.0035556
        k(  371) = (  -0.0942809  -0.4242641   0.4714045), wk =   0.0035556
        k(  372) = (  -0.0707107  -0.4006938   0.4478343), wk =   0.0035556
        k(  373) = (  -0.0471405  -0.3771236   0.4242641), wk =   0.0035556
        k(  374) = (  -0.0235702  -0.3535534   0.4006938), wk =   0.0035556
        k(  375) = (   0.0000000  -0.3299832   0.3771236), wk =   0.0017778
        k(  376) = (   0.4242641   0.0471405   0.0000000), wk =   0.0017778
        k(  377) = (   0.4478343   0.0707107  -0.0235702), wk =   0.0035556
        k(  378) = (   0.4714045   0.0942809  -0.0471405), wk =   0.0035556
        k(  379) = (   0.4949747   0.1178511  -0.0707107), wk =   0.0035556
        k(  380) = (   0.5185450   0.1414214  -0.0942809), wk =   0.0035556
        k(  381) = (  -0.1649916  -0.5421152   0.5892557), wk =   0.0035556
        k(  382) = (  -0.1414214  -0.5185450   0.5656854), wk =   0.0035556
        k(  383) = (  -0.1178511  -0.4949747   0.5421152), wk =   0.0035556
        k(  384) = (  -0.0942809  -0.4714045   0.5185450), wk =   0.0035556
        k(  385) = (  -0.0707107  -0.4478343   0.4949747), wk =   0.0035556
        k(  386) = (  -0.0471405  -0.4242641   0.4714045), wk =   0.0035556
        k(  387) = (  -0.0235702  -0.4006938   0.4478343), wk =   0.0035556
        k(  388) = (  -0.0000000  -0.3771236   0.4242641), wk =   0.0017778
        k(  389) = (   0.4714045   0.0471405  -0.0000000), wk =   0.0017778
        k(  390) = (   0.4949747   0.0707107  -0.0235702), wk =   0.0035556
        k(  391) = (   0.5185450   0.0942809  -0.0471405), wk =   0.0035556
        k(  392) = (   0.5421152   0.1178511  -0.0707107), wk =   0.0035556
        k(  393) = (  -0.1414214  -0.5656854   0.6128259), wk =   0.0035556
        k(  394) = (  -0.1178511  -0.5421152   0.5892557), wk =   0.0035556
        k(  395) = (  -0.0942809  -0.5185450   0.5656854), wk =   0.0035556
        k(  396) = (  -0.0707107  -0.4949747   0.5421152), wk =   0.0035556
        k(  397) = (  -0.0471405  -0.4714045   0.5185450), wk =   0.0035556
        k(  398) = (  -0.0235702  -0.4478343   0.4949747), wk =   0.0035556
        k(  399) = (  -0.0000000  -0.4242641   0.4714045), wk =   0.0017778
        k(  400) = (   0.5185450   0.0471405  -0.0000000), wk =   0.0017778
        k(  401) = (   0.5421152   0.0707107  -0.0235702), wk =   0.0035556
        k(  402) = (   0.5656854   0.0942809  -0.0471405), wk =   0.0035556
        k(  403) = (  -0.1178511  -0.5892557   0.6363961), wk =   0.0035556
        k(  404) = (  -0.0942809  -0.5656854   0.6128259), wk =   0.0035556
        k(  405) = (  -0.0707107  -0.5421152   0.5892557), wk =   0.0035556
        k(  406) = (  -0.0471405  -0.5185450   0.5656854), wk =   0.0035556
        k(  407) = (  -0.0235702  -0.4949747   0.5421152), wk =   0.0035556
        k(  408) = (  -0.0000000  -0.4714045   0.5185450), wk =   0.0017778
        k(  409) = (   0.5656854   0.0471405   0.0000000), wk =   0.0017778
        k(  410) = (   0.5892557   0.0707107  -0.0235702), wk =   0.0035556
        k(  411) = (  -0.0942809  -0.6128259   0.6599663), wk =   0.0035556
        k(  412) = (  -0.0707107  -0.5892557   0.6363961), wk =   0.0035556
        k(  413) = (  -0.0471405  -0.5656854   0.6128259), wk =   0.0035556
        k(  414) = (  -0.0235702  -0.5421152   0.5892557), wk =   0.0035556
        k(  415) = (   0.0000000  -0.5185450   0.5656854), wk =   0.0017778
        k(  416) = (   0.6128259   0.0471405   0.0000000), wk =   0.0017778
        k(  417) = (  -0.0707107  -0.6363961   0.6835366), wk =   0.0035556
        k(  418) = (  -0.0471405  -0.6128259   0.6599663), wk =   0.0035556
        k(  419) = (  -0.0235702  -0.5892557   0.6363961), wk =   0.0035556
        k(  420) = (  -0.0000000  -0.5656854   0.6128259), wk =   0.0017778
        k(  421) = (  -0.0471405  -0.6599663   0.7071068), wk =   0.0017778
        k(  422) = (  -0.0235702  -0.6363961   0.6835366), wk =   0.0035556
        k(  423) = (   0.0000000  -0.6128259   0.6599663), wk =   0.0017778
        k(  424) = (  -0.7071068   0.0471405   0.0000000), wk =   0.0008889
        k(  425) = (   0.1885618   0.0942809  -0.0000000), wk =   0.0017778
        k(  426) = (   0.2121320   0.1178511  -0.0235702), wk =   0.0035556
        k(  427) = (   0.2357023   0.1414214  -0.0471405), wk =   0.0035556
        k(  428) = (   0.2592725   0.1649916  -0.0707107), wk =   0.0035556
        k(  429) = (   0.2828427   0.1885618  -0.0942809), wk =   0.0035556
        k(  430) = (   0.3064129   0.2121320  -0.1178511), wk =   0.0035556
        k(  431) = (   0.3299832   0.2357023  -0.1414214), wk =   0.0035556
        k(  432) = (   0.3535534   0.2592725  -0.1649916), wk =   0.0035556
        k(  433) = (   0.3771236   0.2828427  -0.1885618), wk =   0.0035556
        k(  434) = (  -0.3064129  -0.4006938   0.4949747), wk =   0.0035556
        k(  435) = (  -0.2828427  -0.3771236   0.4714045), wk =   0.0035556
        k(  436) = (  -0.2592725  -0.3535534   0.4478343), wk =   0.0017778
        k(  437) = (   0.2357023   0.0942809  -0.0000000), wk =   0.0017778
        k(  438) = (   0.2592725   0.1178511  -0.0235702), wk =   0.0035556
        k(  439) = (   0.2828427   0.1414214  -0.0471405), wk =   0.0035556
        k(  440) = (   0.3064129   0.1649916  -0.0707107), wk =   0.0035556
        k(  441) = (   0.3299832   0.1885618  -0.0942809), wk =   0.0035556
        k(  442) = (   0.3535534   0.2121320  -0.1178511), wk =   0.0035556
        k(  443) = (   0.3771236   0.2357023  -0.1414214), wk =   0.0035556
        k(  444) = (   0.4006938   0.2592725  -0.1649916), wk =   0.0035556
        k(  445) = (  -0.2828427  -0.4242641   0.5185450), wk =   0.0035556
        k(  446) = (  -0.2592725  -0.4006938   0.4949747), wk =   0.0035556
        k(  447) = (  -0.2357023  -0.3771236   0.4714045), wk =   0.0035556
        k(  448) = (  -0.2121320  -0.3535534   0.4478343), wk =   0.0035556
        k(  449) = (  -0.1885618  -0.3299832   0.4242641), wk =   0.0035556
        k(  450) = (  -0.1649916  -0.3064129   0.4006938), wk =   0.0035556
        k(  451) = (  -0.1414214  -0.2828427   0.3771236), wk =   0.0035556
        k(  452) = (  -0.1178511  -0.2592725   0.3535534), wk =   0.0035556
        k(  453) = (  -0.0942809  -0.2357023   0.3299832), wk =   0.0035556
        k(  454) = (  -0.0707107  -0.2121320   0.3064129), wk =   0.0035556
        k(  455) = (  -0.0471405  -0.1885618   0.2828427), wk =   0.0035556
        k(  456) = (  -0.0235702  -0.1649916   0.2592725), wk =   0.0035556
        k(  457) = (   0.0000000  -0.1414214   0.2357023), wk =   0.0017778
        k(  458) = (   0.2828427   0.0942809   0.0000000), wk =   0.0017778
        k(  459) = (   0.3064129   0.1178511  -0.0235702), wk =   0.0035556
        k(  460) = (   0.3299832   0.1414214  -0.0471405), wk =   0.0035556
        k(  461) = (   0.3535534   0.1649916  -0.0707107), wk =   0.0035556
        k(  462) = (   0.3771236   0.1885618  -0.0942809), wk =   0.0035556
        k(  463) = (   0.4006938   0.2121320  -0.1178511), wk =   0.0035556
        k(  464) = (   0.4242641   0.2357023  -0.1414214), wk =   0.0035556
        k(  465) = (  -0.2592725  -0.4478343   0.5421152), wk =   0.0035556
        k(  466) = (  -0.2357023  -0.4242641   0.5185450), wk =   0.0035556
        k(  467) = (  -0.2121320  -0.4006938   0.4949747), wk =   0.0035556
        k(  468) = (  -0.1885618  -0.3771236   0.4714045), wk =   0.0035556
        k(  469) = (  -0.1649916  -0.3535534   0.4478343), wk =   0.0035556
        k(  470) = (  -0.1414214  -0.3299832   0.4242641), wk =   0.0035556
        k(  471) = (  -0.1178511  -0.3064129   0.4006938), wk =   0.0035556
        k(  472) = (  -0.0942809  -0.2828427   0.3771236), wk =   0.0035556
        k(  473) = (  -0.0707107  -0.2592725   0.3535534), wk =   0.0035556
        k(  474) = (  -0.0471405  -0.2357023   0.3299832), wk =   0.0035556
        k(  475) = (  -0.0235702  -0.2121320   0.3064129), wk =   0.0035556
        k(  476) = (   0.0000000  -0.1885618   0.2828427), wk =   0.0017778
        k(  477) = (   0.3299832   0.0942809   0.0000000), wk =   0.0017778
        k(  478) = (   0.3535534   0.1178511  -0.0235702), wk =   0.0035556
        k(  479) = (   0.3771236   0.1414214  -0.0471405), wk =   0.0035556
        k(  480) = (   0.4006938   0.1649916  -0.0707107), wk =   0.0035556
        k(  481) = (   0.4242641   0.1885618  -0.0942809), wk =   0.0035556
        k(  482) = (   0.4478343   0.2121320  -0.1178511), wk =   0.0035556
        k(  483) = (  -0.2357023  -0.4714045   0.5656854), wk =   0.0035556
        k(  484) = (  -0.2121320  -0.4478343   0.5421152), wk =   0.0035556
        k(  485) = (  -0.1885618  -0.4242641   0.5185450), wk =   0.0035556
        k(  486) = (  -0.1649916  -0.4006938   0.4949747), wk =   0.0035556
        k(  487) = (  -0.1414214  -0.3771236   0.4714045), wk =   0.0035556
        k(  488) = (  -0.1178511  -0.3535534   0.4478343), wk =   0.0035556
        k(  489) = (  -0.0942809  -0.3299832   0.4242641), wk =   0.0035556
        k(  490) = (  -0.0707107  -0.3064129   0.4006938), wk =   0.0035556
        k(  491) = (  -0.0471405  -0.2828427   0.3771236), wk =   0.0035556
        k(  492) = (  -0.0235702  -0.2592725   0.3535534), wk =   0.0035556
        k(  493) = (   0.0000000  -0.2357023   0.3299832), wk =   0.0017778
        k(  494) = (   0.3771236   0.0942809   0.0000000), wk =   0.0017778
        k(  495) = (   0.4006938   0.1178511  -0.0235702), wk =   0.0035556
        k(  496) = (   0.4242641   0.1414214  -0.0471405), wk =   0.0035556
        k(  497) = (   0.4478343   0.1649916  -0.0707107), wk =   0.0035556
        k(  498) = (   0.4714045   0.1885618  -0.0942809), wk =   0.0035556
        k(  499) = (  -0.2121320  -0.4949747   0.5892557), wk =   0.0035556
        k(  500) = (  -0.1885618  -0.4714045   0.5656854), wk =   0.0035556
        k(  501) = (  -0.1649916  -0.4478343   0.5421152), wk =   0.0035556
        k(  502) = (  -0.1414214  -0.4242641   0.5185450), wk =   0.0035556
        k(  503) = (  -0.1178511  -0.4006938   0.4949747), wk =   0.0035556
        k(  504) = (  -0.0942809  -0.3771236   0.4714045), wk =   0.0035556
        k(  505) = (  -0.0707107  -0.3535534   0.4478343), wk =   0.0035556
        k(  506) = (  -0.0471405  -0.3299832   0.4242641), wk =   0.0035556
        k(  507) = (  -0.0235702  -0.3064129   0.4006938), wk =   0.0035556
        k(  508) = (   0.0000000  -0.2828427   0.3771236), wk =   0.0017778
        k(  509) = (   0.4242641   0.0942809  -0.0000000), wk =   0.0017778
        k(  510) = (   0.4478343   0.1178511  -0.0235702), wk =   0.0035556
        k(  511) = (   0.4714045   0.1414214  -0.0471405), wk =   0.0035556
        k(  512) = (   0.4949747   0.1649916  -0.0707107), wk =   0.0035556
        k(  513) = (  -0.1885618  -0.5185450   0.6128259), wk =   0.0035556
        k(  514) = (  -0.1649916  -0.4949747   0.5892557), wk =   0.0035556
        k(  515) = (  -0.1414214  -0.4714045   0.5656854), wk =   0.0035556
        k(  516) = (  -0.1178511  -0.4478343   0.5421152), wk =   0.0035556
        k(  517) = (  -0.0942809  -0.4242641   0.5185450), wk =   0.0035556
        k(  518) = (  -0.0707107  -0.4006938   0.4949747), wk =   0.0035556
        k(  519) = (  -0.0471405  -0.3771236   0.4714045), wk =   0.0035556
        k(  520) = (  -0.0235702  -0.3535534   0.4478343), wk =   0.0035556
        k(  521) = (   0.0000000  -0.3299832   0.4242641), wk =   0.0017778
        k(  522) = (   0.4714045   0.0942809  -0.0000000), wk =   0.0017778
        k(  523) = (   0.4949747   0.1178511  -0.0235702), wk =   0.0035556
        k(  524) = (   0.5185450   0.1414214  -0.0471405), wk =   0.0035556
        k(  525) = (  -0.1649916  -0.5421152   0.6363961), wk =   0.0035556
        k(  526) = (  -0.1414214  -0.5185450   0.6128259), wk =   0.0035556
        k(  527) = (  -0.1178511  -0.4949747   0.5892557), wk =   0.0035556
        k(  528) = (  -0.0942809  -0.4714045   0.5656854), wk =   0.0035556
        k(  529) = (  -0.0707107  -0.4478343   0.5421152), wk =   0.0035556
        k(  530) = (  -0.0471405  -0.4242641   0.5185450), wk =   0.0035556
        k(  531) = (  -0.0235702  -0.4006938   0.4949747), wk =   0.0035556
        k(  532) = (  -0.0000000  -0.3771236   0.4714045), wk =   0.0017778
        k(  533) = (   0.5185450   0.0942809   0.0000000), wk =   0.0017778
        k(  534) = (   0.5421152   0.1178511  -0.0235702), wk =   0.0035556
        k(  535) = (  -0.1414214  -0.5656854   0.6599663), wk =   0.0035556
        k(  536) = (  -0.1178511  -0.5421152   0.6363961), wk =   0.0035556
        k(  537) = (  -0.0942809  -0.5185450   0.6128259), wk =   0.0035556
        k(  538) = (  -0.0707107  -0.4949747   0.5892557), wk =   0.0035556
        k(  539) = (  -0.0471405  -0.4714045   0.5656854), wk =   0.0035556
        k(  540) = (  -0.0235702  -0.4478343   0.5421152), wk =   0.0035556
        k(  541) = (  -0.0000000  -0.4242641   0.5185450), wk =   0.0017778
        k(  542) = (   0.5656854   0.0942809   0.0000000), wk =   0.0017778
        k(  543) = (  -0.1178511  -0.5892557   0.6835366), wk =   0.0035556
        k(  544) = (  -0.0942809  -0.5656854   0.6599663), wk =   0.0035556
        k(  545) = (  -0.0707107  -0.5421152   0.6363961), wk =   0.0035556
        k(  546) = (  -0.0471405  -0.5185450   0.6128259), wk =   0.0035556
        k(  547) = (  -0.0235702  -0.4949747   0.5892557), wk =   0.0035556
        k(  548) = (   0.0000000  -0.4714045   0.5656854), wk =   0.0017778
        k(  549) = (  -0.0942809  -0.6128259   0.7071068), wk =   0.0017778
        k(  550) = (  -0.0707107  -0.5892557   0.6835366), wk =   0.0035556
        k(  551) = (  -0.0471405  -0.5656854   0.6599663), wk =   0.0035556
        k(  552) = (  -0.0235702  -0.5421152   0.6363961), wk =   0.0035556
        k(  553) = (   0.0000000  -0.5185450   0.6128259), wk =   0.0017778
        k(  554) = (  -0.0471405  -0.6128259   0.7071068), wk =   0.0017778
        k(  555) = (  -0.0235702  -0.5892557   0.6835366), wk =   0.0035556
        k(  556) = (   0.0000000  -0.5656854   0.6599663), wk =   0.0017778
        k(  557) = (  -0.7071068   0.0942809   0.0000000), wk =   0.0008889
        k(  558) = (   0.2828427   0.1414214   0.0000000), wk =   0.0017778
        k(  559) = (   0.3064129   0.1649916  -0.0235702), wk =   0.0035556
        k(  560) = (   0.3299832   0.1885618  -0.0471405), wk =   0.0035556
        k(  561) = (   0.3535534   0.2121320  -0.0707107), wk =   0.0035556
        k(  562) = (   0.3771236   0.2357023  -0.0942809), wk =   0.0035556
        k(  563) = (   0.4006938   0.2592725  -0.1178511), wk =   0.0035556
        k(  564) = (  -0.2828427  -0.4242641   0.5656854), wk =   0.0035556
        k(  565) = (  -0.2592725  -0.4006938   0.5421152), wk =   0.0035556
        k(  566) = (  -0.2357023  -0.3771236   0.5185450), wk =   0.0035556
        k(  567) = (  -0.2121320  -0.3535534   0.4949747), wk =   0.0017778
        k(  568) = (   0.3299832   0.1414214   0.0000000), wk =   0.0017778
        k(  569) = (   0.3535534   0.1649916  -0.0235702), wk =   0.0035556
        k(  570) = (   0.3771236   0.1885618  -0.0471405), wk =   0.0035556
        k(  571) = (   0.4006938   0.2121320  -0.0707107), wk =   0.0035556
        k(  572) = (   0.4242641   0.2357023  -0.0942809), wk =   0.0035556
        k(  573) = (  -0.2592725  -0.4478343   0.5892557), wk =   0.0035556
        k(  574) = (  -0.2357023  -0.4242641   0.5656854), wk =   0.0035556
        k(  575) = (  -0.2121320  -0.4006938   0.5421152), wk =   0.0035556
        k(  576) = (  -0.1885618  -0.3771236   0.5185450), wk =   0.0035556
        k(  577) = (  -0.1649916  -0.3535534   0.4949747), wk =   0.0035556
        k(  578) = (  -0.1414214  -0.3299832   0.4714045), wk =   0.0035556
        k(  579) = (  -0.1178511  -0.3064129   0.4478343), wk =   0.0035556
        k(  580) = (  -0.0942809  -0.2828427   0.4242641), wk =   0.0035556
        k(  581) = (  -0.0707107  -0.2592725   0.4006938), wk =   0.0035556
        k(  582) = (  -0.0471405  -0.2357023   0.3771236), wk =   0.0035556
        k(  583) = (  -0.0235702  -0.2121320   0.3535534), wk =   0.0035556
        k(  584) = (   0.0000000  -0.1885618   0.3299832), wk =   0.0017778
        k(  585) = (   0.3771236   0.1414214   0.0000000), wk =   0.0017778
        k(  586) = (   0.4006938   0.1649916  -0.0235702), wk =   0.0035556
        k(  587) = (   0.4242641   0.1885618  -0.0471405), wk =   0.0035556
        k(  588) = (   0.4478343   0.2121320  -0.0707107), wk =   0.0035556
        k(  589) = (  -0.2357023  -0.4714045   0.6128259), wk =   0.0035556
        k(  590) = (  -0.2121320  -0.4478343   0.5892557), wk =   0.0035556
        k(  591) = (  -0.1885618  -0.4242641   0.5656854), wk =   0.0035556
        k(  592) = (  -0.1649916  -0.4006938   0.5421152), wk =   0.0035556
        k(  593) = (  -0.1414214  -0.3771236   0.5185450), wk =   0.0035556
        k(  594) = (  -0.1178511  -0.3535534   0.4949747), wk =   0.0035556
        k(  595) = (  -0.0942809  -0.3299832   0.4714045), wk =   0.0035556
        k(  596) = (  -0.0707107  -0.3064129   0.4478343), wk =   0.0035556
        k(  597) = (  -0.0471405  -0.2828427   0.4242641), wk =   0.0035556
        k(  598) = (  -0.0235702  -0.2592725   0.4006938), wk =   0.0035556
        k(  599) = (   0.0000000  -0.2357023   0.3771236), wk =   0.0017778
        k(  600) = (   0.4242641   0.1414214  -0.0000000), wk =   0.0017778
        k(  601) = (   0.4478343   0.1649916  -0.0235702), wk =   0.0035556
        k(  602) = (   0.4714045   0.1885618  -0.0471405), wk =   0.0035556
        k(  603) = (  -0.2121320  -0.4949747   0.6363961), wk =   0.0035556
        k(  604) = (  -0.1885618  -0.4714045   0.6128259), wk =   0.0035556
        k(  605) = (  -0.1649916  -0.4478343   0.5892557), wk =   0.0035556
        k(  606) = (  -0.1414214  -0.4242641   0.5656854), wk =   0.0035556
        k(  607) = (  -0.1178511  -0.4006938   0.5421152), wk =   0.0035556
        k(  608) = (  -0.0942809  -0.3771236   0.5185450), wk =   0.0035556
        k(  609) = (  -0.0707107  -0.3535534   0.4949747), wk =   0.0035556
        k(  610) = (  -0.0471405  -0.3299832   0.4714045), wk =   0.0035556
        k(  611) = (  -0.0235702  -0.3064129   0.4478343), wk =   0.0035556
        k(  612) = (   0.0000000  -0.2828427   0.4242641), wk =   0.0017778
        k(  613) = (   0.4714045   0.1414214   0.0000000), wk =   0.0017778
        k(  614) = (   0.4949747   0.1649916  -0.0235702), wk =   0.0035556
        k(  615) = (  -0.1885618  -0.5185450   0.6599663), wk =   0.0035556
        k(  616) = (  -0.1649916  -0.4949747   0.6363961), wk =   0.0035556
        k(  617) = (  -0.1414214  -0.4714045   0.6128259), wk =   0.0035556
        k(  618) = (  -0.1178511  -0.4478343   0.5892557), wk =   0.0035556
        k(  619) = (  -0.0942809  -0.4242641   0.5656854), wk =   0.0035556
        k(  620) = (  -0.0707107  -0.4006938   0.5421152), wk =   0.0035556
        k(  621) = (  -0.0471405  -0.3771236   0.5185450), wk =   0.0035556
        k(  622) = (  -0.0235702  -0.3535534   0.4949747), wk =   0.0035556
        k(  623) = (   0.0000000  -0.3299832   0.4714045), wk =   0.0017778
        k(  624) = (   0.5185450   0.1414214   0.0000000), wk =   0.0017778
        k(  625) = (  -0.1649916  -0.5421152   0.6835366), wk =   0.0035556
        k(  626) = (  -0.1414214  -0.5185450   0.6599663), wk =   0.0035556
        k(  627) = (  -0.1178511  -0.4949747   0.6363961), wk =   0.0035556
        k(  628) = (  -0.0942809  -0.4714045   0.6128259), wk =   0.0035556
        k(  629) = (  -0.0707107  -0.4478343   0.5892557), wk =   0.0035556
        k(  630) = (  -0.0471405  -0.4242641   0.5656854), wk =   0.0035556
        k(  631) = (  -0.0235702  -0.4006938   0.5421152), wk =   0.0035556
        k(  632) = (  -0.0000000  -0.3771236   0.5185450), wk =   0.0017778
        k(  633) = (  -0.1414214  -0.5656854   0.7071068), wk =   0.0017778
        k(  634) = (  -0.1178511  -0.5421152   0.6835366), wk =   0.0035556
        k(  635) = (  -0.0942809  -0.5185450   0.6599663), wk =   0.0035556
        k(  636) = (  -0.0707107  -0.4949747   0.6363961), wk =   0.0035556
        k(  637) = (  -0.0471405  -0.4714045   0.6128259), wk =   0.0035556
        k(  638) = (  -0.0235702  -0.4478343   0.5892557), wk =   0.0035556
        k(  639) = (  -0.0000000  -0.4242641   0.5656854), wk =   0.0017778
        k(  640) = (  -0.0942809  -0.5656854   0.7071068), wk =   0.0017778
        k(  641) = (  -0.0707107  -0.5421152   0.6835366), wk =   0.0035556
        k(  642) = (  -0.0471405  -0.5185450   0.6599663), wk =   0.0035556
        k(  643) = (  -0.0235702  -0.4949747   0.6363961), wk =   0.0035556
        k(  644) = (  -0.0000000  -0.4714045   0.6128259), wk =   0.0017778
        k(  645) = (  -0.0471405  -0.5656854   0.7071068), wk =   0.0017778
        k(  646) = (  -0.0235702  -0.5421152   0.6835366), wk =   0.0035556
        k(  647) = (   0.0000000  -0.5185450   0.6599663), wk =   0.0017778
        k(  648) = (  -0.7071068   0.1414214   0.0000000), wk =   0.0008889
        k(  649) = (   0.3771236   0.1885618  -0.0000000), wk =   0.0017778
        k(  650) = (   0.4006938   0.2121320  -0.0235702), wk =   0.0035556
        k(  651) = (   0.4242641   0.2357023  -0.0471405), wk =   0.0035556
        k(  652) = (  -0.2592725  -0.4478343   0.6363961), wk =   0.0035556
        k(  653) = (  -0.2357023  -0.4242641   0.6128259), wk =   0.0035556
        k(  654) = (  -0.2121320  -0.4006938   0.5892557), wk =   0.0035556
        k(  655) = (  -0.1885618  -0.3771236   0.5656854), wk =   0.0035556
        k(  656) = (  -0.1649916  -0.3535534   0.5421152), wk =   0.0017778
        k(  657) = (   0.4242641   0.1885618   0.0000000), wk =   0.0017778
        k(  658) = (   0.4478343   0.2121320  -0.0235702), wk =   0.0035556
        k(  659) = (  -0.2357023  -0.4714045   0.6599663), wk =   0.0035556
        k(  660) = (  -0.2121320  -0.4478343   0.6363961), wk =   0.0035556
        k(  661) = (  -0.1885618  -0.4242641   0.6128259), wk =   0.0035556
        k(  662) = (  -0.1649916  -0.4006938   0.5892557), wk =   0.0035556
        k(  663) = (  -0.1414214  -0.3771236   0.5656854), wk =   0.0035556
        k(  664) = (  -0.1178511  -0.3535534   0.5421152), wk =   0.0035556
        k(  665) = (  -0.0942809  -0.3299832   0.5185450), wk =   0.0035556
        k(  666) = (  -0.0707107  -0.3064129   0.4949747), wk =   0.0035556
        k(  667) = (  -0.0471405  -0.2828427   0.4714045), wk =   0.0035556
        k(  668) = (  -0.0235702  -0.2592725   0.4478343), wk =   0.0035556
        k(  669) = (   0.0000000  -0.2357023   0.4242641), wk =   0.0017778
        k(  670) = (   0.4714045   0.1885618  -0.0000000), wk =   0.0017778
        k(  671) = (  -0.2121320  -0.4949747   0.6835366), wk =   0.0035556
        k(  672) = (  -0.1885618  -0.4714045   0.6599663), wk =   0.0035556
        k(  673) = (  -0.1649916  -0.4478343   0.6363961), wk =   0.0035556
        k(  674) = (  -0.1414214  -0.4242641   0.6128259), wk =   0.0035556
        k(  675) = (  -0.1178511  -0.4006938   0.5892557), wk =   0.0035556
        k(  676) = (  -0.0942809  -0.3771236   0.5656854), wk =   0.0035556
        k(  677) = (  -0.0707107  -0.3535534   0.5421152), wk =   0.0035556
        k(  678) = (  -0.0471405  -0.3299832   0.5185450), wk =   0.0035556
        k(  679) = (  -0.0235702  -0.3064129   0.4949747), wk =   0.0035556
        k(  680) = (   0.0000000  -0.2828427   0.4714045), wk =   0.0017778
        k(  681) = (  -0.1885618  -0.5185450   0.7071068), wk =   0.0017778
        k(  682) = (  -0.1649916  -0.4949747   0.6835366), wk =   0.0035556
        k(  683) = (  -0.1414214  -0.4714045   0.6599663), wk =   0.0035556
        k(  684) = (  -0.1178511  -0.4478343   0.6363961), wk =   0.0035556
        k(  685) = (  -0.0942809  -0.4242641   0.6128259), wk =   0.0035556
        k(  686) = (  -0.0707107  -0.4006938   0.5892557), wk =   0.0035556
        k(  687) = (  -0.0471405  -0.3771236   0.5656854), wk =   0.0035556
        k(  688) = (  -0.0235702  -0.3535534   0.5421152), wk =   0.0035556
        k(  689) = (   0.0000000  -0.3299832   0.5185450), wk =   0.0017778
        k(  690) = (  -0.1414214  -0.5185450   0.7071068), wk =   0.0017778
        k(  691) = (  -0.1178511  -0.4949747   0.6835366), wk =   0.0035556
        k(  692) = (  -0.0942809  -0.4714045   0.6599663), wk =   0.0035556
        k(  693) = (  -0.0707107  -0.4478343   0.6363961), wk =   0.0035556
        k(  694) = (  -0.0471405  -0.4242641   0.6128259), wk =   0.0035556
        k(  695) = (  -0.0235702  -0.4006938   0.5892557), wk =   0.0035556
        k(  696) = (   0.0000000  -0.3771236   0.5656854), wk =   0.0017778
        k(  697) = (  -0.0942809  -0.5185450   0.7071068), wk =   0.0017778
        k(  698) = (  -0.0707107  -0.4949747   0.6835366), wk =   0.0035556
        k(  699) = (  -0.0471405  -0.4714045   0.6599663), wk =   0.0035556
        k(  700) = (  -0.0235702  -0.4478343   0.6363961), wk =   0.0035556
        k(  701) = (  -0.0000000  -0.4242641   0.6128259), wk =   0.0017778
        k(  702) = (  -0.0471405  -0.5185450   0.7071068), wk =   0.0017778
        k(  703) = (  -0.0235702  -0.4949747   0.6835366), wk =   0.0035556
        k(  704) = (   0.0000000  -0.4714045   0.6599663), wk =   0.0017778
        k(  705) = (  -0.7071068   0.1885618   0.0000000), wk =   0.0008889
        k(  706) = (  -0.2357023  -0.4714045   0.7071068), wk =   0.0017778
        k(  707) = (  -0.2121320  -0.4478343   0.6835366), wk =   0.0035556
        k(  708) = (  -0.1885618  -0.4242641   0.6599663), wk =   0.0035556
        k(  709) = (  -0.1649916  -0.4006938   0.6363961), wk =   0.0035556
        k(  710) = (  -0.1414214  -0.3771236   0.6128259), wk =   0.0035556
        k(  711) = (  -0.1178511  -0.3535534   0.5892557), wk =   0.0017778
        k(  712) = (  -0.1885618  -0.4714045   0.7071068), wk =   0.0017778
        k(  713) = (  -0.1649916  -0.4478343   0.6835366), wk =   0.0035556
        k(  714) = (  -0.1414214  -0.4242641   0.6599663), wk =   0.0035556
        k(  715) = (  -0.1178511  -0.4006938   0.6363961), wk =   0.0035556
        k(  716) = (  -0.0942809  -0.3771236   0.6128259), wk =   0.0035556
        k(  717) = (  -0.0707107  -0.3535534   0.5892557), wk =   0.0035556
        k(  718) = (  -0.0471405  -0.3299832   0.5656854), wk =   0.0035556
        k(  719) = (  -0.0235702  -0.3064129   0.5421152), wk =   0.0035556
        k(  720) = (   0.0000000  -0.2828427   0.5185450), wk =   0.0017778
        k(  721) = (  -0.1414214  -0.4714045   0.7071068), wk =   0.0017778
        k(  722) = (  -0.1178511  -0.4478343   0.6835366), wk =   0.0035556
        k(  723) = (  -0.0942809  -0.4242641   0.6599663), wk =   0.0035556
        k(  724) = (  -0.0707107  -0.4006938   0.6363961), wk =   0.0035556
        k(  725) = (  -0.0471405  -0.3771236   0.6128259), wk =   0.0035556
        k(  726) = (  -0.0235702  -0.3535534   0.5892557), wk =   0.0035556
        k(  727) = (   0.0000000  -0.3299832   0.5656854), wk =   0.0017778
        k(  728) = (  -0.0942809  -0.4714045   0.7071068), wk =   0.0017778
        k(  729) = (  -0.0707107  -0.4478343   0.6835366), wk =   0.0035556
        k(  730) = (  -0.0471405  -0.4242641   0.6599663), wk =   0.0035556
        k(  731) = (  -0.0235702  -0.4006938   0.6363961), wk =   0.0035556
        k(  732) = (  -0.0000000  -0.3771236   0.6128259), wk =   0.0017778
        k(  733) = (  -0.0471405  -0.4714045   0.7071068), wk =   0.0017778
        k(  734) = (  -0.0235702  -0.4478343   0.6835366), wk =   0.0035556
        k(  735) = (   0.0000000  -0.4242641   0.6599663), wk =   0.0017778
        k(  736) = (  -0.7071068   0.2357023   0.0000000), wk =   0.0008889
        k(  737) = (  -0.1414214  -0.4242641   0.7071068), wk =   0.0017778
        k(  738) = (  -0.1178511  -0.4006938   0.6835366), wk =   0.0035556
        k(  739) = (  -0.0942809  -0.3771236   0.6599663), wk =   0.0035556
        k(  740) = (  -0.0707107  -0.3535534   0.6363961), wk =   0.0017778
        k(  741) = (  -0.0942809  -0.4242641   0.7071068), wk =   0.0017778
        k(  742) = (  -0.0707107  -0.4006938   0.6835366), wk =   0.0035556
        k(  743) = (  -0.0471405  -0.3771236   0.6599663), wk =   0.0035556
        k(  744) = (  -0.0235702  -0.3535534   0.6363961), wk =   0.0035556
        k(  745) = (   0.0000000  -0.3299832   0.6128259), wk =   0.0017778
        k(  746) = (  -0.0471405  -0.4242641   0.7071068), wk =   0.0017778
        k(  747) = (  -0.0235702  -0.4006938   0.6835366), wk =   0.0035556
        k(  748) = (  -0.0000000  -0.3771236   0.6599663), wk =   0.0017778
        k(  749) = (  -0.7071068   0.2828427   0.0000000), wk =   0.0008889
        k(  750) = (  -0.0471405  -0.3771236   0.7071068), wk =   0.0017778
        k(  751) = (  -0.0235702  -0.3535534   0.6835366), wk =   0.0017778
        k(  752) = (  -0.7071068   0.3299832   0.0000000), wk =   0.0008889

                       cryst. coord.
        k(    1) = (   0.0000000   0.0000000   0.0000000), wk =   0.0000741
        k(    2) = (   0.0000000   0.0000000   0.0333333), wk =   0.0005926
        k(    3) = (   0.0000000   0.0000000   0.0666667), wk =   0.0005926
        k(    4) = (   0.0000000   0.0000000   0.1000000), wk =   0.0005926
        k(    5) = (   0.0000000   0.0000000   0.1333333), wk =   0.0005926
        k(    6) = (   0.0000000   0.0000000   0.1666667), wk =   0.0005926
        k(    7) = (   0.0000000   0.0000000   0.2000000), wk =   0.0005926
        k(    8) = (   0.0000000   0.0000000   0.2333333), wk =   0.0005926
        k(    9) = (   0.0000000   0.0000000   0.2666667), wk =   0.0005926
        k(   10) = (   0.0000000   0.0000000   0.3000000), wk =   0.0005926
        k(   11) = (   0.0000000   0.0000000   0.3333333), wk =   0.0005926
        k(   12) = (   0.0000000   0.0000000   0.3666667), wk =   0.0005926
        k(   13) = (   0.0000000   0.0000000   0.4000000), wk =   0.0005926
        k(   14) = (   0.0000000   0.0000000   0.4333333), wk =   0.0005926
        k(   15) = (   0.0000000   0.0000000   0.4666667), wk =   0.0005926
        k(   16) = (   0.0000000   0.0000000  -0.5000000), wk =   0.0002963
        k(   17) = (   0.0000000   0.0333333   0.0333333), wk =   0.0004444
        k(   18) = (   0.0000000   0.0333333   0.0666667), wk =   0.0017778
        k(   19) = (   0.0000000   0.0333333   0.1000000), wk =   0.0017778
        k(   20) = (   0.0000000   0.0333333   0.1333333), wk =   0.0017778
        k(   21) = (   0.0000000   0.0333333   0.1666667), wk =   0.0017778
        k(   22) = (   0.0000000   0.0333333   0.2000000), wk =   0.0017778
        k(   23) = (   0.0000000   0.0333333   0.2333333), wk =   0.0017778
        k(   24) = (   0.0000000   0.0333333   0.2666667), wk =   0.0017778
        k(   25) = (   0.0000000   0.0333333   0.3000000), wk =   0.0017778
        k(   26) = (   0.0000000   0.0333333   0.3333333), wk =   0.0017778
        k(   27) = (   0.0000000   0.0333333   0.3666667), wk =   0.0017778
        k(   28) = (   0.0000000   0.0333333   0.4000000), wk =   0.0017778
        k(   29) = (   0.0000000   0.0333333   0.4333333), wk =   0.0017778
        k(   30) = (   0.0000000   0.0333333   0.4666667), wk =   0.0017778
        k(   31) = (   0.0000000   0.0333333  -0.5000000), wk =   0.0017778
        k(   32) = (   0.0000000   0.0333333  -0.4666667), wk =   0.0017778
        k(   33) = (   0.0000000   0.0333333  -0.4333333), wk =   0.0017778
        k(   34) = (   0.0000000   0.0333333  -0.4000000), wk =   0.0017778
        k(   35) = (   0.0000000   0.0333333  -0.3666667), wk =   0.0017778
        k(   36) = (   0.0000000   0.0333333  -0.3333333), wk =   0.0017778
        k(   37) = (   0.0000000   0.0333333  -0.3000000), wk =   0.0017778
        k(   38) = (   0.0000000   0.0333333  -0.2666667), wk =   0.0017778
        k(   39) = (   0.0000000   0.0333333  -0.2333333), wk =   0.0017778
        k(   40) = (   0.0000000   0.0333333  -0.2000000), wk =   0.0017778
        k(   41) = (   0.0000000   0.0333333  -0.1666667), wk =   0.0017778
        k(   42) = (   0.0000000   0.0333333  -0.1333333), wk =   0.0017778
        k(   43) = (   0.0000000   0.0333333  -0.1000000), wk =   0.0017778
        k(   44) = (   0.0000000   0.0333333  -0.0666667), wk =   0.0017778
        k(   45) = (   0.0000000   0.0333333  -0.0333333), wk =   0.0008889
        k(   46) = (   0.0000000   0.0666667   0.0666667), wk =   0.0004444
        k(   47) = (   0.0000000   0.0666667   0.1000000), wk =   0.0017778
        k(   48) = (   0.0000000   0.0666667   0.1333333), wk =   0.0017778
        k(   49) = (   0.0000000   0.0666667   0.1666667), wk =   0.0017778
        k(   50) = (   0.0000000   0.0666667   0.2000000), wk =   0.0017778
        k(   51) = (   0.0000000   0.0666667   0.2333333), wk =   0.0017778
        k(   52) = (   0.0000000   0.0666667   0.2666667), wk =   0.0017778
        k(   53) = (   0.0000000   0.0666667   0.3000000), wk =   0.0017778
        k(   54) = (   0.0000000   0.0666667   0.3333333), wk =   0.0017778
        k(   55) = (   0.0000000   0.0666667   0.3666667), wk =   0.0017778
        k(   56) = (   0.0000000   0.0666667   0.4000000), wk =   0.0017778
        k(   57) = (   0.0000000   0.0666667   0.4333333), wk =   0.0017778
        k(   58) = (   0.0000000   0.0666667   0.4666667), wk =   0.0017778
        k(   59) = (   0.0000000   0.0666667  -0.5000000), wk =   0.0017778
        k(   60) = (   0.0000000   0.0666667  -0.4666667), wk =   0.0017778
        k(   61) = (   0.0000000   0.0666667  -0.4333333), wk =   0.0017778
        k(   62) = (   0.0000000   0.0666667  -0.4000000), wk =   0.0017778
        k(   63) = (   0.0000000   0.0666667  -0.3666667), wk =   0.0017778
        k(   64) = (   0.0000000   0.0666667  -0.3333333), wk =   0.0017778
        k(   65) = (   0.0000000   0.0666667  -0.3000000), wk =   0.0017778
        k(   66) = (   0.0000000   0.0666667  -0.2666667), wk =   0.0017778
        k(   67) = (   0.0000000   0.0666667  -0.2333333), wk =   0.0017778
        k(   68) = (   0.0000000   0.0666667  -0.2000000), wk =   0.0017778
        k(   69) = (   0.0000000   0.0666667  -0.1666667), wk =   0.0017778
        k(   70) = (   0.0000000   0.0666667  -0.1333333), wk =   0.0017778
        k(   71) = (   0.0000000   0.0666667  -0.1000000), wk =   0.0017778
        k(   72) = (   0.0000000   0.0666667  -0.0666667), wk =   0.0008889
        k(   73) = (   0.0000000   0.1000000   0.1000000), wk =   0.0004444
        k(   74) = (   0.0000000   0.1000000   0.1333333), wk =   0.0017778
        k(   75) = (   0.0000000   0.1000000   0.1666667), wk =   0.0017778
        k(   76) = (   0.0000000   0.1000000   0.2000000), wk =   0.0017778
        k(   77) = (   0.0000000   0.1000000   0.2333333), wk =   0.0017778
        k(   78) = (   0.0000000   0.1000000   0.2666667), wk =   0.0017778
        k(   79) = (   0.0000000   0.1000000   0.3000000), wk =   0.0017778
        k(   80) = (   0.0000000   0.1000000   0.3333333), wk =   0.0017778
        k(   81) = (   0.0000000   0.1000000   0.3666667), wk =   0.0017778
        k(   82) = (   0.0000000   0.1000000   0.4000000), wk =   0.0017778
        k(   83) = (   0.0000000   0.1000000   0.4333333), wk =   0.0017778
        k(   84) = (   0.0000000   0.1000000   0.4666667), wk =   0.0017778
        k(   85) = (   0.0000000   0.1000000  -0.5000000), wk =   0.0017778
        k(   86) = (   0.0000000   0.1000000  -0.4666667), wk =   0.0017778
        k(   87) = (   0.0000000   0.1000000  -0.4333333), wk =   0.0017778
        k(   88) = (   0.0000000   0.1000000  -0.4000000), wk =   0.0017778
        k(   89) = (   0.0000000   0.1000000  -0.3666667), wk =   0.0017778
        k(   90) = (   0.0000000   0.1000000  -0.3333333), wk =   0.0017778
        k(   91) = (   0.0000000   0.1000000  -0.3000000), wk =   0.0017778
        k(   92) = (   0.0000000   0.1000000  -0.2666667), wk =   0.0017778
        k(   93) = (   0.0000000   0.1000000  -0.2333333), wk =   0.0017778
        k(   94) = (   0.0000000   0.1000000  -0.2000000), wk =   0.0017778
        k(   95) = (   0.0000000   0.1000000  -0.1666667), wk =   0.0017778
        k(   96) = (   0.0000000   0.1000000  -0.1333333), wk =   0.0017778
        k(   97) = (   0.0000000   0.1000000  -0.1000000), wk =   0.0008889
        k(   98) = (   0.0000000   0.1333333   0.1333333), wk =   0.0004444
        k(   99) = (   0.0000000   0.1333333   0.1666667), wk =   0.0017778
        k(  100) = (   0.0000000   0.1333333   0.2000000), wk =   0.0017778
        k(  101) = (   0.0000000   0.1333333   0.2333333), wk =   0.0017778
        k(  102) = (   0.0000000   0.1333333   0.2666667), wk =   0.0017778
        k(  103) = (   0.0000000   0.1333333   0.3000000), wk =   0.0017778
        k(  104) = (   0.0000000   0.1333333   0.3333333), wk =   0.0017778
        k(  105) = (   0.0000000   0.1333333   0.3666667), wk =   0.0017778
        k(  106) = (   0.0000000   0.1333333   0.4000000), wk =   0.0017778
        k(  107) = (   0.0000000   0.1333333   0.4333333), wk =   0.0017778
        k(  108) = (   0.0000000   0.1333333   0.4666667), wk =   0.0017778
        k(  109) = (   0.0000000   0.1333333  -0.5000000), wk =   0.0017778
        k(  110) = (   0.0000000   0.1333333  -0.4666667), wk =   0.0017778
        k(  111) = (   0.0000000   0.1333333  -0.4333333), wk =   0.0017778
        k(  112) = (   0.0000000   0.1333333  -0.4000000), wk =   0.0017778
        k(  113) = (   0.0000000   0.1333333  -0.3666667), wk =   0.0017778
        k(  114) = (   0.0000000   0.1333333  -0.3333333), wk =   0.0017778
        k(  115) = (   0.0000000   0.1333333  -0.3000000), wk =   0.0017778
        k(  116) = (   0.0000000   0.1333333  -0.2666667), wk =   0.0017778
        k(  117) = (   0.0000000   0.1333333  -0.2333333), wk =   0.0017778
[...]
    12.8147  14.1916

     occupation numbers 
     1.0000   1.0000   1.0000   1.0000   1.0000   1.0000   1.0000   1.0000
     1.0000   1.0000   1.0000   1.0000   1.0000   1.0000   0.0000   0.0000
     0.0000   0.0000

          k =-0.1414-0.4243 0.6600 (  6022 PWs)   bands (ev):

   -12.4205 -12.4134 -12.3069 -12.2462 -12.2344 -12.2170 -12.1811 -12.1581
   -12.0514 -12.0449  -0.4482   1.1014   5.7503   6.4551  10.4705  11.3434
    12.8197  14.0285

     occupation numbers 
     1.0000   1.0000   1.0000   1.0000   1.0000   1.0000   1.0000   1.0000
     1.0000   1.0000   1.0000   1.0000   1.0000   1.0000   0.0000   0.0000
     0.0000   0.0000

          k =-0.1179-0.4007 0.6364 (  6011 PWs)   bands (ev):

   -12.4222 -12.4139 -12.3020 -12.2434 -12.2332 -12.2169 -12.1866 -12.1618
   -12.0508 -12.0429  -0.3381   0.9713   5.6954   6.4176  10.4783  11.5771
    12.8924  13.7793

     occupation numbers 
     1.0000   1.0000   1.0000   1.0000   1.0000   1.0000   1.0000   1.0000
     1.0000   1.0000   1.0000   1.0000   1.0000   1.0000   0.0000   0.0000
     0.0000   0.0000

          k =-0.0943-0.3771 0.6128 (  6013 PWs)   bands (ev):

   -12.4230 -12.4141 -12.2995 -12.2425 -12.2303 -12.2185 -12.1897 -12.1636
   -12.0506 -12.0419  -0.2828   0.9075   5.6619   6.4094  10.4809  11.7210
    13.0183  13.5308

     occupation numbers 
     1.0000   1.0000   1.0000   1.0000   1.0000   1.0000   1.0000   1.0000
     1.0000   1.0000   1.0000   1.0000   1.0000   1.0000   0.0000   0.0000
     0.0000   0.0000

          k =-0.0707-0.3536 0.5893 (  6014 PWs)   bands (ev):

   -12.4231 -12.4140 -12.2997 -12.2426 -12.2296 -12.2191 -12.1897 -12.1634
   -12.0506 -12.0419  -0.3023   0.9302   5.6513   6.4305  10.4790  11.7545
    13.0063  13.5112

     occupation numbers 
     1.0000   1.0000   1.0000   1.0000   1.0000   1.0000   1.0000   1.0000
     1.0000   1.0000   1.0000   1.0000   1.0000   1.0000   0.0000   0.0000
     0.0000   0.0000

          k =-0.0471-0.3300 0.5657 (  6012 PWs)   bands (ev):

   -12.4223 -12.4136 -12.3025 -12.2451 -12.2296 -12.2192 -12.1862 -12.1616
   -12.0510 -12.0429  -0.3886   1.0310   5.6658   6.4790  10.4687  11.6779
    12.8476  13.7269

     occupation numbers 
     1.0000   1.0000   1.0000   1.0000   1.0000   1.0000   1.0000   1.0000
     1.0000   1.0000   1.0000   1.0000   1.0000   1.0000   0.0000   0.0000
     0.0000   0.0000

          k =-0.0236-0.3064 0.5421 (  6023 PWs)   bands (ev):

   -12.4208 -12.4129 -12.3074 -12.2498 -12.2274 -12.2213 -12.1796 -12.1583
   -12.0517 -12.0448  -0.5156   1.1831   5.7072   6.5515  10.4408  11.5106
    12.7466  13.9350

     occupation numbers 
     1.0000   1.0000   1.0000   1.0000   1.0000   1.0000   1.0000   1.0000
     1.0000   1.0000   1.0000   1.0000   1.0000   1.0000   0.0000   0.0000
     0.0000   0.0000

          k = 0.0000-0.2828 0.5185 (  6026 PWs)   bands (ev):

   -12.4187 -12.4117 -12.3139 -12.2552 -12.2254 -12.2236 -12.1718 -12.1538
   -12.0529 -12.0475  -0.6606   1.3630   5.7775   6.6429  10.3792  11.3075
    12.7252  14.0381

     occupation numbers 
     1.0000   1.0000   1.0000   1.0000   1.0000   1.0000   1.0000   1.0000
     1.0000   1.0000   1.0000   1.0000   1.0000   1.0000   0.0000   0.0000
     0.0000   0.0000

          k =-0.1414-0.4714 0.7071 (  6026 PWs)   bands (ev):

   -12.4173 -12.4136 -12.3129 -12.2452 -12.2433 -12.2117 -12.1783 -12.1520
   -12.0512 -12.0485  -0.4977   1.1626   5.8824   6.3999  10.5125  10.7662
    12.9975  14.3557

     occupation numbers 
     1.0000   1.0000   1.0000   1.0000   1.0000   1.0000   1.0000   1.0000
     1.0000   1.0000   1.0000   1.0000   1.0000   1.0000   0.0000   0.0000
     0.0000   0.0000

          k =-0.1179-0.4478 0.6835 (  6020 PWs)   bands (ev):

   -12.4196 -12.4148 -12.3048 -12.2461 -12.2401 -12.2086 -12.1850 -12.1591
   -12.0499 -12.0457  -0.3508   0.9895   5.8079   6.3226  10.5739  11.0359
    12.9451  14.1669

     occupation numbers 
     1.0000   1.0000   1.0000   1.0000   1.0000   1.0000   1.0000   1.0000
     1.0000   1.0000   1.0000   1.0000   1.0000   1.0000   0.0000   0.0000
     0.0000   0.0000

          k =-0.0943-0.4243 0.6600 (  6010 PWs)   bands (ev):

   -12.4215 -12.4154 -12.2982 -12.2472 -12.2353 -12.2077 -12.1911 -12.1644
   -12.0492 -12.0434  -0.2245   0.8463   5.7431   6.2795  10.5898  11.3458
    12.9284  13.8826

     occupation numbers 
     1.0000   1.0000   1.0000   1.0000   1.0000   1.0000   1.0000   1.0000
     1.0000   1.0000   1.0000   1.0000   1.0000   1.0000   0.0000   0.0000
     0.0000   0.0000

          k =-0.0707-0.4007 0.6364 (  6011 PWs)   bands (ev):

   -12.4229 -12.4157 -12.2943 -12.2463 -12.2317 -12.2095 -12.1950 -12.1673
   -12.0489 -12.0419  -0.1485   0.7627   5.6904   6.2736  10.5963  11.6131
    12.9587  13.5787

     occupation numbers 
     1.0000   1.0000   1.0000   1.0000   1.0000   1.0000   1.0000   1.0000
     1.0000   1.0000   1.0000   1.0000   1.0000   1.0000   0.0000   0.0000
     0.0000   0.0000

          k =-0.0471-0.3771 0.6128 (  6009 PWs)   bands (ev):

   -12.4234 -12.4155 -12.2937 -12.2432 -12.2319 -12.2113 -12.1965 -12.1675
   -12.0490 -12.0413  -0.1550   0.7705   5.6553   6.3028  10.5950  11.7739
    12.9792  13.3974

     occupation numbers 
     1.0000   1.0000   1.0000   1.0000   1.0000   1.0000   1.0000   1.0000
     1.0000   1.0000   1.0000   1.0000   1.0000   1.0000   0.0000   0.0000
     0.0000   0.0000

          k =-0.0236-0.3536 0.5893 (  6013 PWs)   bands (ev):

   -12.4233 -12.4150 -12.2962 -12.2394 -12.2357 -12.2129 -12.1943 -12.1658
   -12.0494 -12.0417  -0.2399   0.8653   5.6435   6.3625  10.5788  11.7881
    12.8634  13.5145

     occupation numbers 
     1.0000   1.0000   1.0000   1.0000   1.0000   1.0000   1.0000   1.0000
     1.0000   1.0000   1.0000   1.0000   1.0000   1.0000   0.0000   0.0000
     0.0000   0.0000

          k = 0.0000-0.3300 0.5657 (  6019 PWs)   bands (ev):

   -12.4223 -12.4142 -12.3009 -12.2436 -12.2325 -12.2166 -12.1879 -12.1626
   -12.0503 -12.0429  -0.3691   1.0122   5.6598   6.4474  10.5339  11.6742
    12.7667  13.7480

     occupation numbers 
     1.0000   1.0000   1.0000   1.0000   1.0000   1.0000   1.0000   1.0000
     1.0000   1.0000   1.0000   1.0000   1.0000   1.0000   0.0000   0.0000
     0.0000   0.0000

          k =-0.0943-0.4714 0.7071 (  6022 PWs)   bands (ev):

   -12.4184 -12.4157 -12.3033 -12.2566 -12.2344 -12.2003 -12.1893 -12.1598
   -12.0490 -12.0468  -0.2456   0.8671   5.8790   6.2260  10.5896  10.7189
    13.2122  14.2821

     occupation numbers 
     1.0000   1.0000   1.0000   1.0000   1.0000   1.0000   1.0000   1.0000
     1.0000   1.0000   1.0000   1.0000   1.0000   1.0000   0.0000   0.0000
     0.0000   0.0000

          k =-0.0707-0.4478 0.6835 (  6010 PWs)   bands (ev):

   -12.4203 -12.4167 -12.2951 -12.2585 -12.2296 -12.1985 -12.1954 -12.1668
   -12.0479 -12.0445  -0.1046   0.7132   5.8223   6.1628  10.6395  11.0232
    13.1499  13.9757

     occupation numbers 
     1.0000   1.0000   1.0000   1.0000   1.0000   1.0000   1.0000   1.0000
     1.0000   1.0000   1.0000   1.0000   1.0000   1.0000   0.0000   0.0000
     0.0000   0.0000

          k =-0.0471-0.4243 0.6600 (  6011 PWs)   bands (ev):

   -12.4220 -12.4169 -12.2898 -12.2575 -12.2258 -12.2031 -12.1971 -12.1709
   -12.0477 -12.0426  -0.0072   0.6105   5.7564   6.1547  10.6498  11.3608
    13.1102  13.6369

     occupation numbers 
     1.0000   1.0000   1.0000   1.0000   1.0000   1.0000   1.0000   1.0000
     1.0000   1.0000   1.0000   1.0000   1.0000   1.0000   0.0000   0.0000
     0.0000   0.0000

          k =-0.0236-0.4007 0.6364 (  6005 PWs)   bands (ev):

   -12.4231 -12.4167 -12.2888 -12.2527 -12.2257 -12.2054 -12.2004 -12.1713
   -12.0478 -12.0415  -0.0070   0.6119   5.6956   6.1927  10.6504  11.6469
    13.0775  13.3641

     occupation numbers 
     1.0000   1.0000   1.0000   1.0000   1.0000   1.0000   1.0000   1.0000
     1.0000   1.0000   1.0000   1.0000   1.0000   1.0000   0.0000   0.0000
     0.0000   0.0000

          k =-0.0000-0.3771 0.6128 (  6009 PWs)   bands (ev):

   -12.4235 -12.4161 -12.2913 -12.2454 -12.2307 -12.2067 -12.2010 -12.1692
   -12.0484 -12.0412  -0.1025   0.7151   5.6550   6.2648  10.6325  11.8036
    12.9590  13.3435

     occupation numbers 
     1.0000   1.0000   1.0000   1.0000   1.0000   1.0000   1.0000   1.0000
     1.0000   1.0000   1.0000   1.0000   1.0000   1.0000   0.0000   0.0000
     0.0000   0.0000

          k =-0.0471-0.4714 0.7071 (  6013 PWs)   bands (ev):

   -12.4187 -12.4173 -12.2929 -12.2693 -12.2233 -12.2006 -12.1892 -12.1687
   -12.0472 -12.0460   0.0187   0.5768   5.9118   6.0858  10.6331  10.6858
    13.4818  14.0638

     occupation numbers 
     1.0000   1.0000   1.0000   1.0000   1.0000   1.0000   1.0000   1.0000
     1.0000   1.0000   1.0000   1.0000   1.0000   1.0000   0.0000   0.0000
     0.0000   0.0000

          k =-0.0236-0.4478 0.6835 (  6015 PWs)   bands (ev):

   -12.4205 -12.4178 -12.2855 -12.2696 -12.2189 -12.2069 -12.1885 -12.1747
   -12.0468 -12.0441   0.1404   0.4532   5.8554   6.0563  10.6644  11.0214
    13.4106  13.7041

     occupation numbers 
     1.0000   1.0000   1.0000   1.0000   1.0000   1.0000   1.0000   1.0000
     1.0000   1.0000   1.0000   1.0000   1.0000   1.0000   0.0000   0.0000
     0.0000   0.0000

          k = 0.0000-0.4243 0.6600 (  6014 PWs)   bands (ev):

   -12.4221 -12.4174 -12.2852 -12.2628 -12.2194 -12.2084 -12.1939 -12.1745
   -12.0471 -12.0424   0.1223   0.4749   5.7672   6.1064  10.6671  11.3684
    13.3076  13.4121

     occupation numbers 
     1.0000   1.0000   1.0000   1.0000   1.0000   1.0000   1.0000   1.0000
     1.0000   1.0000   1.0000   1.0000   1.0000   1.0000   0.0000   0.0000
     0.0000   0.0000

          k =-0.7071 0.2357 0.0000 (  6004 PWs)   bands (ev):

   -12.4184 -12.4184 -12.2815 -12.2815 -12.2121 -12.2119 -12.1786 -12.1785
   -12.0462 -12.0462   0.2933   0.2935   5.9808   5.9808  10.6605  10.6605
    13.7783  13.7783

     occupation numbers 
     1.0000   1.0000   1.0000   1.0000   1.0000   1.0000   1.0000   1.0000
     1.0000   1.0000   1.0000   1.0000   1.0000   1.0000   0.0000   0.0000
     0.0000   0.0000

          k =-0.1414-0.4243 0.7071 (  6022 PWs)   bands (ev):

   -12.4201 -12.4143 -12.3056 -12.2454 -12.2369 -12.2148 -12.1819 -12.1592
   -12.0504 -12.0454  -0.4370   1.0917   5.7568   6.4152  10.6026  11.2258
    12.7752  14.0635

     occupation numbers 
     1.0000   1.0000   1.0000   1.0000   1.0000   1.0000   1.0000   1.0000
     1.0000   1.0000   1.0000   1.0000   1.0000   1.0000   0.0000   0.0000
     0.0000   0.0000

          k =-0.1179-0.4007 0.6835 (  6011 PWs)   bands (ev):

   -12.4217 -12.4153 -12.2988 -12.2416 -12.2387 -12.2115 -12.1892 -12.1642
   -12.0492 -12.0434  -0.2974   0.9305   5.7104   6.3325  10.6775  11.4353
    12.7857  13.8165

     occupation numbers 
     1.0000   1.0000   1.0000   1.0000   1.0000   1.0000   1.0000   1.0000
     1.0000   1.0000   1.0000   1.0000   1.0000   1.0000   0.0000   0.0000
     0.0000   0.0000

          k =-0.0943-0.3771 0.6600 (  6015 PWs)   bands (ev):

   -12.4228 -12.4159 -12.2941 -12.2435 -12.2343 -12.2106 -12.1941 -12.1676
   -12.0486 -12.0421  -0.1892   0.8091   5.6842   6.2793  10.7075  11.6134
    12.8629  13.5367

     occupation numbers 
     1.0000   1.0000   1.0000   1.0000   1.0000   1.0000   1.0000   1.0000
     1.0000   1.0000   1.0000   1.0000   1.0000   1.0000   0.0000   0.0000
     0.0000   0.0000

          k =-0.0707-0.3536 0.6364 (  6010 PWs)   bands (ev):

   -12.4231 -12.4161 -12.2924 -12.2444 -12.2319 -12.2111 -12.1956 -12.1688
   -12.0484 -12.0416  -0.1462   0.7616   5.6758   6.2609  10.7155  11.6822
    12.9409  13.3799

     occupation numbers 
     1.0000   1.0000   1.0000   1.0000   1.0000   1.0000   1.0000   1.0000
     1.0000   1.0000   1.0000   1.0000   1.0000   1.0000   0.0000   0.0000
     0.0000   0.0000

          k =-0.0943-0.4243 0.7071 (  6009 PWs)   bands (ev):

   -12.4208 -12.4166 -12.2962 -12.2500 -12.2351 -12.2042 -12.1924 -12.1661
   -12.0479 -12.0442  -0.2016   0.8229   5.7735   6.2165  10.7823  11.1543
    12.8981  13.8975

     occupation numbers 
     1.0000   1.0000   1.0000   1.0000   1.0000   1.0000   1.0000   1.0000
     1.0000   1.0000   1.0000   1.0000   1.0000   1.0000   0.0000   0.0000
     0.0000   0.0000

          k =-0.0707-0.4007 0.6835 (  6003 PWs)   bands (ev):

   -12.4219 -12.4175 -12.2894 -12.2528 -12.2302 -12.2024 -12.1981 -12.1714
   -12.0470 -12.0428  -0.0722   0.6829   5.7485   6.1469  10.8641  11.3738
    12.8909  13.5790

     occupation numbers 
     1.0000   1.0000   1.0000   1.0000   1.0000   1.0000   1.0000   1.0000
     1.0000   1.0000   1.0000   1.0000   1.0000   1.0000   0.0000   0.0000
     0.0000   0.0000

          k =-0.0471-0.3771 0.6600 (  6009 PWs)   bands (ev):

   -12.4227 -12.4178 -12.2859 -12.2532 -12.2271 -12.2056 -12.1986 -12.1739
   -12.0467 -12.0419  -0.0033   0.6101   5.7254   6.1266  10.8822  11.5679
    12.9236  13.3146

     occupation numbers 
     1.0000   1.0000   1.0000   1.0000   1.0000   1.0000   1.0000   1.0000
     1.0000   1.0000   1.0000   1.0000   1.0000   1.0000   0.0000   0.0000
     0.0000   0.0000

          k =-0.0236-0.3536 0.6364 (  6009 PWs)   bands (ev):

   -12.4229 -12.4175 -12.2870 -12.2504 -12.2290 -12.2048 -12.2002 -12.1729
   -12.0469 -12.0417  -0.0392   0.6487   5.7051   6.1574  10.8665  11.6323
    12.8849  13.3054

     occupation numbers 
     1.0000   1.0000   1.0000   1.0000   1.0000   1.0000   1.0000   1.0000
     1.0000   1.0000   1.0000   1.0000   1.0000   1.0000   0.0000   0.0000
     0.0000   0.0000

          k = 0.0000-0.3300 0.6128 (  6004 PWs)   bands (ev):

   -12.4225 -12.4167 -12.2918 -12.2456 -12.2342 -12.2064 -12.1968 -12.1693
   -12.0478 -12.0423  -0.1534   0.7718   5.6971   6.2298  10.8071  11.5584
    12.8036  13.5374

     occupation numbers 
     1.0000   1.0000   1.0000   1.0000   1.0000   1.0000   1.0000   1.0000
     1.0000   1.0000   1.0000   1.0000   1.0000   1.0000   0.0000   0.0000
     0.0000   0.0000

          k =-0.0471-0.4243 0.7071 (  5999 PWs)   bands (ev):

   -12.4207 -12.4185 -12.2859 -12.2626 -12.2246 -12.2031 -12.1937 -12.1744
   -12.0459 -12.0439   0.0438   0.5576   5.8282   6.0508  10.9154  11.0863
    13.0956  13.6349

     occupation numbers 
     1.0000   1.0000   1.0000   1.0000   1.0000   1.0000   1.0000   1.0000
     1.0000   1.0000   1.0000   1.0000   1.0000   1.0000   0.0000   0.0000
     0.0000   0.0000

          k =-0.0236-0.4007 0.6835 (  6007 PWs)   bands (ev):

   -12.4216 -12.4191 -12.2800 -12.2636 -12.2207 -12.2088 -12.1923 -12.1788
   -12.0454 -12.0429   0.1449   0.4547   5.8085   6.0121  10.9736  11.3323
    13.0670  13.3147

     occupation numbers 
     1.0000   1.0000   1.0000   1.0000   1.0000   1.0000   1.0000   1.0000
     1.0000   1.0000   1.0000   1.0000   1.0000   1.0000   0.0000   0.0000
     0.0000   0.0000

          k =-0.0000-0.3771 0.6600 (  6020 PWs)   bands (ev):

   -12.4225 -12.4186 -12.2815 -12.2583 -12.2229 -12.2080 -12.1964 -12.1772
   -12.0459 -12.0420   0.0964   0.5061   5.7529   6.0616  10.9485  11.5501
    12.9929  13.1814

     occupation numbers 
     1.0000   1.0000   1.0000   1.0000   1.0000   1.0000   1.0000   1.0000
     1.0000   1.0000   1.0000   1.0000   1.0000   1.0000   0.0000   0.0000
     0.0000   0.0000

          k =-0.7071 0.2828 0.0000 (  6012 PWs)   bands (ev):

   -12.4199 -12.4199 -12.2746 -12.2746 -12.2139 -12.2137 -12.1837 -12.1836
   -12.0445 -12.0445   0.2974   0.2975   5.9209   5.9209  11.0115  11.0115
    13.3516  13.3517

     occupation numbers 
     1.0000   1.0000   1.0000   1.0000   1.0000   1.0000   1.0000   1.0000
     1.0000   1.0000   1.0000   1.0000   1.0000   1.0000   0.0000   0.0000
     0.0000   0.0000

          k =-0.0471-0.3771 0.7071 (  6002 PWs)   bands (ev):

   -12.4220 -12.4190 -12.2816 -12.2583 -12.2248 -12.2060 -12.1962 -12.1773
   -12.0455 -12.0425   0.0701   0.5340   5.7738   6.0423  11.0535  11.4252
    12.8996  13.2875

     occupation numbers 
     1.0000   1.0000   1.0000   1.0000   1.0000   1.0000   1.0000   1.0000
     1.0000   1.0000   1.0000   1.0000   1.0000   1.0000   0.0000   0.0000
     0.0000   0.0000

          k =-0.0236-0.3536 0.6835 (  6018 PWs)   bands (ev):

   -12.4220 -12.4195 -12.2778 -12.2613 -12.2216 -12.2097 -12.1936 -12.1802
   -12.0449 -12.0425   0.1466   0.4553   5.7925   5.9967  11.1135  11.4621
    12.9397  13.1338

     occupation numbers 
     1.0000   1.0000   1.0000   1.0000   1.0000   1.0000   1.0000   1.0000
     1.0000   1.0000   1.0000   1.0000   1.0000   1.0000   0.0000   0.0000
     0.0000   0.0000

          k =-0.7071 0.3300 0.0000 (  6020 PWs)   bands (ev):

   -12.4208 -12.4208 -12.2704 -12.2704 -12.2154 -12.2153 -12.1865 -12.1864
   -12.0437 -12.0437   0.2996   0.2997   5.8894   5.8894  11.2602  11.2602
    13.0637  13.0637

     occupation numbers 
     1.0000   1.0000   1.0000   1.0000   1.0000   1.0000   1.0000   1.0000
     1.0000   1.0000   1.0000   1.0000   1.0000   1.0000   0.0000   0.0000
     0.0000   0.0000

     the Fermi energy is     8.2943 ev

!    total energy              =    -233.44813346 Ry
     Harris-Foulkes estimate   =    -233.44813365 Ry
     estimated scf accuracy    <       0.00000049 Ry

     The total energy is the sum of the following terms:

     one-electron contribution =     -95.31659160 Ry
     hartree contribution      =      58.35648943 Ry
     xc contribution           =     -28.70668966 Ry
     ewald contribution        =    -167.78134157 Ry
     smearing contrib. (-TS)   =      -0.00000006 Ry

     convergence has been achieved in   5 iterations

     Writing output data file Sn.save
 
     init_run     :     12.84s CPU     13.73s WALL (       1 calls)
     electrons    :    263.98s CPU    281.01s WALL (       1 calls)

     Called by init_run:
     wfcinit      :     12.61s CPU     13.42s WALL (       1 calls)
     potinit      :      0.02s CPU      0.02s WALL (       1 calls)

     Called by electrons:
     c_bands      :    235.96s CPU    252.44s WALL (       5 calls)
     sum_band     :     27.93s CPU     28.37s WALL (       5 calls)
     v_of_rho     :      0.07s CPU      0.07s WALL (       6 calls)
     v_h          :      0.00s CPU      0.01s WALL (       6 calls)
     v_xc         :      0.07s CPU      0.07s WALL (       6 calls)
     mix_rho      :      0.01s CPU      0.01s WALL (       5 calls)

     Called by c_bands:
     init_us_2    :      1.34s CPU      1.45s WALL (    8272 calls)
     cegterg      :    227.41s CPU    243.43s WALL (    3760 calls)

     Called by sum_band:

     Called by *egterg:
     h_psi        :    196.81s CPU    212.86s WALL (   16339 calls)
     g_psi        :      0.44s CPU      0.45s WALL (   11827 calls)
     cdiaghg      :     14.18s CPU     14.28s WALL (   15587 calls)
     cegterg:over :     13.33s CPU     13.49s WALL (   11827 calls)
     cegterg:upda :      3.25s CPU      3.28s WALL (   11827 calls)
     cegterg:last :      1.80s CPU      1.81s WALL (    4631 calls)

     Called by h_psi:
     h_psi:vloc   :    185.92s CPU    201.46s WALL (   16339 calls)
     h_psi:vnl    :     10.55s CPU     11.04s WALL (   16339 calls)
     add_vuspsi   :      3.15s CPU      3.26s WALL (   16339 calls)

     General routines
     calbec       :      7.29s CPU      7.68s WALL (   16339 calls)
     fft          :      0.06s CPU      0.07s WALL (      65 calls)
     fftw         :    201.40s CPU    216.67s WALL (  534244 calls)
     davcio       :      0.03s CPU      0.56s WALL (     752 calls)
 
     Parallel routines
     fft_scatter  :    112.06s CPU    120.39s WALL (  534309 calls)
 
     PWSCF        :  4m37.98s CPU     4m56.64s WALL

 
   This run was terminated on:  22:53:42  27Feb2020            

=------------------------------------------------------------------------------=
   JOB DONE.
=------------------------------------------------------------------------------=
