
     Program PWSCF v.5.4.0 starts on  8Mar2020 at 22:44:26 

     This program is part of the open-source Quantum ESPRESSO suite
     for quantum simulation of materials; please cite
         "P. Giannozzi et al., J. Phys.:Condens. Matter 21 395502 (2009);
          URL http://www.quantum-espresso.org", 
     in publications or presentations arising from this work. More details at
     http://www.quantum-espresso.org/quote

     Parallel version (MPI & OpenMP), running on      16 processor cores
     Number of MPI processes:                16
     Threads/MPI process:                     1
     R & G space division:  proc/nbgrp/npool/nimage =      16
     Waiting for input...
     Reading input from standard input
Warning: card &IONS ignored
Warning: card / ignored
Warning: card &CELL ignored
Warning: card / ignored

     Current dimensions of program PWSCF are:
     Max number of different atomic species (ntypx) = 10
     Max number of k-points (npk) =  40000
     Max angular momentum in pseudopotentials (lmaxx) =  3
               file Sn.rel-pbe-dn-kjpaw_psl.1.0.0.UPF: wavefunction(s)  5S 5P 5P 4D 4D renormalized

     Subspace diagonalization in iterative solution of the eigenvalue problem:
     a serial algorithm will be used

 
     Parallelization info
     --------------------
     sticks:   dense  smooth     PW     G-vecs:    dense   smooth      PW
     Min          52      52     15                 1019     1019     168
     Max          53      53     16                 1023     1023     172
     Sum         847     847    253                16361    16361    2733
 

     Title: 
     Sn                                                                         


     bravais-lattice index     =            0
     lattice parameter (alat)  =       8.7524  a.u.
     unit-cell volume          =     474.0897 (a.u.)^3
     number of atoms/cell      =            2
     number of atomic types    =            1
     number of electrons       =        28.00
     number of Kohn-Sham states=           36
     kinetic-energy cutoff     =      40.0000  Ry
     charge density cutoff     =     160.0000  Ry
     convergence threshold     =      1.0E-06
     mixing beta               =       0.7000
     number of iterations used =            8  plain     mixing
     Exchange-correlation      =  SLA  PW   PBX  PBC ( 1  4  3  4 0 0)
     Non magnetic calculation with spin-orbit


     celldm(1)=   8.752360  celldm(2)=   0.000000  celldm(3)=   0.000000
     celldm(4)=   0.000000  celldm(5)=   0.000000  celldm(6)=   0.000000

     crystal axes: (cart. coord. in units of alat)
               a(1) = (   0.000000   0.707107   0.707107 )  
               a(2) = (   0.707107   0.000000   0.707107 )  
               a(3) = (   0.707107   0.707107   0.000000 )  

     reciprocal axes: (cart. coord. in units 2 pi/alat)
               b(1) = ( -0.707107  0.707107  0.707107 )  
               b(2) = (  0.707107 -0.707107  0.707107 )  
               b(3) = (  0.707107  0.707107 -0.707107 )  


     PseudoPot. # 1 for Sn read from file:
     ../PseudopotentialDatabase/Sn.rel-pbe-dn-kjpaw_psl.1.0.0.UPF
     MD5 check sum: 6bcaba2b82cf8d008985ef5bb9854e68
     Pseudo is Projector augmented-wave + core cor, Zval = 14.0
     Generated using "atomic" code by A. Dal Corso  v.6.3
     Shape of augmentation charge: PSQ
     Using radial grid of 1243 points, 10 beta functions with: 
                l(1) =   0
                l(2) =   0
                l(3) =   1
                l(4) =   1
                l(5) =   1
                l(6) =   1
                l(7) =   2
                l(8) =   2
                l(9) =   2
               l(10) =   2
     Q(r) pseudized with 0 coefficients 


     atomic species   valence    mass     pseudopotential
        Sn            14.00   118.71000     Sn( 1.00)

     48 Sym. Ops., with inversion, found (24 have fractional translation)


                                    s                        frac. trans.

      isym =  1     identity                                     

 cryst.   s( 1) = (     1          0          0      )
                  (     0          1          0      )
                  (     0          0          1      )

 cart.    s( 1) = (  1.0000000  0.0000000  0.0000000 )
                  (  0.0000000  1.0000000  0.0000000 )
                  (  0.0000000  0.0000000  1.0000000 )


      isym =  2     180 deg rotation - cart. axis [0,0,1]        

 cryst.   s( 2) = (     0          1         -1      )
                  (     1          0         -1      )
                  (     0          0         -1      )

 cart.    s( 2) = ( -1.0000000  0.0000000  0.0000000 )
                  (  0.0000000 -1.0000000  0.0000000 )
                  (  0.0000000  0.0000000  1.0000000 )


      isym =  3     180 deg rotation - cart. axis [0,1,0]        

 cryst.   s( 3) = (     0         -1          1      )
                  (     0         -1          0      )
                  (     1         -1          0      )

 cart.    s( 3) = ( -1.0000000  0.0000000  0.0000000 )
                  (  0.0000000  1.0000000  0.0000000 )
                  (  0.0000000  0.0000000 -1.0000000 )


      isym =  4     180 deg rotation - cart. axis [1,0,0]        

 cryst.   s( 4) = (    -1          0          0      )
                  (    -1          0          1      )
                  (    -1          1          0      )

 cart.    s( 4) = (  1.0000000  0.0000000  0.0000000 )
                  (  0.0000000 -1.0000000  0.0000000 )
                  (  0.0000000  0.0000000 -1.0000000 )


      isym =  5     180 deg rotation - cart. axis [1,1,0]        

 cryst.   s( 5) = (    -1          0          1      )    f =( -0.2500000 )
                  (     0         -1          1      )       ( -0.2500000 )
                  (     0          0          1      )       ( -0.2500000 )

 cart.    s( 5) = (  0.0000000  1.0000000  0.0000000 )    f =( -0.3535534 )
                  (  1.0000000  0.0000000  0.0000000 )       ( -0.3535534 )
                  (  0.0000000  0.0000000 -1.0000000 )       ( -0.3535534 )


      isym =  6     180 deg rotation - cart. axis [1,-1,0]       

 cryst.   s( 6) = (     0         -1          0      )    f =( -0.2500000 )
                  (    -1          0          0      )       ( -0.2500000 )
                  (     0          0         -1      )       ( -0.2500000 )

 cart.    s( 6) = (  0.0000000 -1.0000000  0.0000000 )    f =( -0.3535534 )
                  ( -1.0000000  0.0000000  0.0000000 )       ( -0.3535534 )
                  (  0.0000000  0.0000000 -1.0000000 )       ( -0.3535534 )


      isym =  7      90 deg rotation - cart. axis [0,0,-1]       

 cryst.   s( 7) = (     0          1          0      )    f =( -0.2500000 )
                  (     0          1         -1      )       ( -0.2500000 )
                  (    -1          1          0      )       ( -0.2500000 )

 cart.    s( 7) = (  0.0000000  1.0000000  0.0000000 )    f =( -0.3535534 )
                  ( -1.0000000  0.0000000  0.0000000 )       ( -0.3535534 )
                  (  0.0000000  0.0000000  1.0000000 )       ( -0.3535534 )


      isym =  8      90 deg rotation - cart. axis [0,0,1]        

 cryst.   s( 8) = (     1          0         -1      )    f =( -0.2500000 )
                  (     1          0          0      )       ( -0.2500000 )
                  (     1         -1          0      )       ( -0.2500000 )

 cart.    s( 8) = (  0.0000000 -1.0000000  0.0000000 )    f =( -0.3535534 )
                  (  1.0000000  0.0000000  0.0000000 )       ( -0.3535534 )
                  (  0.0000000  0.0000000  1.0000000 )       ( -0.3535534 )


      isym =  9     180 deg rotation - cart. axis [1,0,1]        

 cryst.   s( 9) = (    -1          1          0      )    f =( -0.2500000 )
                  (     0          1          0      )       ( -0.2500000 )
                  (     0          1         -1      )       ( -0.2500000 )

 cart.    s( 9) = (  0.0000000  0.0000000  1.0000000 )    f =( -0.3535534 )
                  (  0.0000000 -1.0000000  0.0000000 )       ( -0.3535534 )
                  (  1.0000000  0.0000000  0.0000000 )       ( -0.3535534 )


      isym = 10     180 deg rotation - cart. axis [-1,0,1]       

 cryst.   s(10) = (     0          0         -1      )    f =( -0.2500000 )
                  (     0         -1          0      )       ( -0.2500000 )
                  (    -1          0          0      )       ( -0.2500000 )

 cart.    s(10) = (  0.0000000  0.0000000 -1.0000000 )    f =( -0.3535534 )
                  (  0.0000000 -1.0000000  0.0000000 )       ( -0.3535534 )
                  ( -1.0000000  0.0000000  0.0000000 )       ( -0.3535534 )


      isym = 11      90 deg rotation - cart. axis [0,1,0]        

 cryst.   s(11) = (     0          0          1      )    f =( -0.2500000 )
                  (    -1          0          1      )       ( -0.2500000 )
                  (     0         -1          1      )       ( -0.2500000 )

 cart.    s(11) = (  0.0000000  0.0000000  1.0000000 )    f =( -0.3535534 )
                  (  0.0000000  1.0000000  0.0000000 )       ( -0.3535534 )
                  ( -1.0000000  0.0000000  0.0000000 )       ( -0.3535534 )


      isym = 12      90 deg rotation - cart. axis [0,-1,0]       

 cryst.   s(12) = (     1         -1          0      )    f =( -0.2500000 )
                  (     1          0         -1      )       ( -0.2500000 )
                  (     1          0          0      )       ( -0.2500000 )

 cart.    s(12) = (  0.0000000  0.0000000 -1.0000000 )    f =( -0.3535534 )
                  (  0.0000000  1.0000000  0.0000000 )       ( -0.3535534 )
                  (  1.0000000  0.0000000  0.0000000 )       ( -0.3535534 )


      isym = 13     180 deg rotation - cart. axis [0,1,1]        

 cryst.   s(13) = (     1          0          0      )    f =( -0.2500000 )
                  (     1         -1          0      )       ( -0.2500000 )
                  (     1          0         -1      )       ( -0.2500000 )

 cart.    s(13) = ( -1.0000000  0.0000000  0.0000000 )    f =( -0.3535534 )
                  (  0.0000000  0.0000000  1.0000000 )       ( -0.3535534 )
                  (  0.0000000  1.0000000  0.0000000 )       ( -0.3535534 )


      isym = 14     180 deg rotation - cart. axis [0,1,-1]       

 cryst.   s(14) = (    -1          0          0      )    f =( -0.2500000 )
                  (     0          0         -1      )       ( -0.2500000 )
                  (     0         -1          0      )       ( -0.2500000 )

 cart.    s(14) = ( -1.0000000  0.0000000  0.0000000 )    f =( -0.3535534 )
                  (  0.0000000  0.0000000 -1.0000000 )       ( -0.3535534 )
                  (  0.0000000 -1.0000000  0.0000000 )       ( -0.3535534 )


      isym = 15      90 deg rotation - cart. axis [-1,0,0]       

 cryst.   s(15) = (     0         -1          1      )    f =( -0.2500000 )
                  (     0          0          1      )       ( -0.2500000 )
                  (    -1          0          1      )       ( -0.2500000 )

 cart.    s(15) = (  1.0000000  0.0000000  0.0000000 )    f =( -0.3535534 )
                  (  0.0000000  0.0000000  1.0000000 )       ( -0.3535534 )
                  (  0.0000000 -1.0000000  0.0000000 )       ( -0.3535534 )


      isym = 16      90 deg rotation - cart. axis [1,0,0]        

 cryst.   s(16) = (     0          1         -1      )    f =( -0.2500000 )
                  (    -1          1          0      )       ( -0.2500000 )
                  (     0          1          0      )       ( -0.2500000 )

 cart.    s(16) = (  1.0000000  0.0000000  0.0000000 )    f =( -0.3535534 )
                  (  0.0000000  0.0000000 -1.0000000 )       ( -0.3535534 )
                  (  0.0000000  1.0000000  0.0000000 )       ( -0.3535534 )


      isym = 17     120 deg rotation - cart. axis [-1,-1,-1]     

 cryst.   s(17) = (     0          0          1      )
                  (     1          0          0      )
                  (     0          1          0      )

 cart.    s(17) = (  0.0000000  1.0000000  0.0000000 )
                  (  0.0000000  0.0000000  1.0000000 )
                  (  1.0000000  0.0000000  0.0000000 )


      isym = 18     120 deg rotation - cart. axis [-1,1,1]       

 cryst.   s(18) = (     1         -1          0      )
                  (     0         -1          1      )
                  (     0         -1          0      )

 cart.    s(18) = (  0.0000000 -1.0000000  0.0000000 )
                  (  0.0000000  0.0000000  1.0000000 )
                  ( -1.0000000  0.0000000  0.0000000 )


      isym = 19     120 deg rotation - cart. axis [1,1,-1]       

 cryst.   s(19) = (    -1          1          0      )
                  (    -1          0          0      )
                  (    -1          0          1      )

 cart.    s(19) = (  0.0000000  1.0000000  0.0000000 )
                  (  0.0000000  0.0000000 -1.0000000 )
                  ( -1.0000000  0.0000000  0.0000000 )


      isym = 20     120 deg rotation - cart. axis [1,-1,1]       

 cryst.   s(20) = (     0          0         -1      )
                  (     0          1         -1      )
                  (     1          0         -1      )

 cart.    s(20) = (  0.0000000 -1.0000000  0.0000000 )
                  (  0.0000000  0.0000000 -1.0000000 )
                  (  1.0000000  0.0000000  0.0000000 )


      isym = 21     120 deg rotation - cart. axis [1,1,1]        

 cryst.   s(21) = (     0          1          0      )
                  (     0          0          1      )
                  (     1          0          0      )

 cart.    s(21) = (  0.0000000  0.0000000  1.0000000 )
                  (  1.0000000  0.0000000  0.0000000 )
                  (  0.0000000  1.0000000  0.0000000 )


      isym = 22     120 deg rotation - cart. axis [-1,1,-1]      

 cryst.   s(22) = (    -1          0          1      )
                  (    -1          1          0      )
                  (    -1          0          0      )

 cart.    s(22) = (  0.0000000  0.0000000  1.0000000 )
                  ( -1.0000000  0.0000000  0.0000000 )
                  (  0.0000000 -1.0000000  0.0000000 )


      isym = 23     120 deg rotation - cart. axis [1,-1,-1]      

 cryst.   s(23) = (     1          0         -1      )
                  (     0          0         -1      )
                  (     0          1         -1      )

 cart.    s(23) = (  0.0000000  0.0000000 -1.0000000 )
                  ( -1.0000000  0.0000000  0.0000000 )
                  (  0.0000000  1.0000000  0.0000000 )


      isym = 24     120 deg rotation - cart. axis [-1,-1,1]      

 cryst.   s(24) = (     0         -1          0      )
                  (     1         -1          0      )
                  (     0         -1          1      )

 cart.    s(24) = (  0.0000000  0.0000000 -1.0000000 )
                  (  1.0000000  0.0000000  0.0000000 )
                  (  0.0000000 -1.0000000  0.0000000 )


      isym = 25     inversion                                    

 cryst.   s(25) = (    -1          0          0      )    f =( -0.2500000 )
                  (     0         -1          0      )       ( -0.2500000 )
                  (     0          0         -1      )       ( -0.2500000 )

 cart.    s(25) = ( -1.0000000  0.0000000  0.0000000 )    f =( -0.3535534 )
                  (  0.0000000 -1.0000000  0.0000000 )       ( -0.3535534 )
                  (  0.0000000  0.0000000 -1.0000000 )       ( -0.3535534 )


      isym = 26     inv. 180 deg rotation - cart. axis [0,0,1]   

 cryst.   s(26) = (     0         -1          1      )    f =( -0.2500000 )
                  (    -1          0          1      )       ( -0.2500000 )
                  (     0          0          1      )       ( -0.2500000 )

 cart.    s(26) = (  1.0000000  0.0000000  0.0000000 )    f =( -0.3535534 )
                  (  0.0000000  1.0000000  0.0000000 )       ( -0.3535534 )
                  (  0.0000000  0.0000000 -1.0000000 )       ( -0.3535534 )


      isym = 27     inv. 180 deg rotation - cart. axis [0,1,0]   

 cryst.   s(27) = (     0          1         -1      )    f =( -0.2500000 )
                  (     0          1          0      )       ( -0.2500000 )
                  (    -1          1          0      )       ( -0.2500000 )

 cart.    s(27) = (  1.0000000  0.0000000  0.0000000 )    f =( -0.3535534 )
                  (  0.0000000 -1.0000000  0.0000000 )       ( -0.3535534 )
                  (  0.0000000  0.0000000  1.0000000 )       ( -0.3535534 )


      isym = 28     inv. 180 deg rotation - cart. axis [1,0,0]   

 cryst.   s(28) = (     1          0          0      )    f =( -0.2500000 )
                  (     1          0         -1      )       ( -0.2500000 )
                  (     1         -1          0      )       ( -0.2500000 )

 cart.    s(28) = ( -1.0000000  0.0000000  0.0000000 )    f =( -0.3535534 )
                  (  0.0000000  1.0000000  0.0000000 )       ( -0.3535534 )
                  (  0.0000000  0.0000000  1.0000000 )       ( -0.3535534 )


      isym = 29     inv. 180 deg rotation - cart. axis [1,1,0]   

 cryst.   s(29) = (     1          0         -1      )
                  (     0          1         -1      )
                  (     0          0         -1      )

 cart.    s(29) = (  0.0000000 -1.0000000  0.0000000 )
                  ( -1.0000000  0.0000000  0.0000000 )
                  (  0.0000000  0.0000000  1.0000000 )


      isym = 30     inv. 180 deg rotation - cart. axis [1,-1,0]  

 cryst.   s(30) = (     0          1          0      )
                  (     1          0          0      )
                  (     0          0          1      )

 cart.    s(30) = (  0.0000000  1.0000000  0.0000000 )
                  (  1.0000000  0.0000000  0.0000000 )
                  (  0.0000000  0.0000000  1.0000000 )


      isym = 31     inv.  90 deg rotation - cart. axis [0,0,-1]  

 cryst.   s(31) = (     0         -1          0      )
                  (     0         -1          1      )
                  (     1         -1          0      )

 cart.    s(31) = (  0.0000000 -1.0000000  0.0000000 )
                  (  1.0000000  0.0000000  0.0000000 )
                  (  0.0000000  0.0000000 -1.0000000 )


      isym = 32     inv.  90 deg rotation - cart. axis [0,0,1]   

 cryst.   s(32) = (    -1          0          1      )
                  (    -1          0          0      )
                  (    -1          1          0      )

 cart.    s(32) = (  0.0000000  1.0000000  0.0000000 )
                  ( -1.0000000  0.0000000  0.0000000 )
                  (  0.0000000  0.0000000 -1.0000000 )


      isym = 33     inv. 180 deg rotation - cart. axis [1,0,1]   

 cryst.   s(33) = (     1         -1          0      )
                  (     0         -1          0      )
                  (     0         -1          1      )

 cart.    s(33) = (  0.0000000  0.0000000 -1.0000000 )
                  (  0.0000000  1.0000000  0.0000000 )
                  ( -1.0000000  0.0000000  0.0000000 )


      isym = 34     inv. 180 deg rotation - cart. axis [-1,0,1]  

 cryst.   s(34) = (     0          0          1      )
                  (     0          1          0      )
                  (     1          0          0      )

 cart.    s(34) = (  0.0000000  0.0000000  1.0000000 )
                  (  0.0000000  1.0000000  0.0000000 )
                  (  1.0000000  0.0000000  0.0000000 )


      isym = 35     inv.  90 deg rotation - cart. axis [0,1,0]   

 cryst.   s(35) = (     0          0         -1      )
                  (     1          0         -1      )
                  (     0          1         -1      )

 cart.    s(35) = (  0.0000000  0.0000000 -1.0000000 )
                  (  0.0000000 -1.0000000  0.0000000 )
                  (  1.0000000  0.0000000  0.0000000 )


      isym = 36     inv.  90 deg rotation - cart. axis [0,-1,0]  

 cryst.   s(36) = (    -1          1          0      )
                  (    -1          0          1      )
                  (    -1          0          0      )

 cart.    s(36) = (  0.0000000  0.0000000  1.0000000 )
                  (  0.0000000 -1.0000000  0.0000000 )
                  ( -1.0000000  0.0000000  0.0000000 )


      isym = 37     inv. 180 deg rotation - cart. axis [0,1,1]   

 cryst.   s(37) = (    -1          0          0      )
                  (    -1          1          0      )
                  (    -1          0          1      )

 cart.    s(37) = (  1.0000000  0.0000000  0.0000000 )
                  (  0.0000000  0.0000000 -1.0000000 )
                  (  0.0000000 -1.0000000  0.0000000 )


      isym = 38     inv. 180 deg rotation - cart. axis [0,1,-1]  

 cryst.   s(38) = (     1          0          0      )
                  (     0          0          1      )
                  (     0          1          0      )

 cart.    s(38) = (  1.0000000  0.0000000  0.0000000 )
                  (  0.0000000  0.0000000  1.0000000 )
                  (  0.0000000  1.0000000  0.0000000 )


      isym = 39     inv.  90 deg rotation - cart. axis [-1,0,0]  

 cryst.   s(39) = (     0          1         -1      )
                  (     0          0         -1      )
                  (     1          0         -1      )

 cart.    s(39) = ( -1.0000000  0.0000000  0.0000000 )
                  (  0.0000000  0.0000000 -1.0000000 )
                  (  0.0000000  1.0000000  0.0000000 )


      isym = 40     inv.  90 deg rotation - cart. axis [1,0,0]   

 cryst.   s(40) = (     0         -1          1      )
                  (     1         -1          0      )
                  (     0         -1          0      )

 cart.    s(40) = ( -1.0000000  0.0000000  0.0000000 )
                  (  0.0000000  0.0000000  1.0000000 )
                  (  0.0000000 -1.0000000  0.0000000 )


      isym = 41     inv. 120 deg rotation - cart. axis [-1,-1,-1]

 cryst.   s(41) = (     0          0         -1      )    f =( -0.2500000 )
                  (    -1          0          0      )       ( -0.2500000 )
                  (     0         -1          0      )       ( -0.2500000 )

 cart.    s(41) = (  0.0000000 -1.0000000  0.0000000 )    f =( -0.3535534 )
                  (  0.0000000  0.0000000 -1.0000000 )       ( -0.3535534 )
                  ( -1.0000000  0.0000000  0.0000000 )       ( -0.3535534 )


      isym = 42     inv. 120 deg rotation - cart. axis [-1,1,1]  

 cryst.   s(42) = (    -1          1          0      )    f =( -0.2500000 )
                  (     0          1         -1      )       ( -0.2500000 )
                  (     0          1          0      )       ( -0.2500000 )

 cart.    s(42) = (  0.0000000  1.0000000  0.0000000 )    f =( -0.3535534 )
                  (  0.0000000  0.0000000 -1.0000000 )       ( -0.3535534 )
                  (  1.0000000  0.0000000  0.0000000 )       ( -0.3535534 )


      isym = 43     inv. 120 deg rotation - cart. axis [1,1,-1]  

 cryst.   s(43) = (     1         -1          0      )    f =( -0.2500000 )
                  (     1          0          0      )       ( -0.2500000 )
                  (     1          0         -1      )       ( -0.2500000 )

 cart.    s(43) = (  0.0000000 -1.0000000  0.0000000 )    f =( -0.3535534 )
                  (  0.0000000  0.0000000  1.0000000 )       ( -0.3535534 )
                  (  1.0000000  0.0000000  0.0000000 )       ( -0.3535534 )


      isym = 44     inv. 120 deg rotation - cart. axis [1,-1,1]  

 cryst.   s(44) = (     0          0          1      )    f =( -0.2500000 )
                  (     0         -1          1      )       ( -0.2500000 )
                  (    -1          0          1      )       ( -0.2500000 )

 cart.    s(44) = (  0.0000000  1.0000000  0.0000000 )    f =( -0.3535534 )
                  (  0.0000000  0.0000000  1.0000000 )       ( -0.3535534 )
                  ( -1.0000000  0.0000000  0.0000000 )       ( -0.3535534 )


      isym = 45     inv. 120 deg rotation - cart. axis [1,1,1]   

 cryst.   s(45) = (     0         -1          0      )    f =( -0.2500000 )
                  (     0          0         -1      )       ( -0.2500000 )
                  (    -1          0          0      )       ( -0.2500000 )

 cart.    s(45) = (  0.0000000  0.0000000 -1.0000000 )    f =( -0.3535534 )
                  ( -1.0000000  0.0000000  0.0000000 )       ( -0.3535534 )
                  (  0.0000000 -1.0000000  0.0000000 )       ( -0.3535534 )


      isym = 46     inv. 120 deg rotation - cart. axis [-1,1,-1] 

 cryst.   s(46) = (     1          0         -1      )    f =( -0.2500000 )
                  (     1         -1          0      )       ( -0.2500000 )
                  (     1          0          0      )       ( -0.2500000 )

 cart.    s(46) = (  0.0000000  0.0000000 -1.0000000 )    f =( -0.3535534 )
                  (  1.0000000  0.0000000  0.0000000 )       ( -0.3535534 )
                  (  0.0000000  1.0000000  0.0000000 )       ( -0.3535534 )


      isym = 47     inv. 120 deg rotation - cart. axis [1,-1,-1] 

 cryst.   s(47) = (    -1          0          1      )    f =( -0.2500000 )
                  (     0          0          1      )       ( -0.2500000 )
                  (     0         -1          1      )       ( -0.2500000 )

 cart.    s(47) = (  0.0000000  0.0000000  1.0000000 )    f =( -0.3535534 )
                  (  1.0000000  0.0000000  0.0000000 )       ( -0.3535534 )
                  (  0.0000000 -1.0000000  0.0000000 )       ( -0.3535534 )


      isym = 48     inv. 120 deg rotation - cart. axis [-1,-1,1] 

 cryst.   s(48) = (     0          1          0      )    f =( -0.2500000 )
                  (    -1          1          0      )       ( -0.2500000 )
                  (     0          1         -1      )       ( -0.2500000 )

 cart.    s(48) = (  0.0000000  0.0000000  1.0000000 )    f =( -0.3535534 )
                  ( -1.0000000  0.0000000  0.0000000 )       ( -0.3535534 )
                  (  0.0000000  1.0000000  0.0000000 )       ( -0.3535534 )


   Cartesian axes

     site n.     atom                  positions (alat units)
         1           Sn  tau(   1) = (   0.0000000   0.0000000   0.0000000  )
         2           Sn  tau(   2) = (   0.3535534   0.3535534   0.3535534  )

   Crystallographic axes

     site n.     atom                  positions (cryst. coord.)
         1           Sn  tau(   1) = (  0.0000000  0.0000000  0.0000000  )
         2           Sn  tau(   2) = (  0.2500000  0.2500000  0.2500000  )

     number of k points=   220  gaussian smearing, width (Ry)=  0.0001
                       cart. coord. in units 2pi/alat
        k(    1) = (   0.0000000   0.0000000   0.0000000), wk =   0.0001458
        k(    2) = (   0.0372161   0.0372161  -0.0372161), wk =   0.0011664
        k(    3) = (   0.0744323   0.0744323  -0.0744323), wk =   0.0011664
        k(    4) = (   0.1116484   0.1116484  -0.1116484), wk =   0.0011664
        k(    5) = (   0.1488646   0.1488646  -0.1488646), wk =   0.0011664
        k(    6) = (   0.1860807   0.1860807  -0.1860807), wk =   0.0011664
        k(    7) = (   0.2232969   0.2232969  -0.2232969), wk =   0.0011664
        k(    8) = (   0.2605130   0.2605130  -0.2605130), wk =   0.0011664
        k(    9) = (   0.2977292   0.2977292  -0.2977292), wk =   0.0011664
        k(   10) = (   0.3349453   0.3349453  -0.3349453), wk =   0.0011664
        k(   11) = (   0.0744323   0.0000000   0.0000000), wk =   0.0008748
        k(   12) = (   0.1116484   0.0372161  -0.0372161), wk =   0.0034991
        k(   13) = (   0.1488646   0.0744323  -0.0744323), wk =   0.0034991
        k(   14) = (   0.1860807   0.1116484  -0.1116484), wk =   0.0034991
        k(   15) = (   0.2232969   0.1488646  -0.1488646), wk =   0.0034991
        k(   16) = (   0.2605130   0.1860807  -0.1860807), wk =   0.0034991
        k(   17) = (   0.2977292   0.2232969  -0.2232969), wk =   0.0034991
        k(   18) = (   0.3349453   0.2605130  -0.2605130), wk =   0.0034991
        k(   19) = (   0.3721615   0.2977292  -0.2977292), wk =   0.0034991
        k(   20) = (  -0.2977292  -0.3721615   0.3721615), wk =   0.0034991
        k(   21) = (  -0.2605130  -0.3349453   0.3349453), wk =   0.0034991
        k(   22) = (  -0.2232969  -0.2977292   0.2977292), wk =   0.0034991
        k(   23) = (  -0.1860807  -0.2605130   0.2605130), wk =   0.0034991
        k(   24) = (  -0.1488646  -0.2232969   0.2232969), wk =   0.0034991
        k(   25) = (  -0.1116484  -0.1860807   0.1860807), wk =   0.0034991
        k(   26) = (  -0.0744323  -0.1488646   0.1488646), wk =   0.0034991
        k(   27) = (  -0.0372161  -0.1116484   0.1116484), wk =   0.0034991
        k(   28) = (  -0.0000000  -0.0744323   0.0744323), wk =   0.0017495
        k(   29) = (   0.1488646   0.0000000   0.0000000), wk =   0.0008748
        k(   30) = (   0.1860807   0.0372161  -0.0372161), wk =   0.0034991
        k(   31) = (   0.2232969   0.0744323  -0.0744323), wk =   0.0034991
        k(   32) = (   0.2605130   0.1116484  -0.1116484), wk =   0.0034991
        k(   33) = (   0.2977292   0.1488646  -0.1488646), wk =   0.0034991
        k(   34) = (   0.3349453   0.1860807  -0.1860807), wk =   0.0034991
        k(   35) = (   0.3721615   0.2232969  -0.2232969), wk =   0.0034991
        k(   36) = (   0.4093776   0.2605130  -0.2605130), wk =   0.0034991
        k(   37) = (  -0.2605130  -0.4093776   0.4093776), wk =   0.0034991
        k(   38) = (  -0.2232969  -0.3721615   0.3721615), wk =   0.0034991
        k(   39) = (  -0.1860807  -0.3349453   0.3349453), wk =   0.0034991
        k(   40) = (  -0.1488646  -0.2977292   0.2977292), wk =   0.0034991
        k(   41) = (  -0.1116484  -0.2605130   0.2605130), wk =   0.0034991
        k(   42) = (  -0.0744323  -0.2232969   0.2232969), wk =   0.0034991
        k(   43) = (  -0.0372161  -0.1860807   0.1860807), wk =   0.0034991
        k(   44) = (   0.0000000  -0.1488646   0.1488646), wk =   0.0017495
        k(   45) = (   0.2232969   0.0000000   0.0000000), wk =   0.0008748
        k(   46) = (   0.2605130   0.0372161  -0.0372161), wk =   0.0034991
        k(   47) = (   0.2977292   0.0744323  -0.0744323), wk =   0.0034991
        k(   48) = (   0.3349453   0.1116484  -0.1116484), wk =   0.0034991
        k(   49) = (   0.3721615   0.1488646  -0.1488646), wk =   0.0034991
        k(   50) = (   0.4093776   0.1860807  -0.1860807), wk =   0.0034991
        k(   51) = (   0.4465938   0.2232969  -0.2232969), wk =   0.0034991
        k(   52) = (  -0.2232969  -0.4465938   0.4465938), wk =   0.0034991
        k(   53) = (  -0.1860807  -0.4093776   0.4093776), wk =   0.0034991
        k(   54) = (  -0.1488646  -0.3721615   0.3721615), wk =   0.0034991
        k(   55) = (  -0.1116484  -0.3349453   0.3349453), wk =   0.0034991
        k(   56) = (  -0.0744323  -0.2977292   0.2977292), wk =   0.0034991
        k(   57) = (  -0.0372161  -0.2605130   0.2605130), wk =   0.0034991
        k(   58) = (  -0.0000000  -0.2232969   0.2232969), wk =   0.0017495
        k(   59) = (   0.2977292   0.0000000   0.0000000), wk =   0.0008748
        k(   60) = (   0.3349453   0.0372161  -0.0372161), wk =   0.0034991
        k(   61) = (   0.3721615   0.0744323  -0.0744323), wk =   0.0034991
        k(   62) = (   0.4093776   0.1116484  -0.1116484), wk =   0.0034991
        k(   63) = (   0.4465938   0.1488646  -0.1488646), wk =   0.0034991
        k(   64) = (   0.4838099   0.1860807  -0.1860807), wk =   0.0034991
        k(   65) = (  -0.1860807  -0.4838099   0.4838099), wk =   0.0034991
        k(   66) = (  -0.1488646  -0.4465938   0.4465938), wk =   0.0034991
        k(   67) = (  -0.1116484  -0.4093776   0.4093776), wk =   0.0034991
        k(   68) = (  -0.0744323  -0.3721615   0.3721615), wk =   0.0034991
        k(   69) = (  -0.0372161  -0.3349453   0.3349453), wk =   0.0034991
        k(   70) = (   0.0000000  -0.2977292   0.2977292), wk =   0.0017495
        k(   71) = (   0.3721615   0.0000000   0.0000000), wk =   0.0008748
        k(   72) = (   0.4093776   0.0372161  -0.0372161), wk =   0.0034991
        k(   73) = (   0.4465938   0.0744323  -0.0744323), wk =   0.0034991
        k(   74) = (   0.4838099   0.1116484  -0.1116484), wk =   0.0034991
        k(   75) = (   0.5210260   0.1488646  -0.1488646), wk =   0.0034991
        k(   76) = (  -0.1488646  -0.5210260   0.5210260), wk =   0.0034991
        k(   77) = (  -0.1116484  -0.4838099   0.4838099), wk =   0.0034991
        k(   78) = (  -0.0744323  -0.4465938   0.4465938), wk =   0.0034991
        k(   79) = (  -0.0372161  -0.4093776   0.4093776), wk =   0.0034991
        k(   80) = (  -0.0000000  -0.3721615   0.3721615), wk =   0.0017495
        k(   81) = (   0.4465938   0.0000000   0.0000000), wk =   0.0008748
        k(   82) = (   0.4838099   0.0372161  -0.0372161), wk =   0.0034991
        k(   83) = (   0.5210260   0.0744323  -0.0744323), wk =   0.0034991
        k(   84) = (   0.5582422   0.1116484  -0.1116484), wk =   0.0034991
        k(   85) = (  -0.1116484  -0.5582422   0.5582422), wk =   0.0034991
        k(   86) = (  -0.0744323  -0.5210260   0.5210260), wk =   0.0034991
        k(   87) = (  -0.0372161  -0.4838099   0.4838099), wk =   0.0034991
        k(   88) = (   0.0000000  -0.4465938   0.4465938), wk =   0.0017495
        k(   89) = (   0.5210260   0.0000000   0.0000000), wk =   0.0008748
        k(   90) = (   0.5582422   0.0372161  -0.0372161), wk =   0.0034991
        k(   91) = (   0.5954583   0.0744323  -0.0744323), wk =   0.0034991
        k(   92) = (  -0.0744323  -0.5954583   0.5954583), wk =   0.0034991
        k(   93) = (  -0.0372161  -0.5582422   0.5582422), wk =   0.0034991
        k(   94) = (  -0.0000000  -0.5210260   0.5210260), wk =   0.0017495
        k(   95) = (   0.5954583   0.0000000   0.0000000), wk =   0.0008748
        k(   96) = (   0.6326745   0.0372161  -0.0372161), wk =   0.0034991
        k(   97) = (  -0.0372161  -0.6326745   0.6326745), wk =   0.0034991
        k(   98) = (   0.0000000  -0.5954583   0.5954583), wk =   0.0017495
        k(   99) = (   0.6698906   0.0000000   0.0000000), wk =   0.0008748
        k(  100) = (   0.0000000  -0.6698906   0.6698906), wk =   0.0017495
        k(  101) = (   0.1488646   0.0744323   0.0000000), wk =   0.0034991
        k(  102) = (   0.1860807   0.1116484  -0.0372161), wk =   0.0069981
        k(  103) = (   0.2232969   0.1488646  -0.0744323), wk =   0.0069981
        k(  104) = (   0.2605130   0.1860807  -0.1116484), wk =   0.0069981
        k(  105) = (   0.2977292   0.2232969  -0.1488646), wk =   0.0069981
        k(  106) = (   0.3349453   0.2605130  -0.1860807), wk =   0.0069981
        k(  107) = (   0.3721615   0.2977292  -0.2232969), wk =   0.0069981
        k(  108) = (  -0.2977292  -0.3721615   0.4465938), wk =   0.0069981
        k(  109) = (   0.2232969   0.0744323   0.0000000), wk =   0.0034991
        k(  110) = (   0.2605130   0.1116484  -0.0372161), wk =   0.0069981
        k(  111) = (   0.2977292   0.1488646  -0.0744323), wk =   0.0069981
        k(  112) = (   0.3349453   0.1860807  -0.1116484), wk =   0.0069981
        k(  113) = (   0.3721615   0.2232969  -0.1488646), wk =   0.0069981
        k(  114) = (   0.4093776   0.2605130  -0.1860807), wk =   0.0069981
        k(  115) = (  -0.2605130  -0.4093776   0.4838099), wk =   0.0069981
        k(  116) = (  -0.2232969  -0.3721615   0.4465938), wk =   0.0069981
        k(  117) = (  -0.1860807  -0.3349453   0.4093776), wk =   0.0069981
        k(  118) = (  -0.1488646  -0.2977292   0.3721615), wk =   0.0069981
        k(  119) = (  -0.1116484  -0.2605130   0.3349453), wk =   0.0069981
        k(  120) = (  -0.0744323  -0.2232969   0.2977292), wk =   0.0069981
        k(  121) = (  -0.0372161  -0.1860807   0.2605130), wk =   0.0069981
        k(  122) = (   0.0000000  -0.1488646   0.2232969), wk =   0.0034991
        k(  123) = (   0.2977292   0.0744323  -0.0000000), wk =   0.0034991
        k(  124) = (   0.3349453   0.1116484  -0.0372161), wk =   0.0069981
        k(  125) = (   0.3721615   0.1488646  -0.0744323), wk =   0.0069981
        k(  126) = (   0.4093776   0.1860807  -0.1116484), wk =   0.0069981
        k(  127) = (   0.4465938   0.2232969  -0.1488646), wk =   0.0069981
        k(  128) = (  -0.2232969  -0.4465938   0.5210260), wk =   0.0069981
        k(  129) = (  -0.1860807  -0.4093776   0.4838099), wk =   0.0069981
        k(  130) = (  -0.1488646  -0.3721615   0.4465938), wk =   0.0069981
        k(  131) = (  -0.1116484  -0.3349453   0.4093776), wk =   0.0069981
        k(  132) = (  -0.0744323  -0.2977292   0.3721615), wk =   0.0069981
        k(  133) = (  -0.0372161  -0.2605130   0.3349453), wk =   0.0069981
        k(  134) = (  -0.0000000  -0.2232969   0.2977292), wk =   0.0034991
        k(  135) = (   0.3721615   0.0744323   0.0000000), wk =   0.0034991
        k(  136) = (   0.4093776   0.1116484  -0.0372161), wk =   0.0069981
        k(  137) = (   0.4465938   0.1488646  -0.0744323), wk =   0.0069981
        k(  138) = (   0.4838099   0.1860807  -0.1116484), wk =   0.0069981
        k(  139) = (  -0.1860807  -0.4838099   0.5582422), wk =   0.0069981
        k(  140) = (  -0.1488646  -0.4465938   0.5210260), wk =   0.0069981
        k(  141) = (  -0.1116484  -0.4093776   0.4838099), wk =   0.0069981
        k(  142) = (  -0.0744323  -0.3721615   0.4465938), wk =   0.0069981
        k(  143) = (  -0.0372161  -0.3349453   0.4093776), wk =   0.0069981
        k(  144) = (   0.0000000  -0.2977292   0.3721615), wk =   0.0034991
        k(  145) = (   0.4465938   0.0744323   0.0000000), wk =   0.0034991
        k(  146) = (   0.4838099   0.1116484  -0.0372161), wk =   0.0069981
        k(  147) = (   0.5210260   0.1488646  -0.0744323), wk =   0.0069981
        k(  148) = (  -0.1488646  -0.5210260   0.5954583), wk =   0.0069981
        k(  149) = (  -0.1116484  -0.4838099   0.5582422), wk =   0.0069981
        k(  150) = (  -0.0744323  -0.4465938   0.5210260), wk =   0.0069981
        k(  151) = (  -0.0372161  -0.4093776   0.4838099), wk =   0.0069981
        k(  152) = (  -0.0000000  -0.3721615   0.4465938), wk =   0.0034991
        k(  153) = (   0.5210260   0.0744323   0.0000000), wk =   0.0034991
        k(  154) = (   0.5582422   0.1116484  -0.0372161), wk =   0.0069981
        k(  155) = (  -0.1116484  -0.5582422   0.6326745), wk =   0.0069981
        k(  156) = (  -0.0744323  -0.5210260   0.5954583), wk =   0.0069981
        k(  157) = (  -0.0372161  -0.4838099   0.5582422), wk =   0.0069981
        k(  158) = (   0.0000000  -0.4465938   0.5210260), wk =   0.0034991
        k(  159) = (   0.5954583   0.0744323  -0.0000000), wk =   0.0034991
        k(  160) = (  -0.0744323  -0.5954583   0.6698906), wk =   0.0069981
        k(  161) = (  -0.0372161  -0.5582422   0.6326745), wk =   0.0069981
        k(  162) = (  -0.0000000  -0.5210260   0.5954583), wk =   0.0034991
        k(  163) = (  -0.0372161  -0.6326745   0.7071068), wk =   0.0034991
        k(  164) = (   0.0000000  -0.5954583   0.6698906), wk =   0.0034991
        k(  165) = (   0.2977292   0.1488646   0.0000000), wk =   0.0034991
        k(  166) = (   0.3349453   0.1860807  -0.0372161), wk =   0.0069981
        k(  167) = (   0.3721615   0.2232969  -0.0744323), wk =   0.0069981
        k(  168) = (   0.4093776   0.2605130  -0.1116484), wk =   0.0069981
        k(  169) = (  -0.2605130  -0.4093776   0.5582422), wk =   0.0069981
        k(  170) = (  -0.2232969  -0.3721615   0.5210260), wk =   0.0069981
        k(  171) = (   0.3721615   0.1488646   0.0000000), wk =   0.0034991
        k(  172) = (   0.4093776   0.1860807  -0.0372161), wk =   0.0069981
        k(  173) = (   0.4465938   0.2232969  -0.0744323), wk =   0.0069981
        k(  174) = (  -0.2232969  -0.4465938   0.5954583), wk =   0.0069981
        k(  175) = (  -0.1860807  -0.4093776   0.5582422), wk =   0.0069981
        k(  176) = (  -0.1488646  -0.3721615   0.5210260), wk =   0.0069981
        k(  177) = (  -0.1116484  -0.3349453   0.4838099), wk =   0.0069981
        k(  178) = (  -0.0744323  -0.2977292   0.4465938), wk =   0.0069981
        k(  179) = (  -0.0372161  -0.2605130   0.4093776), wk =   0.0069981
        k(  180) = (  -0.0000000  -0.2232969   0.3721615), wk =   0.0034991
        k(  181) = (   0.4465938   0.1488646   0.0000000), wk =   0.0034991
        k(  182) = (   0.4838099   0.1860807  -0.0372161), wk =   0.0069981
        k(  183) = (  -0.1860807  -0.4838099   0.6326745), wk =   0.0069981
        k(  184) = (  -0.1488646  -0.4465938   0.5954583), wk =   0.0069981
        k(  185) = (  -0.1116484  -0.4093776   0.5582422), wk =   0.0069981
        k(  186) = (  -0.0744323  -0.3721615   0.5210260), wk =   0.0069981
        k(  187) = (  -0.0372161  -0.3349453   0.4838099), wk =   0.0069981
        k(  188) = (   0.0000000  -0.2977292   0.4465938), wk =   0.0034991
        k(  189) = (   0.5210260   0.1488646  -0.0000000), wk =   0.0034991
        k(  190) = (  -0.1488646  -0.5210260   0.6698906), wk =   0.0069981
        k(  191) = (  -0.1116484  -0.4838099   0.6326745), wk =   0.0069981
        k(  192) = (  -0.0744323  -0.4465938   0.5954583), wk =   0.0069981
        k(  193) = (  -0.0372161  -0.4093776   0.5582422), wk =   0.0069981
        k(  194) = (  -0.0000000  -0.3721615   0.5210260), wk =   0.0034991
        k(  195) = (  -0.1116484  -0.5582422   0.7071068), wk =   0.0034991
        k(  196) = (  -0.0744323  -0.5210260   0.6698906), wk =   0.0069981
        k(  197) = (  -0.0372161  -0.4838099   0.6326745), wk =   0.0069981
        k(  198) = (   0.0000000  -0.4465938   0.5954583), wk =   0.0034991
        k(  199) = (  -0.0372161  -0.5582422   0.7071068), wk =   0.0034991
        k(  200) = (   0.0000000  -0.5210260   0.6698906), wk =   0.0034991
        k(  201) = (   0.4465938   0.2232969   0.0000000), wk =   0.0034991
        k(  202) = (  -0.2232969  -0.4465938   0.6698906), wk =   0.0069981
        k(  203) = (  -0.1860807  -0.4093776   0.6326745), wk =   0.0069981
        k(  204) = (  -0.1488646  -0.3721615   0.5954583), wk =   0.0069981
        k(  205) = (  -0.1860807  -0.4838099   0.7071068), wk =   0.0034991
        k(  206) = (  -0.1488646  -0.4465938   0.6698906), wk =   0.0069981
        k(  207) = (  -0.1116484  -0.4093776   0.6326745), wk =   0.0069981
        k(  208) = (  -0.0744323  -0.3721615   0.5954583), wk =   0.0069981
        k(  209) = (  -0.0372161  -0.3349453   0.5582422), wk =   0.0069981
        k(  210) = (   0.0000000  -0.2977292   0.5210260), wk =   0.0034991
        k(  211) = (  -0.1116484  -0.4838099   0.7071068), wk =   0.0034991
        k(  212) = (  -0.0744323  -0.4465938   0.6698906), wk =   0.0069981
        k(  213) = (  -0.0372161  -0.4093776   0.6326745), wk =   0.0069981
        k(  214) = (  -0.0000000  -0.3721615   0.5954583), wk =   0.0034991
        k(  215) = (  -0.0372161  -0.4838099   0.7071068), wk =   0.0034991
        k(  216) = (   0.0000000  -0.4465938   0.6698906), wk =   0.0034991
        k(  217) = (  -0.1116484  -0.4093776   0.7071068), wk =   0.0034991
        k(  218) = (  -0.0744323  -0.3721615   0.6698906), wk =   0.0069981
        k(  219) = (  -0.0372161  -0.4093776   0.7071068), wk =   0.0034991
        k(  220) = (   0.0000000  -0.3721615   0.6698906), wk =   0.0034991

                       cryst. coord.
        k(    1) = (   0.0000000   0.0000000   0.0000000), wk =   0.0001458
        k(    2) = (   0.0000000   0.0000000   0.0526316), wk =   0.0011664
        k(    3) = (   0.0000000   0.0000000   0.1052632), wk =   0.0011664
        k(    4) = (   0.0000000   0.0000000   0.1578947), wk =   0.0011664
        k(    5) = (   0.0000000   0.0000000   0.2105263), wk =   0.0011664
        k(    6) = (   0.0000000   0.0000000   0.2631579), wk =   0.0011664
        k(    7) = (   0.0000000   0.0000000   0.3157895), wk =   0.0011664
        k(    8) = (   0.0000000   0.0000000   0.3684211), wk =   0.0011664
        k(    9) = (   0.0000000   0.0000000   0.4210526), wk =   0.0011664
        k(   10) = (   0.0000000   0.0000000   0.4736842), wk =   0.0011664
        k(   11) = (   0.0000000   0.0526316   0.0526316), wk =   0.0008748
        k(   12) = (   0.0000000   0.0526316   0.1052632), wk =   0.0034991
        k(   13) = (   0.0000000   0.0526316   0.1578947), wk =   0.0034991
        k(   14) = (   0.0000000   0.0526316   0.2105263), wk =   0.0034991
        k(   15) = (   0.0000000   0.0526316   0.2631579), wk =   0.0034991
        k(   16) = (   0.0000000   0.0526316   0.3157895), wk =   0.0034991
        k(   17) = (   0.0000000   0.0526316   0.3684211), wk =   0.0034991
        k(   18) = (   0.0000000   0.0526316   0.4210526), wk =   0.0034991
        k(   19) = (   0.0000000   0.0526316   0.4736842), wk =   0.0034991
        k(   20) = (   0.0000000   0.0526316  -0.4736842), wk =   0.0034991
        k(   21) = (   0.0000000   0.0526316  -0.4210526), wk =   0.0034991
        k(   22) = (   0.0000000   0.0526316  -0.3684211), wk =   0.0034991
        k(   23) = (   0.0000000   0.0526316  -0.3157895), wk =   0.0034991
        k(   24) = (   0.0000000   0.0526316  -0.2631579), wk =   0.0034991
        k(   25) = (   0.0000000   0.0526316  -0.2105263), wk =   0.0034991
        k(   26) = (   0.0000000   0.0526316  -0.1578947), wk =   0.0034991
        k(   27) = (   0.0000000   0.0526316  -0.1052632), wk =   0.0034991
        k(   28) = (   0.0000000   0.0526316  -0.0526316), wk =   0.0017495
        k(   29) = (   0.0000000   0.1052632   0.1052632), wk =   0.0008748
        k(   30) = (   0.0000000   0.1052632   0.1578947), wk =   0.0034991
        k(   31) = (   0.0000000   0.1052632   0.2105263), wk =   0.0034991
        k(   32) = (   0.0000000   0.1052632   0.2631579), wk =   0.0034991
        k(   33) = (   0.0000000   0.1052632   0.3157895), wk =   0.0034991
        k(   34) = (   0.0000000   0.1052632   0.3684211), wk =   0.0034991
        k(   35) = (   0.0000000   0.1052632   0.4210526), wk =   0.0034991
        k(   36) = (   0.0000000   0.1052632   0.4736842), wk =   0.0034991
        k(   37) = (   0.0000000   0.1052632  -0.4736842), wk =   0.0034991
        k(   38) = (   0.0000000   0.1052632  -0.4210526), wk =   0.0034991
        k(   39) = (   0.0000000   0.1052632  -0.3684211), wk =   0.0034991
        k(   40) = (   0.0000000   0.1052632  -0.3157895), wk =   0.0034991
        k(   41) = (   0.0000000   0.1052632  -0.2631579), wk =   0.0034991
        k(   42) = (   0.0000000   0.1052632  -0.2105263), wk =   0.0034991
        k(   43) = (   0.0000000   0.1052632  -0.1578947), wk =   0.0034991
        k(   44) = (   0.0000000   0.1052632  -0.1052632), wk =   0.0017495
        k(   45) = (   0.0000000   0.1578947   0.1578947), wk =   0.0008748
        k(   46) = (   0.0000000   0.1578947   0.2105263), wk =   0.0034991
        k(   47) = (   0.0000000   0.1578947   0.2631579), wk =   0.0034991
        k(   48) = (   0.0000000   0.1578947   0.3157895), wk =   0.0034991
        k(   49) = (   0.0000000   0.1578947   0.3684211), wk =   0.0034991
        k(   50) = (   0.0000000   0.1578947   0.4210526), wk =   0.0034991
        k(   51) = (   0.0000000   0.1578947   0.4736842), wk =   0.0034991
        k(   52) = (   0.0000000   0.1578947  -0.4736842), wk =   0.0034991
        k(   53) = (   0.0000000   0.1578947  -0.4210526), wk =   0.0034991
        k(   54) = (   0.0000000   0.1578947  -0.3684211), wk =   0.0034991
        k(   55) = (   0.0000000   0.1578947  -0.3157895), wk =   0.0034991
        k(   56) = (   0.0000000   0.1578947  -0.2631579), wk =   0.0034991
        k(   57) = (   0.0000000   0.1578947  -0.2105263), wk =   0.0034991
        k(   58) = (   0.0000000   0.1578947  -0.1578947), wk =   0.0017495
        k(   59) = (   0.0000000   0.2105263   0.2105263), wk =   0.0008748
        k(   60) = (   0.0000000   0.2105263   0.2631579), wk =   0.0034991
        k(   61) = (   0.0000000   0.2105263   0.3157895), wk =   0.0034991
        k(   62) = (   0.0000000   0.2105263   0.3684211), wk =   0.0034991
        k(   63) = (   0.0000000   0.2105263   0.4210526), wk =   0.0034991
        k(   64) = (   0.0000000   0.2105263   0.4736842), wk =   0.0034991
        k(   65) = (   0.0000000   0.2105263  -0.4736842), wk =   0.0034991
        k(   66) = (   0.0000000   0.2105263  -0.4210526), wk =   0.0034991
        k(   67) = (   0.0000000   0.2105263  -0.3684211), wk =   0.0034991
        k(   68) = (   0.0000000   0.2105263  -0.3157895), wk =   0.0034991
        k(   69) = (   0.0000000   0.2105263  -0.2631579), wk =   0.0034991
        k(   70) = (   0.0000000   0.2105263  -0.2105263), wk =   0.0017495
        k(   71) = (   0.0000000   0.2631579   0.2631579), wk =   0.0008748
        k(   72) = (   0.0000000   0.2631579   0.3157895), wk =   0.0034991
        k(   73) = (   0.0000000   0.2631579   0.3684211), wk =   0.0034991
        k(   74) = (   0.0000000   0.2631579   0.4210526), wk =   0.0034991
        k(   75) = (   0.0000000   0.2631579   0.4736842), wk =   0.0034991
        k(   76) = (   0.0000000   0.2631579  -0.4736842), wk =   0.0034991
        k(   77) = (   0.0000000   0.2631579  -0.4210526), wk =   0.0034991
        k(   78) = (   0.0000000   0.2631579  -0.3684211), wk =   0.0034991
        k(   79) = (   0.0000000   0.2631579  -0.3157895), wk =   0.0034991
        k(   80) = (   0.0000000   0.2631579  -0.2631579), wk =   0.0017495
        k(   81) = (   0.0000000   0.3157895   0.3157895), wk =   0.0008748
        k(   82) = (   0.0000000   0.3157895   0.3684211), wk =   0.0034991
        k(   83) = (   0.0000000   0.3157895   0.4210526), wk =   0.0034991
        k(   84) = (   0.0000000   0.3157895   0.4736842), wk =   0.0034991
        k(   85) = (   0.0000000   0.3157895  -0.4736842), wk =   0.0034991
        k(   86) = (   0.0000000   0.3157895  -0.4210526), wk =   0.0034991
        k(   87) = (   0.0000000   0.3157895  -0.3684211), wk =   0.0034991
        k(   88) = (   0.0000000   0.3157895  -0.3157895), wk =   0.0017495
        k(   89) = (   0.0000000   0.3684211   0.3684211), wk =   0.0008748
        k(   90) = (   0.0000000   0.3684211   0.4210526), wk =   0.0034991
        k(   91) = (   0.0000000   0.3684211   0.4736842), wk =   0.0034991
        k(   92) = (   0.0000000   0.3684211  -0.4736842), wk =   0.0034991
        k(   93) = (   0.0000000   0.3684211  -0.4210526), wk =   0.0034991
        k(   94) = (   0.0000000   0.3684211  -0.3684211), wk =   0.0017495
        k(   95) = (   0.0000000   0.4210526   0.4210526), wk =   0.0008748
        k(   96) = (   0.0000000   0.4210526   0.4736842), wk =   0.0034991
        k(   97) = (   0.0000000   0.4210526  -0.4736842), wk =   0.0034991
        k(   98) = (   0.0000000   0.4210526  -0.4210526), wk =   0.0017495
        k(   99) = (   0.0000000   0.4736842   0.4736842), wk =   0.0008748
        k(  100) = (   0.0000000   0.4736842  -0.4736842), wk =   0.0017495
        k(  101) = (   0.0526316   0.1052632   0.1578947), wk =   0.0034991
        k(  102) = (   0.0526316   0.1052632   0.2105263), wk =   0.0069981
        k(  103) = (   0.0526316   0.1052632   0.2631579), wk =   0.0069981
        k(  104) = (   0.0526316   0.1052632   0.3157895), wk =   0.0069981
        k(  105) = (   0.0526316   0.1052632   0.3684211), wk =   0.0069981
        k(  106) = (   0.0526316   0.1052632   0.4210526), wk =   0.0069981
        k(  107) = (   0.0526316   0.1052632   0.4736842), wk =   0.0069981
        k(  108) = (   0.0526316   0.1052632  -0.4736842), wk =   0.0069981
        k(  109) = (   0.0526316   0.1578947   0.2105263), wk =   0.0034991
        k(  110) = (   0.0526316   0.1578947   0.2631579), wk =   0.0069981
        k(  111) = (   0.0526316   0.1578947   0.3157895), wk =   0.0069981
        k(  112) = (   0.0526316   0.1578947   0.3684211), wk =   0.0069981
        k(  113) = (   0.0526316   0.1578947   0.4210526), wk =   0.0069981
        k(  114) = (   0.0526316   0.1578947   0.4736842), wk =   0.0069981
        k(  115) = (   0.0526316   0.1578947  -0.4736842), wk =   0.0069981
        k(  116) = (   0.0526316   0.1578947  -0.4210526), wk =   0.0069981
        k(  117) = (   0.0526316   0.1578947  -0.3684211), wk =   0.0069981
        k(  118) = (   0.0526316   0.1578947  -0.3157895), wk =   0.0069981
        k(  119) = (   0.0526316   0.1578947  -0.2631579), wk =   0.0069981
        k(  120) = (   0.0526316   0.1578947  -0.2105263), wk =   0.0069981
        k(  121) = (   0.0526316   0.1578947  -0.1578947), wk =   0.0069981
        k(  122) = (   0.0526316   0.1578947  -0.1052632), wk =   0.0034991
        k(  123) = (   0.0526316   0.2105263   0.2631579), wk =   0.0034991
        k(  124) = (   0.0526316   0.2105263   0.3157895), wk =   0.0069981
        k(  125) = (   0.0526316   0.2105263   0.3684211), wk =   0.0069981
        k(  126) = (   0.0526316   0.2105263   0.4210526), wk =   0.0069981
        k(  127) = (   0.0526316   0.2105263   0.4736842), wk =   0.0069981
        k(  128) = (   0.0526316   0.2105263  -0.4736842), wk =   0.0069981
        k(  129) = (   0.0526316   0.2105263  -0.4210526), wk =   0.0069981
        k(  130) = (   0.0526316   0.2105263  -0.3684211), wk =   0.0069981
        k(  131) = (   0.0526316   0.2105263  -0.3157895), wk =   0.0069981
        k(  132) = (   0.0526316   0.2105263  -0.2631579), wk =   0.0069981
        k(  133) = (   0.0526316   0.2105263  -0.2105263), wk =   0.0069981
        k(  134) = (   0.0526316   0.2105263  -0.1578947), wk =   0.0034991
        k(  135) = (   0.0526316   0.2631579   0.3157895), wk =   0.0034991
        k(  136) = (   0.0526316   0.2631579   0.3684211), wk =   0.0069981
        k(  137) = (   0.0526316   0.2631579   0.4210526), wk =   0.0069981
        k(  138) = (   0.0526316   0.2631579   0.4736842), wk =   0.0069981
        k(  139) = (   0.0526316   0.2631579  -0.4736842), wk =   0.0069981
        k(  140) = (   0.0526316   0.2631579  -0.4210526), wk =   0.0069981
        k(  141) = (   0.0526316   0.2631579  -0.3684211), wk =   0.0069981
        k(  142) = (   0.0526316   0.2631579  -0.3157895), wk =   0.0069981
        k(  143) = (   0.0526316   0.2631579  -0.2631579), wk =   0.0069981
        k(  144) = (   0.0526316   0.2631579  -0.2105263), wk =   0.0034991
        k(  145) = (   0.0526316   0.3157895   0.3684211), wk =   0.0034991
        k(  146) = (   0.0526316   0.3157895   0.4210526), wk =   0.0069981
        k(  147) = (   0.0526316   0.3157895   0.4736842), wk =   0.0069981
        k(  148) = (   0.0526316   0.3157895  -0.4736842), wk =   0.0069981
        k(  149) = (   0.0526316   0.3157895  -0.4210526), wk =   0.0069981
        k(  150) = (   0.0526316   0.3157895  -0.3684211), wk =   0.0069981
        k(  151) = (   0.0526316   0.3157895  -0.3157895), wk =   0.0069981
        k(  152) = (   0.0526316   0.3157895  -0.2631579), wk =   0.0034991
        k(  153) = (   0.0526316   0.3684211   0.4210526), wk =   0.0034991
        k(  154) = (   0.0526316   0.3684211   0.4736842), wk =   0.0069981
        k(  155) = (   0.0526316   0.3684211  -0.4736842), wk =   0.0069981
        k(  156) = (   0.0526316   0.3684211  -0.4210526), wk =   0.0069981
        k(  157) = (   0.0526316   0.3684211  -0.3684211), wk =   0.0069981
        k(  158) = (   0.0526316   0.3684211  -0.3157895), wk =   0.0034991
        k(  159) = (   0.0526316   0.4210526   0.4736842), wk =   0.0034991
        k(  160) = (   0.0526316   0.4210526  -0.4736842), wk =   0.0069981
        k(  161) = (   0.0526316   0.4210526  -0.4210526), wk =   0.0069981
        k(  162) = (   0.0526316   0.4210526  -0.3684211), wk =   0.0034991
        k(  163) = (   0.0526316   0.4736842  -0.4736842), wk =   0.0034991
        k(  164) = (   0.0526316   0.4736842  -0.4210526), wk =   0.0034991
        k(  165) = (   0.1052632   0.2105263   0.3157895), wk =   0.0034991
        k(  166) = (   0.1052632   0.2105263   0.3684211), wk =   0.0069981
        k(  167) = (   0.1052632   0.2105263   0.4210526), wk =   0.0069981
        k(  168) = (   0.1052632   0.2105263   0.4736842), wk =   0.0069981
        k(  169) = (   0.1052632   0.2105263  -0.4736842), wk =   0.0069981
        k(  170) = (   0.1052632   0.2105263  -0.4210526), wk =   0.0069981
        k(  171) = (   0.1052632   0.2631579   0.3684211), wk =   0.0034991
        k(  172) = (   0.1052632   0.2631579   0.4210526), wk =   0.0069981
        k(  173) = (   0.1052632   0.2631579   0.4736842), wk =   0.0069981
        k(  174) = (   0.1052632   0.2631579  -0.4736842), wk =   0.0069981
        k(  175) = (   0.1052632   0.2631579  -0.4210526), wk =   0.0069981
        k(  176) = (   0.1052632   0.2631579  -0.3684211), wk =   0.0069981
        k(  177) = (   0.1052632   0.2631579  -0.3157895), wk =   0.0069981
        k(  178) = (   0.1052632   0.2631579  -0.2631579), wk =   0.0069981
        k(  179) = (   0.1052632   0.2631579  -0.2105263), wk =   0.0069981
        k(  180) = (   0.1052632   0.2631579  -0.1578947), wk =   0.0034991
        k(  181) = (   0.1052632   0.3157895   0.4210526), wk =   0.0034991
        k(  182) = (   0.1052632   0.3157895   0.4736842), wk =   0.0069981
        k(  183) = (   0.1052632   0.3157895  -0.4736842), wk =   0.0069981
        k(  184) = (   0.1052632   0.3157895  -0.4210526), wk =   0.0069981
        k(  185) = (   0.1052632   0.3157895  -0.3684211), wk =   0.0069981
        k(  186) = (   0.1052632   0.3157895  -0.3157895), wk =   0.0069981
        k(  187) = (   0.1052632   0.3157895  -0.2631579), wk =   0.0069981
        k(  188) = (   0.1052632   0.3157895  -0.2105263), wk =   0.0034991
        k(  189) = (   0.1052632   0.3684211   0.4736842), wk =   0.0034991
        k(  190) = (   0.1052632   0.3684211  -0.4736842), wk =   0.0069981
        k(  191) = (   0.1052632   0.3684211  -0.4210526), wk =   0.0069981
        k(  192) = (   0.1052632   0.3684211  -0.3684211), wk =   0.0069981
        k(  193) = (   0.1052632   0.3684211  -0.3157895), wk =   0.0069981
        k(  194) = (   0.1052632   0.3684211  -0.2631579), wk =   0.0034991
        k(  195) = (   0.1052632   0.4210526  -0.4736842), wk =   0.0034991
        k(  196) = (   0.1052632   0.4210526  -0.4210526), wk =   0.0069981
        k(  197) = (   0.1052632   0.4210526  -0.3684211), wk =   0.0069981
        k(  198) = (   0.1052632   0.4210526  -0.3157895), wk =   0.0034991
        k(  199) = (   0.1052632   0.4736842  -0.4210526), wk =   0.0034991
        k(  200) = (   0.1052632   0.4736842  -0.3684211), wk =   0.0034991
        k(  201) = (   0.1578947   0.3157895   0.4736842), wk =   0.0034991
        k(  202) = (   0.1578947   0.3157895  -0.4736842), wk =   0.0069981
        k(  203) = (   0.1578947   0.3157895  -0.4210526), wk =   0.0069981
        k(  204) = (   0.1578947   0.3157895  -0.3684211), wk =   0.0069981
        k(  205) = (   0.1578947   0.3684211  -0.4736842), wk =   0.0034991
        k(  206) = (   0.1578947   0.3684211  -0.4210526), wk =   0.0069981
        k(  207) = (   0.1578947   0.3684211  -0.3684211), wk =   0.0069981
        k(  208) = (   0.1578947   0.3684211  -0.3157895), wk =   0.0069981
        k(  209) = (   0.1578947   0.3684211  -0.2631579), wk =   0.0069981
        k(  210) = (   0.1578947   0.3684211  -0.2105263), wk =   0.0034991
        k(  211) = (   0.1578947   0.4210526  -0.4210526), wk =   0.0034991
        k(  212) = (   0.1578947   0.4210526  -0.3684211), wk =   0.0069981
        k(  213) = (   0.1578947   0.4210526  -0.3157895), wk =   0.0069981
        k(  214) = (   0.1578947   0.4210526  -0.2631579), wk =   0.0034991
        k(  215) = (   0.1578947   0.4736842  -0.3684211), wk =   0.0034991
        k(  216) = (   0.1578947   0.4736842  -0.3157895), wk =   0.0034991
        k(  217) = (   0.2105263   0.4210526  -0.3684211), wk =   0.0034991
        k(  218) = (   0.2105263   0.4210526  -0.3157895), wk =   0.0069981
        k(  219) = (   0.2105263   0.4736842  -0.3157895), wk =   0.0034991
        k(  220) = (   0.2105263   0.4736842  -0.2631579), wk =   0.0034991

     Dense  grid:    16361 G-vectors     FFT dimensions: (  36,  36,  36)

     Largest allocated arrays     est. size (Mb)     dimensions
        Kohn-Sham Wavefunctions         0.15 Mb     (     270,   36)
        NL pseudopotentials             0.14 Mb     (     135,   68)
        Each V/rho on FFT grid          0.06 Mb     (    3888)
        Each G-vector array             0.01 Mb     (    1023)
        G-vector shells                 0.00 Mb     (     191)
     Largest temporary arrays     est. size (Mb)     dimensions
        Auxiliary wavefunctions         0.59 Mb     (     270,  144)
        Each subspace H/S matrix        0.32 Mb     (     144,  144)
        Each <psi_i|beta_j> matrix      0.07 Mb     (      68,   2,   36)
        Arrays for rho mixing           0.47 Mb     (    3888,    8)

     Check: negative/imaginary core charge=   -0.000003    0.000000

     Initial potential from superposition of free atoms

     starting charge   27.99781, renormalised to   28.00000
     Starting wfc are   36 randomized atomic wfcs
     Checking if some PAW data can be deallocated... 

     total cpu time spent up to now is        8.8 secs

     Self-consistent Calculation

     iteration #  1     ecut=    40.00 Ry     beta=0.70
     Davidson diagonalization with overlap
     ethr =  1.00E-02,  avg # of iterations =  3.5

     Threshold (ethr) on eigenvalues was too large:
     Diagonalizing with lowered threshold

     Davidson diagonalization with overlap
     ethr =  6.12E-05,  avg # of iterations =  3.4

     total cpu time spent up to now is       65.2 secs

     total energy              =    -885.82664988 Ry
     Harris-Foulkes estimate   =    -885.82850144 Ry
     estimated scf accuracy    <       0.02065195 Ry

     iteration #  2     ecut=    40.00 Ry     beta=0.70
     Davidson diagonalization with overlap
     ethr =  7.38E-05,  avg # of iterations =  1.0

     total cpu time spent up to now is       85.8 secs

     total energy              =    -885.82801235 Ry
     Harris-Foulkes estimate   =    -885.82807561 Ry
     estimated scf accuracy    <       0.00187939 Ry

     iteration #  3     ecut=    40.00 Ry     beta=0.70
     Davidson diagonalization with overlap
     ethr =  6.71E-06,  avg # of iterations =  2.2

     total cpu time spent up to now is      114.4 secs

     total energy              =    -885.82837171 Ry
     Harris-Foulkes estimate   =    -885.82840012 Ry
     estimated scf accuracy    <       0.00008542 Ry

     iteration #  4     ecut=    40.00 Ry     beta=0.70
     Davidson diagonalization with overlap
     ethr =  3.05E-07,  avg # of iterations =  2.1

     total cpu time spent up to now is      142.3 secs

     total energy              =    -885.82839896 Ry
     Harris-Foulkes estimate   =    -885.82839720 Ry
     estimated scf accuracy    <       0.00000478 Ry

     iteration #  5     ecut=    40.00 Ry     beta=0.70
     Davidson diagonalization with overlap
     ethr =  1.71E-08,  avg # of iterations =  2.0

     total cpu time spent up to now is      165.7 secs

     End of self-consistent calculation

          k = 0.0000 0.0000 0.0000 (  2085 PWs)   bands (ev):

   -14.5617 -14.5617 -14.5617 -14.5617 -14.4667 -14.4667 -14.4667 -14.4667
   -13.6499 -13.6499 -13.4488 -13.4488 -13.4488 -13.4488 -13.4043 -13.4043
   -13.4043 -13.4043 -13.2890 -13.2890  -2.8488  -2.8488   6.7545   6.7545
     7.1947   7.1947   7.8626   7.8626   7.8626   7.8626   9.4034   9.4034
     9.8757   9.8757   9.8757   9.8757

     occupation numbers 
     1.0000   1.0000   1.0000   1.0000   1.0000   1.0000   1.0000   1.0000
     1.0000   1.0000   1.0000   1.0000   1.0000   1.0000   1.0000   1.0000
     1.0000   1.0000   1.0000   1.0000   1.0000   1.0000   1.0000   1.0000
     1.0000   1.0000   0.0000   0.0000   0.0000   0.0000   0.0000   0.0000
     0.0000   0.0000   0.0000   0.0000

          k = 0.0372 0.0372-0.0372 (  2037 PWs)   bands (ev):

   -14.5552 -14.5552 -14.5541 -14.5541 -14.4613 -14.4613 -14.4597 -14.4597
   -13.6410 -13.6410 -13.4459 -13.4459 -13.4456 -13.4456 -13.3962 -13.3962
   -13.3956 -13.3956 -13.2818 -13.2818  -2.8227  -2.8227   6.3303   6.3303
     7.2731   7.2731   7.8034   7.8034   7.9682   7.9682   9.5293   9.5293
     9.9427   9.9427   9.9513   9.9513

     occupation numbers 
     1.0000   1.0000   1.0000   1.0000   1.0000   1.0000   1.0000   1.0000
     1.0000   1.0000   1.0000   1.0000   1.0000   1.0000   1.0000   1.0000
     1.0000   1.0000   1.0000   1.0000   1.0000   1.0000   1.0000   1.0000
     1.0000   1.0000   0.0000   0.0000   0.0000   0.0000   0.0000   0.0000
     0.0000   0.0000   0.0000   0.0000

          k = 0.0744 0.0744-0.0744 (  2028 PWs)   bands (ev):

   -14.5561 -14.5561 -14.5482 -14.5482 -14.4631 -14.4631 -14.4583 -14.4583
   -13.6349 -13.6349 -13.4553 -13.4553 -13.4514 -13.4514 -13.3866 -13.3866
   -13.3864 -13.3864 -13.2840 -13.2840  -2.7448  -2.7448   5.6191   5.6191
     7.1893   7.1893   7.6530   7.6530   8.0851   8.0851   9.8132   9.8132
    10.1448  10.1448  10.2188  10.2188

     occupation numbers 
     1.0000   1.0000   1.0000   1.0000   1.0000   1.0000   1.0000   1.0000
     1.0000   1.0000   1.0000   1.0000   1.0000   1.0000   1.0000   1.0000
     1.0000   1.0000   1.0000   1.0000   1.0000   1.0000   1.0000   1.0000
     1.0000   1.0000   0.9543   0.9543   0.0000   0.0000   0.0000   0.0000
     0.0000   0.0000   0.0000   0.0000

          k = 0.1116 0.1116-0.1116 (  2022 PWs)   bands (ev):

   -14.5555 -14.5555 -14.5447 -14.5447 -14.4653 -14.4653 -14.4559 -14.4559
   -13.6269 -13.6269 -13.4668 -13.4668 -13.4577 -13.4577 -13.3771 -13.3771
   -13.3770 -13.3770 -13.2871 -13.2871  -2.6164  -2.6164   4.8564   4.8564
     7.0176   7.0176   7.4609   7.4609   8.0643   8.0643  10.0778  10.0778
    10.3882  10.3882  10.7661  10.7661

     occupation numbers 
     1.0000   1.0000   1.0000   1.0000   1.0000   1.0000   1.0000   1.0000
     1.0000   1.0000   1.0000   1.0000   1.0000   1.0000   1.0000   1.0000
     1.0000   1.0000   1.0000   1.0000   1.0000   1.0000   1.0000   1.0000
     1.0000   1.0000   1.0000   1.0000   0.0000   0.0000   0.0000   0.0000
     0.0000   0.0000   0.0000   0.0000

          k = 0.1489 0.1489-0.1489 (  2018 PWs)   bands (ev):

   -14.5549 -14.5549 -14.5396 -14.5396 -14.4698 -14.4698 -14.4530 -14.4530
   -13.6164 -13.6164 -13.4796 -13.4796 -13.4642 -13.4642 -13.3673 -13.3673
   -13.3667 -13.3667 -13.2923 -13.2923  -2.4404  -2.4404   4.0990   4.0990
     6.8292   6.8292   7.2639   7.2639   7.9613   7.9613  10.3088  10.3089
    10.6166  10.6166  11.4501  11.4501

     occupation numbers 
     1.0000   1.0000   1.0000   1.0000   1.0000   1.0000   1.0000   1.0000
     1.0000   1.0000   1.0000   1.0000   1.0000   1.0000   1.0000   1.0000
     1.0000   1.0000   1.0000   1.0000   1.0000   1.0000   1.0000   1.0000
     1.0000   1.0000   1.0000   1.0000   0.0000   0.0000   0.0000   0.0000
     0.0000   0.0000   0.0000   0.0000

          k = 0.1861 0.1861-0.1861 (  2021 PWs)   bands (ev):

   -14.5567 -14.5567 -14.5352 -14.5352 -14.4742 -14.4742 -14.4502 -14.4502
   -13.6061 -13.6061 -13.4930 -13.4930 -13.4693 -13.4693 -13.3620 -13.3620
   -13.3576 -13.3576 -13.2991 -13.2991  -2.2219  -2.2219   3.3758   3.3758
     6.6530   6.6530   7.0832   7.0832   7.8349   7.8349  10.4897  10.4897
    10.7829  10.7829  12.1897  12.1897

     occupation numbers 
     1.0000   1.0000   1.0000   1.0000   1.0000   1.0000   1.0000   1.0000
     1.0000   1.0000   1.0000   1.0000   1.0000   1.0000   1.0000   1.0000
     1.0000   1.0000   1.0000   1.0000   1.0000   1.0000   1.0000   1.0000
     1.0000   1.0000   1.0000   1.0000   0.0000   0.0000   0.0000   0.0000
     0.0000   0.0000   0.0000   0.0000

          k = 0.2233 0.2233-0.2233 (  2012 PWs)   bands (ev):

   -14.5580 -14.5580 -14.5264 -14.5264 -14.4786 -14.4786 -14.4469 -14.4469
   -13.5924 -13.5924 -13.5051 -13.5051 -13.4745 -13.4745 -13.3527 -13.3527
   -13.3486 -13.3486 -13.3040 -13.3040  -1.9704  -1.9704   2.7098   2.7098
     6.5026   6.5026   6.9303   6.9303   7.7161   7.7161  10.6033  10.6033
    10.8720  10.8720  12.9357  12.9357

     occupation numbers 
     1.0000   1.0000   1.0000   1.0000   1.0000   1.0000   1.0000   1.0000
     1.0000   1.0000   1.0000   1.0000   1.0000   1.0000   1.0000   1.0000
     1.0000   1.0000   1.0000   1.0000   1.0000   1.0000   1.0000   1.0000
     1.0000   1.0000   1.0000   1.0000   0.0000   0.0000   0.0000   0.0000
     0.0000   0.0000   0.0000   0.0000

          k = 0.2605 0.2605-0.2605 (  2024 PWs)   bands (ev):

   -14.5618 -14.5618 -14.5234 -14.5234 -14.4846 -14.4846 -14.4448 -14.4448
   -13.5819 -13.5819 -13.5189 -13.5189 -13.4813 -13.4813 -13.3489 -13.3489
   -13.3442 -13.3442 -13.3111 -13.3111  -1.7047  -1.7047   2.1277   2.1277
     6.3855   6.3855   6.8118   6.8118   7.6198   7.6198  10.6574  10.6574
    10.9009  10.9009  13.3832  13.3833

     occupation numbers 
     1.0000   1.0000   1.0000   1.0000   1.0000   1.0000   1.0000   1.0000
     1.0000   1.0000   1.0000   1.0000   1.0000   1.0000   1.0000   1.0000
     1.0000   1.0000   1.0000   1.0000   1.0000   1.0000   1.0000   1.0000
     1.0000   1.0000   1.0000   1.0000   1.0000   1.0000   0.0000   0.0000
     0.0000   0.0000   0.0000   0.0000

          k = 0.2977 0.2977-0.2977 (  2027 PWs)   bands (ev):

   -14.5641 -14.5641 -14.5181 -14.5181 -14.4897 -14.4897 -14.4433 -14.4433
   -13.5699 -13.5699 -13.5311 -13.5311 -13.4853 -13.4853 -13.3448 -13.3448
   -13.3381 -13.3381 -13.3162 -13.3162  -1.4615  -1.4615   1.6711   1.6711
     6.3056   6.3056   6.7312   6.7312   7.5530   7.5530  10.6751  10.6751
    10.8996  10.8996  13.3620  13.3620

     occupation numbers 
     1.0000   1.0000   1.0000   1.0000   1.0000   1.0000   1.0000   1.0000
     1.0000   1.0000   1.0000   1.0000   1.0000   1.0000   1.0000   1.0000
     1.0000   1.0000   1.0000   1.0000   1.0000   1.0000   1.0000   1.0000
     1.0000   1.0000   1.0000   1.0000   1.0000   1.0000   0.0000   0.0000
     0.0000   0.0000   0.0000   0.0000

          k = 0.3349 0.3349-0.3349 (  2030 PWs)   bands (ev):

   -14.5641 -14.5641 -14.5130 -14.5130 -14.4948 -14.4948 -14.4453 -14.4453
   -13.5586 -13.5586 -13.5427 -13.5427 -13.4862 -13.4862 -13.3446 -13.3446
   -13.3314 -13.3314 -13.3236 -13.3236  -1.3053  -1.3053   1.4075   1.4075
     6.2652   6.2652   6.6904   6.6904   7.5189   7.5189  10.6780  10.6780
    10.8928  10.8928  13.3187  13.3187

     occupation numbers 
     1.0000   1.0000   1.0000   1.0000   1.0000   1.0000   1.0000   1.0000
     1.0000   1.0000   1.0000   1.0000   1.0000   1.0000   1.0000   1.0000
     1.0000   1.0000   1.0000   1.0000   1.0000   1.0000   1.0000   1.0000
     1.0000   1.0000   1.0000   1.0000   1.0000   1.0000   0.0000   0.0000
     0.0000   0.0000   0.0000   0.0000

          k = 0.0744 0.0000 0.0000 (  2037 PWs)   bands (ev):

   -14.5550 -14.5550 -14.5543 -14.5543 -14.4614 -14.4614 -14.4602 -14.4602
   -13.6404 -13.6404 -13.4498 -13.4498 -13.4451 -13.4451 -13.3955 -13.3955
   -13.3933 -13.3933 -13.2822 -13.2822  -2.8140  -2.8140   6.2574   6.2574
     7.2191   7.2191   7.6545   7.6545   8.1813   8.1813   9.4857   9.4857
     9.9361   9.9361  10.0577  10.0577

     occupation numbers 
     1.0000   1.0000   1.0000   1.0000   1.0000   1.0000   1.0000   1.0000
     1.0000   1.0000   1.0000   1.0000   1.0000   1.0000   1.0000   1.0000
     1.0000   1.0000   1.0000   1.0000   1.0000   1.0000   1.0000   1.0000
     1.0000   1.0000   0.5609   0.5609   0.0000   0.0000   0.0000   0.0000
     0.0000   0.0000   0.0000   0.0000

          k = 0.1116 0.0372-0.0372 (  2031 PWs)   bands (ev):

   -14.5549 -14.5549 -14.5501 -14.5501 -14.4628 -14.4628 -14.4600 -14.4600
   -13.6356 -13.6356 -13.4575 -13.4575 -13.4494 -13.4494 -13.3902 -13.3902
   -13.3836 -13.3836 -13.2845 -13.2845  -2.7532  -2.7532   5.7312   5.7312
     7.1106   7.1106   7.4827   7.4827   8.3980   8.3980   9.5602   9.5602
    10.1562  10.1562  10.3006  10.3006

     occupation numbers 
     1.0000   1.0000   1.0000   1.0000   1.0000   1.0000   1.0000   1.0000
     1.0000   1.0000   1.0000   1.0000   1.0000   1.0000   1.0000   1.0000
     1.0000   1.0000   1.0000   1.0000   1.0000   1.0000   1.0000   1.0000
     1.0000   1.0000   1.0000   1.0000   0.0000   0.0000   0.0000   0.0000
     0.0000   0.0000   0.0000   0.0000

          k = 0.1489 0.0744-0.0744 (  2025 PWs)   bands (ev):

   -14.5549 -14.5549 -14.5461 -14.5461 -14.4647 -14.4647 -14.4580 -14.4580
   -13.6281 -13.6281 -13.4681 -13.4681 -13.4547 -13.4547 -13.3817 -13.3817
   -13.3753 -13.3753 -13.2872 -13.2872  -2.6415  -2.6415   5.0371   5.0371
     6.9374   6.9374   7.3024   7.3024   8.4364   8.4364   9.7580   9.7580
    10.4545  10.4545  10.7307  10.7307

     occupation numbers 
     1.0000   1.0000   1.0000   1.0000   1.0000   1.0000   1.0000   1.0000
     1.0000   1.0000   1.0000   1.0000   1.0000   1.0000   1.0000   1.0000
     1.0000   1.0000   1.0000   1.0000   1.0000   1.0000   1.0000   1.0000
     1.0000   1.0000   1.0000   1.0000   0.0000   0.0000   0.0000   0.0000
     0.0000   0.0000   0.0000   0.0000

          k = 0.1861 0.1116-0.1116 (  2025 PWs)   bands (ev):

   -14.5566 -14.5566 -14.5426 -14.5426 -14.4677 -14.4677 -14.4547 -14.4547
   -13.6199 -13.6199 -13.4792 -13.4792 -13.4618 -13.4618 -13.3748 -13.3748
   -13.3667 -13.3667 -13.2905 -13.2905  -2.4810  -2.4810   4.3045   4.3045
     6.7432   6.7432   7.1073   7.1073   8.3563   8.3563  10.0156  10.0156
    10.7128  10.7128  11.3019  11.3019

     occupation numbers 
     1.0000   1.0000   1.0000   1.0000   1.0000   1.0000   1.0000   1.0000
     1.0000   1.0000   1.0000   1.0000   1.0000   1.0000   1.0000   1.0000
     1.0000   1.0000   1.0000   1.0000   1.0000   1.0000   1.0000   1.0000
     1.0000   1.0000   1.0000   1.0000   0.0000   0.0000   0.0000   0.0000
     0.0000   0.0000   0.0000   0.0000

          k = 0.2233 0.1489-0.1489 (  2024 PWs)   bands (ev):

   -14.5575 -14.5575 -14.5372 -14.5372 -14.4728 -14.4728 -14.4512 -14.4512
   -13.6090 -13.6090 -13.4916 -13.4916 -13.4679 -13.4679 -13.3679 -13.3679
   -13.3569 -13.3569 -13.2966 -13.2966  -2.2759  -2.2759   3.5848   3.5848
     6.5582   6.5582   6.9192   6.9192   8.2322   8.2322  10.2614  10.2614
    10.8994  10.8994  11.9201  11.9201

     occupation numbers 
     1.0000   1.0000   1.0000   1.0000   1.0000   1.0000   1.0000   1.0000
     1.0000   1.0000   1.0000   1.0000   1.0000   1.0000   1.0000   1.0000
     1.0000   1.0000   1.0000   1.0000   1.0000   1.0000   1.0000   1.0000
     1.0000   1.0000   1.0000   1.0000   0.0000   0.0000   0.0000   0.0000
     0.0000   0.0000   0.0000   0.0000

          k = 0.2605 0.1861-0.1861 (  2018 PWs)   bands (ev):

   -14.5585 -14.5585 -14.5296 -14.5296 -14.4773 -14.4773 -14.4479 -14.4479
   -13.5960 -13.5960 -13.5032 -13.5032 -13.4727 -13.4727 -13.3616 -13.3616
   -13.3473 -13.3473 -13.3020 -13.3020  -2.0339  -2.0339   2.9078   2.9078
     6.3956   6.3956   6.7568   6.7568   8.1051   8.1051  10.4454  10.4454
    10.9962  10.9962  12.5450  12.5450

     occupation numbers 
     1.0000   1.0000   1.0000   1.0000   1.0000   1.0000   1.0000   1.0000
     1.0000   1.0000   1.0000   1.0000   1.0000   1.0000   1.0000   1.0000
     1.0000   1.0000   1.0000   1.0000   1.0000   1.0000   1.0000   1.0000
     1.0000   1.0000   1.0000   1.0000   0.0000   0.0000   0.0000   0.0000
     0.0000   0.0000   0.0000   0.0000

          k = 0.2977 0.2233-0.2233 (  2018 PWs)   bands (ev):

   -14.5592 -14.5592 -14.5242 -14.5242 -14.4829 -14.4829 -14.4455 -14.4455
   -13.5842 -13.5842 -13.5146 -13.5146 -13.4777 -13.4777 -13.3572 -13.3572
   -13.3400 -13.3400 -13.3066 -13.3066  -1.7699  -1.7699   2.3007   2.3007
     6.2616   6.2616   6.6314   6.6314   7.9950   7.9950  10.5575  10.5575
    11.0161  11.0161  13.1087  13.1087

     occupation numbers 
     1.0000   1.0000   1.0000   1.0000   1.0000   1.0000   1.0000   1.0000
     1.0000   1.0000   1.0000   1.0000   1.0000   1.0000   1.0000   1.0000
     1.0000   1.0000   1.0000   1.0000   1.0000   1.0000   1.0000   1.0000
     1.0000   1.0000   1.0000   1.0000   0.0000   0.0000   0.0000   0.0000
     0.0000   0.0000   0.0000   0.0000

          k = 0.3349 0.2605-0.2605 (  2033 PWs)   bands (ev):

   -14.5627 -14.5627 -14.5219 -14.5219 -14.4901 -14.4901 -14.4443 -14.4443
   -13.5748 -13.5748 -13.5279 -13.5279 -13.4834 -13.4834 -13.3552 -13.3552
   -13.3358 -13.3358 -13.3129 -13.3129  -1.5132  -1.5132   1.8000   1.8000
     6.1595   6.1595   6.5492   6.5492   7.9114   7.9114  10.6191  10.6191
    10.9910  10.9910  13.3855  13.3855

     occupation numbers 
     1.0000   1.0000   1.0000   1.0000   1.0000   1.0000   1.0000   1.0000
     1.0000   1.0000   1.0000   1.0000   1.0000   1.0000   1.0000   1.0000
     1.0000   1.0000   1.0000   1.0000   1.0000   1.0000   1.0000   1.0000
     1.0000   1.0000   1.0000   1.0000   0.0000   0.0000   0.0000   0.0000
     0.0000   0.0000   0.0000   0.0000

          k = 0.3722 0.2977-0.2977 (  2029 PWs)   bands (ev):

   -14.5635 -14.5635 -14.5146 -14.5146 -14.4942 -14.4942 -14.4431 -14.4431
   -13.5617 -13.5617 -13.5383 -13.5383 -13.4856 -13.4856 -13.3528 -13.3528
   -13.3313 -13.3313 -13.3171 -13.3171  -1.3188  -1.3188   1.4649   1.4649
     6.0918   6.0918   6.5130   6.5130   7.8593   7.8593  10.6570  10.6570
    10.9514  10.9514  13.4215  13.4215

     occupation numbers 
     1.0000   1.0000   1.0000   1.0000   1.0000   1.0000   1.0000   1.0000
     1.0000   1.0000   1.0000   1.0000   1.0000   1.0000   1.0000   1.0000
     1.0000   1.0000   1.0000   1.0000   1.0000   1.0000   1.0000   1.0000
     1.0000   1.0000   1.0000   1.0000   0.0000   0.0000   0.0000   0.0000
     0.0000   0.0000   0.0000   0.0000

          k =-0.2977-0.3722 0.3722 (  2024 PWs)   bands (ev):

   -14.5637 -14.5637 -14.5120 -14.5120 -14.4951 -14.4951 -14.4428 -14.4428
   -13.5561 -13.5561 -13.5432 -13.5432 -13.4857 -13.4857 -13.3515 -13.3515
   -13.3285 -13.3285 -13.3168 -13.3168  -1.2617  -1.2617   1.3726   1.3726
     6.0608   6.0608   6.5228   6.5228   7.8408   7.8408  10.6854  10.6854
    10.9189  10.9189  13.4267  13.4267

     occupation numbers 
     1.0000   1.0000   1.0000   1.0000   1.0000   1.0000   1.0000   1.0000
     1.0000   1.0000   1.0000   1.0000   1.0000   1.0000   1.0000   1.0000
     1.0000   1.0000   1.0000   1.0000   1.0000   1.0000   1.0000   1.0000
     1.0000   1.0000   1.0000   1.0000   0.0000   0.0000   0.0000   0.0000
     0.0000   0.0000   0.0000   0.0000

          k =-0.2605-0.3349 0.3349 (  2024 PWs)   bands (ev):

   -14.5629 -14.5629 -14.5148 -14.5148 -14.4931 -14.4931 -14.4423 -14.4423
   -13.5651 -13.5651 -13.5339 -13.5339 -13.4847 -13.4847 -13.3523 -13.3523
   -13.3312 -13.3312 -13.3148 -13.3148  -1.3723  -1.3723   1.5539   1.5539
     6.0687   6.0687   6.5771   6.5771   7.8564   7.8564  10.7002  10.7002
    10.9067  10.9067  13.4413  13.4414

     occupation numbers 
     1.0000   1.0000   1.0000   1.0000   1.0000   1.0000   1.0000   1.0000
     1.0000   1.0000   1.0000   1.0000   1.0000   1.0000   1.0000   1.0000
     1.0000   1.0000   1.0000   1.0000   1.0000   1.0000   1.0000   1.0000
     1.0000   1.0000   1.0000   1.0000   0.0000   0.0000   0.0000   0.0000
     0.0000   0.0000   0.0000   0.0000

          k =-0.2233-0.2977 0.2977 (  2031 PWs)   bands (ev):

   -14.5612 -14.5612 -14.5233 -14.5233 -14.4881 -14.4881 -14.4455 -14.4455
   -13.5782 -13.5782 -13.5241 -13.5241 -13.4815 -13.4815 -13.3571 -13.3571
   -13.3366 -13.3366 -13.3120 -13.3120  -1.5955  -1.5955   1.9527   1.9527
     6.1171   6.1171   6.6730   6.6730   7.9050   7.9050  10.6848  10.6848
    10.9148  10.9148  13.3955  13.3956

     occupation numbers 
[...]

     occupation numbers 
     1.0000   1.0000   1.0000   1.0000   1.0000   1.0000   1.0000   1.0000
     1.0000   1.0000   1.0000   1.0000   1.0000   1.0000   1.0000   1.0000
     1.0000   1.0000   1.0000   1.0000   1.0000   1.0000   1.0000   1.0000
     1.0000   1.0000   1.0000   1.0000   0.0000   0.0000   0.0000   0.0000
     0.0000   0.0000   0.0000   0.0000

          k = 0.0000-0.5210 0.6699 (  2034 PWs)   bands (ev):

   -14.5533 -14.5533 -14.5309 -14.5309 -14.4809 -14.4809 -14.4475 -14.4475
   -13.5614 -13.5614 -13.5240 -13.5240 -13.4525 -13.4525 -13.4375 -13.4375
   -13.3226 -13.3226 -13.2827 -13.2827   0.0824   0.0824   0.2753   0.2753
     4.6792   4.6792   5.0315   5.0315   9.1192   9.1192   9.6738   9.6738
    13.4278  13.4278  13.5936  13.5936

     occupation numbers 
     1.0000   1.0000   1.0000   1.0000   1.0000   1.0000   1.0000   1.0000
     1.0000   1.0000   1.0000   1.0000   1.0000   1.0000   1.0000   1.0000
     1.0000   1.0000   1.0000   1.0000   1.0000   1.0000   1.0000   1.0000
     1.0000   1.0000   1.0000   1.0000   0.0000   0.0000   0.0000   0.0000
     0.0000   0.0000   0.0000   0.0000

          k = 0.4466 0.2233 0.0000 (  2028 PWs)   bands (ev):

   -14.5575 -14.5575 -14.5284 -14.5284 -14.4839 -14.4839 -14.4456 -14.4456
   -13.5744 -13.5744 -13.5220 -13.5220 -13.4702 -13.4702 -13.3942 -13.3942
   -13.3318 -13.3318 -13.2904 -13.2904  -1.3780  -1.3780   2.0379   2.0379
     4.8746   4.8746   5.8470   5.8470   9.7439   9.7439   9.9836   9.9836
    11.3698  11.3698  13.0045  13.0045

     occupation numbers 
     1.0000   1.0000   1.0000   1.0000   1.0000   1.0000   1.0000   1.0000
     1.0000   1.0000   1.0000   1.0000   1.0000   1.0000   1.0000   1.0000
     1.0000   1.0000   1.0000   1.0000   1.0000   1.0000   1.0000   1.0000
     1.0000   1.0000   1.0000   1.0000   0.0000   0.0000   0.0000   0.0000
     0.0000   0.0000   0.0000   0.0000

          k =-0.2233-0.4466 0.6699 (  2031 PWs)   bands (ev):

   -14.5583 -14.5583 -14.5256 -14.5256 -14.4872 -14.4872 -14.4442 -14.4442
   -13.5691 -13.5691 -13.5238 -13.5238 -13.4708 -13.4708 -13.4027 -13.4027
   -13.3300 -13.3300 -13.2874 -13.2874  -1.1087  -1.1087   1.6445   1.6445
     4.6622   4.6622   5.6847   5.6847   9.8055   9.8055  10.3475  10.3475
    11.3398  11.3398  13.2327  13.2327

     occupation numbers 
     1.0000   1.0000   1.0000   1.0000   1.0000   1.0000   1.0000   1.0000
     1.0000   1.0000   1.0000   1.0000   1.0000   1.0000   1.0000   1.0000
     1.0000   1.0000   1.0000   1.0000   1.0000   1.0000   1.0000   1.0000
     1.0000   1.0000   1.0000   1.0000   0.0000   0.0000   0.0000   0.0000
     0.0000   0.0000   0.0000   0.0000

          k =-0.1861-0.4094 0.6327 (  2029 PWs)   bands (ev):

   -14.5582 -14.5582 -14.5228 -14.5228 -14.4894 -14.4894 -14.4423 -14.4423
   -13.5657 -13.5657 -13.5226 -13.5226 -13.4709 -13.4709 -13.4084 -13.4084
   -13.3292 -13.3292 -13.2841 -13.2841  -0.8514  -0.8514   1.2950   1.2950
     4.5287   4.5287   5.5589   5.5589   9.7926   9.7926  10.5978  10.5978
    11.6284  11.6284  13.2091  13.2091

     occupation numbers 
     1.0000   1.0000   1.0000   1.0000   1.0000   1.0000   1.0000   1.0000
     1.0000   1.0000   1.0000   1.0000   1.0000   1.0000   1.0000   1.0000
     1.0000   1.0000   1.0000   1.0000   1.0000   1.0000   1.0000   1.0000
     1.0000   1.0000   1.0000   1.0000   0.0000   0.0000   0.0000   0.0000
     0.0000   0.0000   0.0000   0.0000

          k =-0.1489-0.3722 0.5955 (  2023 PWs)   bands (ev):

   -14.5578 -14.5578 -14.5201 -14.5201 -14.4898 -14.4898 -14.4405 -14.4405
   -13.5629 -13.5629 -13.5209 -13.5209 -13.4703 -13.4703 -13.4111 -13.4111
   -13.3278 -13.3278 -13.2813 -13.2813  -0.6754  -0.6754   1.0697   1.0697
     4.4651   4.4651   5.4909   5.4909   9.7836   9.7836  10.6442  10.6442
    12.2017  12.2017  12.8585  12.8585

     occupation numbers 
     1.0000   1.0000   1.0000   1.0000   1.0000   1.0000   1.0000   1.0000
     1.0000   1.0000   1.0000   1.0000   1.0000   1.0000   1.0000   1.0000
     1.0000   1.0000   1.0000   1.0000   1.0000   1.0000   1.0000   1.0000
     1.0000   1.0000   1.0000   1.0000   0.0000   0.0000   0.0000   0.0000
     0.0000   0.0000   0.0000   0.0000

          k =-0.1861-0.4838 0.7071 (  2031 PWs)   bands (ev):

   -14.5569 -14.5569 -14.5280 -14.5280 -14.4844 -14.4844 -14.4452 -14.4452
   -13.5670 -13.5670 -13.5241 -13.5241 -13.4698 -13.4698 -13.4069 -13.4069
   -13.3290 -13.3290 -13.2856 -13.2856  -0.9818  -0.9818   1.5000   1.5000
     4.7246   4.7246   5.4316   5.4316   9.6950   9.6950  10.0125  10.0125
    11.5782  11.5782  13.7094  13.7094

     occupation numbers 
     1.0000   1.0000   1.0000   1.0000   1.0000   1.0000   1.0000   1.0000
     1.0000   1.0000   1.0000   1.0000   1.0000   1.0000   1.0000   1.0000
     1.0000   1.0000   1.0000   1.0000   1.0000   1.0000   1.0000   1.0000
     1.0000   1.0000   1.0000   1.0000   0.0000   0.0000   0.0000   0.0000
     0.0000   0.0000   0.0000   0.0000

          k =-0.1489-0.4466 0.6699 (  2020 PWs)   bands (ev):

   -14.5549 -14.5549 -14.5241 -14.5241 -14.4853 -14.4853 -14.4421 -14.4421
   -13.5635 -13.5635 -13.5196 -13.5196 -13.4664 -13.4664 -13.4142 -13.4142
   -13.3270 -13.3270 -13.2807 -13.2807  -0.7111  -0.7111   1.1628   1.1628
     4.5550   4.5550   5.2919   5.2919   9.8433   9.8433  10.4503  10.4503
    11.4600  11.4600  13.6070  13.6070

     occupation numbers 
     1.0000   1.0000   1.0000   1.0000   1.0000   1.0000   1.0000   1.0000
     1.0000   1.0000   1.0000   1.0000   1.0000   1.0000   1.0000   1.0000
     1.0000   1.0000   1.0000   1.0000   1.0000   1.0000   1.0000   1.0000
     1.0000   1.0000   1.0000   1.0000   0.0000   0.0000   0.0000   0.0000
     0.0000   0.0000   0.0000   0.0000

          k =-0.1116-0.4094 0.6327 (  2022 PWs)   bands (ev):

   -14.5555 -14.5555 -14.5229 -14.5229 -14.4869 -14.4869 -14.4410 -14.4410
   -13.5635 -13.5635 -13.5168 -13.5168 -13.4653 -13.4653 -13.4203 -13.4203
   -13.3273 -13.3273 -13.2780 -13.2780  -0.4911  -0.4911   0.9049   0.9049
     4.4351   4.4351   5.2261   5.2261   9.8930   9.8930  10.8911  10.8911
    11.5820  11.5820  13.0392  13.0392

     occupation numbers 
     1.0000   1.0000   1.0000   1.0000   1.0000   1.0000   1.0000   1.0000
     1.0000   1.0000   1.0000   1.0000   1.0000   1.0000   1.0000   1.0000
     1.0000   1.0000   1.0000   1.0000   1.0000   1.0000   1.0000   1.0000
     1.0000   1.0000   1.0000   1.0000   0.0000   0.0000   0.0000   0.0000
     0.0000   0.0000   0.0000   0.0000

          k =-0.0744-0.3722 0.5955 (  2029 PWs)   bands (ev):

   -14.5570 -14.5570 -14.5228 -14.5228 -14.4890 -14.4890 -14.4413 -14.4413
   -13.5644 -13.5644 -13.5169 -13.5169 -13.4665 -13.4665 -13.4226 -13.4226
   -13.3282 -13.3282 -13.2781 -13.2781  -0.4340  -0.4340   0.8409   0.8409
     4.3720   4.3720   5.2439   5.2439   9.9512   9.9512  10.9585  10.9585
    12.0891  12.0891  12.4057  12.4057

     occupation numbers 
     1.0000   1.0000   1.0000   1.0000   1.0000   1.0000   1.0000   1.0000
     1.0000   1.0000   1.0000   1.0000   1.0000   1.0000   1.0000   1.0000
     1.0000   1.0000   1.0000   1.0000   1.0000   1.0000   1.0000   1.0000
     1.0000   1.0000   1.0000   1.0000   0.0000   0.0000   0.0000   0.0000
     0.0000   0.0000   0.0000   0.0000

          k =-0.0372-0.3349 0.5582 (  2022 PWs)   bands (ev):

   -14.5567 -14.5567 -14.5216 -14.5216 -14.4884 -14.4884 -14.4404 -14.4404
   -13.5638 -13.5638 -13.5176 -13.5176 -13.4659 -13.4659 -13.4182 -13.4182
   -13.3279 -13.3279 -13.2784 -13.2784  -0.5855  -0.5855   1.0149   1.0149
     4.3794   4.3794   5.3384   5.3384  10.0113  10.0113  10.8846  10.8846
    11.6155  11.6155  12.9442  12.9442

     occupation numbers 
     1.0000   1.0000   1.0000   1.0000   1.0000   1.0000   1.0000   1.0000
     1.0000   1.0000   1.0000   1.0000   1.0000   1.0000   1.0000   1.0000
     1.0000   1.0000   1.0000   1.0000   1.0000   1.0000   1.0000   1.0000
     1.0000   1.0000   1.0000   1.0000   0.0000   0.0000   0.0000   0.0000
     0.0000   0.0000   0.0000   0.0000

          k = 0.0000-0.2977 0.5210 (  2020 PWs)   bands (ev):

   -14.5562 -14.5562 -14.5222 -14.5222 -14.4875 -14.4875 -14.4412 -14.4412
   -13.5647 -13.5647 -13.5202 -13.5202 -13.4676 -13.4676 -13.4106 -13.4106
   -13.3277 -13.3277 -13.2815 -13.2815  -0.8385  -0.8385   1.3136   1.3136
     4.4726   4.4726   5.4935   5.4935  10.0260  10.0260  10.6057  10.6057
    11.3057  11.3057  13.4141  13.4141

     occupation numbers 
     1.0000   1.0000   1.0000   1.0000   1.0000   1.0000   1.0000   1.0000
     1.0000   1.0000   1.0000   1.0000   1.0000   1.0000   1.0000   1.0000
     1.0000   1.0000   1.0000   1.0000   1.0000   1.0000   1.0000   1.0000
     1.0000   1.0000   1.0000   1.0000   0.0000   0.0000   0.0000   0.0000
     0.0000   0.0000   0.0000   0.0000

          k =-0.1116-0.4838 0.7071 (  2028 PWs)   bands (ev):

   -14.5543 -14.5543 -14.5280 -14.5280 -14.4830 -14.4830 -14.4449 -14.4449
   -13.5629 -13.5629 -13.5209 -13.5209 -13.4646 -13.4646 -13.4212 -13.4212
   -13.3265 -13.3265 -13.2820 -13.2820  -0.5408  -0.5408   0.9665   0.9665
     4.6612   4.6612   5.1029   5.1029   9.6483   9.6483   9.9184   9.9184
    12.0722  12.0722  13.8569  13.8569

     occupation numbers 
     1.0000   1.0000   1.0000   1.0000   1.0000   1.0000   1.0000   1.0000
     1.0000   1.0000   1.0000   1.0000   1.0000   1.0000   1.0000   1.0000
     1.0000   1.0000   1.0000   1.0000   1.0000   1.0000   1.0000   1.0000
     1.0000   1.0000   1.0000   1.0000   0.0000   0.0000   0.0000   0.0000
     0.0000   0.0000   0.0000   0.0000

          k =-0.0744-0.4466 0.6699 (  2031 PWs)   bands (ev):

   -14.5555 -14.5555 -14.5266 -14.5266 -14.4857 -14.4857 -14.4431 -14.4431
   -13.5641 -13.5641 -13.5177 -13.5177 -13.4618 -13.4618 -13.4291 -13.4291
   -13.3268 -13.3268 -13.2787 -13.2787  -0.2855  -0.2855   0.6901   0.6901
     4.5263   4.5263   5.0074   5.0074   9.8088   9.8088  10.4542  10.4542
    11.9205  11.9205  13.1970  13.1970

     occupation numbers 
     1.0000   1.0000   1.0000   1.0000   1.0000   1.0000   1.0000   1.0000
     1.0000   1.0000   1.0000   1.0000   1.0000   1.0000   1.0000   1.0000
     1.0000   1.0000   1.0000   1.0000   1.0000   1.0000   1.0000   1.0000
     1.0000   1.0000   1.0000   1.0000   0.0000   0.0000   0.0000   0.0000
     0.0000   0.0000   0.0000   0.0000

          k =-0.0372-0.4094 0.6327 (  2024 PWs)   bands (ev):

   -14.5560 -14.5560 -14.5237 -14.5237 -14.4863 -14.4863 -14.4401 -14.4401
   -13.5633 -13.5633 -13.5146 -13.5146 -13.4599 -13.4599 -13.4310 -13.4310
   -13.3261 -13.3261 -13.2752 -13.2752  -0.1776  -0.1776   0.5804   0.5804
     4.4020   4.4020   5.0359   5.0359   9.8906   9.8906  11.1241  11.1241
    11.8453  11.8453  12.4295  12.4295

     occupation numbers 
     1.0000   1.0000   1.0000   1.0000   1.0000   1.0000   1.0000   1.0000
     1.0000   1.0000   1.0000   1.0000   1.0000   1.0000   1.0000   1.0000
     1.0000   1.0000   1.0000   1.0000   1.0000   1.0000   1.0000   1.0000
     1.0000   1.0000   1.0000   1.0000   0.0000   0.0000   0.0000   0.0000
     0.0000   0.0000   0.0000   0.0000

          k =-0.0000-0.3722 0.5955 (  2030 PWs)   bands (ev):

   -14.5577 -14.5577 -14.5239 -14.5239 -14.4885 -14.4885 -14.4403 -14.4403
   -13.5644 -13.5644 -13.5165 -13.5165 -13.4636 -13.4636 -13.4275 -13.4275
   -13.3274 -13.3274 -13.2768 -13.2768  -0.3288  -0.3288   0.7426   0.7426
     4.3417   4.3417   5.1555   5.1555   9.9774   9.9774  11.3501  11.3501
    11.7499  11.7499  12.2537  12.2537

     occupation numbers 
     1.0000   1.0000   1.0000   1.0000   1.0000   1.0000   1.0000   1.0000
     1.0000   1.0000   1.0000   1.0000   1.0000   1.0000   1.0000   1.0000
     1.0000   1.0000   1.0000   1.0000   1.0000   1.0000   1.0000   1.0000
     1.0000   1.0000   1.0000   1.0000   0.0000   0.0000   0.0000   0.0000
     0.0000   0.0000   0.0000   0.0000

          k =-0.0372-0.4838 0.7071 (  2033 PWs)   bands (ev):

   -14.5550 -14.5550 -14.5291 -14.5291 -14.4831 -14.4831 -14.4449 -14.4449
   -13.5627 -13.5627 -13.5209 -13.5209 -13.4559 -13.4559 -13.4352 -13.4352
   -13.3244 -13.3244 -13.2802 -13.2802  -0.0635  -0.0635   0.4435   0.4435
     4.6775   4.6775   4.8865   4.8865   9.6445   9.6445   9.8210   9.8210
    12.6900  12.6900  13.3573  13.3573

     occupation numbers 
     1.0000   1.0000   1.0000   1.0000   1.0000   1.0000   1.0000   1.0000
     1.0000   1.0000   1.0000   1.0000   1.0000   1.0000   1.0000   1.0000
     1.0000   1.0000   1.0000   1.0000   1.0000   1.0000   1.0000   1.0000
     1.0000   1.0000   1.0000   1.0000   0.0000   0.0000   0.0000   0.0000
     0.0000   0.0000   0.0000   0.0000

          k = 0.0000-0.4466 0.6699 (  2029 PWs)   bands (ev):

   -14.5549 -14.5549 -14.5262 -14.5262 -14.4850 -14.4850 -14.4427 -14.4427
   -13.5638 -13.5638 -13.5160 -13.5160 -13.4551 -13.4551 -13.4380 -13.4380
   -13.3254 -13.3254 -13.2765 -13.2765   0.0564   0.0564   0.3331   0.3331
     4.5352   4.5352   4.8921   4.8921   9.7930   9.7930  10.4383  10.4383
    12.4861  12.4861  12.6045  12.6045

     occupation numbers 
     1.0000   1.0000   1.0000   1.0000   1.0000   1.0000   1.0000   1.0000
     1.0000   1.0000   1.0000   1.0000   1.0000   1.0000   1.0000   1.0000
     1.0000   1.0000   1.0000   1.0000   1.0000   1.0000   1.0000   1.0000
     1.0000   1.0000   1.0000   1.0000   0.0000   0.0000   0.0000   0.0000
     0.0000   0.0000   0.0000   0.0000

          k =-0.1116-0.4094 0.7071 (  2030 PWs)   bands (ev):

   -14.5574 -14.5574 -14.5250 -14.5250 -14.4874 -14.4874 -14.4414 -14.4414
   -13.5644 -13.5644 -13.5178 -13.5178 -13.4648 -13.4648 -13.4247 -13.4247
   -13.3276 -13.3276 -13.2779 -13.2779  -0.4404  -0.4404   0.8659   0.8659
     4.4582   4.4582   5.0960   5.0960  10.3184  10.3184  10.5888  10.5888
    11.3563  11.3563  13.0669  13.0669

     occupation numbers 
     1.0000   1.0000   1.0000   1.0000   1.0000   1.0000   1.0000   1.0000
     1.0000   1.0000   1.0000   1.0000   1.0000   1.0000   1.0000   1.0000
     1.0000   1.0000   1.0000   1.0000   1.0000   1.0000   1.0000   1.0000
     1.0000   1.0000   1.0000   1.0000   0.0000   0.0000   0.0000   0.0000
     0.0000   0.0000   0.0000   0.0000

          k =-0.0744-0.3722 0.6699 (  2027 PWs)   bands (ev):

   -14.5566 -14.5566 -14.5242 -14.5242 -14.4872 -14.4872 -14.4402 -14.4402
   -13.5642 -13.5642 -13.5147 -13.5147 -13.4617 -13.4617 -13.4297 -13.4297
   -13.3273 -13.3273 -13.2756 -13.2756  -0.2262  -0.2262   0.6379   0.6379
     4.4191   4.4191   4.9811   4.9811  10.4037  10.4037  10.9420  10.9420
    11.5489  11.5489  12.3096  12.3096

     occupation numbers 
     1.0000   1.0000   1.0000   1.0000   1.0000   1.0000   1.0000   1.0000
     1.0000   1.0000   1.0000   1.0000   1.0000   1.0000   1.0000   1.0000
     1.0000   1.0000   1.0000   1.0000   1.0000   1.0000   1.0000   1.0000
     1.0000   1.0000   1.0000   1.0000   0.0000   0.0000   0.0000   0.0000
     0.0000   0.0000   0.0000   0.0000

          k =-0.0372-0.4094 0.7071 (  2023 PWs)   bands (ev):

   -14.5540 -14.5540 -14.5246 -14.5246 -14.4852 -14.4852 -14.4411 -14.4411
   -13.5633 -13.5633 -13.5129 -13.5129 -13.4565 -13.4565 -13.4355 -13.4355
   -13.3266 -13.3266 -13.2744 -13.2744  -0.0185  -0.0185   0.4218   0.4218
     4.5353   4.5353   4.8041   4.8041  10.3807  10.3807  10.6013  10.6013
    11.7765  11.7765  12.4078  12.4078

     occupation numbers 
     1.0000   1.0000   1.0000   1.0000   1.0000   1.0000   1.0000   1.0000
     1.0000   1.0000   1.0000   1.0000   1.0000   1.0000   1.0000   1.0000
     1.0000   1.0000   1.0000   1.0000   1.0000   1.0000   1.0000   1.0000
     1.0000   1.0000   1.0000   1.0000   0.0000   0.0000   0.0000   0.0000
     0.0000   0.0000   0.0000   0.0000

          k = 0.0000-0.3722 0.6699 (  2012 PWs)   bands (ev):

   -14.5533 -14.5533 -14.5225 -14.5225 -14.4839 -14.4839 -14.4385 -14.4385
   -13.5621 -13.5621 -13.5111 -13.5111 -13.4542 -13.4542 -13.4344 -13.4344
   -13.3252 -13.3252 -13.2723 -13.2723   0.0230   0.0230   0.3843   0.3843
     4.4840   4.4840   4.8062   4.8062  10.5146  10.5146  11.1111  11.1111
    11.6882  11.6882  11.7851  11.7851

     occupation numbers 
     1.0000   1.0000   1.0000   1.0000   1.0000   1.0000   1.0000   1.0000
     1.0000   1.0000   1.0000   1.0000   1.0000   1.0000   1.0000   1.0000
     1.0000   1.0000   1.0000   1.0000   1.0000   1.0000   1.0000   1.0000
     1.0000   1.0000   1.0000   1.0000   0.0000   0.0000   0.0000   0.0000
     0.0000   0.0000   0.0000   0.0000

     the Fermi energy is     7.6546 ev

!    total energy              =    -885.82839974 Ry
     Harris-Foulkes estimate   =    -885.82839963 Ry
     estimated scf accuracy    <       0.00000010 Ry

     total all-electron energy =    -24716.528149 Ry

     The total energy is the sum of the following terms:

     one-electron contribution =    -148.92301728 Ry
     hartree contribution      =      93.71192452 Ry
     xc contribution           =     -96.16578917 Ry
     ewald contribution        =    -170.59904351 Ry
     one-center paw contrib.   =    -563.85247423 Ry
     smearing contrib. (-TS)   =      -0.00000006 Ry

     convergence has been achieved in   5 iterations

     Writing output data file Sn.save
 
     init_run     :      7.10s CPU      7.48s WALL (       1 calls)
     electrons    :    151.44s CPU    157.00s WALL (       1 calls)

     Called by init_run:
     wfcinit      :      6.51s CPU      6.79s WALL (       1 calls)
     potinit      :      0.29s CPU      0.30s WALL (       1 calls)

     Called by electrons:
     c_bands      :    126.50s CPU    131.21s WALL (       6 calls)
     sum_band     :     23.27s CPU     23.99s WALL (       6 calls)
     v_of_rho     :      0.03s CPU      0.03s WALL (       6 calls)
     v_h          :      0.00s CPU      0.00s WALL (       6 calls)
     v_xc         :      0.03s CPU      0.03s WALL (       6 calls)
     newd         :      0.34s CPU      0.36s WALL (       6 calls)
     PAW_pot      :      1.58s CPU      1.66s WALL (       6 calls)
     mix_rho      :      0.01s CPU      0.02s WALL (       6 calls)

     Called by c_bands:
     init_us_2    :      0.33s CPU      0.40s WALL (    2860 calls)
     cegterg      :    120.18s CPU    124.58s WALL (    1320 calls)

     Called by sum_band:
     sum_band:bec :      4.47s CPU      4.50s WALL (    1320 calls)
     addusdens    :      0.16s CPU      0.20s WALL (       6 calls)

     Called by *egterg:
     h_psi        :     88.20s CPU     91.03s WALL (    4668 calls)
     s_psi        :      4.10s CPU      4.14s WALL (    4668 calls)
     g_psi        :      0.28s CPU      0.28s WALL (    3128 calls)
     cdiaghg      :     17.73s CPU     18.04s WALL (    4228 calls)
     cegterg:over :      6.45s CPU      6.49s WALL (    3128 calls)
     cegterg:upda :      2.58s CPU      2.59s WALL (    3128 calls)
     cegterg:last :      1.44s CPU      1.45s WALL (    1320 calls)

     Called by h_psi:
     h_psi:vloc   :     78.11s CPU     80.80s WALL (    4668 calls)
     h_psi:vnl    :      9.84s CPU      9.96s WALL (    4668 calls)
     add_vuspsi   :      4.65s CPU      4.69s WALL (    4668 calls)

     General routines
     calbec       :      6.94s CPU      7.06s WALL (    5988 calls)
     fft          :      0.04s CPU      0.04s WALL (     116 calls)
     fftw         :     87.82s CPU     90.90s WALL (  599544 calls)
     davcio       :      0.04s CPU      0.29s WALL (     220 calls)
 
     Parallel routines
     fft_scatter  :     52.87s CPU     55.12s WALL (  599660 calls)

     PAW routines
     PAW_pot      :      1.58s CPU      1.66s WALL (       6 calls)
     PAW_symme    :      0.04s CPU      0.04s WALL (      12 calls)
 
     PWSCF        :  2m40.09s CPU     2m46.50s WALL

 
   This run was terminated on:  22:47:13   8Mar2020            

=------------------------------------------------------------------------------=
   JOB DONE.
=------------------------------------------------------------------------------=
