
     Program PWSCF v.5.4.0 starts on  1Mar2020 at 23:16:27 

     This program is part of the open-source Quantum ESPRESSO suite
     for quantum simulation of materials; please cite
         "P. Giannozzi et al., J. Phys.:Condens. Matter 21 395502 (2009);
          URL http://www.quantum-espresso.org", 
     in publications or presentations arising from this work. More details at
     http://www.quantum-espresso.org/quote

     Parallel version (MPI & OpenMP), running on      16 processor cores
     Number of MPI processes:                16
     Threads/MPI process:                     1
     R & G space division:  proc/nbgrp/npool/nimage =      16
     Waiting for input...
     Reading input from standard input
Warning: card &IONS ignored
Warning: card / ignored
Warning: card &CELL ignored
Warning: card / ignored

     Current dimensions of program PWSCF are:
     Max number of different atomic species (ntypx) = 10
     Max number of k-points (npk) =  40000
     Max angular momentum in pseudopotentials (lmaxx) =  3

     Subspace diagonalization in iterative solution of the eigenvalue problem:
     a serial algorithm will be used

 
     Parallelization info
     --------------------
     sticks:   dense  smooth     PW     G-vecs:    dense   smooth      PW
     Min         131     131     37                 4036     4036     614
     Max         132     132     38                 4041     4041     618
     Sum        2107    2107    595                64623    64623    9841
 

     Title: 
     Sn                                                                         


     bravais-lattice index     =            0
     lattice parameter (alat)  =       8.7791  a.u.
     unit-cell volume          =     478.4458 (a.u.)^3
     number of atoms/cell      =            2
     number of atomic types    =            1
     number of electrons       =        28.00
     number of Kohn-Sham states=           18
     kinetic-energy cutoff     =     100.0000  Ry
     charge density cutoff     =     400.0000  Ry
     convergence threshold     =      1.0E-06
     mixing beta               =       0.7000
     number of iterations used =            8  plain     mixing
     Exchange-correlation      = PBE ( 1  4  3  4 0 0)

     celldm(1)=   8.779085  celldm(2)=   0.000000  celldm(3)=   0.000000
     celldm(4)=   0.000000  celldm(5)=   0.000000  celldm(6)=   0.000000

     crystal axes: (cart. coord. in units of alat)
               a(1) = (   0.000000   0.707107   0.707107 )  
               a(2) = (   0.707107   0.000000   0.707107 )  
               a(3) = (   0.707107   0.707107   0.000000 )  

     reciprocal axes: (cart. coord. in units 2 pi/alat)
               b(1) = ( -0.707107  0.707107  0.707107 )  
               b(2) = (  0.707107 -0.707107  0.707107 )  
               b(3) = (  0.707107  0.707107 -0.707107 )  


     PseudoPot. # 1 for Sn read from file:
     ../PseudopotentialDatabase/Sn_ONCV_PBE_FR-1.1.upf
     MD5 check sum: 6dd2180f739ea5ae1610ead5e1628a0e
     Pseudo is Norm-conserving, Zval = 14.0
     Generated using ONCVPSP code by D. R. Hamann
     Using radial grid of  602 points,  6 beta functions with: 
                l(1) =   0
                l(2) =   0
                l(3) =   1
                l(4) =   1
                l(5) =   2
                l(6) =   2

     atomic species   valence    mass     pseudopotential
        Sn            14.00   118.71000     Sn( 1.00)

     48 Sym. Ops., with inversion, found (24 have fractional translation)


                                    s                        frac. trans.

      isym =  1     identity                                     

 cryst.   s( 1) = (     1          0          0      )
                  (     0          1          0      )
                  (     0          0          1      )

 cart.    s( 1) = (  1.0000000  0.0000000  0.0000000 )
                  (  0.0000000  1.0000000  0.0000000 )
                  (  0.0000000  0.0000000  1.0000000 )


      isym =  2     180 deg rotation - cart. axis [0,0,1]        

 cryst.   s( 2) = (     0          1         -1      )
                  (     1          0         -1      )
                  (     0          0         -1      )

 cart.    s( 2) = ( -1.0000000  0.0000000  0.0000000 )
                  (  0.0000000 -1.0000000  0.0000000 )
                  (  0.0000000  0.0000000  1.0000000 )


      isym =  3     180 deg rotation - cart. axis [0,1,0]        

 cryst.   s( 3) = (     0         -1          1      )
                  (     0         -1          0      )
                  (     1         -1          0      )

 cart.    s( 3) = ( -1.0000000  0.0000000  0.0000000 )
                  (  0.0000000  1.0000000  0.0000000 )
                  (  0.0000000  0.0000000 -1.0000000 )


      isym =  4     180 deg rotation - cart. axis [1,0,0]        

 cryst.   s( 4) = (    -1          0          0      )
                  (    -1          0          1      )
                  (    -1          1          0      )

 cart.    s( 4) = (  1.0000000  0.0000000  0.0000000 )
                  (  0.0000000 -1.0000000  0.0000000 )
                  (  0.0000000  0.0000000 -1.0000000 )


      isym =  5     180 deg rotation - cart. axis [1,1,0]        

 cryst.   s( 5) = (    -1          0          1      )    f =( -0.2500000 )
                  (     0         -1          1      )       ( -0.2500000 )
                  (     0          0          1      )       ( -0.2500000 )

 cart.    s( 5) = (  0.0000000  1.0000000  0.0000000 )    f =( -0.3535534 )
                  (  1.0000000  0.0000000  0.0000000 )       ( -0.3535534 )
                  (  0.0000000  0.0000000 -1.0000000 )       ( -0.3535534 )


      isym =  6     180 deg rotation - cart. axis [1,-1,0]       

 cryst.   s( 6) = (     0         -1          0      )    f =( -0.2500000 )
                  (    -1          0          0      )       ( -0.2500000 )
                  (     0          0         -1      )       ( -0.2500000 )

 cart.    s( 6) = (  0.0000000 -1.0000000  0.0000000 )    f =( -0.3535534 )
                  ( -1.0000000  0.0000000  0.0000000 )       ( -0.3535534 )
                  (  0.0000000  0.0000000 -1.0000000 )       ( -0.3535534 )


      isym =  7      90 deg rotation - cart. axis [0,0,-1]       

 cryst.   s( 7) = (     0          1          0      )    f =( -0.2500000 )
                  (     0          1         -1      )       ( -0.2500000 )
                  (    -1          1          0      )       ( -0.2500000 )

 cart.    s( 7) = (  0.0000000  1.0000000  0.0000000 )    f =( -0.3535534 )
                  ( -1.0000000  0.0000000  0.0000000 )       ( -0.3535534 )
                  (  0.0000000  0.0000000  1.0000000 )       ( -0.3535534 )


      isym =  8      90 deg rotation - cart. axis [0,0,1]        

 cryst.   s( 8) = (     1          0         -1      )    f =( -0.2500000 )
                  (     1          0          0      )       ( -0.2500000 )
                  (     1         -1          0      )       ( -0.2500000 )

 cart.    s( 8) = (  0.0000000 -1.0000000  0.0000000 )    f =( -0.3535534 )
                  (  1.0000000  0.0000000  0.0000000 )       ( -0.3535534 )
                  (  0.0000000  0.0000000  1.0000000 )       ( -0.3535534 )


      isym =  9     180 deg rotation - cart. axis [1,0,1]        

 cryst.   s( 9) = (    -1          1          0      )    f =( -0.2500000 )
                  (     0          1          0      )       ( -0.2500000 )
                  (     0          1         -1      )       ( -0.2500000 )

 cart.    s( 9) = (  0.0000000  0.0000000  1.0000000 )    f =( -0.3535534 )
                  (  0.0000000 -1.0000000  0.0000000 )       ( -0.3535534 )
                  (  1.0000000  0.0000000  0.0000000 )       ( -0.3535534 )


      isym = 10     180 deg rotation - cart. axis [-1,0,1]       

 cryst.   s(10) = (     0          0         -1      )    f =( -0.2500000 )
                  (     0         -1          0      )       ( -0.2500000 )
                  (    -1          0          0      )       ( -0.2500000 )

 cart.    s(10) = (  0.0000000  0.0000000 -1.0000000 )    f =( -0.3535534 )
                  (  0.0000000 -1.0000000  0.0000000 )       ( -0.3535534 )
                  ( -1.0000000  0.0000000  0.0000000 )       ( -0.3535534 )


      isym = 11      90 deg rotation - cart. axis [0,1,0]        

 cryst.   s(11) = (     0          0          1      )    f =( -0.2500000 )
                  (    -1          0          1      )       ( -0.2500000 )
                  (     0         -1          1      )       ( -0.2500000 )

 cart.    s(11) = (  0.0000000  0.0000000  1.0000000 )    f =( -0.3535534 )
                  (  0.0000000  1.0000000  0.0000000 )       ( -0.3535534 )
                  ( -1.0000000  0.0000000  0.0000000 )       ( -0.3535534 )


      isym = 12      90 deg rotation - cart. axis [0,-1,0]       

 cryst.   s(12) = (     1         -1          0      )    f =( -0.2500000 )
                  (     1          0         -1      )       ( -0.2500000 )
                  (     1          0          0      )       ( -0.2500000 )

 cart.    s(12) = (  0.0000000  0.0000000 -1.0000000 )    f =( -0.3535534 )
                  (  0.0000000  1.0000000  0.0000000 )       ( -0.3535534 )
                  (  1.0000000  0.0000000  0.0000000 )       ( -0.3535534 )


      isym = 13     180 deg rotation - cart. axis [0,1,1]        

 cryst.   s(13) = (     1          0          0      )    f =( -0.2500000 )
                  (     1         -1          0      )       ( -0.2500000 )
                  (     1          0         -1      )       ( -0.2500000 )

 cart.    s(13) = ( -1.0000000  0.0000000  0.0000000 )    f =( -0.3535534 )
                  (  0.0000000  0.0000000  1.0000000 )       ( -0.3535534 )
                  (  0.0000000  1.0000000  0.0000000 )       ( -0.3535534 )


      isym = 14     180 deg rotation - cart. axis [0,1,-1]       

 cryst.   s(14) = (    -1          0          0      )    f =( -0.2500000 )
                  (     0          0         -1      )       ( -0.2500000 )
                  (     0         -1          0      )       ( -0.2500000 )

 cart.    s(14) = ( -1.0000000  0.0000000  0.0000000 )    f =( -0.3535534 )
                  (  0.0000000  0.0000000 -1.0000000 )       ( -0.3535534 )
                  (  0.0000000 -1.0000000  0.0000000 )       ( -0.3535534 )


      isym = 15      90 deg rotation - cart. axis [-1,0,0]       

 cryst.   s(15) = (     0         -1          1      )    f =( -0.2500000 )
                  (     0          0          1      )       ( -0.2500000 )
                  (    -1          0          1      )       ( -0.2500000 )

 cart.    s(15) = (  1.0000000  0.0000000  0.0000000 )    f =( -0.3535534 )
                  (  0.0000000  0.0000000  1.0000000 )       ( -0.3535534 )
                  (  0.0000000 -1.0000000  0.0000000 )       ( -0.3535534 )


      isym = 16      90 deg rotation - cart. axis [1,0,0]        

 cryst.   s(16) = (     0          1         -1      )    f =( -0.2500000 )
                  (    -1          1          0      )       ( -0.2500000 )
                  (     0          1          0      )       ( -0.2500000 )

 cart.    s(16) = (  1.0000000  0.0000000  0.0000000 )    f =( -0.3535534 )
                  (  0.0000000  0.0000000 -1.0000000 )       ( -0.3535534 )
                  (  0.0000000  1.0000000  0.0000000 )       ( -0.3535534 )


      isym = 17     120 deg rotation - cart. axis [-1,-1,-1]     

 cryst.   s(17) = (     0          0          1      )
                  (     1          0          0      )
                  (     0          1          0      )

 cart.    s(17) = (  0.0000000  1.0000000  0.0000000 )
                  (  0.0000000  0.0000000  1.0000000 )
                  (  1.0000000  0.0000000  0.0000000 )


      isym = 18     120 deg rotation - cart. axis [-1,1,1]       

 cryst.   s(18) = (     1         -1          0      )
                  (     0         -1          1      )
                  (     0         -1          0      )

 cart.    s(18) = (  0.0000000 -1.0000000  0.0000000 )
                  (  0.0000000  0.0000000  1.0000000 )
                  ( -1.0000000  0.0000000  0.0000000 )


      isym = 19     120 deg rotation - cart. axis [1,1,-1]       

 cryst.   s(19) = (    -1          1          0      )
                  (    -1          0          0      )
                  (    -1          0          1      )

 cart.    s(19) = (  0.0000000  1.0000000  0.0000000 )
                  (  0.0000000  0.0000000 -1.0000000 )
                  ( -1.0000000  0.0000000  0.0000000 )


      isym = 20     120 deg rotation - cart. axis [1,-1,1]       

 cryst.   s(20) = (     0          0         -1      )
                  (     0          1         -1      )
                  (     1          0         -1      )

 cart.    s(20) = (  0.0000000 -1.0000000  0.0000000 )
                  (  0.0000000  0.0000000 -1.0000000 )
                  (  1.0000000  0.0000000  0.0000000 )


      isym = 21     120 deg rotation - cart. axis [1,1,1]        

 cryst.   s(21) = (     0          1          0      )
                  (     0          0          1      )
                  (     1          0          0      )

 cart.    s(21) = (  0.0000000  0.0000000  1.0000000 )
                  (  1.0000000  0.0000000  0.0000000 )
                  (  0.0000000  1.0000000  0.0000000 )


      isym = 22     120 deg rotation - cart. axis [-1,1,-1]      

 cryst.   s(22) = (    -1          0          1      )
                  (    -1          1          0      )
                  (    -1          0          0      )

 cart.    s(22) = (  0.0000000  0.0000000  1.0000000 )
                  ( -1.0000000  0.0000000  0.0000000 )
                  (  0.0000000 -1.0000000  0.0000000 )


      isym = 23     120 deg rotation - cart. axis [1,-1,-1]      

 cryst.   s(23) = (     1          0         -1      )
                  (     0          0         -1      )
                  (     0          1         -1      )

 cart.    s(23) = (  0.0000000  0.0000000 -1.0000000 )
                  ( -1.0000000  0.0000000  0.0000000 )
                  (  0.0000000  1.0000000  0.0000000 )


      isym = 24     120 deg rotation - cart. axis [-1,-1,1]      

 cryst.   s(24) = (     0         -1          0      )
                  (     1         -1          0      )
                  (     0         -1          1      )

 cart.    s(24) = (  0.0000000  0.0000000 -1.0000000 )
                  (  1.0000000  0.0000000  0.0000000 )
                  (  0.0000000 -1.0000000  0.0000000 )


      isym = 25     inversion                                    

 cryst.   s(25) = (    -1          0          0      )    f =( -0.2500000 )
                  (     0         -1          0      )       ( -0.2500000 )
                  (     0          0         -1      )       ( -0.2500000 )

 cart.    s(25) = ( -1.0000000  0.0000000  0.0000000 )    f =( -0.3535534 )
                  (  0.0000000 -1.0000000  0.0000000 )       ( -0.3535534 )
                  (  0.0000000  0.0000000 -1.0000000 )       ( -0.3535534 )


      isym = 26     inv. 180 deg rotation - cart. axis [0,0,1]   

 cryst.   s(26) = (     0         -1          1      )    f =( -0.2500000 )
                  (    -1          0          1      )       ( -0.2500000 )
                  (     0          0          1      )       ( -0.2500000 )

 cart.    s(26) = (  1.0000000  0.0000000  0.0000000 )    f =( -0.3535534 )
                  (  0.0000000  1.0000000  0.0000000 )       ( -0.3535534 )
                  (  0.0000000  0.0000000 -1.0000000 )       ( -0.3535534 )


      isym = 27     inv. 180 deg rotation - cart. axis [0,1,0]   

 cryst.   s(27) = (     0          1         -1      )    f =( -0.2500000 )
                  (     0          1          0      )       ( -0.2500000 )
                  (    -1          1          0      )       ( -0.2500000 )

 cart.    s(27) = (  1.0000000  0.0000000  0.0000000 )    f =( -0.3535534 )
                  (  0.0000000 -1.0000000  0.0000000 )       ( -0.3535534 )
                  (  0.0000000  0.0000000  1.0000000 )       ( -0.3535534 )


      isym = 28     inv. 180 deg rotation - cart. axis [1,0,0]   

 cryst.   s(28) = (     1          0          0      )    f =( -0.2500000 )
                  (     1          0         -1      )       ( -0.2500000 )
                  (     1         -1          0      )       ( -0.2500000 )

 cart.    s(28) = ( -1.0000000  0.0000000  0.0000000 )    f =( -0.3535534 )
                  (  0.0000000  1.0000000  0.0000000 )       ( -0.3535534 )
                  (  0.0000000  0.0000000  1.0000000 )       ( -0.3535534 )


      isym = 29     inv. 180 deg rotation - cart. axis [1,1,0]   

 cryst.   s(29) = (     1          0         -1      )
                  (     0          1         -1      )
                  (     0          0         -1      )

 cart.    s(29) = (  0.0000000 -1.0000000  0.0000000 )
                  ( -1.0000000  0.0000000  0.0000000 )
                  (  0.0000000  0.0000000  1.0000000 )


      isym = 30     inv. 180 deg rotation - cart. axis [1,-1,0]  

 cryst.   s(30) = (     0          1          0      )
                  (     1          0          0      )
                  (     0          0          1      )

 cart.    s(30) = (  0.0000000  1.0000000  0.0000000 )
                  (  1.0000000  0.0000000  0.0000000 )
                  (  0.0000000  0.0000000  1.0000000 )


      isym = 31     inv.  90 deg rotation - cart. axis [0,0,-1]  

 cryst.   s(31) = (     0         -1          0      )
                  (     0         -1          1      )
                  (     1         -1          0      )

 cart.    s(31) = (  0.0000000 -1.0000000  0.0000000 )
                  (  1.0000000  0.0000000  0.0000000 )
                  (  0.0000000  0.0000000 -1.0000000 )


      isym = 32     inv.  90 deg rotation - cart. axis [0,0,1]   

 cryst.   s(32) = (    -1          0          1      )
                  (    -1          0          0      )
                  (    -1          1          0      )

 cart.    s(32) = (  0.0000000  1.0000000  0.0000000 )
                  ( -1.0000000  0.0000000  0.0000000 )
                  (  0.0000000  0.0000000 -1.0000000 )


      isym = 33     inv. 180 deg rotation - cart. axis [1,0,1]   

 cryst.   s(33) = (     1         -1          0      )
                  (     0         -1          0      )
                  (     0         -1          1      )

 cart.    s(33) = (  0.0000000  0.0000000 -1.0000000 )
                  (  0.0000000  1.0000000  0.0000000 )
                  ( -1.0000000  0.0000000  0.0000000 )


      isym = 34     inv. 180 deg rotation - cart. axis [-1,0,1]  

 cryst.   s(34) = (     0          0          1      )
                  (     0          1          0      )
                  (     1          0          0      )

 cart.    s(34) = (  0.0000000  0.0000000  1.0000000 )
                  (  0.0000000  1.0000000  0.0000000 )
                  (  1.0000000  0.0000000  0.0000000 )


      isym = 35     inv.  90 deg rotation - cart. axis [0,1,0]   

 cryst.   s(35) = (     0          0         -1      )
                  (     1          0         -1      )
                  (     0          1         -1      )

 cart.    s(35) = (  0.0000000  0.0000000 -1.0000000 )
                  (  0.0000000 -1.0000000  0.0000000 )
                  (  1.0000000  0.0000000  0.0000000 )


      isym = 36     inv.  90 deg rotation - cart. axis [0,-1,0]  

 cryst.   s(36) = (    -1          1          0      )
                  (    -1          0          1      )
                  (    -1          0          0      )

 cart.    s(36) = (  0.0000000  0.0000000  1.0000000 )
                  (  0.0000000 -1.0000000  0.0000000 )
                  ( -1.0000000  0.0000000  0.0000000 )


      isym = 37     inv. 180 deg rotation - cart. axis [0,1,1]   

 cryst.   s(37) = (    -1          0          0      )
                  (    -1          1          0      )
                  (    -1          0          1      )

 cart.    s(37) = (  1.0000000  0.0000000  0.0000000 )
                  (  0.0000000  0.0000000 -1.0000000 )
                  (  0.0000000 -1.0000000  0.0000000 )


      isym = 38     inv. 180 deg rotation - cart. axis [0,1,-1]  

 cryst.   s(38) = (     1          0          0      )
                  (     0          0          1      )
                  (     0          1          0      )

 cart.    s(38) = (  1.0000000  0.0000000  0.0000000 )
                  (  0.0000000  0.0000000  1.0000000 )
                  (  0.0000000  1.0000000  0.0000000 )


      isym = 39     inv.  90 deg rotation - cart. axis [-1,0,0]  

 cryst.   s(39) = (     0          1         -1      )
                  (     0          0         -1      )
                  (     1          0         -1      )

 cart.    s(39) = ( -1.0000000  0.0000000  0.0000000 )
                  (  0.0000000  0.0000000 -1.0000000 )
                  (  0.0000000  1.0000000  0.0000000 )


      isym = 40     inv.  90 deg rotation - cart. axis [1,0,0]   

 cryst.   s(40) = (     0         -1          1      )
                  (     1         -1          0      )
                  (     0         -1          0      )

 cart.    s(40) = ( -1.0000000  0.0000000  0.0000000 )
                  (  0.0000000  0.0000000  1.0000000 )
                  (  0.0000000 -1.0000000  0.0000000 )


      isym = 41     inv. 120 deg rotation - cart. axis [-1,-1,-1]

 cryst.   s(41) = (     0          0         -1      )    f =( -0.2500000 )
                  (    -1          0          0      )       ( -0.2500000 )
                  (     0         -1          0      )       ( -0.2500000 )

 cart.    s(41) = (  0.0000000 -1.0000000  0.0000000 )    f =( -0.3535534 )
                  (  0.0000000  0.0000000 -1.0000000 )       ( -0.3535534 )
                  ( -1.0000000  0.0000000  0.0000000 )       ( -0.3535534 )


      isym = 42     inv. 120 deg rotation - cart. axis [-1,1,1]  

 cryst.   s(42) = (    -1          1          0      )    f =( -0.2500000 )
                  (     0          1         -1      )       ( -0.2500000 )
                  (     0          1          0      )       ( -0.2500000 )

 cart.    s(42) = (  0.0000000  1.0000000  0.0000000 )    f =( -0.3535534 )
                  (  0.0000000  0.0000000 -1.0000000 )       ( -0.3535534 )
                  (  1.0000000  0.0000000  0.0000000 )       ( -0.3535534 )


      isym = 43     inv. 120 deg rotation - cart. axis [1,1,-1]  

 cryst.   s(43) = (     1         -1          0      )    f =( -0.2500000 )
                  (     1          0          0      )       ( -0.2500000 )
                  (     1          0         -1      )       ( -0.2500000 )

 cart.    s(43) = (  0.0000000 -1.0000000  0.0000000 )    f =( -0.3535534 )
                  (  0.0000000  0.0000000  1.0000000 )       ( -0.3535534 )
                  (  1.0000000  0.0000000  0.0000000 )       ( -0.3535534 )


      isym = 44     inv. 120 deg rotation - cart. axis [1,-1,1]  

 cryst.   s(44) = (     0          0          1      )    f =( -0.2500000 )
                  (     0         -1          1      )       ( -0.2500000 )
                  (    -1          0          1      )       ( -0.2500000 )

 cart.    s(44) = (  0.0000000  1.0000000  0.0000000 )    f =( -0.3535534 )
                  (  0.0000000  0.0000000  1.0000000 )       ( -0.3535534 )
                  ( -1.0000000  0.0000000  0.0000000 )       ( -0.3535534 )


      isym = 45     inv. 120 deg rotation - cart. axis [1,1,1]   

 cryst.   s(45) = (     0         -1          0      )    f =( -0.2500000 )
                  (     0          0         -1      )       ( -0.2500000 )
                  (    -1          0          0      )       ( -0.2500000 )

 cart.    s(45) = (  0.0000000  0.0000000 -1.0000000 )    f =( -0.3535534 )
                  ( -1.0000000  0.0000000  0.0000000 )       ( -0.3535534 )
                  (  0.0000000 -1.0000000  0.0000000 )       ( -0.3535534 )


      isym = 46     inv. 120 deg rotation - cart. axis [-1,1,-1] 

 cryst.   s(46) = (     1          0         -1      )    f =( -0.2500000 )
                  (     1         -1          0      )       ( -0.2500000 )
                  (     1          0          0      )       ( -0.2500000 )

 cart.    s(46) = (  0.0000000  0.0000000 -1.0000000 )    f =( -0.3535534 )
                  (  1.0000000  0.0000000  0.0000000 )       ( -0.3535534 )
                  (  0.0000000  1.0000000  0.0000000 )       ( -0.3535534 )


      isym = 47     inv. 120 deg rotation - cart. axis [1,-1,-1] 

 cryst.   s(47) = (    -1          0          1      )    f =( -0.2500000 )
                  (     0          0          1      )       ( -0.2500000 )
                  (     0         -1          1      )       ( -0.2500000 )

 cart.    s(47) = (  0.0000000  0.0000000  1.0000000 )    f =( -0.3535534 )
                  (  1.0000000  0.0000000  0.0000000 )       ( -0.3535534 )
                  (  0.0000000 -1.0000000  0.0000000 )       ( -0.3535534 )


      isym = 48     inv. 120 deg rotation - cart. axis [-1,-1,1] 

 cryst.   s(48) = (     0          1          0      )    f =( -0.2500000 )
                  (    -1          1          0      )       ( -0.2500000 )
                  (     0          1         -1      )       ( -0.2500000 )

 cart.    s(48) = (  0.0000000  0.0000000  1.0000000 )    f =( -0.3535534 )
                  ( -1.0000000  0.0000000  0.0000000 )       ( -0.3535534 )
                  (  0.0000000  1.0000000  0.0000000 )       ( -0.3535534 )


   Cartesian axes

     site n.     atom                  positions (alat units)
         1           Sn  tau(   1) = (   0.0000000   0.0000000   0.0000000  )
         2           Sn  tau(   2) = (   0.3535534   0.3535534   0.3535534  )

   Crystallographic axes

     site n.     atom                  positions (cryst. coord.)
         1           Sn  tau(   1) = (  0.0000000  0.0000000  0.0000000  )
         2           Sn  tau(   2) = (  0.2500000  0.2500000  0.2500000  )

     number of k points=   752  gaussian smearing, width (Ry)=  0.0001
                       cart. coord. in units 2pi/alat
        k(    1) = (   0.0000000   0.0000000   0.0000000), wk =   0.0000741
        k(    2) = (   0.0235702   0.0235702  -0.0235702), wk =   0.0005926
        k(    3) = (   0.0471405   0.0471405  -0.0471405), wk =   0.0005926
        k(    4) = (   0.0707107   0.0707107  -0.0707107), wk =   0.0005926
        k(    5) = (   0.0942809   0.0942809  -0.0942809), wk =   0.0005926
        k(    6) = (   0.1178511   0.1178511  -0.1178511), wk =   0.0005926
        k(    7) = (   0.1414214   0.1414214  -0.1414214), wk =   0.0005926
        k(    8) = (   0.1649916   0.1649916  -0.1649916), wk =   0.0005926
        k(    9) = (   0.1885618   0.1885618  -0.1885618), wk =   0.0005926
        k(   10) = (   0.2121320   0.2121320  -0.2121320), wk =   0.0005926
        k(   11) = (   0.2357023   0.2357023  -0.2357023), wk =   0.0005926
        k(   12) = (   0.2592725   0.2592725  -0.2592725), wk =   0.0005926
        k(   13) = (   0.2828427   0.2828427  -0.2828427), wk =   0.0005926
        k(   14) = (   0.3064129   0.3064129  -0.3064129), wk =   0.0005926
        k(   15) = (   0.3299832   0.3299832  -0.3299832), wk =   0.0005926
        k(   16) = (  -0.3535534  -0.3535534   0.3535534), wk =   0.0002963
        k(   17) = (   0.0471405   0.0000000   0.0000000), wk =   0.0004444
        k(   18) = (   0.0707107   0.0235702  -0.0235702), wk =   0.0017778
        k(   19) = (   0.0942809   0.0471405  -0.0471405), wk =   0.0017778
        k(   20) = (   0.1178511   0.0707107  -0.0707107), wk =   0.0017778
        k(   21) = (   0.1414214   0.0942809  -0.0942809), wk =   0.0017778
        k(   22) = (   0.1649916   0.1178511  -0.1178511), wk =   0.0017778
        k(   23) = (   0.1885618   0.1414214  -0.1414214), wk =   0.0017778
        k(   24) = (   0.2121320   0.1649916  -0.1649916), wk =   0.0017778
        k(   25) = (   0.2357023   0.1885618  -0.1885618), wk =   0.0017778
        k(   26) = (   0.2592725   0.2121320  -0.2121320), wk =   0.0017778
        k(   27) = (   0.2828427   0.2357023  -0.2357023), wk =   0.0017778
        k(   28) = (   0.3064129   0.2592725  -0.2592725), wk =   0.0017778
        k(   29) = (   0.3299832   0.2828427  -0.2828427), wk =   0.0017778
        k(   30) = (   0.3535534   0.3064129  -0.3064129), wk =   0.0017778
        k(   31) = (  -0.3299832  -0.3771236   0.3771236), wk =   0.0017778
        k(   32) = (  -0.3064129  -0.3535534   0.3535534), wk =   0.0017778
        k(   33) = (  -0.2828427  -0.3299832   0.3299832), wk =   0.0017778
        k(   34) = (  -0.2592725  -0.3064129   0.3064129), wk =   0.0017778
        k(   35) = (  -0.2357023  -0.2828427   0.2828427), wk =   0.0017778
        k(   36) = (  -0.2121320  -0.2592725   0.2592725), wk =   0.0017778
        k(   37) = (  -0.1885618  -0.2357023   0.2357023), wk =   0.0017778
        k(   38) = (  -0.1649916  -0.2121320   0.2121320), wk =   0.0017778
        k(   39) = (  -0.1414214  -0.1885618   0.1885618), wk =   0.0017778
        k(   40) = (  -0.1178511  -0.1649916   0.1649916), wk =   0.0017778
        k(   41) = (  -0.0942809  -0.1414214   0.1414214), wk =   0.0017778
        k(   42) = (  -0.0707107  -0.1178511   0.1178511), wk =   0.0017778
        k(   43) = (  -0.0471405  -0.0942809   0.0942809), wk =   0.0017778
        k(   44) = (  -0.0235702  -0.0707107   0.0707107), wk =   0.0017778
        k(   45) = (   0.0000000  -0.0471405   0.0471405), wk =   0.0008889
        k(   46) = (   0.0942809   0.0000000   0.0000000), wk =   0.0004444
        k(   47) = (   0.1178511   0.0235702  -0.0235702), wk =   0.0017778
        k(   48) = (   0.1414214   0.0471405  -0.0471405), wk =   0.0017778
        k(   49) = (   0.1649916   0.0707107  -0.0707107), wk =   0.0017778
        k(   50) = (   0.1885618   0.0942809  -0.0942809), wk =   0.0017778
        k(   51) = (   0.2121320   0.1178511  -0.1178511), wk =   0.0017778
        k(   52) = (   0.2357023   0.1414214  -0.1414214), wk =   0.0017778
        k(   53) = (   0.2592725   0.1649916  -0.1649916), wk =   0.0017778
        k(   54) = (   0.2828427   0.1885618  -0.1885618), wk =   0.0017778
        k(   55) = (   0.3064129   0.2121320  -0.2121320), wk =   0.0017778
        k(   56) = (   0.3299832   0.2357023  -0.2357023), wk =   0.0017778
        k(   57) = (   0.3535534   0.2592725  -0.2592725), wk =   0.0017778
        k(   58) = (   0.3771236   0.2828427  -0.2828427), wk =   0.0017778
        k(   59) = (  -0.3064129  -0.4006938   0.4006938), wk =   0.0017778
        k(   60) = (  -0.2828427  -0.3771236   0.3771236), wk =   0.0017778
        k(   61) = (  -0.2592725  -0.3535534   0.3535534), wk =   0.0017778
        k(   62) = (  -0.2357023  -0.3299832   0.3299832), wk =   0.0017778
        k(   63) = (  -0.2121320  -0.3064129   0.3064129), wk =   0.0017778
        k(   64) = (  -0.1885618  -0.2828427   0.2828427), wk =   0.0017778
        k(   65) = (  -0.1649916  -0.2592725   0.2592725), wk =   0.0017778
        k(   66) = (  -0.1414214  -0.2357023   0.2357023), wk =   0.0017778
        k(   67) = (  -0.1178511  -0.2121320   0.2121320), wk =   0.0017778
        k(   68) = (  -0.0942809  -0.1885618   0.1885618), wk =   0.0017778
        k(   69) = (  -0.0707107  -0.1649916   0.1649916), wk =   0.0017778
        k(   70) = (  -0.0471405  -0.1414214   0.1414214), wk =   0.0017778
        k(   71) = (  -0.0235702  -0.1178511   0.1178511), wk =   0.0017778
        k(   72) = (   0.0000000  -0.0942809   0.0942809), wk =   0.0008889
        k(   73) = (   0.1414214   0.0000000   0.0000000), wk =   0.0004444
        k(   74) = (   0.1649916   0.0235702  -0.0235702), wk =   0.0017778
        k(   75) = (   0.1885618   0.0471405  -0.0471405), wk =   0.0017778
        k(   76) = (   0.2121320   0.0707107  -0.0707107), wk =   0.0017778
        k(   77) = (   0.2357023   0.0942809  -0.0942809), wk =   0.0017778
        k(   78) = (   0.2592725   0.1178511  -0.1178511), wk =   0.0017778
        k(   79) = (   0.2828427   0.1414214  -0.1414214), wk =   0.0017778
        k(   80) = (   0.3064129   0.1649916  -0.1649916), wk =   0.0017778
        k(   81) = (   0.3299832   0.1885618  -0.1885618), wk =   0.0017778
        k(   82) = (   0.3535534   0.2121320  -0.2121320), wk =   0.0017778
        k(   83) = (   0.3771236   0.2357023  -0.2357023), wk =   0.0017778
        k(   84) = (   0.4006938   0.2592725  -0.2592725), wk =   0.0017778
        k(   85) = (  -0.2828427  -0.4242641   0.4242641), wk =   0.0017778
        k(   86) = (  -0.2592725  -0.4006938   0.4006938), wk =   0.0017778
        k(   87) = (  -0.2357023  -0.3771236   0.3771236), wk =   0.0017778
        k(   88) = (  -0.2121320  -0.3535534   0.3535534), wk =   0.0017778
        k(   89) = (  -0.1885618  -0.3299832   0.3299832), wk =   0.0017778
        k(   90) = (  -0.1649916  -0.3064129   0.3064129), wk =   0.0017778
        k(   91) = (  -0.1414214  -0.2828427   0.2828427), wk =   0.0017778
        k(   92) = (  -0.1178511  -0.2592725   0.2592725), wk =   0.0017778
        k(   93) = (  -0.0942809  -0.2357023   0.2357023), wk =   0.0017778
        k(   94) = (  -0.0707107  -0.2121320   0.2121320), wk =   0.0017778
        k(   95) = (  -0.0471405  -0.1885618   0.1885618), wk =   0.0017778
        k(   96) = (  -0.0235702  -0.1649916   0.1649916), wk =   0.0017778
        k(   97) = (   0.0000000  -0.1414214   0.1414214), wk =   0.0008889
        k(   98) = (   0.1885618   0.0000000   0.0000000), wk =   0.0004444
        k(   99) = (   0.2121320   0.0235702  -0.0235702), wk =   0.0017778
        k(  100) = (   0.2357023   0.0471405  -0.0471405), wk =   0.0017778
        k(  101) = (   0.2592725   0.0707107  -0.0707107), wk =   0.0017778
        k(  102) = (   0.2828427   0.0942809  -0.0942809), wk =   0.0017778
        k(  103) = (   0.3064129   0.1178511  -0.1178511), wk =   0.0017778
        k(  104) = (   0.3299832   0.1414214  -0.1414214), wk =   0.0017778
        k(  105) = (   0.3535534   0.1649916  -0.1649916), wk =   0.0017778
        k(  106) = (   0.3771236   0.1885618  -0.1885618), wk =   0.0017778
        k(  107) = (   0.4006938   0.2121320  -0.2121320), wk =   0.0017778
        k(  108) = (   0.4242641   0.2357023  -0.2357023), wk =   0.0017778
        k(  109) = (  -0.2592725  -0.4478343   0.4478343), wk =   0.0017778
        k(  110) = (  -0.2357023  -0.4242641   0.4242641), wk =   0.0017778
        k(  111) = (  -0.2121320  -0.4006938   0.4006938), wk =   0.0017778
        k(  112) = (  -0.1885618  -0.3771236   0.3771236), wk =   0.0017778
        k(  113) = (  -0.1649916  -0.3535534   0.3535534), wk =   0.0017778
        k(  114) = (  -0.1414214  -0.3299832   0.3299832), wk =   0.0017778
        k(  115) = (  -0.1178511  -0.3064129   0.3064129), wk =   0.0017778
        k(  116) = (  -0.0942809  -0.2828427   0.2828427), wk =   0.0017778
        k(  117) = (  -0.0707107  -0.2592725   0.2592725), wk =   0.0017778
        k(  118) = (  -0.0471405  -0.2357023   0.2357023), wk =   0.0017778
        k(  119) = (  -0.0235702  -0.2121320   0.2121320), wk =   0.0017778
        k(  120) = (   0.0000000  -0.1885618   0.1885618), wk =   0.0008889
        k(  121) = (   0.2357023   0.0000000   0.0000000), wk =   0.0004444
        k(  122) = (   0.2592725   0.0235702  -0.0235702), wk =   0.0017778
        k(  123) = (   0.2828427   0.0471405  -0.0471405), wk =   0.0017778
        k(  124) = (   0.3064129   0.0707107  -0.0707107), wk =   0.0017778
        k(  125) = (   0.3299832   0.0942809  -0.0942809), wk =   0.0017778
        k(  126) = (   0.3535534   0.1178511  -0.1178511), wk =   0.0017778
        k(  127) = (   0.3771236   0.1414214  -0.1414214), wk =   0.0017778
        k(  128) = (   0.4006938   0.1649916  -0.1649916), wk =   0.0017778
        k(  129) = (   0.4242641   0.1885618  -0.1885618), wk =   0.0017778
        k(  130) = (   0.4478343   0.2121320  -0.2121320), wk =   0.0017778
        k(  131) = (  -0.2357023  -0.4714045   0.4714045), wk =   0.0017778
        k(  132) = (  -0.2121320  -0.4478343   0.4478343), wk =   0.0017778
        k(  133) = (  -0.1885618  -0.4242641   0.4242641), wk =   0.0017778
        k(  134) = (  -0.1649916  -0.4006938   0.4006938), wk =   0.0017778
        k(  135) = (  -0.1414214  -0.3771236   0.3771236), wk =   0.0017778
        k(  136) = (  -0.1178511  -0.3535534   0.3535534), wk =   0.0017778
        k(  137) = (  -0.0942809  -0.3299832   0.3299832), wk =   0.0017778
        k(  138) = (  -0.0707107  -0.3064129   0.3064129), wk =   0.0017778
        k(  139) = (  -0.0471405  -0.2828427   0.2828427), wk =   0.0017778
        k(  140) = (  -0.0235702  -0.2592725   0.2592725), wk =   0.0017778
        k(  141) = (   0.0000000  -0.2357023   0.2357023), wk =   0.0008889
        k(  142) = (   0.2828427   0.0000000   0.0000000), wk =   0.0004444
        k(  143) = (   0.3064129   0.0235702  -0.0235702), wk =   0.0017778
        k(  144) = (   0.3299832   0.0471405  -0.0471405), wk =   0.0017778
        k(  145) = (   0.3535534   0.0707107  -0.0707107), wk =   0.0017778
        k(  146) = (   0.3771236   0.0942809  -0.0942809), wk =   0.0017778
        k(  147) = (   0.4006938   0.1178511  -0.1178511), wk =   0.0017778
        k(  148) = (   0.4242641   0.1414214  -0.1414214), wk =   0.0017778
        k(  149) = (   0.4478343   0.1649916  -0.1649916), wk =   0.0017778
        k(  150) = (   0.4714045   0.1885618  -0.1885618), wk =   0.0017778
        k(  151) = (  -0.2121320  -0.4949747   0.4949747), wk =   0.0017778
        k(  152) = (  -0.1885618  -0.4714045   0.4714045), wk =   0.0017778
        k(  153) = (  -0.1649916  -0.4478343   0.4478343), wk =   0.0017778
        k(  154) = (  -0.1414214  -0.4242641   0.4242641), wk =   0.0017778
        k(  155) = (  -0.1178511  -0.4006938   0.4006938), wk =   0.0017778
        k(  156) = (  -0.0942809  -0.3771236   0.3771236), wk =   0.0017778
        k(  157) = (  -0.0707107  -0.3535534   0.3535534), wk =   0.0017778
        k(  158) = (  -0.0471405  -0.3299832   0.3299832), wk =   0.0017778
        k(  159) = (  -0.0235702  -0.3064129   0.3064129), wk =   0.0017778
        k(  160) = (   0.0000000  -0.2828427   0.2828427), wk =   0.0008889
        k(  161) = (   0.3299832   0.0000000   0.0000000), wk =   0.0004444
        k(  162) = (   0.3535534   0.0235702  -0.0235702), wk =   0.0017778
        k(  163) = (   0.3771236   0.0471405  -0.0471405), wk =   0.0017778
        k(  164) = (   0.4006938   0.0707107  -0.0707107), wk =   0.0017778
        k(  165) = (   0.4242641   0.0942809  -0.0942809), wk =   0.0017778
        k(  166) = (   0.4478343   0.1178511  -0.1178511), wk =   0.0017778
        k(  167) = (   0.4714045   0.1414214  -0.1414214), wk =   0.0017778
        k(  168) = (   0.4949747   0.1649916  -0.1649916), wk =   0.0017778
        k(  169) = (  -0.1885618  -0.5185450   0.5185450), wk =   0.0017778
        k(  170) = (  -0.1649916  -0.4949747   0.4949747), wk =   0.0017778
        k(  171) = (  -0.1414214  -0.4714045   0.4714045), wk =   0.0017778
        k(  172) = (  -0.1178511  -0.4478343   0.4478343), wk =   0.0017778
        k(  173) = (  -0.0942809  -0.4242641   0.4242641), wk =   0.0017778
        k(  174) = (  -0.0707107  -0.4006938   0.4006938), wk =   0.0017778
        k(  175) = (  -0.0471405  -0.3771236   0.3771236), wk =   0.0017778
        k(  176) = (  -0.0235702  -0.3535534   0.3535534), wk =   0.0017778
        k(  177) = (   0.0000000  -0.3299832   0.3299832), wk =   0.0008889
        k(  178) = (   0.3771236   0.0000000   0.0000000), wk =   0.0004444
        k(  179) = (   0.4006938   0.0235702  -0.0235702), wk =   0.0017778
        k(  180) = (   0.4242641   0.0471405  -0.0471405), wk =   0.0017778
        k(  181) = (   0.4478343   0.0707107  -0.0707107), wk =   0.0017778
        k(  182) = (   0.4714045   0.0942809  -0.0942809), wk =   0.0017778
        k(  183) = (   0.4949747   0.1178511  -0.1178511), wk =   0.0017778
        k(  184) = (   0.5185450   0.1414214  -0.1414214), wk =   0.0017778
        k(  185) = (  -0.1649916  -0.5421152   0.5421152), wk =   0.0017778
        k(  186) = (  -0.1414214  -0.5185450   0.5185450), wk =   0.0017778
        k(  187) = (  -0.1178511  -0.4949747   0.4949747), wk =   0.0017778
        k(  188) = (  -0.0942809  -0.4714045   0.4714045), wk =   0.0017778
        k(  189) = (  -0.0707107  -0.4478343   0.4478343), wk =   0.0017778
        k(  190) = (  -0.0471405  -0.4242641   0.4242641), wk =   0.0017778
        k(  191) = (  -0.0235702  -0.4006938   0.4006938), wk =   0.0017778
        k(  192) = (  -0.0000000  -0.3771236   0.3771236), wk =   0.0008889
        k(  193) = (   0.4242641   0.0000000   0.0000000), wk =   0.0004444
        k(  194) = (   0.4478343   0.0235702  -0.0235702), wk =   0.0017778
        k(  195) = (   0.4714045   0.0471405  -0.0471405), wk =   0.0017778
        k(  196) = (   0.4949747   0.0707107  -0.0707107), wk =   0.0017778
        k(  197) = (   0.5185450   0.0942809  -0.0942809), wk =   0.0017778
        k(  198) = (   0.5421152   0.1178511  -0.1178511), wk =   0.0017778
        k(  199) = (  -0.1414214  -0.5656854   0.5656854), wk =   0.0017778
        k(  200) = (  -0.1178511  -0.5421152   0.5421152), wk =   0.0017778
        k(  201) = (  -0.0942809  -0.5185450   0.5185450), wk =   0.0017778
        k(  202) = (  -0.0707107  -0.4949747   0.4949747), wk =   0.0017778
        k(  203) = (  -0.0471405  -0.4714045   0.4714045), wk =   0.0017778
        k(  204) = (  -0.0235702  -0.4478343   0.4478343), wk =   0.0017778
        k(  205) = (  -0.0000000  -0.4242641   0.4242641), wk =   0.0008889
        k(  206) = (   0.4714045   0.0000000   0.0000000), wk =   0.0004444
        k(  207) = (   0.4949747   0.0235702  -0.0235702), wk =   0.0017778
        k(  208) = (   0.5185450   0.0471405  -0.0471405), wk =   0.0017778
        k(  209) = (   0.5421152   0.0707107  -0.0707107), wk =   0.0017778
        k(  210) = (   0.5656854   0.0942809  -0.0942809), wk =   0.0017778
        k(  211) = (  -0.1178511  -0.5892557   0.5892557), wk =   0.0017778
        k(  212) = (  -0.0942809  -0.5656854   0.5656854), wk =   0.0017778
        k(  213) = (  -0.0707107  -0.5421152   0.5421152), wk =   0.0017778
        k(  214) = (  -0.0471405  -0.5185450   0.5185450), wk =   0.0017778
        k(  215) = (  -0.0235702  -0.4949747   0.4949747), wk =   0.0017778
        k(  216) = (  -0.0000000  -0.4714045   0.4714045), wk =   0.0008889
        k(  217) = (   0.5185450   0.0000000   0.0000000), wk =   0.0004444
        k(  218) = (   0.5421152   0.0235702  -0.0235702), wk =   0.0017778
        k(  219) = (   0.5656854   0.0471405  -0.0471405), wk =   0.0017778
        k(  220) = (   0.5892557   0.0707107  -0.0707107), wk =   0.0017778
        k(  221) = (  -0.0942809  -0.6128259   0.6128259), wk =   0.0017778
        k(  222) = (  -0.0707107  -0.5892557   0.5892557), wk =   0.0017778
        k(  223) = (  -0.0471405  -0.5656854   0.5656854), wk =   0.0017778
        k(  224) = (  -0.0235702  -0.5421152   0.5421152), wk =   0.0017778
        k(  225) = (   0.0000000  -0.5185450   0.5185450), wk =   0.0008889
        k(  226) = (   0.5656854   0.0000000   0.0000000), wk =   0.0004444
        k(  227) = (   0.5892557   0.0235702  -0.0235702), wk =   0.0017778
        k(  228) = (   0.6128259   0.0471405  -0.0471405), wk =   0.0017778
        k(  229) = (  -0.0707107  -0.6363961   0.6363961), wk =   0.0017778
        k(  230) = (  -0.0471405  -0.6128259   0.6128259), wk =   0.0017778
        k(  231) = (  -0.0235702  -0.5892557   0.5892557), wk =   0.0017778
        k(  232) = (   0.0000000  -0.5656854   0.5656854), wk =   0.0008889
        k(  233) = (   0.6128259   0.0000000   0.0000000), wk =   0.0004444
        k(  234) = (   0.6363961   0.0235702  -0.0235702), wk =   0.0017778
        k(  235) = (  -0.0471405  -0.6599663   0.6599663), wk =   0.0017778
        k(  236) = (  -0.0235702  -0.6363961   0.6363961), wk =   0.0017778
        k(  237) = (   0.0000000  -0.6128259   0.6128259), wk =   0.0008889
        k(  238) = (   0.6599663   0.0000000   0.0000000), wk =   0.0004444
        k(  239) = (  -0.0235702  -0.6835366   0.6835366), wk =   0.0017778
        k(  240) = (   0.0000000  -0.6599663   0.6599663), wk =   0.0008889
        k(  241) = (  -0.7071068   0.0000000   0.0000000), wk =   0.0002222
        k(  242) = (   0.0942809   0.0471405  -0.0000000), wk =   0.0017778
        k(  243) = (   0.1178511   0.0707107  -0.0235702), wk =   0.0035556
        k(  244) = (   0.1414214   0.0942809  -0.0471405), wk =   0.0035556
        k(  245) = (   0.1649916   0.1178511  -0.0707107), wk =   0.0035556
        k(  246) = (   0.1885618   0.1414214  -0.0942809), wk =   0.0035556
        k(  247) = (   0.2121320   0.1649916  -0.1178511), wk =   0.0035556
        k(  248) = (   0.2357023   0.1885618  -0.1414214), wk =   0.0035556
        k(  249) = (   0.2592725   0.2121320  -0.1649916), wk =   0.0035556
        k(  250) = (   0.2828427   0.2357023  -0.1885618), wk =   0.0035556
        k(  251) = (   0.3064129   0.2592725  -0.2121320), wk =   0.0035556
        k(  252) = (   0.3299832   0.2828427  -0.2357023), wk =   0.0035556
        k(  253) = (   0.3535534   0.3064129  -0.2592725), wk =   0.0035556
        k(  254) = (  -0.3299832  -0.3771236   0.4242641), wk =   0.0035556
        k(  255) = (  -0.3064129  -0.3535534   0.4006938), wk =   0.0017778
        k(  256) = (   0.1414214   0.0471405   0.0000000), wk =   0.0017778
        k(  257) = (   0.1649916   0.0707107  -0.0235702), wk =   0.0035556
        k(  258) = (   0.1885618   0.0942809  -0.0471405), wk =   0.0035556
        k(  259) = (   0.2121320   0.1178511  -0.0707107), wk =   0.0035556
        k(  260) = (   0.2357023   0.1414214  -0.0942809), wk =   0.0035556
        k(  261) = (   0.2592725   0.1649916  -0.1178511), wk =   0.0035556
        k(  262) = (   0.2828427   0.1885618  -0.1414214), wk =   0.0035556
        k(  263) = (   0.3064129   0.2121320  -0.1649916), wk =   0.0035556
        k(  264) = (   0.3299832   0.2357023  -0.1885618), wk =   0.0035556
        k(  265) = (   0.3535534   0.2592725  -0.2121320), wk =   0.0035556
        k(  266) = (   0.3771236   0.2828427  -0.2357023), wk =   0.0035556
        k(  267) = (  -0.3064129  -0.4006938   0.4478343), wk =   0.0035556
        k(  268) = (  -0.2828427  -0.3771236   0.4242641), wk =   0.0035556
        k(  269) = (  -0.2592725  -0.3535534   0.4006938), wk =   0.0035556
        k(  270) = (  -0.2357023  -0.3299832   0.3771236), wk =   0.0035556
        k(  271) = (  -0.2121320  -0.3064129   0.3535534), wk =   0.0035556
        k(  272) = (  -0.1885618  -0.2828427   0.3299832), wk =   0.0035556
        k(  273) = (  -0.1649916  -0.2592725   0.3064129), wk =   0.0035556
        k(  274) = (  -0.1414214  -0.2357023   0.2828427), wk =   0.0035556
        k(  275) = (  -0.1178511  -0.2121320   0.2592725), wk =   0.0035556
        k(  276) = (  -0.0942809  -0.1885618   0.2357023), wk =   0.0035556
        k(  277) = (  -0.0707107  -0.1649916   0.2121320), wk =   0.0035556
        k(  278) = (  -0.0471405  -0.1414214   0.1885618), wk =   0.0035556
        k(  279) = (  -0.0235702  -0.1178511   0.1649916), wk =   0.0035556
        k(  280) = (   0.0000000  -0.0942809   0.1414214), wk =   0.0017778
        k(  281) = (   0.1885618   0.0471405   0.0000000), wk =   0.0017778
        k(  282) = (   0.2121320   0.0707107  -0.0235702), wk =   0.0035556
        k(  283) = (   0.2357023   0.0942809  -0.0471405), wk =   0.0035556
        k(  284) = (   0.2592725   0.1178511  -0.0707107), wk =   0.0035556
        k(  285) = (   0.2828427   0.1414214  -0.0942809), wk =   0.0035556
        k(  286) = (   0.3064129   0.1649916  -0.1178511), wk =   0.0035556
        k(  287) = (   0.3299832   0.1885618  -0.1414214), wk =   0.0035556
        k(  288) = (   0.3535534   0.2121320  -0.1649916), wk =   0.0035556
        k(  289) = (   0.3771236   0.2357023  -0.1885618), wk =   0.0035556
        k(  290) = (   0.4006938   0.2592725  -0.2121320), wk =   0.0035556
        k(  291) = (  -0.2828427  -0.4242641   0.4714045), wk =   0.0035556
        k(  292) = (  -0.2592725  -0.4006938   0.4478343), wk =   0.0035556
        k(  293) = (  -0.2357023  -0.3771236   0.4242641), wk =   0.0035556
        k(  294) = (  -0.2121320  -0.3535534   0.4006938), wk =   0.0035556
        k(  295) = (  -0.1885618  -0.3299832   0.3771236), wk =   0.0035556
        k(  296) = (  -0.1649916  -0.3064129   0.3535534), wk =   0.0035556
        k(  297) = (  -0.1414214  -0.2828427   0.3299832), wk =   0.0035556
        k(  298) = (  -0.1178511  -0.2592725   0.3064129), wk =   0.0035556
        k(  299) = (  -0.0942809  -0.2357023   0.2828427), wk =   0.0035556
        k(  300) = (  -0.0707107  -0.2121320   0.2592725), wk =   0.0035556
        k(  301) = (  -0.0471405  -0.1885618   0.2357023), wk =   0.0035556
        k(  302) = (  -0.0235702  -0.1649916   0.2121320), wk =   0.0035556
        k(  303) = (   0.0000000  -0.1414214   0.1885618), wk =   0.0017778
        k(  304) = (   0.2357023   0.0471405  -0.0000000), wk =   0.0017778
        k(  305) = (   0.2592725   0.0707107  -0.0235702), wk =   0.0035556
        k(  306) = (   0.2828427   0.0942809  -0.0471405), wk =   0.0035556
        k(  307) = (   0.3064129   0.1178511  -0.0707107), wk =   0.0035556
        k(  308) = (   0.3299832   0.1414214  -0.0942809), wk =   0.0035556
        k(  309) = (   0.3535534   0.1649916  -0.1178511), wk =   0.0035556
        k(  310) = (   0.3771236   0.1885618  -0.1414214), wk =   0.0035556
        k(  311) = (   0.4006938   0.2121320  -0.1649916), wk =   0.0035556
        k(  312) = (   0.4242641   0.2357023  -0.1885618), wk =   0.0035556
        k(  313) = (  -0.2592725  -0.4478343   0.4949747), wk =   0.0035556
        k(  314) = (  -0.2357023  -0.4242641   0.4714045), wk =   0.0035556
        k(  315) = (  -0.2121320  -0.4006938   0.4478343), wk =   0.0035556
        k(  316) = (  -0.1885618  -0.3771236   0.4242641), wk =   0.0035556
        k(  317) = (  -0.1649916  -0.3535534   0.4006938), wk =   0.0035556
        k(  318) = (  -0.1414214  -0.3299832   0.3771236), wk =   0.0035556
        k(  319) = (  -0.1178511  -0.3064129   0.3535534), wk =   0.0035556
        k(  320) = (  -0.0942809  -0.2828427   0.3299832), wk =   0.0035556
        k(  321) = (  -0.0707107  -0.2592725   0.3064129), wk =   0.0035556
        k(  322) = (  -0.0471405  -0.2357023   0.2828427), wk =   0.0035556
        k(  323) = (  -0.0235702  -0.2121320   0.2592725), wk =   0.0035556
        k(  324) = (   0.0000000  -0.1885618   0.2357023), wk =   0.0017778
        k(  325) = (   0.2828427   0.0471405   0.0000000), wk =   0.0017778
        k(  326) = (   0.3064129   0.0707107  -0.0235702), wk =   0.0035556
        k(  327) = (   0.3299832   0.0942809  -0.0471405), wk =   0.0035556
        k(  328) = (   0.3535534   0.1178511  -0.0707107), wk =   0.0035556
        k(  329) = (   0.3771236   0.1414214  -0.0942809), wk =   0.0035556
        k(  330) = (   0.4006938   0.1649916  -0.1178511), wk =   0.0035556
        k(  331) = (   0.4242641   0.1885618  -0.1414214), wk =   0.0035556
        k(  332) = (   0.4478343   0.2121320  -0.1649916), wk =   0.0035556
        k(  333) = (  -0.2357023  -0.4714045   0.5185450), wk =   0.0035556
        k(  334) = (  -0.2121320  -0.4478343   0.4949747), wk =   0.0035556
        k(  335) = (  -0.1885618  -0.4242641   0.4714045), wk =   0.0035556
        k(  336) = (  -0.1649916  -0.4006938   0.4478343), wk =   0.0035556
        k(  337) = (  -0.1414214  -0.3771236   0.4242641), wk =   0.0035556
        k(  338) = (  -0.1178511  -0.3535534   0.4006938), wk =   0.0035556
        k(  339) = (  -0.0942809  -0.3299832   0.3771236), wk =   0.0035556
        k(  340) = (  -0.0707107  -0.3064129   0.3535534), wk =   0.0035556
        k(  341) = (  -0.0471405  -0.2828427   0.3299832), wk =   0.0035556
        k(  342) = (  -0.0235702  -0.2592725   0.3064129), wk =   0.0035556
        k(  343) = (   0.0000000  -0.2357023   0.2828427), wk =   0.0017778
        k(  344) = (   0.3299832   0.0471405   0.0000000), wk =   0.0017778
        k(  345) = (   0.3535534   0.0707107  -0.0235702), wk =   0.0035556
        k(  346) = (   0.3771236   0.0942809  -0.0471405), wk =   0.0035556
        k(  347) = (   0.4006938   0.1178511  -0.0707107), wk =   0.0035556
        k(  348) = (   0.4242641   0.1414214  -0.0942809), wk =   0.0035556
        k(  349) = (   0.4478343   0.1649916  -0.1178511), wk =   0.0035556
        k(  350) = (   0.4714045   0.1885618  -0.1414214), wk =   0.0035556
        k(  351) = (  -0.2121320  -0.4949747   0.5421152), wk =   0.0035556
        k(  352) = (  -0.1885618  -0.4714045   0.5185450), wk =   0.0035556
        k(  353) = (  -0.1649916  -0.4478343   0.4949747), wk =   0.0035556
        k(  354) = (  -0.1414214  -0.4242641   0.4714045), wk =   0.0035556
        k(  355) = (  -0.1178511  -0.4006938   0.4478343), wk =   0.0035556
        k(  356) = (  -0.0942809  -0.3771236   0.4242641), wk =   0.0035556
        k(  357) = (  -0.0707107  -0.3535534   0.4006938), wk =   0.0035556
        k(  358) = (  -0.0471405  -0.3299832   0.3771236), wk =   0.0035556
        k(  359) = (  -0.0235702  -0.3064129   0.3535534), wk =   0.0035556
        k(  360) = (   0.0000000  -0.2828427   0.3299832), wk =   0.0017778
        k(  361) = (   0.3771236   0.0471405   0.0000000), wk =   0.0017778
        k(  362) = (   0.4006938   0.0707107  -0.0235702), wk =   0.0035556
        k(  363) = (   0.4242641   0.0942809  -0.0471405), wk =   0.0035556
        k(  364) = (   0.4478343   0.1178511  -0.0707107), wk =   0.0035556
        k(  365) = (   0.4714045   0.1414214  -0.0942809), wk =   0.0035556
        k(  366) = (   0.4949747   0.1649916  -0.1178511), wk =   0.0035556
        k(  367) = (  -0.1885618  -0.5185450   0.5656854), wk =   0.0035556
        k(  368) = (  -0.1649916  -0.4949747   0.5421152), wk =   0.0035556
        k(  369) = (  -0.1414214  -0.4714045   0.5185450), wk =   0.0035556
        k(  370) = (  -0.1178511  -0.4478343   0.4949747), wk =   0.0035556
        k(  371) = (  -0.0942809  -0.4242641   0.4714045), wk =   0.0035556
        k(  372) = (  -0.0707107  -0.4006938   0.4478343), wk =   0.0035556
        k(  373) = (  -0.0471405  -0.3771236   0.4242641), wk =   0.0035556
        k(  374) = (  -0.0235702  -0.3535534   0.4006938), wk =   0.0035556
        k(  375) = (   0.0000000  -0.3299832   0.3771236), wk =   0.0017778
        k(  376) = (   0.4242641   0.0471405   0.0000000), wk =   0.0017778
        k(  377) = (   0.4478343   0.0707107  -0.0235702), wk =   0.0035556
        k(  378) = (   0.4714045   0.0942809  -0.0471405), wk =   0.0035556
        k(  379) = (   0.4949747   0.1178511  -0.0707107), wk =   0.0035556
        k(  380) = (   0.5185450   0.1414214  -0.0942809), wk =   0.0035556
        k(  381) = (  -0.1649916  -0.5421152   0.5892557), wk =   0.0035556
        k(  382) = (  -0.1414214  -0.5185450   0.5656854), wk =   0.0035556
        k(  383) = (  -0.1178511  -0.4949747   0.5421152), wk =   0.0035556
        k(  384) = (  -0.0942809  -0.4714045   0.5185450), wk =   0.0035556
        k(  385) = (  -0.0707107  -0.4478343   0.4949747), wk =   0.0035556
        k(  386) = (  -0.0471405  -0.4242641   0.4714045), wk =   0.0035556
        k(  387) = (  -0.0235702  -0.4006938   0.4478343), wk =   0.0035556
        k(  388) = (  -0.0000000  -0.3771236   0.4242641), wk =   0.0017778
        k(  389) = (   0.4714045   0.0471405  -0.0000000), wk =   0.0017778
        k(  390) = (   0.4949747   0.0707107  -0.0235702), wk =   0.0035556
        k(  391) = (   0.5185450   0.0942809  -0.0471405), wk =   0.0035556
        k(  392) = (   0.5421152   0.1178511  -0.0707107), wk =   0.0035556
        k(  393) = (  -0.1414214  -0.5656854   0.6128259), wk =   0.0035556
        k(  394) = (  -0.1178511  -0.5421152   0.5892557), wk =   0.0035556
        k(  395) = (  -0.0942809  -0.5185450   0.5656854), wk =   0.0035556
        k(  396) = (  -0.0707107  -0.4949747   0.5421152), wk =   0.0035556
        k(  397) = (  -0.0471405  -0.4714045   0.5185450), wk =   0.0035556
        k(  398) = (  -0.0235702  -0.4478343   0.4949747), wk =   0.0035556
        k(  399) = (  -0.0000000  -0.4242641   0.4714045), wk =   0.0017778
        k(  400) = (   0.5185450   0.0471405  -0.0000000), wk =   0.0017778
        k(  401) = (   0.5421152   0.0707107  -0.0235702), wk =   0.0035556
        k(  402) = (   0.5656854   0.0942809  -0.0471405), wk =   0.0035556
        k(  403) = (  -0.1178511  -0.5892557   0.6363961), wk =   0.0035556
        k(  404) = (  -0.0942809  -0.5656854   0.6128259), wk =   0.0035556
        k(  405) = (  -0.0707107  -0.5421152   0.5892557), wk =   0.0035556
        k(  406) = (  -0.0471405  -0.5185450   0.5656854), wk =   0.0035556
        k(  407) = (  -0.0235702  -0.4949747   0.5421152), wk =   0.0035556
        k(  408) = (  -0.0000000  -0.4714045   0.5185450), wk =   0.0017778
        k(  409) = (   0.5656854   0.0471405   0.0000000), wk =   0.0017778
        k(  410) = (   0.5892557   0.0707107  -0.0235702), wk =   0.0035556
        k(  411) = (  -0.0942809  -0.6128259   0.6599663), wk =   0.0035556
        k(  412) = (  -0.0707107  -0.5892557   0.6363961), wk =   0.0035556
        k(  413) = (  -0.0471405  -0.5656854   0.6128259), wk =   0.0035556
        k(  414) = (  -0.0235702  -0.5421152   0.5892557), wk =   0.0035556
        k(  415) = (   0.0000000  -0.5185450   0.5656854), wk =   0.0017778
        k(  416) = (   0.6128259   0.0471405   0.0000000), wk =   0.0017778
        k(  417) = (  -0.0707107  -0.6363961   0.6835366), wk =   0.0035556
        k(  418) = (  -0.0471405  -0.6128259   0.6599663), wk =   0.0035556
        k(  419) = (  -0.0235702  -0.5892557   0.6363961), wk =   0.0035556
        k(  420) = (  -0.0000000  -0.5656854   0.6128259), wk =   0.0017778
        k(  421) = (  -0.0471405  -0.6599663   0.7071068), wk =   0.0017778
        k(  422) = (  -0.0235702  -0.6363961   0.6835366), wk =   0.0035556
        k(  423) = (   0.0000000  -0.6128259   0.6599663), wk =   0.0017778
        k(  424) = (  -0.7071068   0.0471405   0.0000000), wk =   0.0008889
        k(  425) = (   0.1885618   0.0942809  -0.0000000), wk =   0.0017778
        k(  426) = (   0.2121320   0.1178511  -0.0235702), wk =   0.0035556
        k(  427) = (   0.2357023   0.1414214  -0.0471405), wk =   0.0035556
        k(  428) = (   0.2592725   0.1649916  -0.0707107), wk =   0.0035556
        k(  429) = (   0.2828427   0.1885618  -0.0942809), wk =   0.0035556
        k(  430) = (   0.3064129   0.2121320  -0.1178511), wk =   0.0035556
        k(  431) = (   0.3299832   0.2357023  -0.1414214), wk =   0.0035556
        k(  432) = (   0.3535534   0.2592725  -0.1649916), wk =   0.0035556
        k(  433) = (   0.3771236   0.2828427  -0.1885618), wk =   0.0035556
        k(  434) = (  -0.3064129  -0.4006938   0.4949747), wk =   0.0035556
        k(  435) = (  -0.2828427  -0.3771236   0.4714045), wk =   0.0035556
        k(  436) = (  -0.2592725  -0.3535534   0.4478343), wk =   0.0017778
        k(  437) = (   0.2357023   0.0942809  -0.0000000), wk =   0.0017778
        k(  438) = (   0.2592725   0.1178511  -0.0235702), wk =   0.0035556
        k(  439) = (   0.2828427   0.1414214  -0.0471405), wk =   0.0035556
        k(  440) = (   0.3064129   0.1649916  -0.0707107), wk =   0.0035556
        k(  441) = (   0.3299832   0.1885618  -0.0942809), wk =   0.0035556
        k(  442) = (   0.3535534   0.2121320  -0.1178511), wk =   0.0035556
        k(  443) = (   0.3771236   0.2357023  -0.1414214), wk =   0.0035556
        k(  444) = (   0.4006938   0.2592725  -0.1649916), wk =   0.0035556
        k(  445) = (  -0.2828427  -0.4242641   0.5185450), wk =   0.0035556
        k(  446) = (  -0.2592725  -0.4006938   0.4949747), wk =   0.0035556
        k(  447) = (  -0.2357023  -0.3771236   0.4714045), wk =   0.0035556
        k(  448) = (  -0.2121320  -0.3535534   0.4478343), wk =   0.0035556
        k(  449) = (  -0.1885618  -0.3299832   0.4242641), wk =   0.0035556
        k(  450) = (  -0.1649916  -0.3064129   0.4006938), wk =   0.0035556
        k(  451) = (  -0.1414214  -0.2828427   0.3771236), wk =   0.0035556
        k(  452) = (  -0.1178511  -0.2592725   0.3535534), wk =   0.0035556
        k(  453) = (  -0.0942809  -0.2357023   0.3299832), wk =   0.0035556
        k(  454) = (  -0.0707107  -0.2121320   0.3064129), wk =   0.0035556
        k(  455) = (  -0.0471405  -0.1885618   0.2828427), wk =   0.0035556
        k(  456) = (  -0.0235702  -0.1649916   0.2592725), wk =   0.0035556
        k(  457) = (   0.0000000  -0.1414214   0.2357023), wk =   0.0017778
        k(  458) = (   0.2828427   0.0942809   0.0000000), wk =   0.0017778
        k(  459) = (   0.3064129   0.1178511  -0.0235702), wk =   0.0035556
        k(  460) = (   0.3299832   0.1414214  -0.0471405), wk =   0.0035556
        k(  461) = (   0.3535534   0.1649916  -0.0707107), wk =   0.0035556
        k(  462) = (   0.3771236   0.1885618  -0.0942809), wk =   0.0035556
        k(  463) = (   0.4006938   0.2121320  -0.1178511), wk =   0.0035556
        k(  464) = (   0.4242641   0.2357023  -0.1414214), wk =   0.0035556
        k(  465) = (  -0.2592725  -0.4478343   0.5421152), wk =   0.0035556
        k(  466) = (  -0.2357023  -0.4242641   0.5185450), wk =   0.0035556
        k(  467) = (  -0.2121320  -0.4006938   0.4949747), wk =   0.0035556
        k(  468) = (  -0.1885618  -0.3771236   0.4714045), wk =   0.0035556
        k(  469) = (  -0.1649916  -0.3535534   0.4478343), wk =   0.0035556
        k(  470) = (  -0.1414214  -0.3299832   0.4242641), wk =   0.0035556
        k(  471) = (  -0.1178511  -0.3064129   0.4006938), wk =   0.0035556
        k(  472) = (  -0.0942809  -0.2828427   0.3771236), wk =   0.0035556
        k(  473) = (  -0.0707107  -0.2592725   0.3535534), wk =   0.0035556
        k(  474) = (  -0.0471405  -0.2357023   0.3299832), wk =   0.0035556
        k(  475) = (  -0.0235702  -0.2121320   0.3064129), wk =   0.0035556
        k(  476) = (   0.0000000  -0.1885618   0.2828427), wk =   0.0017778
        k(  477) = (   0.3299832   0.0942809   0.0000000), wk =   0.0017778
        k(  478) = (   0.3535534   0.1178511  -0.0235702), wk =   0.0035556
        k(  479) = (   0.3771236   0.1414214  -0.0471405), wk =   0.0035556
        k(  480) = (   0.4006938   0.1649916  -0.0707107), wk =   0.0035556
        k(  481) = (   0.4242641   0.1885618  -0.0942809), wk =   0.0035556
        k(  482) = (   0.4478343   0.2121320  -0.1178511), wk =   0.0035556
        k(  483) = (  -0.2357023  -0.4714045   0.5656854), wk =   0.0035556
        k(  484) = (  -0.2121320  -0.4478343   0.5421152), wk =   0.0035556
        k(  485) = (  -0.1885618  -0.4242641   0.5185450), wk =   0.0035556
        k(  486) = (  -0.1649916  -0.4006938   0.4949747), wk =   0.0035556
        k(  487) = (  -0.1414214  -0.3771236   0.4714045), wk =   0.0035556
        k(  488) = (  -0.1178511  -0.3535534   0.4478343), wk =   0.0035556
        k(  489) = (  -0.0942809  -0.3299832   0.4242641), wk =   0.0035556
        k(  490) = (  -0.0707107  -0.3064129   0.4006938), wk =   0.0035556
        k(  491) = (  -0.0471405  -0.2828427   0.3771236), wk =   0.0035556
        k(  492) = (  -0.0235702  -0.2592725   0.3535534), wk =   0.0035556
        k(  493) = (   0.0000000  -0.2357023   0.3299832), wk =   0.0017778
        k(  494) = (   0.3771236   0.0942809   0.0000000), wk =   0.0017778
        k(  495) = (   0.4006938   0.1178511  -0.0235702), wk =   0.0035556
        k(  496) = (   0.4242641   0.1414214  -0.0471405), wk =   0.0035556
        k(  497) = (   0.4478343   0.1649916  -0.0707107), wk =   0.0035556
        k(  498) = (   0.4714045   0.1885618  -0.0942809), wk =   0.0035556
        k(  499) = (  -0.2121320  -0.4949747   0.5892557), wk =   0.0035556
        k(  500) = (  -0.1885618  -0.4714045   0.5656854), wk =   0.0035556
        k(  501) = (  -0.1649916  -0.4478343   0.5421152), wk =   0.0035556
        k(  502) = (  -0.1414214  -0.4242641   0.5185450), wk =   0.0035556
        k(  503) = (  -0.1178511  -0.4006938   0.4949747), wk =   0.0035556
        k(  504) = (  -0.0942809  -0.3771236   0.4714045), wk =   0.0035556
        k(  505) = (  -0.0707107  -0.3535534   0.4478343), wk =   0.0035556
        k(  506) = (  -0.0471405  -0.3299832   0.4242641), wk =   0.0035556
        k(  507) = (  -0.0235702  -0.3064129   0.4006938), wk =   0.0035556
        k(  508) = (   0.0000000  -0.2828427   0.3771236), wk =   0.0017778
        k(  509) = (   0.4242641   0.0942809  -0.0000000), wk =   0.0017778
        k(  510) = (   0.4478343   0.1178511  -0.0235702), wk =   0.0035556
        k(  511) = (   0.4714045   0.1414214  -0.0471405), wk =   0.0035556
        k(  512) = (   0.4949747   0.1649916  -0.0707107), wk =   0.0035556
        k(  513) = (  -0.1885618  -0.5185450   0.6128259), wk =   0.0035556
        k(  514) = (  -0.1649916  -0.4949747   0.5892557), wk =   0.0035556
        k(  515) = (  -0.1414214  -0.4714045   0.5656854), wk =   0.0035556
        k(  516) = (  -0.1178511  -0.4478343   0.5421152), wk =   0.0035556
        k(  517) = (  -0.0942809  -0.4242641   0.5185450), wk =   0.0035556
        k(  518) = (  -0.0707107  -0.4006938   0.4949747), wk =   0.0035556
        k(  519) = (  -0.0471405  -0.3771236   0.4714045), wk =   0.0035556
        k(  520) = (  -0.0235702  -0.3535534   0.4478343), wk =   0.0035556
        k(  521) = (   0.0000000  -0.3299832   0.4242641), wk =   0.0017778
        k(  522) = (   0.4714045   0.0942809  -0.0000000), wk =   0.0017778
        k(  523) = (   0.4949747   0.1178511  -0.0235702), wk =   0.0035556
        k(  524) = (   0.5185450   0.1414214  -0.0471405), wk =   0.0035556
        k(  525) = (  -0.1649916  -0.5421152   0.6363961), wk =   0.0035556
        k(  526) = (  -0.1414214  -0.5185450   0.6128259), wk =   0.0035556
        k(  527) = (  -0.1178511  -0.4949747   0.5892557), wk =   0.0035556
        k(  528) = (  -0.0942809  -0.4714045   0.5656854), wk =   0.0035556
        k(  529) = (  -0.0707107  -0.4478343   0.5421152), wk =   0.0035556
        k(  530) = (  -0.0471405  -0.4242641   0.5185450), wk =   0.0035556
        k(  531) = (  -0.0235702  -0.4006938   0.4949747), wk =   0.0035556
        k(  532) = (  -0.0000000  -0.3771236   0.4714045), wk =   0.0017778
        k(  533) = (   0.5185450   0.0942809   0.0000000), wk =   0.0017778
        k(  534) = (   0.5421152   0.1178511  -0.0235702), wk =   0.0035556
        k(  535) = (  -0.1414214  -0.5656854   0.6599663), wk =   0.0035556
        k(  536) = (  -0.1178511  -0.5421152   0.6363961), wk =   0.0035556
        k(  537) = (  -0.0942809  -0.5185450   0.6128259), wk =   0.0035556
        k(  538) = (  -0.0707107  -0.4949747   0.5892557), wk =   0.0035556
        k(  539) = (  -0.0471405  -0.4714045   0.5656854), wk =   0.0035556
        k(  540) = (  -0.0235702  -0.4478343   0.5421152), wk =   0.0035556
        k(  541) = (  -0.0000000  -0.4242641   0.5185450), wk =   0.0017778
        k(  542) = (   0.5656854   0.0942809   0.0000000), wk =   0.0017778
        k(  543) = (  -0.1178511  -0.5892557   0.6835366), wk =   0.0035556
        k(  544) = (  -0.0942809  -0.5656854   0.6599663), wk =   0.0035556
        k(  545) = (  -0.0707107  -0.5421152   0.6363961), wk =   0.0035556
        k(  546) = (  -0.0471405  -0.5185450   0.6128259), wk =   0.0035556
        k(  547) = (  -0.0235702  -0.4949747   0.5892557), wk =   0.0035556
        k(  548) = (   0.0000000  -0.4714045   0.5656854), wk =   0.0017778
        k(  549) = (  -0.0942809  -0.6128259   0.7071068), wk =   0.0017778
        k(  550) = (  -0.0707107  -0.5892557   0.6835366), wk =   0.0035556
        k(  551) = (  -0.0471405  -0.5656854   0.6599663), wk =   0.0035556
        k(  552) = (  -0.0235702  -0.5421152   0.6363961), wk =   0.0035556
        k(  553) = (   0.0000000  -0.5185450   0.6128259), wk =   0.0017778
        k(  554) = (  -0.0471405  -0.6128259   0.7071068), wk =   0.0017778
        k(  555) = (  -0.0235702  -0.5892557   0.6835366), wk =   0.0035556
        k(  556) = (   0.0000000  -0.5656854   0.6599663), wk =   0.0017778
        k(  557) = (  -0.7071068   0.0942809   0.0000000), wk =   0.0008889
        k(  558) = (   0.2828427   0.1414214   0.0000000), wk =   0.0017778
        k(  559) = (   0.3064129   0.1649916  -0.0235702), wk =   0.0035556
        k(  560) = (   0.3299832   0.1885618  -0.0471405), wk =   0.0035556
        k(  561) = (   0.3535534   0.2121320  -0.0707107), wk =   0.0035556
        k(  562) = (   0.3771236   0.2357023  -0.0942809), wk =   0.0035556
        k(  563) = (   0.4006938   0.2592725  -0.1178511), wk =   0.0035556
        k(  564) = (  -0.2828427  -0.4242641   0.5656854), wk =   0.0035556
        k(  565) = (  -0.2592725  -0.4006938   0.5421152), wk =   0.0035556
        k(  566) = (  -0.2357023  -0.3771236   0.5185450), wk =   0.0035556
        k(  567) = (  -0.2121320  -0.3535534   0.4949747), wk =   0.0017778
        k(  568) = (   0.3299832   0.1414214   0.0000000), wk =   0.0017778
        k(  569) = (   0.3535534   0.1649916  -0.0235702), wk =   0.0035556
        k(  570) = (   0.3771236   0.1885618  -0.0471405), wk =   0.0035556
        k(  571) = (   0.4006938   0.2121320  -0.0707107), wk =   0.0035556
        k(  572) = (   0.4242641   0.2357023  -0.0942809), wk =   0.0035556
        k(  573) = (  -0.2592725  -0.4478343   0.5892557), wk =   0.0035556
        k(  574) = (  -0.2357023  -0.4242641   0.5656854), wk =   0.0035556
        k(  575) = (  -0.2121320  -0.4006938   0.5421152), wk =   0.0035556
        k(  576) = (  -0.1885618  -0.3771236   0.5185450), wk =   0.0035556
        k(  577) = (  -0.1649916  -0.3535534   0.4949747), wk =   0.0035556
        k(  578) = (  -0.1414214  -0.3299832   0.4714045), wk =   0.0035556
        k(  579) = (  -0.1178511  -0.3064129   0.4478343), wk =   0.0035556
        k(  580) = (  -0.0942809  -0.2828427   0.4242641), wk =   0.0035556
        k(  581) = (  -0.0707107  -0.2592725   0.4006938), wk =   0.0035556
        k(  582) = (  -0.0471405  -0.2357023   0.3771236), wk =   0.0035556
        k(  583) = (  -0.0235702  -0.2121320   0.3535534), wk =   0.0035556
        k(  584) = (   0.0000000  -0.1885618   0.3299832), wk =   0.0017778
        k(  585) = (   0.3771236   0.1414214   0.0000000), wk =   0.0017778
        k(  586) = (   0.4006938   0.1649916  -0.0235702), wk =   0.0035556
        k(  587) = (   0.4242641   0.1885618  -0.0471405), wk =   0.0035556
        k(  588) = (   0.4478343   0.2121320  -0.0707107), wk =   0.0035556
        k(  589) = (  -0.2357023  -0.4714045   0.6128259), wk =   0.0035556
        k(  590) = (  -0.2121320  -0.4478343   0.5892557), wk =   0.0035556
        k(  591) = (  -0.1885618  -0.4242641   0.5656854), wk =   0.0035556
        k(  592) = (  -0.1649916  -0.4006938   0.5421152), wk =   0.0035556
        k(  593) = (  -0.1414214  -0.3771236   0.5185450), wk =   0.0035556
        k(  594) = (  -0.1178511  -0.3535534   0.4949747), wk =   0.0035556
        k(  595) = (  -0.0942809  -0.3299832   0.4714045), wk =   0.0035556
        k(  596) = (  -0.0707107  -0.3064129   0.4478343), wk =   0.0035556
        k(  597) = (  -0.0471405  -0.2828427   0.4242641), wk =   0.0035556
        k(  598) = (  -0.0235702  -0.2592725   0.4006938), wk =   0.0035556
        k(  599) = (   0.0000000  -0.2357023   0.3771236), wk =   0.0017778
        k(  600) = (   0.4242641   0.1414214  -0.0000000), wk =   0.0017778
        k(  601) = (   0.4478343   0.1649916  -0.0235702), wk =   0.0035556
        k(  602) = (   0.4714045   0.1885618  -0.0471405), wk =   0.0035556
        k(  603) = (  -0.2121320  -0.4949747   0.6363961), wk =   0.0035556
        k(  604) = (  -0.1885618  -0.4714045   0.6128259), wk =   0.0035556
        k(  605) = (  -0.1649916  -0.4478343   0.5892557), wk =   0.0035556
        k(  606) = (  -0.1414214  -0.4242641   0.5656854), wk =   0.0035556
        k(  607) = (  -0.1178511  -0.4006938   0.5421152), wk =   0.0035556
        k(  608) = (  -0.0942809  -0.3771236   0.5185450), wk =   0.0035556
        k(  609) = (  -0.0707107  -0.3535534   0.4949747), wk =   0.0035556
        k(  610) = (  -0.0471405  -0.3299832   0.4714045), wk =   0.0035556
        k(  611) = (  -0.0235702  -0.3064129   0.4478343), wk =   0.0035556
        k(  612) = (   0.0000000  -0.2828427   0.4242641), wk =   0.0017778
        k(  613) = (   0.4714045   0.1414214   0.0000000), wk =   0.0017778
        k(  614) = (   0.4949747   0.1649916  -0.0235702), wk =   0.0035556
        k(  615) = (  -0.1885618  -0.5185450   0.6599663), wk =   0.0035556
        k(  616) = (  -0.1649916  -0.4949747   0.6363961), wk =   0.0035556
        k(  617) = (  -0.1414214  -0.4714045   0.6128259), wk =   0.0035556
        k(  618) = (  -0.1178511  -0.4478343   0.5892557), wk =   0.0035556
        k(  619) = (  -0.0942809  -0.4242641   0.5656854), wk =   0.0035556
        k(  620) = (  -0.0707107  -0.4006938   0.5421152), wk =   0.0035556
        k(  621) = (  -0.0471405  -0.3771236   0.5185450), wk =   0.0035556
        k(  622) = (  -0.0235702  -0.3535534   0.4949747), wk =   0.0035556
        k(  623) = (   0.0000000  -0.3299832   0.4714045), wk =   0.0017778
        k(  624) = (   0.5185450   0.1414214   0.0000000), wk =   0.0017778
        k(  625) = (  -0.1649916  -0.5421152   0.6835366), wk =   0.0035556
        k(  626) = (  -0.1414214  -0.5185450   0.6599663), wk =   0.0035556
        k(  627) = (  -0.1178511  -0.4949747   0.6363961), wk =   0.0035556
        k(  628) = (  -0.0942809  -0.4714045   0.6128259), wk =   0.0035556
        k(  629) = (  -0.0707107  -0.4478343   0.5892557), wk =   0.0035556
        k(  630) = (  -0.0471405  -0.4242641   0.5656854), wk =   0.0035556
        k(  631) = (  -0.0235702  -0.4006938   0.5421152), wk =   0.0035556
        k(  632) = (  -0.0000000  -0.3771236   0.5185450), wk =   0.0017778
        k(  633) = (  -0.1414214  -0.5656854   0.7071068), wk =   0.0017778
        k(  634) = (  -0.1178511  -0.5421152   0.6835366), wk =   0.0035556
        k(  635) = (  -0.0942809  -0.5185450   0.6599663), wk =   0.0035556
        k(  636) = (  -0.0707107  -0.4949747   0.6363961), wk =   0.0035556
        k(  637) = (  -0.0471405  -0.4714045   0.6128259), wk =   0.0035556
        k(  638) = (  -0.0235702  -0.4478343   0.5892557), wk =   0.0035556
        k(  639) = (  -0.0000000  -0.4242641   0.5656854), wk =   0.0017778
        k(  640) = (  -0.0942809  -0.5656854   0.7071068), wk =   0.0017778
        k(  641) = (  -0.0707107  -0.5421152   0.6835366), wk =   0.0035556
        k(  642) = (  -0.0471405  -0.5185450   0.6599663), wk =   0.0035556
        k(  643) = (  -0.0235702  -0.4949747   0.6363961), wk =   0.0035556
        k(  644) = (  -0.0000000  -0.4714045   0.6128259), wk =   0.0017778
        k(  645) = (  -0.0471405  -0.5656854   0.7071068), wk =   0.0017778
        k(  646) = (  -0.0235702  -0.5421152   0.6835366), wk =   0.0035556
        k(  647) = (   0.0000000  -0.5185450   0.6599663), wk =   0.0017778
        k(  648) = (  -0.7071068   0.1414214   0.0000000), wk =   0.0008889
        k(  649) = (   0.3771236   0.1885618  -0.0000000), wk =   0.0017778
        k(  650) = (   0.4006938   0.2121320  -0.0235702), wk =   0.0035556
        k(  651) = (   0.4242641   0.2357023  -0.0471405), wk =   0.0035556
        k(  652) = (  -0.2592725  -0.4478343   0.6363961), wk =   0.0035556
        k(  653) = (  -0.2357023  -0.4242641   0.6128259), wk =   0.0035556
        k(  654) = (  -0.2121320  -0.4006938   0.5892557), wk =   0.0035556
        k(  655) = (  -0.1885618  -0.3771236   0.5656854), wk =   0.0035556
        k(  656) = (  -0.1649916  -0.3535534   0.5421152), wk =   0.0017778
        k(  657) = (   0.4242641   0.1885618   0.0000000), wk =   0.0017778
        k(  658) = (   0.4478343   0.2121320  -0.0235702), wk =   0.0035556
        k(  659) = (  -0.2357023  -0.4714045   0.6599663), wk =   0.0035556
        k(  660) = (  -0.2121320  -0.4478343   0.6363961), wk =   0.0035556
        k(  661) = (  -0.1885618  -0.4242641   0.6128259), wk =   0.0035556
        k(  662) = (  -0.1649916  -0.4006938   0.5892557), wk =   0.0035556
        k(  663) = (  -0.1414214  -0.3771236   0.5656854), wk =   0.0035556
        k(  664) = (  -0.1178511  -0.3535534   0.5421152), wk =   0.0035556
        k(  665) = (  -0.0942809  -0.3299832   0.5185450), wk =   0.0035556
        k(  666) = (  -0.0707107  -0.3064129   0.4949747), wk =   0.0035556
        k(  667) = (  -0.0471405  -0.2828427   0.4714045), wk =   0.0035556
        k(  668) = (  -0.0235702  -0.2592725   0.4478343), wk =   0.0035556
        k(  669) = (   0.0000000  -0.2357023   0.4242641), wk =   0.0017778
        k(  670) = (   0.4714045   0.1885618  -0.0000000), wk =   0.0017778
        k(  671) = (  -0.2121320  -0.4949747   0.6835366), wk =   0.0035556
        k(  672) = (  -0.1885618  -0.4714045   0.6599663), wk =   0.0035556
        k(  673) = (  -0.1649916  -0.4478343   0.6363961), wk =   0.0035556
        k(  674) = (  -0.1414214  -0.4242641   0.6128259), wk =   0.0035556
        k(  675) = (  -0.1178511  -0.4006938   0.5892557), wk =   0.0035556
        k(  676) = (  -0.0942809  -0.3771236   0.5656854), wk =   0.0035556
        k(  677) = (  -0.0707107  -0.3535534   0.5421152), wk =   0.0035556
        k(  678) = (  -0.0471405  -0.3299832   0.5185450), wk =   0.0035556
        k(  679) = (  -0.0235702  -0.3064129   0.4949747), wk =   0.0035556
        k(  680) = (   0.0000000  -0.2828427   0.4714045), wk =   0.0017778
        k(  681) = (  -0.1885618  -0.5185450   0.7071068), wk =   0.0017778
        k(  682) = (  -0.1649916  -0.4949747   0.6835366), wk =   0.0035556
        k(  683) = (  -0.1414214  -0.4714045   0.6599663), wk =   0.0035556
        k(  684) = (  -0.1178511  -0.4478343   0.6363961), wk =   0.0035556
        k(  685) = (  -0.0942809  -0.4242641   0.6128259), wk =   0.0035556
        k(  686) = (  -0.0707107  -0.4006938   0.5892557), wk =   0.0035556
        k(  687) = (  -0.0471405  -0.3771236   0.5656854), wk =   0.0035556
        k(  688) = (  -0.0235702  -0.3535534   0.5421152), wk =   0.0035556
        k(  689) = (   0.0000000  -0.3299832   0.5185450), wk =   0.0017778
        k(  690) = (  -0.1414214  -0.5185450   0.7071068), wk =   0.0017778
        k(  691) = (  -0.1178511  -0.4949747   0.6835366), wk =   0.0035556
        k(  692) = (  -0.0942809  -0.4714045   0.6599663), wk =   0.0035556
        k(  693) = (  -0.0707107  -0.4478343   0.6363961), wk =   0.0035556
        k(  694) = (  -0.0471405  -0.4242641   0.6128259), wk =   0.0035556
        k(  695) = (  -0.0235702  -0.4006938   0.5892557), wk =   0.0035556
        k(  696) = (   0.0000000  -0.3771236   0.5656854), wk =   0.0017778
        k(  697) = (  -0.0942809  -0.5185450   0.7071068), wk =   0.0017778
        k(  698) = (  -0.0707107  -0.4949747   0.6835366), wk =   0.0035556
        k(  699) = (  -0.0471405  -0.4714045   0.6599663), wk =   0.0035556
        k(  700) = (  -0.0235702  -0.4478343   0.6363961), wk =   0.0035556
        k(  701) = (  -0.0000000  -0.4242641   0.6128259), wk =   0.0017778
        k(  702) = (  -0.0471405  -0.5185450   0.7071068), wk =   0.0017778
        k(  703) = (  -0.0235702  -0.4949747   0.6835366), wk =   0.0035556
        k(  704) = (   0.0000000  -0.4714045   0.6599663), wk =   0.0017778
[...]
    13.4238  14.9586

     occupation numbers 
     1.0000   1.0000   1.0000   1.0000   1.0000   1.0000   1.0000   1.0000
     1.0000   1.0000   1.0000   1.0000   1.0000   1.0000   0.0000   0.0000
     0.0000   0.0000

          k =-0.1414-0.4243 0.6600 (  8104 PWs)   bands (ev):

   -11.9387 -11.9308 -11.8132 -11.7439 -11.7321 -11.7111 -11.6705 -11.6454
   -11.5275 -11.5202  -0.0337   1.5911   6.1509   6.8920  11.1379  11.9984
    13.4299  14.7749

     occupation numbers 
     1.0000   1.0000   1.0000   1.0000   1.0000   1.0000   1.0000   1.0000
     1.0000   1.0000   1.0000   1.0000   1.0000   1.0000   0.0000   0.0000
     0.0000   0.0000

          k =-0.1179-0.4007 0.6364 (  8090 PWs)   bands (ev):

   -11.9406 -11.9313 -11.8078 -11.7411 -11.7304 -11.7110 -11.6767 -11.6494
   -11.5268 -11.5180   0.0830   1.4534   6.0931   6.8523  11.1450  12.2436
    13.5144  14.4972

     occupation numbers 
     1.0000   1.0000   1.0000   1.0000   1.0000   1.0000   1.0000   1.0000
     1.0000   1.0000   1.0000   1.0000   1.0000   1.0000   0.0000   0.0000
     0.0000   0.0000

          k =-0.0943-0.3771 0.6128 (  8090 PWs)   bands (ev):

   -11.9415 -11.9315 -11.8050 -11.7402 -11.7271 -11.7127 -11.6801 -11.6513
   -11.5265 -11.5169   0.1418   1.3858   6.0578   6.8436  11.1488  12.3892
    13.6646  14.2184

     occupation numbers 
     1.0000   1.0000   1.0000   1.0000   1.0000   1.0000   1.0000   1.0000
     1.0000   1.0000   1.0000   1.0000   1.0000   1.0000   0.0000   0.0000
     0.0000   0.0000

          k =-0.0707-0.3536 0.5893 (  8097 PWs)   bands (ev):

   -11.9416 -11.9314 -11.8052 -11.7403 -11.7264 -11.7133 -11.6802 -11.6511
   -11.5266 -11.5169   0.1213   1.4097   6.0465   6.8660  11.1492  12.4212
    13.6555  14.1965

     occupation numbers 
     1.0000   1.0000   1.0000   1.0000   1.0000   1.0000   1.0000   1.0000
     1.0000   1.0000   1.0000   1.0000   1.0000   1.0000   0.0000   0.0000
     0.0000   0.0000

          k =-0.0471-0.3300 0.5657 (  8082 PWs)   bands (ev):

   -11.9407 -11.9310 -11.8083 -11.7428 -11.7266 -11.7134 -11.6763 -11.6491
   -11.5269 -11.5180   0.0298   1.5162   6.0615   6.9174  11.1421  12.3427
    13.4706  14.4433

     occupation numbers 
     1.0000   1.0000   1.0000   1.0000   1.0000   1.0000   1.0000   1.0000
     1.0000   1.0000   1.0000   1.0000   1.0000   1.0000   0.0000   0.0000
     0.0000   0.0000

          k =-0.0236-0.3064 0.5421 (  8097 PWs)   bands (ev):

   -11.9391 -11.9302 -11.8137 -11.7480 -11.7242 -11.7158 -11.6690 -11.6455
   -11.5277 -11.5202  -0.1045   1.6767   6.1052   6.9942  11.1178  12.1664
    13.3527  14.6806

     occupation numbers 
     1.0000   1.0000   1.0000   1.0000   1.0000   1.0000   1.0000   1.0000
     1.0000   1.0000   1.0000   1.0000   1.0000   1.0000   0.0000   0.0000
     0.0000   0.0000

          k = 0.0000-0.2828 0.5185 (  8094 PWs)   bands (ev):

   -11.9367 -11.9289 -11.8209 -11.7539 -11.7204 -11.7201 -11.6600 -11.6407
   -11.5290 -11.5233  -0.2577   1.8661   6.1795   7.0909  11.0579  11.9487
    13.3269  14.8013

     occupation numbers 
     1.0000   1.0000   1.0000   1.0000   1.0000   1.0000   1.0000   1.0000
     1.0000   1.0000   1.0000   1.0000   1.0000   1.0000   0.0000   0.0000
     0.0000   0.0000

          k =-0.1414-0.4714 0.7071 (  8092 PWs)   bands (ev):

   -11.9351 -11.9310 -11.8198 -11.7426 -11.7423 -11.7051 -11.6671 -11.6388
   -11.5273 -11.5244  -0.0872   1.6574   6.2899   6.8339  11.1771  11.3823
    13.6263  15.1279

     occupation numbers 
     1.0000   1.0000   1.0000   1.0000   1.0000   1.0000   1.0000   1.0000
     1.0000   1.0000   1.0000   1.0000   1.0000   1.0000   0.0000   0.0000
     0.0000   0.0000

          k =-0.1179-0.4478 0.6835 (  8096 PWs)   bands (ev):

   -11.9376 -11.9324 -11.8109 -11.7453 -11.7370 -11.7016 -11.6748 -11.6466
   -11.5258 -11.5212   0.0680   1.4753   6.2110   6.7520  11.2332  11.6788
    13.5682  14.9167

     occupation numbers 
     1.0000   1.0000   1.0000   1.0000   1.0000   1.0000   1.0000   1.0000
     1.0000   1.0000   1.0000   1.0000   1.0000   1.0000   0.0000   0.0000
     0.0000   0.0000

          k =-0.0943-0.4243 0.6600 (  8098 PWs)   bands (ev):

   -11.9398 -11.9330 -11.8036 -11.7466 -11.7316 -11.7006 -11.6816 -11.6523
   -11.5250 -11.5185   0.2016   1.3243   6.1422   6.7065  11.2477  12.0136
    13.5490  14.6026

     occupation numbers 
     1.0000   1.0000   1.0000   1.0000   1.0000   1.0000   1.0000   1.0000
     1.0000   1.0000   1.0000   1.0000   1.0000   1.0000   0.0000   0.0000
     0.0000   0.0000

          k =-0.0707-0.4007 0.6364 (  8083 PWs)   bands (ev):

   -11.9413 -11.9333 -11.7993 -11.7455 -11.7277 -11.7026 -11.6861 -11.6554
   -11.5247 -11.5168   0.2824   1.2357   6.0864   6.7003  11.2567  12.2995
    13.5847  14.2666

     occupation numbers 
     1.0000   1.0000   1.0000   1.0000   1.0000   1.0000   1.0000   1.0000
     1.0000   1.0000   1.0000   1.0000   1.0000   1.0000   0.0000   0.0000
     0.0000   0.0000

          k =-0.0471-0.3771 0.6128 (  8083 PWs)   bands (ev):

   -11.9420 -11.9331 -11.7986 -11.7420 -11.7279 -11.7046 -11.6879 -11.6557
   -11.5248 -11.5162   0.2759   1.2436   6.0491   6.7312  11.2598  12.4682
    13.6171  14.0608

     occupation numbers 
     1.0000   1.0000   1.0000   1.0000   1.0000   1.0000   1.0000   1.0000
     1.0000   1.0000   1.0000   1.0000   1.0000   1.0000   0.0000   0.0000
     0.0000   0.0000

          k =-0.0236-0.3536 0.5893 (  8086 PWs)   bands (ev):

   -11.9418 -11.9326 -11.8013 -11.7372 -11.7327 -11.7063 -11.6855 -11.6536
   -11.5252 -11.5166   0.1863   1.3433   6.0368   6.7944  11.2491  12.4781
    13.4867  14.1965

     occupation numbers 
     1.0000   1.0000   1.0000   1.0000   1.0000   1.0000   1.0000   1.0000
     1.0000   1.0000   1.0000   1.0000   1.0000   1.0000   0.0000   0.0000
     0.0000   0.0000

          k = 0.0000-0.3300 0.5657 (  8087 PWs)   bands (ev):

   -11.9408 -11.9317 -11.8066 -11.7410 -11.7301 -11.7104 -11.6784 -11.6501
   -11.5262 -11.5180   0.0500   1.4975   6.0544   6.8841  11.2093  12.3489
    13.3759  14.4642

     occupation numbers 
     1.0000   1.0000   1.0000   1.0000   1.0000   1.0000   1.0000   1.0000
     1.0000   1.0000   1.0000   1.0000   1.0000   1.0000   0.0000   0.0000
     0.0000   0.0000

          k =-0.0943-0.4714 0.7071 (  8088 PWs)   bands (ev):

   -11.9363 -11.9333 -11.8093 -11.7571 -11.7304 -11.6923 -11.6795 -11.6473
   -11.5248 -11.5224   0.1781   1.3473   6.2858   6.6502  11.2424  11.3379
    13.8625  15.0348

     occupation numbers 
     1.0000   1.0000   1.0000   1.0000   1.0000   1.0000   1.0000   1.0000
     1.0000   1.0000   1.0000   1.0000   1.0000   1.0000   0.0000   0.0000
     0.0000   0.0000

          k =-0.0707-0.4478 0.6835 (  8087 PWs)   bands (ev):

   -11.9384 -11.9344 -11.8001 -11.7593 -11.7250 -11.6903 -11.6865 -11.6550
   -11.5236 -11.5198   0.3270   1.1855   6.2253   6.5835  11.2858  11.6736
    13.7940  14.6985

     occupation numbers 
     1.0000   1.0000   1.0000   1.0000   1.0000   1.0000   1.0000   1.0000
     1.0000   1.0000   1.0000   1.0000   1.0000   1.0000   0.0000   0.0000
     0.0000   0.0000

          k =-0.0471-0.4243 0.6600 (  8083 PWs)   bands (ev):

   -11.9403 -11.9346 -11.7942 -11.7582 -11.7208 -11.6953 -11.6886 -11.6595
   -11.5233 -11.5177   0.4303   1.0771   6.1552   6.5750  11.2990  12.0373
    13.7499  14.3278

     occupation numbers 
     1.0000   1.0000   1.0000   1.0000   1.0000   1.0000   1.0000   1.0000
     1.0000   1.0000   1.0000   1.0000   1.0000   1.0000   0.0000   0.0000
     0.0000   0.0000

          k =-0.0236-0.4007 0.6364 (  8084 PWs)   bands (ev):

   -11.9416 -11.9344 -11.7930 -11.7527 -11.7208 -11.6979 -11.6923 -11.6599
   -11.5235 -11.5164   0.4312   1.0780   6.0908   6.6152  11.3055  12.3465
    13.7177  14.0231

     occupation numbers 
     1.0000   1.0000   1.0000   1.0000   1.0000   1.0000   1.0000   1.0000
     1.0000   1.0000   1.0000   1.0000   1.0000   1.0000   0.0000   0.0000
     0.0000   0.0000

          k =-0.0000-0.3771 0.6128 (  8083 PWs)   bands (ev):

   -11.9421 -11.9337 -11.7959 -11.7445 -11.7265 -11.6993 -11.6930 -11.6575
   -11.5241 -11.5160   0.3309   1.1861   6.0482   6.6913  11.2953  12.5116
    13.5907  13.9981

     occupation numbers 
     1.0000   1.0000   1.0000   1.0000   1.0000   1.0000   1.0000   1.0000
     1.0000   1.0000   1.0000   1.0000   1.0000   1.0000   0.0000   0.0000
     0.0000   0.0000

          k =-0.0471-0.4714 0.7071 (  8090 PWs)   bands (ev):

   -11.9367 -11.9351 -11.7976 -11.7714 -11.7179 -11.6922 -11.6800 -11.6571
   -11.5229 -11.5216   0.4560   1.0425   6.3197   6.5024  11.2742  11.3097
    14.1565  14.7904

     occupation numbers 
     1.0000   1.0000   1.0000   1.0000   1.0000   1.0000   1.0000   1.0000
     1.0000   1.0000   1.0000   1.0000   1.0000   1.0000   0.0000   0.0000
     0.0000   0.0000

          k =-0.0236-0.4478 0.6835 (  8087 PWs)   bands (ev):

   -11.9386 -11.9356 -11.7895 -11.7717 -11.7130 -11.6994 -11.6792 -11.6637
   -11.5223 -11.5193   0.5847   0.9125   6.2594   6.4714  11.3033  11.6753
    14.0796  14.3992

     occupation numbers 
     1.0000   1.0000   1.0000   1.0000   1.0000   1.0000   1.0000   1.0000
     1.0000   1.0000   1.0000   1.0000   1.0000   1.0000   0.0000   0.0000
     0.0000   0.0000

          k = 0.0000-0.4243 0.6600 (  8081 PWs)   bands (ev):

   -11.9405 -11.9352 -11.7891 -11.7640 -11.7136 -11.7013 -11.6852 -11.6634
   -11.5227 -11.5174   0.5666   0.9346   6.1660   6.5243  11.3130  12.0476
    13.9717  14.0757

     occupation numbers 
     1.0000   1.0000   1.0000   1.0000   1.0000   1.0000   1.0000   1.0000
     1.0000   1.0000   1.0000   1.0000   1.0000   1.0000   0.0000   0.0000
     0.0000   0.0000

          k =-0.7071 0.2357 0.0000 (  8086 PWs)   bands (ev):

   -11.9363 -11.9363 -11.7850 -11.7850 -11.7051 -11.7051 -11.6681 -11.6681
   -11.5217 -11.5217   0.7448   0.7448   6.3920   6.3920  11.2917  11.2917
    14.4786  14.4786

     occupation numbers 
     1.0000   1.0000   1.0000   1.0000   1.0000   1.0000   1.0000   1.0000
     1.0000   1.0000   1.0000   1.0000   1.0000   1.0000   0.0000   0.0000
     0.0000   0.0000

          k =-0.1414-0.4243 0.7071 (  8108 PWs)   bands (ev):

   -11.9382 -11.9318 -11.8118 -11.7429 -11.7351 -11.7085 -11.6714 -11.6466
   -11.5262 -11.5209  -0.0223   1.5821   6.1570   6.8499  11.2844  11.8688
    13.3806  14.8115

     occupation numbers 
     1.0000   1.0000   1.0000   1.0000   1.0000   1.0000   1.0000   1.0000
     1.0000   1.0000   1.0000   1.0000   1.0000   1.0000   0.0000   0.0000
     0.0000   0.0000

          k =-0.1179-0.4007 0.6835 (  8091 PWs)   bands (ev):

   -11.9400 -11.9330 -11.8042 -11.7397 -11.7360 -11.7048 -11.6796 -11.6521
   -11.5250 -11.5186   0.1251   1.4125   6.1078   6.7624  11.3590  12.0973
    13.3928  14.5341

     occupation numbers 
     1.0000   1.0000   1.0000   1.0000   1.0000   1.0000   1.0000   1.0000
     1.0000   1.0000   1.0000   1.0000   1.0000   1.0000   0.0000   0.0000
     0.0000   0.0000

          k =-0.0943-0.3771 0.6600 (  8083 PWs)   bands (ev):

   -11.9412 -11.9336 -11.7990 -11.7423 -11.7306 -11.7038 -11.6852 -11.6558
   -11.5243 -11.5170   0.2395   1.2846   6.0799   6.7061  11.3869  12.2900
    13.4828  14.2210

     occupation numbers 
     1.0000   1.0000   1.0000   1.0000   1.0000   1.0000   1.0000   1.0000
     1.0000   1.0000   1.0000   1.0000   1.0000   1.0000   0.0000   0.0000
     0.0000   0.0000

          k =-0.0707-0.3536 0.6364 (  8090 PWs)   bands (ev):

   -11.9417 -11.9338 -11.7971 -11.7433 -11.7280 -11.7044 -11.6868 -11.6571
   -11.5241 -11.5165   0.2851   1.2344   6.0710   6.6867  11.3942  12.3632
    13.5764  14.0422

     occupation numbers 
     1.0000   1.0000   1.0000   1.0000   1.0000   1.0000   1.0000   1.0000
     1.0000   1.0000   1.0000   1.0000   1.0000   1.0000   0.0000   0.0000
     0.0000   0.0000

          k =-0.0943-0.4243 0.7071 (  8091 PWs)   bands (ev):

   -11.9390 -11.9343 -11.8013 -11.7497 -11.7313 -11.6966 -11.6832 -11.6542
   -11.5236 -11.5195   0.2253   1.3005   6.1740   6.6398  11.4612  11.8012
    13.5159  14.6172

     occupation numbers 
     1.0000   1.0000   1.0000   1.0000   1.0000   1.0000   1.0000   1.0000
     1.0000   1.0000   1.0000   1.0000   1.0000   1.0000   0.0000   0.0000
     0.0000   0.0000

          k =-0.0707-0.4007 0.6835 (  8080 PWs)   bands (ev):

   -11.9403 -11.9354 -11.7937 -11.7528 -11.7258 -11.6946 -11.6896 -11.6600
   -11.5225 -11.5179   0.3618   1.1535   6.1471   6.5663  11.5430  12.0460
    13.5069  14.2656

     occupation numbers 
     1.0000   1.0000   1.0000   1.0000   1.0000   1.0000   1.0000   1.0000
     1.0000   1.0000   1.0000   1.0000   1.0000   1.0000   0.0000   0.0000
     0.0000   0.0000

          k =-0.0471-0.3771 0.6600 (  8086 PWs)   bands (ev):

   -11.9411 -11.9357 -11.7898 -11.7532 -11.7224 -11.6982 -11.6903 -11.6627
   -11.5222 -11.5169   0.4348   1.0767   6.1224   6.5450  11.5614  12.2608
    13.5456  13.9699

     occupation numbers 
     1.0000   1.0000   1.0000   1.0000   1.0000   1.0000   1.0000   1.0000
     1.0000   1.0000   1.0000   1.0000   1.0000   1.0000   0.0000   0.0000
     0.0000   0.0000

          k =-0.0236-0.3536 0.6364 (  8083 PWs)   bands (ev):

   -11.9414 -11.9353 -11.7911 -11.7501 -11.7245 -11.6973 -11.6921 -11.6616
   -11.5224 -11.5167   0.3971   1.1172   6.1011   6.5774  11.5486  12.3278
    13.5046  13.9585

     occupation numbers 
     1.0000   1.0000   1.0000   1.0000   1.0000   1.0000   1.0000   1.0000
     1.0000   1.0000   1.0000   1.0000   1.0000   1.0000   0.0000   0.0000
     0.0000   0.0000

          k = 0.0000-0.3300 0.6128 (  8083 PWs)   bands (ev):

   -11.9410 -11.9345 -11.7965 -11.7448 -11.7304 -11.6990 -11.6883 -11.6576
   -11.5233 -11.5173   0.2768   1.2463   6.0930   6.6539  11.4921  12.2382
    13.4124  14.2207

     occupation numbers 
     1.0000   1.0000   1.0000   1.0000   1.0000   1.0000   1.0000   1.0000
     1.0000   1.0000   1.0000   1.0000   1.0000   1.0000   0.0000   0.0000
     0.0000   0.0000

          k =-0.0471-0.4243 0.7071 (  8087 PWs)   bands (ev):

   -11.9389 -11.9365 -11.7898 -11.7638 -11.7194 -11.6952 -11.6849 -11.6634
   -11.5213 -11.5191   0.4832   1.0225   6.2311   6.4650  11.5864  11.7395
    13.7336  14.3254

     occupation numbers 
     1.0000   1.0000   1.0000   1.0000   1.0000   1.0000   1.0000   1.0000
     1.0000   1.0000   1.0000   1.0000   1.0000   1.0000   0.0000   0.0000
     0.0000   0.0000

          k =-0.0236-0.4007 0.6835 (  8086 PWs)   bands (ev):

   -11.9399 -11.9371 -11.7832 -11.7650 -11.7152 -11.7017 -11.6834 -11.6682
   -11.5207 -11.5180   0.5900   0.9144   6.2097   6.4242  11.6448  12.0159
    13.7010  13.9726

     occupation numbers 
     1.0000   1.0000   1.0000   1.0000   1.0000   1.0000   1.0000   1.0000
     1.0000   1.0000   1.0000   1.0000   1.0000   1.0000   0.0000   0.0000
     0.0000   0.0000

          k =-0.0000-0.3771 0.6600 (  8075 PWs)   bands (ev):

   -11.9409 -11.9365 -11.7849 -11.7590 -11.7177 -11.7009 -11.6878 -11.6665
   -11.5212 -11.5170   0.5395   0.9680   6.1510   6.4764  11.6254  12.2521
    13.6223  13.8190

     occupation numbers 
     1.0000   1.0000   1.0000   1.0000   1.0000   1.0000   1.0000   1.0000
     1.0000   1.0000   1.0000   1.0000   1.0000   1.0000   0.0000   0.0000
     0.0000   0.0000

          k =-0.7071 0.2828 0.0000 (  8090 PWs)   bands (ev):

   -11.9381 -11.9381 -11.7772 -11.7772 -11.7073 -11.7073 -11.6737 -11.6737
   -11.5198 -11.5198   0.7496   0.7496   6.3283   6.3283  11.6731  11.6731
    14.0146  14.0146

     occupation numbers 
     1.0000   1.0000   1.0000   1.0000   1.0000   1.0000   1.0000   1.0000
     1.0000   1.0000   1.0000   1.0000   1.0000   1.0000   0.0000   0.0000
     0.0000   0.0000

          k =-0.0471-0.3771 0.7071 (  8083 PWs)   bands (ev):

   -11.9404 -11.9370 -11.7851 -11.7590 -11.7198 -11.6986 -11.6876 -11.6666
   -11.5208 -11.5176   0.5114   0.9976   6.1732   6.4559  11.7443  12.1112
    13.5148  13.9414

     occupation numbers 
     1.0000   1.0000   1.0000   1.0000   1.0000   1.0000   1.0000   1.0000
     1.0000   1.0000   1.0000   1.0000   1.0000   1.0000   0.0000   0.0000
     0.0000   0.0000

          k =-0.0236-0.3536 0.6835 (  8088 PWs)   bands (ev):

   -11.9404 -11.9376 -11.7808 -11.7624 -11.7162 -11.7029 -11.6847 -11.6698
   -11.5202 -11.5175   0.5919   0.9150   6.1927   6.4078  11.8046  12.1602
    13.5593  13.7682

     occupation numbers 
     1.0000   1.0000   1.0000   1.0000   1.0000   1.0000   1.0000   1.0000
     1.0000   1.0000   1.0000   1.0000   1.0000   1.0000   0.0000   0.0000
     0.0000   0.0000

          k =-0.7071 0.3300 0.0000 (  8100 PWs)   bands (ev):

   -11.9390 -11.9390 -11.7725 -11.7725 -11.7092 -11.7092 -11.6767 -11.6767
   -11.5188 -11.5188   0.7522   0.7522   6.2947   6.2947  11.9509  11.9509
    13.6942  13.6942

     occupation numbers 
     1.0000   1.0000   1.0000   1.0000   1.0000   1.0000   1.0000   1.0000
     1.0000   1.0000   1.0000   1.0000   1.0000   1.0000   0.0000   0.0000
     0.0000   0.0000

     the Fermi energy is     8.8649 ev

!    total energy              =    -233.44922264 Ry
     Harris-Foulkes estimate   =    -233.44922285 Ry
     estimated scf accuracy    <       0.00000051 Ry

     The total energy is the sum of the following terms:

     one-electron contribution =     -91.70718476 Ry
     hartree contribution      =      57.08287632 Ry
     xc contribution           =     -28.74519804 Ry
     ewald contribution        =    -170.07971612 Ry
     smearing contrib. (-TS)   =      -0.00000005 Ry

     convergence has been achieved in   5 iterations

     Writing output data file Sn.save
 
     init_run     :     17.03s CPU     18.71s WALL (       1 calls)
     electrons    :    351.11s CPU    366.70s WALL (       1 calls)

     Called by init_run:
     wfcinit      :     16.76s CPU     18.34s WALL (       1 calls)
     potinit      :      0.02s CPU      0.03s WALL (       1 calls)

     Called by electrons:
     c_bands      :    310.00s CPU    324.61s WALL (       5 calls)
     sum_band     :     40.98s CPU     41.84s WALL (       5 calls)
     v_of_rho     :      0.10s CPU      0.11s WALL (       6 calls)
     v_h          :      0.01s CPU      0.01s WALL (       6 calls)
     v_xc         :      0.09s CPU      0.10s WALL (       6 calls)
     mix_rho      :      0.01s CPU      0.02s WALL (       5 calls)

     Called by c_bands:
     init_us_2    :      2.44s CPU      2.68s WALL (    8272 calls)
     cegterg      :    298.33s CPU    312.48s WALL (    3760 calls)

     Called by sum_band:

     Called by *egterg:
     h_psi        :    261.68s CPU    275.64s WALL (   16186 calls)
     g_psi        :      1.18s CPU      1.20s WALL (   11674 calls)
     cdiaghg      :     16.69s CPU     16.83s WALL (   15434 calls)
     cegterg:over :     14.05s CPU     14.21s WALL (   11674 calls)
     cegterg:upda :      6.41s CPU      6.46s WALL (   11674 calls)
     cegterg:last :      3.64s CPU      3.66s WALL (    4719 calls)

     Called by h_psi:
     h_psi:vloc   :    245.24s CPU    258.69s WALL (   16186 calls)
     h_psi:vnl    :     15.54s CPU     15.92s WALL (   16186 calls)
     add_vuspsi   :      5.94s CPU      6.04s WALL (   16186 calls)

     General routines
     calbec       :      9.47s CPU      9.79s WALL (   16186 calls)
     fft          :      0.09s CPU      0.10s WALL (      65 calls)
     fftw         :    248.16s CPU    260.51s WALL (  535352 calls)
     davcio       :      0.12s CPU      0.86s WALL (     752 calls)
 
     Parallel routines
     fft_scatter  :    135.26s CPU    142.09s WALL (  535417 calls)
 
     PWSCF        :  6m 9.33s CPU     6m27.63s WALL

 
   This run was terminated on:  23:22:55   1Mar2020            

=------------------------------------------------------------------------------=
   JOB DONE.
=------------------------------------------------------------------------------=
