
     Program PWSCF v.5.4.0 starts on 28Feb2020 at  0:16:44 

     This program is part of the open-source Quantum ESPRESSO suite
     for quantum simulation of materials; please cite
         "P. Giannozzi et al., J. Phys.:Condens. Matter 21 395502 (2009);
          URL http://www.quantum-espresso.org", 
     in publications or presentations arising from this work. More details at
     http://www.quantum-espresso.org/quote

     Parallel version (MPI & OpenMP), running on      16 processor cores
     Number of MPI processes:                16
     Threads/MPI process:                     1
     R & G space division:  proc/nbgrp/npool/nimage =      16
     Waiting for input...
     Reading input from standard input
Warning: card &IONS ignored
Warning: card / ignored
Warning: card &CELL ignored
Warning: card / ignored

     Current dimensions of program PWSCF are:
     Max number of different atomic species (ntypx) = 10
     Max number of k-points (npk) =  40000
     Max angular momentum in pseudopotentials (lmaxx) =  3

     Subspace diagonalization in iterative solution of the eigenvalue problem:
     a serial algorithm will be used

 
     Parallelization info
     --------------------
     sticks:   dense  smooth     PW     G-vecs:    dense   smooth      PW
     Min         244     244     66                10145    10145    1465
     Max         249     249     67                10146    10146    1470
     Sum        3919    3919   1069               162321   162321   23505
 

     Title: 
     Sn                                                                         


     bravais-lattice index     =            0
     lattice parameter (alat)  =       8.8993  a.u.
     unit-cell volume          =     498.3785 (a.u.)^3
     number of atoms/cell      =            2
     number of atomic types    =            1
     number of electrons       =        28.00
     number of Kohn-Sham states=           18
     kinetic-energy cutoff     =     180.0000  Ry
     charge density cutoff     =     720.0000  Ry
     convergence threshold     =      1.0E-06
     mixing beta               =       0.7000
     number of iterations used =            8  plain     mixing
     Exchange-correlation      = PBE ( 1  4  3  4 0 0)

     celldm(1)=   8.899346  celldm(2)=   0.000000  celldm(3)=   0.000000
     celldm(4)=   0.000000  celldm(5)=   0.000000  celldm(6)=   0.000000

     crystal axes: (cart. coord. in units of alat)
               a(1) = (   0.000000   0.707107   0.707107 )  
               a(2) = (   0.707107   0.000000   0.707107 )  
               a(3) = (   0.707107   0.707107   0.000000 )  

     reciprocal axes: (cart. coord. in units 2 pi/alat)
               b(1) = ( -0.707107  0.707107  0.707107 )  
               b(2) = (  0.707107 -0.707107  0.707107 )  
               b(3) = (  0.707107  0.707107 -0.707107 )  


     PseudoPot. # 1 for Sn read from file:
     ../PseudopotentialDatabase/Sn_ONCV_PBE_FR-1.1.upf
     MD5 check sum: 6dd2180f739ea5ae1610ead5e1628a0e
     Pseudo is Norm-conserving, Zval = 14.0
     Generated using ONCVPSP code by D. R. Hamann
     Using radial grid of  602 points,  6 beta functions with: 
                l(1) =   0
                l(2) =   0
                l(3) =   1
                l(4) =   1
                l(5) =   2
                l(6) =   2

     atomic species   valence    mass     pseudopotential
        Sn            14.00   118.71000     Sn( 1.00)

     48 Sym. Ops., with inversion, found (24 have fractional translation)


                                    s                        frac. trans.

      isym =  1     identity                                     

 cryst.   s( 1) = (     1          0          0      )
                  (     0          1          0      )
                  (     0          0          1      )

 cart.    s( 1) = (  1.0000000  0.0000000  0.0000000 )
                  (  0.0000000  1.0000000  0.0000000 )
                  (  0.0000000  0.0000000  1.0000000 )


      isym =  2     180 deg rotation - cart. axis [0,0,1]        

 cryst.   s( 2) = (     0          1         -1      )
                  (     1          0         -1      )
                  (     0          0         -1      )

 cart.    s( 2) = ( -1.0000000  0.0000000  0.0000000 )
                  (  0.0000000 -1.0000000  0.0000000 )
                  (  0.0000000  0.0000000  1.0000000 )


      isym =  3     180 deg rotation - cart. axis [0,1,0]        

 cryst.   s( 3) = (     0         -1          1      )
                  (     0         -1          0      )
                  (     1         -1          0      )

 cart.    s( 3) = ( -1.0000000  0.0000000  0.0000000 )
                  (  0.0000000  1.0000000  0.0000000 )
                  (  0.0000000  0.0000000 -1.0000000 )


      isym =  4     180 deg rotation - cart. axis [1,0,0]        

 cryst.   s( 4) = (    -1          0          0      )
                  (    -1          0          1      )
                  (    -1          1          0      )

 cart.    s( 4) = (  1.0000000  0.0000000  0.0000000 )
                  (  0.0000000 -1.0000000  0.0000000 )
                  (  0.0000000  0.0000000 -1.0000000 )


      isym =  5     180 deg rotation - cart. axis [1,1,0]        

 cryst.   s( 5) = (    -1          0          1      )    f =( -0.2500000 )
                  (     0         -1          1      )       ( -0.2500000 )
                  (     0          0          1      )       ( -0.2500000 )

 cart.    s( 5) = (  0.0000000  1.0000000  0.0000000 )    f =( -0.3535534 )
                  (  1.0000000  0.0000000  0.0000000 )       ( -0.3535534 )
                  (  0.0000000  0.0000000 -1.0000000 )       ( -0.3535534 )


      isym =  6     180 deg rotation - cart. axis [1,-1,0]       

 cryst.   s( 6) = (     0         -1          0      )    f =( -0.2500000 )
                  (    -1          0          0      )       ( -0.2500000 )
                  (     0          0         -1      )       ( -0.2500000 )

 cart.    s( 6) = (  0.0000000 -1.0000000  0.0000000 )    f =( -0.3535534 )
                  ( -1.0000000  0.0000000  0.0000000 )       ( -0.3535534 )
                  (  0.0000000  0.0000000 -1.0000000 )       ( -0.3535534 )


      isym =  7      90 deg rotation - cart. axis [0,0,-1]       

 cryst.   s( 7) = (     0          1          0      )    f =( -0.2500000 )
                  (     0          1         -1      )       ( -0.2500000 )
                  (    -1          1          0      )       ( -0.2500000 )

 cart.    s( 7) = (  0.0000000  1.0000000  0.0000000 )    f =( -0.3535534 )
                  ( -1.0000000  0.0000000  0.0000000 )       ( -0.3535534 )
                  (  0.0000000  0.0000000  1.0000000 )       ( -0.3535534 )


      isym =  8      90 deg rotation - cart. axis [0,0,1]        

 cryst.   s( 8) = (     1          0         -1      )    f =( -0.2500000 )
                  (     1          0          0      )       ( -0.2500000 )
                  (     1         -1          0      )       ( -0.2500000 )

 cart.    s( 8) = (  0.0000000 -1.0000000  0.0000000 )    f =( -0.3535534 )
                  (  1.0000000  0.0000000  0.0000000 )       ( -0.3535534 )
                  (  0.0000000  0.0000000  1.0000000 )       ( -0.3535534 )


      isym =  9     180 deg rotation - cart. axis [1,0,1]        

 cryst.   s( 9) = (    -1          1          0      )    f =( -0.2500000 )
                  (     0          1          0      )       ( -0.2500000 )
                  (     0          1         -1      )       ( -0.2500000 )

 cart.    s( 9) = (  0.0000000  0.0000000  1.0000000 )    f =( -0.3535534 )
                  (  0.0000000 -1.0000000  0.0000000 )       ( -0.3535534 )
                  (  1.0000000  0.0000000  0.0000000 )       ( -0.3535534 )


      isym = 10     180 deg rotation - cart. axis [-1,0,1]       

 cryst.   s(10) = (     0          0         -1      )    f =( -0.2500000 )
                  (     0         -1          0      )       ( -0.2500000 )
                  (    -1          0          0      )       ( -0.2500000 )

 cart.    s(10) = (  0.0000000  0.0000000 -1.0000000 )    f =( -0.3535534 )
                  (  0.0000000 -1.0000000  0.0000000 )       ( -0.3535534 )
                  ( -1.0000000  0.0000000  0.0000000 )       ( -0.3535534 )


      isym = 11      90 deg rotation - cart. axis [0,1,0]        

 cryst.   s(11) = (     0          0          1      )    f =( -0.2500000 )
                  (    -1          0          1      )       ( -0.2500000 )
                  (     0         -1          1      )       ( -0.2500000 )

 cart.    s(11) = (  0.0000000  0.0000000  1.0000000 )    f =( -0.3535534 )
                  (  0.0000000  1.0000000  0.0000000 )       ( -0.3535534 )
                  ( -1.0000000  0.0000000  0.0000000 )       ( -0.3535534 )


      isym = 12      90 deg rotation - cart. axis [0,-1,0]       

 cryst.   s(12) = (     1         -1          0      )    f =( -0.2500000 )
                  (     1          0         -1      )       ( -0.2500000 )
                  (     1          0          0      )       ( -0.2500000 )

 cart.    s(12) = (  0.0000000  0.0000000 -1.0000000 )    f =( -0.3535534 )
                  (  0.0000000  1.0000000  0.0000000 )       ( -0.3535534 )
                  (  1.0000000  0.0000000  0.0000000 )       ( -0.3535534 )


      isym = 13     180 deg rotation - cart. axis [0,1,1]        

 cryst.   s(13) = (     1          0          0      )    f =( -0.2500000 )
                  (     1         -1          0      )       ( -0.2500000 )
                  (     1          0         -1      )       ( -0.2500000 )

 cart.    s(13) = ( -1.0000000  0.0000000  0.0000000 )    f =( -0.3535534 )
                  (  0.0000000  0.0000000  1.0000000 )       ( -0.3535534 )
                  (  0.0000000  1.0000000  0.0000000 )       ( -0.3535534 )


      isym = 14     180 deg rotation - cart. axis [0,1,-1]       

 cryst.   s(14) = (    -1          0          0      )    f =( -0.2500000 )
                  (     0          0         -1      )       ( -0.2500000 )
                  (     0         -1          0      )       ( -0.2500000 )

 cart.    s(14) = ( -1.0000000  0.0000000  0.0000000 )    f =( -0.3535534 )
                  (  0.0000000  0.0000000 -1.0000000 )       ( -0.3535534 )
                  (  0.0000000 -1.0000000  0.0000000 )       ( -0.3535534 )


      isym = 15      90 deg rotation - cart. axis [-1,0,0]       

 cryst.   s(15) = (     0         -1          1      )    f =( -0.2500000 )
                  (     0          0          1      )       ( -0.2500000 )
                  (    -1          0          1      )       ( -0.2500000 )

 cart.    s(15) = (  1.0000000  0.0000000  0.0000000 )    f =( -0.3535534 )
                  (  0.0000000  0.0000000  1.0000000 )       ( -0.3535534 )
                  (  0.0000000 -1.0000000  0.0000000 )       ( -0.3535534 )


      isym = 16      90 deg rotation - cart. axis [1,0,0]        

 cryst.   s(16) = (     0          1         -1      )    f =( -0.2500000 )
                  (    -1          1          0      )       ( -0.2500000 )
                  (     0          1          0      )       ( -0.2500000 )

 cart.    s(16) = (  1.0000000  0.0000000  0.0000000 )    f =( -0.3535534 )
                  (  0.0000000  0.0000000 -1.0000000 )       ( -0.3535534 )
                  (  0.0000000  1.0000000  0.0000000 )       ( -0.3535534 )


      isym = 17     120 deg rotation - cart. axis [-1,-1,-1]     

 cryst.   s(17) = (     0          0          1      )
                  (     1          0          0      )
                  (     0          1          0      )

 cart.    s(17) = (  0.0000000  1.0000000  0.0000000 )
                  (  0.0000000  0.0000000  1.0000000 )
                  (  1.0000000  0.0000000  0.0000000 )


      isym = 18     120 deg rotation - cart. axis [-1,1,1]       

 cryst.   s(18) = (     1         -1          0      )
                  (     0         -1          1      )
                  (     0         -1          0      )

 cart.    s(18) = (  0.0000000 -1.0000000  0.0000000 )
                  (  0.0000000  0.0000000  1.0000000 )
                  ( -1.0000000  0.0000000  0.0000000 )


      isym = 19     120 deg rotation - cart. axis [1,1,-1]       

 cryst.   s(19) = (    -1          1          0      )
                  (    -1          0          0      )
                  (    -1          0          1      )

 cart.    s(19) = (  0.0000000  1.0000000  0.0000000 )
                  (  0.0000000  0.0000000 -1.0000000 )
                  ( -1.0000000  0.0000000  0.0000000 )


      isym = 20     120 deg rotation - cart. axis [1,-1,1]       

 cryst.   s(20) = (     0          0         -1      )
                  (     0          1         -1      )
                  (     1          0         -1      )

 cart.    s(20) = (  0.0000000 -1.0000000  0.0000000 )
                  (  0.0000000  0.0000000 -1.0000000 )
                  (  1.0000000  0.0000000  0.0000000 )


      isym = 21     120 deg rotation - cart. axis [1,1,1]        

 cryst.   s(21) = (     0          1          0      )
                  (     0          0          1      )
                  (     1          0          0      )

 cart.    s(21) = (  0.0000000  0.0000000  1.0000000 )
                  (  1.0000000  0.0000000  0.0000000 )
                  (  0.0000000  1.0000000  0.0000000 )


      isym = 22     120 deg rotation - cart. axis [-1,1,-1]      

 cryst.   s(22) = (    -1          0          1      )
                  (    -1          1          0      )
                  (    -1          0          0      )

 cart.    s(22) = (  0.0000000  0.0000000  1.0000000 )
                  ( -1.0000000  0.0000000  0.0000000 )
                  (  0.0000000 -1.0000000  0.0000000 )


      isym = 23     120 deg rotation - cart. axis [1,-1,-1]      

 cryst.   s(23) = (     1          0         -1      )
                  (     0          0         -1      )
                  (     0          1         -1      )

 cart.    s(23) = (  0.0000000  0.0000000 -1.0000000 )
                  ( -1.0000000  0.0000000  0.0000000 )
                  (  0.0000000  1.0000000  0.0000000 )


      isym = 24     120 deg rotation - cart. axis [-1,-1,1]      

 cryst.   s(24) = (     0         -1          0      )
                  (     1         -1          0      )
                  (     0         -1          1      )

 cart.    s(24) = (  0.0000000  0.0000000 -1.0000000 )
                  (  1.0000000  0.0000000  0.0000000 )
                  (  0.0000000 -1.0000000  0.0000000 )


      isym = 25     inversion                                    

 cryst.   s(25) = (    -1          0          0      )    f =( -0.2500000 )
                  (     0         -1          0      )       ( -0.2500000 )
                  (     0          0         -1      )       ( -0.2500000 )

 cart.    s(25) = ( -1.0000000  0.0000000  0.0000000 )    f =( -0.3535534 )
                  (  0.0000000 -1.0000000  0.0000000 )       ( -0.3535534 )
                  (  0.0000000  0.0000000 -1.0000000 )       ( -0.3535534 )


      isym = 26     inv. 180 deg rotation - cart. axis [0,0,1]   

 cryst.   s(26) = (     0         -1          1      )    f =( -0.2500000 )
                  (    -1          0          1      )       ( -0.2500000 )
                  (     0          0          1      )       ( -0.2500000 )

 cart.    s(26) = (  1.0000000  0.0000000  0.0000000 )    f =( -0.3535534 )
                  (  0.0000000  1.0000000  0.0000000 )       ( -0.3535534 )
                  (  0.0000000  0.0000000 -1.0000000 )       ( -0.3535534 )


      isym = 27     inv. 180 deg rotation - cart. axis [0,1,0]   

 cryst.   s(27) = (     0          1         -1      )    f =( -0.2500000 )
                  (     0          1          0      )       ( -0.2500000 )
                  (    -1          1          0      )       ( -0.2500000 )

 cart.    s(27) = (  1.0000000  0.0000000  0.0000000 )    f =( -0.3535534 )
                  (  0.0000000 -1.0000000  0.0000000 )       ( -0.3535534 )
                  (  0.0000000  0.0000000  1.0000000 )       ( -0.3535534 )


      isym = 28     inv. 180 deg rotation - cart. axis [1,0,0]   

 cryst.   s(28) = (     1          0          0      )    f =( -0.2500000 )
                  (     1          0         -1      )       ( -0.2500000 )
                  (     1         -1          0      )       ( -0.2500000 )

 cart.    s(28) = ( -1.0000000  0.0000000  0.0000000 )    f =( -0.3535534 )
                  (  0.0000000  1.0000000  0.0000000 )       ( -0.3535534 )
                  (  0.0000000  0.0000000  1.0000000 )       ( -0.3535534 )


      isym = 29     inv. 180 deg rotation - cart. axis [1,1,0]   

 cryst.   s(29) = (     1          0         -1      )
                  (     0          1         -1      )
                  (     0          0         -1      )

 cart.    s(29) = (  0.0000000 -1.0000000  0.0000000 )
                  ( -1.0000000  0.0000000  0.0000000 )
                  (  0.0000000  0.0000000  1.0000000 )


      isym = 30     inv. 180 deg rotation - cart. axis [1,-1,0]  

 cryst.   s(30) = (     0          1          0      )
                  (     1          0          0      )
                  (     0          0          1      )

 cart.    s(30) = (  0.0000000  1.0000000  0.0000000 )
                  (  1.0000000  0.0000000  0.0000000 )
                  (  0.0000000  0.0000000  1.0000000 )


      isym = 31     inv.  90 deg rotation - cart. axis [0,0,-1]  

 cryst.   s(31) = (     0         -1          0      )
                  (     0         -1          1      )
                  (     1         -1          0      )

 cart.    s(31) = (  0.0000000 -1.0000000  0.0000000 )
                  (  1.0000000  0.0000000  0.0000000 )
                  (  0.0000000  0.0000000 -1.0000000 )


      isym = 32     inv.  90 deg rotation - cart. axis [0,0,1]   

 cryst.   s(32) = (    -1          0          1      )
                  (    -1          0          0      )
                  (    -1          1          0      )

 cart.    s(32) = (  0.0000000  1.0000000  0.0000000 )
                  ( -1.0000000  0.0000000  0.0000000 )
                  (  0.0000000  0.0000000 -1.0000000 )


      isym = 33     inv. 180 deg rotation - cart. axis [1,0,1]   

 cryst.   s(33) = (     1         -1          0      )
                  (     0         -1          0      )
                  (     0         -1          1      )

 cart.    s(33) = (  0.0000000  0.0000000 -1.0000000 )
                  (  0.0000000  1.0000000  0.0000000 )
                  ( -1.0000000  0.0000000  0.0000000 )


      isym = 34     inv. 180 deg rotation - cart. axis [-1,0,1]  

 cryst.   s(34) = (     0          0          1      )
                  (     0          1          0      )
                  (     1          0          0      )

 cart.    s(34) = (  0.0000000  0.0000000  1.0000000 )
                  (  0.0000000  1.0000000  0.0000000 )
                  (  1.0000000  0.0000000  0.0000000 )


      isym = 35     inv.  90 deg rotation - cart. axis [0,1,0]   

 cryst.   s(35) = (     0          0         -1      )
                  (     1          0         -1      )
                  (     0          1         -1      )

 cart.    s(35) = (  0.0000000  0.0000000 -1.0000000 )
                  (  0.0000000 -1.0000000  0.0000000 )
                  (  1.0000000  0.0000000  0.0000000 )


      isym = 36     inv.  90 deg rotation - cart. axis [0,-1,0]  

 cryst.   s(36) = (    -1          1          0      )
                  (    -1          0          1      )
                  (    -1          0          0      )

 cart.    s(36) = (  0.0000000  0.0000000  1.0000000 )
                  (  0.0000000 -1.0000000  0.0000000 )
                  ( -1.0000000  0.0000000  0.0000000 )


      isym = 37     inv. 180 deg rotation - cart. axis [0,1,1]   

 cryst.   s(37) = (    -1          0          0      )
                  (    -1          1          0      )
                  (    -1          0          1      )

 cart.    s(37) = (  1.0000000  0.0000000  0.0000000 )
                  (  0.0000000  0.0000000 -1.0000000 )
                  (  0.0000000 -1.0000000  0.0000000 )


      isym = 38     inv. 180 deg rotation - cart. axis [0,1,-1]  

 cryst.   s(38) = (     1          0          0      )
                  (     0          0          1      )
                  (     0          1          0      )

 cart.    s(38) = (  1.0000000  0.0000000  0.0000000 )
                  (  0.0000000  0.0000000  1.0000000 )
                  (  0.0000000  1.0000000  0.0000000 )


      isym = 39     inv.  90 deg rotation - cart. axis [-1,0,0]  

 cryst.   s(39) = (     0          1         -1      )
                  (     0          0         -1      )
                  (     1          0         -1      )

 cart.    s(39) = ( -1.0000000  0.0000000  0.0000000 )
                  (  0.0000000  0.0000000 -1.0000000 )
                  (  0.0000000  1.0000000  0.0000000 )


      isym = 40     inv.  90 deg rotation - cart. axis [1,0,0]   

 cryst.   s(40) = (     0         -1          1      )
                  (     1         -1          0      )
                  (     0         -1          0      )

 cart.    s(40) = ( -1.0000000  0.0000000  0.0000000 )
                  (  0.0000000  0.0000000  1.0000000 )
                  (  0.0000000 -1.0000000  0.0000000 )


      isym = 41     inv. 120 deg rotation - cart. axis [-1,-1,-1]

 cryst.   s(41) = (     0          0         -1      )    f =( -0.2500000 )
                  (    -1          0          0      )       ( -0.2500000 )
                  (     0         -1          0      )       ( -0.2500000 )

 cart.    s(41) = (  0.0000000 -1.0000000  0.0000000 )    f =( -0.3535534 )
                  (  0.0000000  0.0000000 -1.0000000 )       ( -0.3535534 )
                  ( -1.0000000  0.0000000  0.0000000 )       ( -0.3535534 )


      isym = 42     inv. 120 deg rotation - cart. axis [-1,1,1]  

 cryst.   s(42) = (    -1          1          0      )    f =( -0.2500000 )
                  (     0          1         -1      )       ( -0.2500000 )
                  (     0          1          0      )       ( -0.2500000 )

 cart.    s(42) = (  0.0000000  1.0000000  0.0000000 )    f =( -0.3535534 )
                  (  0.0000000  0.0000000 -1.0000000 )       ( -0.3535534 )
                  (  1.0000000  0.0000000  0.0000000 )       ( -0.3535534 )


      isym = 43     inv. 120 deg rotation - cart. axis [1,1,-1]  

 cryst.   s(43) = (     1         -1          0      )    f =( -0.2500000 )
                  (     1          0          0      )       ( -0.2500000 )
                  (     1          0         -1      )       ( -0.2500000 )

 cart.    s(43) = (  0.0000000 -1.0000000  0.0000000 )    f =( -0.3535534 )
                  (  0.0000000  0.0000000  1.0000000 )       ( -0.3535534 )
                  (  1.0000000  0.0000000  0.0000000 )       ( -0.3535534 )


      isym = 44     inv. 120 deg rotation - cart. axis [1,-1,1]  

 cryst.   s(44) = (     0          0          1      )    f =( -0.2500000 )
                  (     0         -1          1      )       ( -0.2500000 )
                  (    -1          0          1      )       ( -0.2500000 )

 cart.    s(44) = (  0.0000000  1.0000000  0.0000000 )    f =( -0.3535534 )
                  (  0.0000000  0.0000000  1.0000000 )       ( -0.3535534 )
                  ( -1.0000000  0.0000000  0.0000000 )       ( -0.3535534 )


      isym = 45     inv. 120 deg rotation - cart. axis [1,1,1]   

 cryst.   s(45) = (     0         -1          0      )    f =( -0.2500000 )
                  (     0          0         -1      )       ( -0.2500000 )
                  (    -1          0          0      )       ( -0.2500000 )

 cart.    s(45) = (  0.0000000  0.0000000 -1.0000000 )    f =( -0.3535534 )
                  ( -1.0000000  0.0000000  0.0000000 )       ( -0.3535534 )
                  (  0.0000000 -1.0000000  0.0000000 )       ( -0.3535534 )


      isym = 46     inv. 120 deg rotation - cart. axis [-1,1,-1] 

 cryst.   s(46) = (     1          0         -1      )    f =( -0.2500000 )
                  (     1         -1          0      )       ( -0.2500000 )
                  (     1          0          0      )       ( -0.2500000 )

 cart.    s(46) = (  0.0000000  0.0000000 -1.0000000 )    f =( -0.3535534 )
                  (  1.0000000  0.0000000  0.0000000 )       ( -0.3535534 )
                  (  0.0000000  1.0000000  0.0000000 )       ( -0.3535534 )


      isym = 47     inv. 120 deg rotation - cart. axis [1,-1,-1] 

 cryst.   s(47) = (    -1          0          1      )    f =( -0.2500000 )
                  (     0          0          1      )       ( -0.2500000 )
                  (     0         -1          1      )       ( -0.2500000 )

 cart.    s(47) = (  0.0000000  0.0000000  1.0000000 )    f =( -0.3535534 )
                  (  1.0000000  0.0000000  0.0000000 )       ( -0.3535534 )
                  (  0.0000000 -1.0000000  0.0000000 )       ( -0.3535534 )


      isym = 48     inv. 120 deg rotation - cart. axis [-1,-1,1] 

 cryst.   s(48) = (     0          1          0      )    f =( -0.2500000 )
                  (    -1          1          0      )       ( -0.2500000 )
                  (     0          1         -1      )       ( -0.2500000 )

 cart.    s(48) = (  0.0000000  0.0000000  1.0000000 )    f =( -0.3535534 )
                  ( -1.0000000  0.0000000  0.0000000 )       ( -0.3535534 )
                  (  0.0000000  1.0000000  0.0000000 )       ( -0.3535534 )


   Cartesian axes

     site n.     atom                  positions (alat units)
         1           Sn  tau(   1) = (   0.0000000   0.0000000   0.0000000  )
         2           Sn  tau(   2) = (   0.3535534   0.3535534   0.3535534  )

   Crystallographic axes

     site n.     atom                  positions (cryst. coord.)
         1           Sn  tau(   1) = (  0.0000000  0.0000000  0.0000000  )
         2           Sn  tau(   2) = (  0.2500000  0.2500000  0.2500000  )

     number of k points=   120  gaussian smearing, width (Ry)=  0.0001
                       cart. coord. in units 2pi/alat
        k(    1) = (   0.0000000   0.0000000   0.0000000), wk =   0.0005926
        k(    2) = (   0.0471405   0.0471405  -0.0471405), wk =   0.0047407
        k(    3) = (   0.0942809   0.0942809  -0.0942809), wk =   0.0047407
        k(    4) = (   0.1414214   0.1414214  -0.1414214), wk =   0.0047407
        k(    5) = (   0.1885618   0.1885618  -0.1885618), wk =   0.0047407
        k(    6) = (   0.2357023   0.2357023  -0.2357023), wk =   0.0047407
        k(    7) = (   0.2828427   0.2828427  -0.2828427), wk =   0.0047407
        k(    8) = (   0.3299832   0.3299832  -0.3299832), wk =   0.0047407
        k(    9) = (   0.0942809   0.0000000   0.0000000), wk =   0.0035556
        k(   10) = (   0.1414214   0.0471405  -0.0471405), wk =   0.0142222
        k(   11) = (   0.1885618   0.0942809  -0.0942809), wk =   0.0142222
        k(   12) = (   0.2357023   0.1414214  -0.1414214), wk =   0.0142222
        k(   13) = (   0.2828427   0.1885618  -0.1885618), wk =   0.0142222
        k(   14) = (   0.3299832   0.2357023  -0.2357023), wk =   0.0142222
        k(   15) = (   0.3771236   0.2828427  -0.2828427), wk =   0.0142222
        k(   16) = (  -0.2828427  -0.3771236   0.3771236), wk =   0.0142222
        k(   17) = (  -0.2357023  -0.3299832   0.3299832), wk =   0.0142222
        k(   18) = (  -0.1885618  -0.2828427   0.2828427), wk =   0.0142222
        k(   19) = (  -0.1414214  -0.2357023   0.2357023), wk =   0.0142222
        k(   20) = (  -0.0942809  -0.1885618   0.1885618), wk =   0.0142222
        k(   21) = (  -0.0471405  -0.1414214   0.1414214), wk =   0.0142222
        k(   22) = (   0.0000000  -0.0942809   0.0942809), wk =   0.0071111
        k(   23) = (   0.1885618   0.0000000   0.0000000), wk =   0.0035556
        k(   24) = (   0.2357023   0.0471405  -0.0471405), wk =   0.0142222
        k(   25) = (   0.2828427   0.0942809  -0.0942809), wk =   0.0142222
        k(   26) = (   0.3299832   0.1414214  -0.1414214), wk =   0.0142222
        k(   27) = (   0.3771236   0.1885618  -0.1885618), wk =   0.0142222
        k(   28) = (   0.4242641   0.2357023  -0.2357023), wk =   0.0142222
        k(   29) = (  -0.2357023  -0.4242641   0.4242641), wk =   0.0142222
        k(   30) = (  -0.1885618  -0.3771236   0.3771236), wk =   0.0142222
        k(   31) = (  -0.1414214  -0.3299832   0.3299832), wk =   0.0142222
        k(   32) = (  -0.0942809  -0.2828427   0.2828427), wk =   0.0142222
        k(   33) = (  -0.0471405  -0.2357023   0.2357023), wk =   0.0142222
        k(   34) = (   0.0000000  -0.1885618   0.1885618), wk =   0.0071111
        k(   35) = (   0.2828427   0.0000000   0.0000000), wk =   0.0035556
        k(   36) = (   0.3299832   0.0471405  -0.0471405), wk =   0.0142222
        k(   37) = (   0.3771236   0.0942809  -0.0942809), wk =   0.0142222
        k(   38) = (   0.4242641   0.1414214  -0.1414214), wk =   0.0142222
        k(   39) = (   0.4714045   0.1885618  -0.1885618), wk =   0.0142222
        k(   40) = (  -0.1885618  -0.4714045   0.4714045), wk =   0.0142222
        k(   41) = (  -0.1414214  -0.4242641   0.4242641), wk =   0.0142222
        k(   42) = (  -0.0942809  -0.3771236   0.3771236), wk =   0.0142222
        k(   43) = (  -0.0471405  -0.3299832   0.3299832), wk =   0.0142222
        k(   44) = (   0.0000000  -0.2828427   0.2828427), wk =   0.0071111
        k(   45) = (   0.3771236   0.0000000   0.0000000), wk =   0.0035556
        k(   46) = (   0.4242641   0.0471405  -0.0471405), wk =   0.0142222
        k(   47) = (   0.4714045   0.0942809  -0.0942809), wk =   0.0142222
        k(   48) = (   0.5185450   0.1414214  -0.1414214), wk =   0.0142222
        k(   49) = (  -0.1414214  -0.5185450   0.5185450), wk =   0.0142222
        k(   50) = (  -0.0942809  -0.4714045   0.4714045), wk =   0.0142222
        k(   51) = (  -0.0471405  -0.4242641   0.4242641), wk =   0.0142222
        k(   52) = (  -0.0000000  -0.3771236   0.3771236), wk =   0.0071111
        k(   53) = (   0.4714045   0.0000000   0.0000000), wk =   0.0035556
        k(   54) = (   0.5185450   0.0471405  -0.0471405), wk =   0.0142222
        k(   55) = (   0.5656854   0.0942809  -0.0942809), wk =   0.0142222
        k(   56) = (  -0.0942809  -0.5656854   0.5656854), wk =   0.0142222
        k(   57) = (  -0.0471405  -0.5185450   0.5185450), wk =   0.0142222
        k(   58) = (  -0.0000000  -0.4714045   0.4714045), wk =   0.0071111
        k(   59) = (   0.5656854   0.0000000   0.0000000), wk =   0.0035556
        k(   60) = (   0.6128259   0.0471405  -0.0471405), wk =   0.0142222
        k(   61) = (  -0.0471405  -0.6128259   0.6128259), wk =   0.0142222
        k(   62) = (   0.0000000  -0.5656854   0.5656854), wk =   0.0071111
        k(   63) = (   0.6599663   0.0000000   0.0000000), wk =   0.0035556
        k(   64) = (   0.0000000  -0.6599663   0.6599663), wk =   0.0071111
        k(   65) = (   0.1885618   0.0942809  -0.0000000), wk =   0.0142222
        k(   66) = (   0.2357023   0.1414214  -0.0471405), wk =   0.0284444
        k(   67) = (   0.2828427   0.1885618  -0.0942809), wk =   0.0284444
        k(   68) = (   0.3299832   0.2357023  -0.1414214), wk =   0.0284444
        k(   69) = (   0.3771236   0.2828427  -0.1885618), wk =   0.0284444
        k(   70) = (  -0.2828427  -0.3771236   0.4714045), wk =   0.0284444
        k(   71) = (   0.2828427   0.0942809   0.0000000), wk =   0.0142222
        k(   72) = (   0.3299832   0.1414214  -0.0471405), wk =   0.0284444
        k(   73) = (   0.3771236   0.1885618  -0.0942809), wk =   0.0284444
        k(   74) = (   0.4242641   0.2357023  -0.1414214), wk =   0.0284444
        k(   75) = (  -0.2357023  -0.4242641   0.5185450), wk =   0.0284444
        k(   76) = (  -0.1885618  -0.3771236   0.4714045), wk =   0.0284444
        k(   77) = (  -0.1414214  -0.3299832   0.4242641), wk =   0.0284444
        k(   78) = (  -0.0942809  -0.2828427   0.3771236), wk =   0.0284444
        k(   79) = (  -0.0471405  -0.2357023   0.3299832), wk =   0.0284444
        k(   80) = (   0.0000000  -0.1885618   0.2828427), wk =   0.0142222
        k(   81) = (   0.3771236   0.0942809   0.0000000), wk =   0.0142222
        k(   82) = (   0.4242641   0.1414214  -0.0471405), wk =   0.0284444
        k(   83) = (   0.4714045   0.1885618  -0.0942809), wk =   0.0284444
        k(   84) = (  -0.1885618  -0.4714045   0.5656854), wk =   0.0284444
        k(   85) = (  -0.1414214  -0.4242641   0.5185450), wk =   0.0284444
        k(   86) = (  -0.0942809  -0.3771236   0.4714045), wk =   0.0284444
        k(   87) = (  -0.0471405  -0.3299832   0.4242641), wk =   0.0284444
        k(   88) = (   0.0000000  -0.2828427   0.3771236), wk =   0.0142222
        k(   89) = (   0.4714045   0.0942809  -0.0000000), wk =   0.0142222
        k(   90) = (   0.5185450   0.1414214  -0.0471405), wk =   0.0284444
        k(   91) = (  -0.1414214  -0.5185450   0.6128259), wk =   0.0284444
        k(   92) = (  -0.0942809  -0.4714045   0.5656854), wk =   0.0284444
        k(   93) = (  -0.0471405  -0.4242641   0.5185450), wk =   0.0284444
        k(   94) = (  -0.0000000  -0.3771236   0.4714045), wk =   0.0142222
        k(   95) = (   0.5656854   0.0942809   0.0000000), wk =   0.0142222
        k(   96) = (  -0.0942809  -0.5656854   0.6599663), wk =   0.0284444
        k(   97) = (  -0.0471405  -0.5185450   0.6128259), wk =   0.0284444
        k(   98) = (   0.0000000  -0.4714045   0.5656854), wk =   0.0142222
        k(   99) = (  -0.0471405  -0.6128259   0.7071068), wk =   0.0142222
        k(  100) = (   0.0000000  -0.5656854   0.6599663), wk =   0.0142222
        k(  101) = (   0.3771236   0.1885618  -0.0000000), wk =   0.0142222
        k(  102) = (   0.4242641   0.2357023  -0.0471405), wk =   0.0284444
        k(  103) = (  -0.2357023  -0.4242641   0.6128259), wk =   0.0284444
        k(  104) = (  -0.1885618  -0.3771236   0.5656854), wk =   0.0284444
        k(  105) = (   0.4714045   0.1885618  -0.0000000), wk =   0.0142222
        k(  106) = (  -0.1885618  -0.4714045   0.6599663), wk =   0.0284444
        k(  107) = (  -0.1414214  -0.4242641   0.6128259), wk =   0.0284444
        k(  108) = (  -0.0942809  -0.3771236   0.5656854), wk =   0.0284444
        k(  109) = (  -0.0471405  -0.3299832   0.5185450), wk =   0.0284444
        k(  110) = (   0.0000000  -0.2828427   0.4714045), wk =   0.0142222
        k(  111) = (  -0.1414214  -0.5185450   0.7071068), wk =   0.0142222
        k(  112) = (  -0.0942809  -0.4714045   0.6599663), wk =   0.0284444
        k(  113) = (  -0.0471405  -0.4242641   0.6128259), wk =   0.0284444
        k(  114) = (   0.0000000  -0.3771236   0.5656854), wk =   0.0142222
        k(  115) = (  -0.0471405  -0.5185450   0.7071068), wk =   0.0142222
        k(  116) = (   0.0000000  -0.4714045   0.6599663), wk =   0.0142222
        k(  117) = (  -0.1414214  -0.4242641   0.7071068), wk =   0.0142222
        k(  118) = (  -0.0942809  -0.3771236   0.6599663), wk =   0.0284444
        k(  119) = (  -0.0471405  -0.4242641   0.7071068), wk =   0.0142222
        k(  120) = (  -0.0000000  -0.3771236   0.6599663), wk =   0.0142222

                       cryst. coord.
        k(    1) = (   0.0000000   0.0000000   0.0000000), wk =   0.0005926
        k(    2) = (   0.0000000   0.0000000   0.0666667), wk =   0.0047407
        k(    3) = (   0.0000000   0.0000000   0.1333333), wk =   0.0047407
        k(    4) = (   0.0000000   0.0000000   0.2000000), wk =   0.0047407
        k(    5) = (   0.0000000   0.0000000   0.2666667), wk =   0.0047407
        k(    6) = (   0.0000000   0.0000000   0.3333333), wk =   0.0047407
        k(    7) = (   0.0000000   0.0000000   0.4000000), wk =   0.0047407
        k(    8) = (   0.0000000   0.0000000   0.4666667), wk =   0.0047407
        k(    9) = (   0.0000000   0.0666667   0.0666667), wk =   0.0035556
        k(   10) = (   0.0000000   0.0666667   0.1333333), wk =   0.0142222
        k(   11) = (   0.0000000   0.0666667   0.2000000), wk =   0.0142222
        k(   12) = (   0.0000000   0.0666667   0.2666667), wk =   0.0142222
        k(   13) = (   0.0000000   0.0666667   0.3333333), wk =   0.0142222
        k(   14) = (   0.0000000   0.0666667   0.4000000), wk =   0.0142222
        k(   15) = (   0.0000000   0.0666667   0.4666667), wk =   0.0142222
        k(   16) = (   0.0000000   0.0666667  -0.4666667), wk =   0.0142222
        k(   17) = (   0.0000000   0.0666667  -0.4000000), wk =   0.0142222
        k(   18) = (   0.0000000   0.0666667  -0.3333333), wk =   0.0142222
        k(   19) = (   0.0000000   0.0666667  -0.2666667), wk =   0.0142222
        k(   20) = (   0.0000000   0.0666667  -0.2000000), wk =   0.0142222
        k(   21) = (   0.0000000   0.0666667  -0.1333333), wk =   0.0142222
        k(   22) = (   0.0000000   0.0666667  -0.0666667), wk =   0.0071111
        k(   23) = (   0.0000000   0.1333333   0.1333333), wk =   0.0035556
        k(   24) = (   0.0000000   0.1333333   0.2000000), wk =   0.0142222
        k(   25) = (   0.0000000   0.1333333   0.2666667), wk =   0.0142222
        k(   26) = (   0.0000000   0.1333333   0.3333333), wk =   0.0142222
        k(   27) = (   0.0000000   0.1333333   0.4000000), wk =   0.0142222
        k(   28) = (   0.0000000   0.1333333   0.4666667), wk =   0.0142222
        k(   29) = (   0.0000000   0.1333333  -0.4666667), wk =   0.0142222
        k(   30) = (   0.0000000   0.1333333  -0.4000000), wk =   0.0142222
        k(   31) = (   0.0000000   0.1333333  -0.3333333), wk =   0.0142222
        k(   32) = (   0.0000000   0.1333333  -0.2666667), wk =   0.0142222
        k(   33) = (   0.0000000   0.1333333  -0.2000000), wk =   0.0142222
        k(   34) = (   0.0000000   0.1333333  -0.1333333), wk =   0.0071111
        k(   35) = (   0.0000000   0.2000000   0.2000000), wk =   0.0035556
        k(   36) = (   0.0000000   0.2000000   0.2666667), wk =   0.0142222
        k(   37) = (   0.0000000   0.2000000   0.3333333), wk =   0.0142222
        k(   38) = (   0.0000000   0.2000000   0.4000000), wk =   0.0142222
        k(   39) = (   0.0000000   0.2000000   0.4666667), wk =   0.0142222
        k(   40) = (   0.0000000   0.2000000  -0.4666667), wk =   0.0142222
        k(   41) = (   0.0000000   0.2000000  -0.4000000), wk =   0.0142222
        k(   42) = (   0.0000000   0.2000000  -0.3333333), wk =   0.0142222
        k(   43) = (   0.0000000   0.2000000  -0.2666667), wk =   0.0142222
        k(   44) = (   0.0000000   0.2000000  -0.2000000), wk =   0.0071111
        k(   45) = (   0.0000000   0.2666667   0.2666667), wk =   0.0035556
        k(   46) = (   0.0000000   0.2666667   0.3333333), wk =   0.0142222
        k(   47) = (   0.0000000   0.2666667   0.4000000), wk =   0.0142222
        k(   48) = (   0.0000000   0.2666667   0.4666667), wk =   0.0142222
        k(   49) = (   0.0000000   0.2666667  -0.4666667), wk =   0.0142222
        k(   50) = (   0.0000000   0.2666667  -0.4000000), wk =   0.0142222
        k(   51) = (   0.0000000   0.2666667  -0.3333333), wk =   0.0142222
        k(   52) = (   0.0000000   0.2666667  -0.2666667), wk =   0.0071111
        k(   53) = (   0.0000000   0.3333333   0.3333333), wk =   0.0035556
        k(   54) = (   0.0000000   0.3333333   0.4000000), wk =   0.0142222
        k(   55) = (   0.0000000   0.3333333   0.4666667), wk =   0.0142222
        k(   56) = (   0.0000000   0.3333333  -0.4666667), wk =   0.0142222
        k(   57) = (   0.0000000   0.3333333  -0.4000000), wk =   0.0142222
        k(   58) = (   0.0000000   0.3333333  -0.3333333), wk =   0.0071111
        k(   59) = (   0.0000000   0.4000000   0.4000000), wk =   0.0035556
        k(   60) = (   0.0000000   0.4000000   0.4666667), wk =   0.0142222
        k(   61) = (   0.0000000   0.4000000  -0.4666667), wk =   0.0142222
        k(   62) = (   0.0000000   0.4000000  -0.4000000), wk =   0.0071111
        k(   63) = (   0.0000000   0.4666667   0.4666667), wk =   0.0035556
        k(   64) = (   0.0000000   0.4666667  -0.4666667), wk =   0.0071111
        k(   65) = (   0.0666667   0.1333333   0.2000000), wk =   0.0142222
        k(   66) = (   0.0666667   0.1333333   0.2666667), wk =   0.0284444
        k(   67) = (   0.0666667   0.1333333   0.3333333), wk =   0.0284444
        k(   68) = (   0.0666667   0.1333333   0.4000000), wk =   0.0284444
        k(   69) = (   0.0666667   0.1333333   0.4666667), wk =   0.0284444
        k(   70) = (   0.0666667   0.1333333  -0.4666667), wk =   0.0284444
        k(   71) = (   0.0666667   0.2000000   0.2666667), wk =   0.0142222
        k(   72) = (   0.0666667   0.2000000   0.3333333), wk =   0.0284444
        k(   73) = (   0.0666667   0.2000000   0.4000000), wk =   0.0284444
        k(   74) = (   0.0666667   0.2000000   0.4666667), wk =   0.0284444
        k(   75) = (   0.0666667   0.2000000  -0.4666667), wk =   0.0284444
        k(   76) = (   0.0666667   0.2000000  -0.4000000), wk =   0.0284444
        k(   77) = (   0.0666667   0.2000000  -0.3333333), wk =   0.0284444
        k(   78) = (   0.0666667   0.2000000  -0.2666667), wk =   0.0284444
        k(   79) = (   0.0666667   0.2000000  -0.2000000), wk =   0.0284444
        k(   80) = (   0.0666667   0.2000000  -0.1333333), wk =   0.0142222
        k(   81) = (   0.0666667   0.2666667   0.3333333), wk =   0.0142222
        k(   82) = (   0.0666667   0.2666667   0.4000000), wk =   0.0284444
        k(   83) = (   0.0666667   0.2666667   0.4666667), wk =   0.0284444
        k(   84) = (   0.0666667   0.2666667  -0.4666667), wk =   0.0284444
        k(   85) = (   0.0666667   0.2666667  -0.4000000), wk =   0.0284444
        k(   86) = (   0.0666667   0.2666667  -0.3333333), wk =   0.0284444
        k(   87) = (   0.0666667   0.2666667  -0.2666667), wk =   0.0284444
        k(   88) = (   0.0666667   0.2666667  -0.2000000), wk =   0.0142222
        k(   89) = (   0.0666667   0.3333333   0.4000000), wk =   0.0142222
        k(   90) = (   0.0666667   0.3333333   0.4666667), wk =   0.0284444
        k(   91) = (   0.0666667   0.3333333  -0.4666667), wk =   0.0284444
        k(   92) = (   0.0666667   0.3333333  -0.4000000), wk =   0.0284444
        k(   93) = (   0.0666667   0.3333333  -0.3333333), wk =   0.0284444
        k(   94) = (   0.0666667   0.3333333  -0.2666667), wk =   0.0142222
        k(   95) = (   0.0666667   0.4000000   0.4666667), wk =   0.0142222
        k(   96) = (   0.0666667   0.4000000  -0.4666667), wk =   0.0284444
        k(   97) = (   0.0666667   0.4000000  -0.4000000), wk =   0.0284444
        k(   98) = (   0.0666667   0.4000000  -0.3333333), wk =   0.0142222
        k(   99) = (   0.0666667   0.4666667  -0.4666667), wk =   0.0142222
        k(  100) = (   0.0666667   0.4666667  -0.4000000), wk =   0.0142222
        k(  101) = (   0.1333333   0.2666667   0.4000000), wk =   0.0142222
        k(  102) = (   0.1333333   0.2666667   0.4666667), wk =   0.0284444
        k(  103) = (   0.1333333   0.2666667  -0.4666667), wk =   0.0284444
        k(  104) = (   0.1333333   0.2666667  -0.4000000), wk =   0.0284444
        k(  105) = (   0.1333333   0.3333333   0.4666667), wk =   0.0142222
        k(  106) = (   0.1333333   0.3333333  -0.4666667), wk =   0.0284444
        k(  107) = (   0.1333333   0.3333333  -0.4000000), wk =   0.0284444
        k(  108) = (   0.1333333   0.3333333  -0.3333333), wk =   0.0284444
        k(  109) = (   0.1333333   0.3333333  -0.2666667), wk =   0.0284444
        k(  110) = (   0.1333333   0.3333333  -0.2000000), wk =   0.0142222
        k(  111) = (   0.1333333   0.4000000  -0.4666667), wk =   0.0142222
        k(  112) = (   0.1333333   0.4000000  -0.4000000), wk =   0.0284444
        k(  113) = (   0.1333333   0.4000000  -0.3333333), wk =   0.0284444
        k(  114) = (   0.1333333   0.4000000  -0.2666667), wk =   0.0142222
        k(  115) = (   0.1333333   0.4666667  -0.4000000), wk =   0.0142222
        k(  116) = (   0.1333333   0.4666667  -0.3333333), wk =   0.0142222
        k(  117) = (   0.2000000   0.4000000  -0.4000000), wk =   0.0142222
        k(  118) = (   0.2000000   0.4000000  -0.3333333), wk =   0.0284444
        k(  119) = (   0.2000000   0.4666667  -0.3333333), wk =   0.0142222
        k(  120) = (   0.2000000   0.4666667  -0.2666667), wk =   0.0142222

     Dense  grid:   162321 G-vectors     FFT dimensions: (  80,  80,  80)

     Largest allocated arrays     est. size (Mb)     dimensions
        Kohn-Sham Wavefunctions         0.35 Mb     (    1280,   18)
        NL pseudopotentials             0.70 Mb     (    1280,   36)
        Each V/rho on FFT grid          0.49 Mb     (   32000)
        Each G-vector array             0.08 Mb     (   10146)
        G-vector shells                 0.01 Mb     (     953)
     Largest temporary arrays     est. size (Mb)     dimensions
        Auxiliary wavefunctions         1.41 Mb     (    1280,   72)
        Each subspace H/S matrix        0.08 Mb     (      72,   72)
        Each <psi_i|beta_j> matrix      0.01 Mb     (      36,   18)
        Arrays for rho mixing           3.91 Mb     (   32000,    8)

     Initial potential from superposition of free atoms

     starting charge   27.82601, renormalised to   28.00000
     Starting wfc are random

     total cpu time spent up to now is        7.2 secs

     Self-consistent Calculation

     iteration #  1     ecut=   180.00 Ry     beta=0.70
     Davidson diagonalization with overlap
     ethr =  1.00E-02,  avg # of iterations =  7.0

     total cpu time spent up to now is       61.6 secs

     total energy              =    -233.14070772 Ry
     Harris-Foulkes estimate   =    -234.57558854 Ry
     estimated scf accuracy    <       2.29072676 Ry

     iteration #  2     ecut=   180.00 Ry     beta=0.70
     Davidson diagonalization with overlap
     ethr =  8.18E-03,  avg # of iterations =  2.0

     total cpu time spent up to now is       83.2 secs

     total energy              =    -233.44523181 Ry
     Harris-Foulkes estimate   =    -233.46934212 Ry
     estimated scf accuracy    <       0.06218646 Ry

     iteration #  3     ecut=   180.00 Ry     beta=0.70
     Davidson diagonalization with overlap
     ethr =  2.22E-04,  avg # of iterations =  2.2

     total cpu time spent up to now is      102.8 secs

     total energy              =    -233.44814134 Ry
     Harris-Foulkes estimate   =    -233.44895814 Ry
     estimated scf accuracy    <       0.00282874 Ry

     iteration #  4     ecut=   180.00 Ry     beta=0.70
     Davidson diagonalization with overlap
     ethr =  1.01E-05,  avg # of iterations =  2.0

     total cpu time spent up to now is      121.4 secs

     total energy              =    -233.44829137 Ry
     Harris-Foulkes estimate   =    -233.44828846 Ry
     estimated scf accuracy    <       0.00003109 Ry

     iteration #  5     ecut=   180.00 Ry     beta=0.70
     Davidson diagonalization with overlap
     ethr =  1.11E-07,  avg # of iterations =  2.3

     total cpu time spent up to now is      141.2 secs

     End of self-consistent calculation

          k = 0.0000 0.0000 0.0000 ( 20179 PWs)   bands (ev):

   -12.3740 -12.3740 -12.3740 -12.3223 -12.3223 -12.1100 -12.1100 -12.1100
   -12.1002 -12.1002  -2.4001   5.2263   8.6183   8.6183   8.6183  10.8763
    10.8763  10.8763

     occupation numbers 
     1.0000   1.0000   1.0000   1.0000   1.0000   1.0000   1.0000   1.0000
     1.0000   1.0000   1.0000   1.0000   0.0000   0.0000   0.0000   0.0000
     0.0000   0.0000

          k = 0.0471 0.0471-0.0471 ( 20245 PWs)   bands (ev):

   -12.3764 -12.3764 -12.3733 -12.3190 -12.3190 -12.1158 -12.1158 -12.1111
   -12.0950 -12.0950  -2.3623   5.0389   8.5382   8.5382   8.5881  10.9702
    10.9793  10.9793

     occupation numbers 
     1.0000   1.0000   1.0000   1.0000   1.0000   1.0000   1.0000   1.0000
     1.0000   1.0000   1.0000   1.0000   0.0000   0.0000   0.0000   0.0000
     0.0000   0.0000

          k = 0.0943 0.0943-0.0943 ( 20269 PWs)   bands (ev):

   -12.3817 -12.3817 -12.3710 -12.3112 -12.3112 -12.1245 -12.1245 -12.1141
   -12.0879 -12.0879  -2.2503   4.5529   8.3432   8.3432   8.4682  11.2330
    11.2330  11.3046

     occupation numbers 
     1.0000   1.0000   1.0000   1.0000   1.0000   1.0000   1.0000   1.0000
     1.0000   1.0000   1.0000   1.0000   0.0000   0.0000   0.0000   0.0000
     0.0000   0.0000

          k = 0.1414 0.1414-0.1414 ( 20278 PWs)   bands (ev):

   -12.3874 -12.3874 -12.3677 -12.3019 -12.3019 -12.1328 -12.1328 -12.1186
   -12.0817 -12.0817  -2.0685   3.9086   8.1098   8.1098   8.2720  11.5333
    11.5333  11.8869

     occupation numbers 
     1.0000   1.0000   1.0000   1.0000   1.0000   1.0000   1.0000   1.0000
     1.0000   1.0000   1.0000   1.0000   1.0000   1.0000   1.0000   0.0000
     0.0000   0.0000

          k = 0.1886 0.1886-0.1886 ( 20299 PWs)   bands (ev):

   -12.3924 -12.3924 -12.3637 -12.2932 -12.2932 -12.1395 -12.1395 -12.1239
   -12.0771 -12.0771  -1.8268   3.2183   7.8894   7.8894   8.0632  11.7946
    11.7947  12.6479

     occupation numbers 
     1.0000   1.0000   1.0000   1.0000   1.0000   1.0000   1.0000   1.0000
     1.0000   1.0000   1.0000   1.0000   1.0000   1.0000   1.0000   0.0000
     0.0000   0.0000

          k = 0.2357 0.2357-0.2357 ( 20278 PWs)   bands (ev):

   -12.3960 -12.3960 -12.3598 -12.2865 -12.2865 -12.1443 -12.1443 -12.1291
   -12.0739 -12.0739  -1.5455   2.5636   7.7094   7.7094   7.8864  11.9725
    11.9725  13.5156

     occupation numbers 
     1.0000   1.0000   1.0000   1.0000   1.0000   1.0000   1.0000   1.0000
     1.0000   1.0000   1.0000   1.0000   1.0000   1.0000   1.0000   0.0000
     0.0000   0.0000

          k = 0.2828 0.2828-0.2828 ( 20293 PWs)   bands (ev):

   -12.3982 -12.3982 -12.3567 -12.2821 -12.2821 -12.1471 -12.1471 -12.1332
   -12.0720 -12.0720  -1.2678   2.0220   7.5837   7.5837   7.7621  12.0676
    12.0677  14.3204

     occupation numbers 
     1.0000   1.0000   1.0000   1.0000   1.0000   1.0000   1.0000   1.0000
     1.0000   1.0000   1.0000   1.0000   1.0000   1.0000   1.0000   0.0000
     0.0000   0.0000

          k = 0.3300 0.3300-0.3300 ( 20326 PWs)   bands (ev):

   -12.3993 -12.3993 -12.3549 -12.2801 -12.2801 -12.1483 -12.1483 -12.1355
   -12.0712 -12.0712  -1.0782   1.6963   7.5193   7.5193   7.6986  12.1051
    12.1051  14.5144

     occupation numbers 
     1.0000   1.0000   1.0000   1.0000   1.0000   1.0000   1.0000   1.0000
     1.0000   1.0000   1.0000   1.0000   1.0000   1.0000   1.0000   0.0000
     0.0000   0.0000

          k = 0.0943 0.0000 0.0000 ( 20255 PWs)   bands (ev):

   -12.3759 -12.3759 -12.3756 -12.3198 -12.3159 -12.1251 -12.1075 -12.1075
   -12.1026 -12.0909  -2.3496   4.9837   8.3995   8.3995   8.8354  10.6842
    11.1581  11.1581

     occupation numbers 
     1.0000   1.0000   1.0000   1.0000   1.0000   1.0000   1.0000   1.0000
     1.0000   1.0000   1.0000   1.0000   0.0000   0.0000   0.0000   0.0000
     0.0000   0.0000

          k = 0.1414 0.0471-0.0471 ( 20266 PWs)   bands (ev):

   -12.3815 -12.3794 -12.3734 -12.3147 -12.3079 -12.1356 -12.1140 -12.1074
   -12.0964 -12.0853  -2.2620   4.6139   8.1649   8.1763   8.9450  10.6612
    11.4600  11.4900

     occupation numbers 
     1.0000   1.0000   1.0000   1.0000   1.0000   1.0000   1.0000   1.0000
     1.0000   1.0000   1.0000   1.0000   1.0000   1.0000   0.0000   0.0000
     0.0000   0.0000

          k = 0.1886 0.0943-0.0943 ( 20253 PWs)   bands (ev):

   -12.3881 -12.3847 -12.3694 -12.3066 -12.2981 -12.1451 -12.1228 -12.1112
   -12.0890 -12.0791  -2.1028   4.0423   7.8670   7.9382   8.8920  10.9000
    11.7873  11.9582

     occupation numbers 
     1.0000   1.0000   1.0000   1.0000   1.0000   1.0000   1.0000   1.0000
     1.0000   1.0000   1.0000   1.0000   1.0000   1.0000   0.0000   0.0000
     0.0000   0.0000

          k = 0.2357 0.1414-0.1414 ( 20293 PWs)   bands (ev):

   -12.3942 -12.3899 -12.3643 -12.2979 -12.2887 -12.1527 -12.1309 -12.1175
   -12.0828 -12.0736  -1.8796   3.3845   7.5652   7.7273   8.7481  11.2623
    12.0590  12.5331

     occupation numbers 
     1.0000   1.0000   1.0000   1.0000   1.0000   1.0000   1.0000   1.0000
     1.0000   1.0000   1.0000   1.0000   1.0000   1.0000   0.0000   0.0000
     0.0000   0.0000

          k = 0.2828 0.1886-0.1886 ( 20304 PWs)   bands (ev):

   -12.3990 -12.3942 -12.3588 -12.2901 -12.2815 -12.1572 -12.1378 -12.1247
   -12.0779 -12.0695  -1.6080   2.7286   7.3041   7.5659   8.5861  11.5914
    12.2275  13.2080

     occupation numbers 
     1.0000   1.0000   1.0000   1.0000   1.0000   1.0000   1.0000   1.0000
     1.0000   1.0000   1.0000   1.0000   1.0000   1.0000   0.0000   0.0000
     0.0000   0.0000

          k = 0.3300 0.2357-0.2357 ( 20298 PWs)   bands (ev):

   -12.4021 -12.3974 -12.3538 -12.2838 -12.2775 -12.1582 -12.1436 -12.1317
   -12.0741 -12.0670  -1.3216   2.1511   7.1039   7.4654   8.4477  11.8151
    12.2906  13.9343

     occupation numbers 
     1.0000   1.0000   1.0000   1.0000   1.0000   1.0000   1.0000   1.0000
     1.0000   1.0000   1.0000   1.0000   1.0000   1.0000   0.0000   0.0000
     0.0000   0.0000

          k = 0.3771 0.2828-0.2828 ( 20328 PWs)   bands (ev):

   -12.4036 -12.3995 -12.3503 -12.2793 -12.2766 -12.1558 -12.1483 -12.1375
   -12.0713 -12.0661  -1.0895   1.7455   6.9732   7.4307   8.3530  11.9505
    12.2773  14.4394

     occupation numbers 
     1.0000   1.0000   1.0000   1.0000   1.0000   1.0000   1.0000   1.0000
     1.0000   1.0000   1.0000   1.0000   1.0000   1.0000   0.0000   0.0000
     0.0000   0.0000

          k =-0.2828-0.3771 0.3771 ( 20308 PWs)   bands (ev):

   -12.4036 -12.4005 -12.3491 -12.2781 -12.2766 -12.1519 -12.1510 -12.1408
   -12.0694 -12.0669  -1.0185   1.6306   6.9160   7.4629   8.3112  12.0353
    12.2162  14.5465

     occupation numbers 
     1.0000   1.0000   1.0000   1.0000   1.0000   1.0000   1.0000   1.0000
     1.0000   1.0000   1.0000   1.0000   1.0000   1.0000   1.0000   0.0000
     0.0000   0.0000

          k =-0.2357-0.3300 0.3300 ( 20333 PWs)   bands (ev):

   -12.4021 -12.4005 -12.3505 -12.2815 -12.2761 -12.1540 -12.1468 -12.1392
   -12.0691 -12.0686  -1.1552   1.8554   6.9351   7.5596   8.3246  12.0825
    12.1172  14.3612

     occupation numbers 
     1.0000   1.0000   1.0000   1.0000   1.0000   1.0000   1.0000   1.0000
     1.0000   1.0000   1.0000   1.0000   1.0000   1.0000   0.7500   0.0000
     0.0000   0.0000

          k =-0.1886-0.2828 0.2828 ( 20316 PWs)   bands (ev):

   -12.3992 -12.3992 -12.3541 -12.2864 -12.2786 -12.1538 -12.1445 -12.1319
   -12.0729 -12.0690  -1.4162   2.3311   7.0326   7.7150   8.3901  11.9694
    12.0666  13.7085

     occupation numbers 
     1.0000   1.0000   1.0000   1.0000   1.0000   1.0000   1.0000   1.0000
     1.0000   1.0000   1.0000   1.0000   1.0000   1.0000   0.0000   0.0000
     0.0000   0.0000

          k =-0.1414-0.2357 0.2357 ( 20308 PWs)   bands (ev):

   -12.3964 -12.3948 -12.3592 -12.2928 -12.2843 -12.1505 -12.1410 -12.1230
   -12.0781 -12.0709  -1.7031   2.9432   7.2101   7.9182   8.4969  11.7563
    11.9190  12.9722

     occupation numbers 
     1.0000   1.0000   1.0000   1.0000   1.0000   1.0000   1.0000   1.0000
     1.0000   1.0000   1.0000   1.0000   1.0000   1.0000   0.0000   0.0000
     0.0000   0.0000

          k =-0.0943-0.1886 0.1886 ( 20274 PWs)   bands (ev):

   -12.3922 -12.3893 -12.3647 -12.3006 -12.2928 -12.1442 -12.1356 -12.1143
   -12.0848 -12.0746  -1.9610   3.6066   7.4673   8.1497   8.6194  11.4830
    11.5815  12.3863

     occupation numbers 
     1.0000   1.0000   1.0000   1.0000   1.0000   1.0000   1.0000   1.0000
     1.0000   1.0000   1.0000   1.0000   1.0000   1.0000   0.0000   0.0000
     0.0000   0.0000

          k =-0.0471-0.1414 0.1414 ( 20274 PWs)   bands (ev):

   -12.3866 -12.3831 -12.3696 -12.3088 -12.3029 -12.1357 -12.1285 -12.1070
   -12.0926 -12.0800  -2.1639   4.2442   7.7977   8.3732   8.7062  11.1874
    11.1998  11.9022

     occupation numbers 
     1.0000   1.0000   1.0000   1.0000   1.0000   1.0000   1.0000   1.0000
     1.0000   1.0000   1.0000   1.0000   1.0000   0.0000   0.0000   0.0000
     0.0000   0.0000

          k = 0.0000-0.0943 0.0943 ( 20253 PWs)   bands (ev):

   -12.3807 -12.3778 -12.3728 -12.3159 -12.3125 -12.1259 -12.1207 -12.1049
   -12.0980 -12.0869  -2.2997   4.7611   8.1787   8.5264   8.6914  10.9618
    10.9995  11.4221

     occupation numbers 
     1.0000   1.0000   1.0000   1.0000   1.0000   1.0000   1.0000   1.0000
     1.0000   1.0000   1.0000   1.0000   1.0000   0.0000   0.0000   0.0000
     0.0000   0.0000

          k = 0.1886 0.0000 0.0000 ( 20275 PWs)   bands (ev):

   -12.3809 -12.3809 -12.3775 -12.3124 -12.2997 -12.1488 -12.1096 -12.1004
   -12.1004 -12.0843  -2.1988   4.3980   7.9410   7.9410   9.3186  10.2954
    11.8025  11.8025

     occupation numbers 
     1.0000   1.0000   1.0000   1.0000   1.0000   1.0000   1.0000   1.0000
     1.0000   1.0000   1.0000   1.0000   1.0000   1.0000   0.0000   0.0000
     0.0000   0.0000

          k = 0.2357 0.0471-0.0471 ( 20285 PWs)   bands (ev):

   -12.3876 -12.3850 -12.3737 -12.3059 -12.2892 -12.1611 -12.1176 -12.1004
   -12.0932 -12.0801  -2.0628   3.9595   7.6502   7.7001   9.4681  10.2693
    12.1686  12.2129

     occupation numbers 
     1.0000   1.0000   1.0000   1.0000   1.0000   1.0000   1.0000   1.0000
     1.0000   1.0000   1.0000   1.0000   1.0000   1.0000   0.0000   0.0000
     0.0000   0.0000

          k = 0.2828 0.0943-0.0943 ( 20306 PWs)   bands (ev):

   -12.3953 -12.3899 -12.3667 -12.2975 -12.2788 -12.1712 -12.1269 -12.1071
   -12.0857 -12.0731  -1.8596   3.3928   7.2998   7.4924   9.4298  10.5538
    12.4769  12.6328

     occupation numbers 
     1.0000   1.0000   1.0000   1.0000   1.0000   1.0000   1.0000   1.0000
     1.0000   1.0000   1.0000   1.0000   1.0000   1.0000   0.0000   0.0000
     0.0000   0.0000

          k = 0.3300 0.1414-0.1414 ( 20307 PWs)   bands (ev):

   -12.4022 -12.3944 -12.3582 -12.2889 -12.2708 -12.1777 -12.1358 -12.1169
   -12.0793 -12.0663  -1.6012   2.7849   6.9612   7.3390   9.3002  10.9900
    12.6694  13.0016

     occupation numbers 
     1.0000   1.0000   1.0000   1.0000   1.0000   1.0000   1.0000   1.0000
     1.0000   1.0000   1.0000   1.0000   1.0000   1.0000   0.0000   0.0000
     0.0000   0.0000

          k = 0.3771 0.1886-0.1886 ( 20307 PWs)   bands (ev):

   -12.4075 -12.3981 -12.3496 -12.2811 -12.2665 -12.1795 -12.1441 -12.1274
   -12.0740 -12.0612  -1.3131   2.2115   6.6799   7.2509   9.1586  11.4028
    12.7321  13.3987

     occupation numbers 
     1.0000   1.0000   1.0000   1.0000   1.0000   1.0000   1.0000   1.0000
     1.0000   1.0000   1.0000   1.0000   1.0000   1.0000   0.0000   0.0000
     0.0000   0.0000

          k = 0.4243 0.2357-0.2357 ( 20330 PWs)   bands (ev):

   -12.4108 -12.4009 -12.3423 -12.2744 -12.2665 -12.1764 -12.1518 -12.1370
   -12.0698 -12.0581  -1.0497   1.7585   6.4747   7.2327   9.0428  11.6926
    12.6918  13.8894

     occupation numbers 
     1.0000   1.0000   1.0000   1.0000   1.0000   1.0000   1.0000   1.0000
     1.0000   1.0000   1.0000   1.0000   1.0000   1.0000   0.0000   0.0000
     0.0000   0.0000

          k =-0.2357-0.4243 0.4243 ( 20326 PWs)   bands (ev):

   -12.4120 -12.4027 -12.3378 -12.2701 -12.2693 -12.1688 -12.1585 -12.1441
   -12.0666 -12.0575  -0.9126   1.5442   6.3544   7.2848   8.9686  11.8753
    12.5836  14.2944

     occupation numbers 
     1.0000   1.0000   1.0000   1.0000   1.0000   1.0000   1.0000   1.0000
     1.0000   1.0000   1.0000   1.0000   1.0000   1.0000   0.0000   0.0000
     0.0000   0.0000

          k =-0.1886-0.3771 0.3771 ( 20314 PWs)   bands (ev):

   -12.4109 -12.4035 -12.3374 -12.2758 -12.2666 -12.1633 -12.1580 -12.1480
   -12.0647 -12.0595  -0.9882   1.6608   6.3252   7.4035   8.9404  11.9992
    12.4262  14.2234

     occupation numbers 
     1.0000   1.0000   1.0000   1.0000   1.0000   1.0000   1.0000   1.0000
     1.0000   1.0000   1.0000   1.0000   1.0000   1.0000   0.0000   0.0000
     0.0000   0.0000

          k =-0.1414-0.3300 0.3300 ( 20329 PWs)   bands (ev):

   -12.4077 -12.4029 -12.3412 -12.2823 -12.2674 -12.1649 -12.1499 -12.1439
   -12.0643 -12.0641  -1.2251   2.0527   6.3939   7.5806   8.9522  12.0615
    12.2181  13.6582

     occupation numbers 
     1.0000   1.0000   1.0000   1.0000   1.0000   1.0000   1.0000   1.0000
     1.0000   1.0000   1.0000   1.0000   1.0000   1.0000   0.0000   0.0000
     0.0000   0.0000

          k =-0.0943-0.2828 0.2828 ( 20315 PWs)   bands (ev):

   -12.4025 -12.4009 -12.3483 -12.2891 -12.2725 -12.1623 -12.1475 -12.1303
   -12.0711 -12.0655  -1.5132   2.5946   6.5689   7.8016   8.9849  11.9529
    11.9672  13.0835

     occupation numbers 
     1.0000   1.0000   1.0000   1.0000   1.0000   1.0000   1.0000   1.0000
     1.0000   1.0000   1.0000   1.0000   1.0000   1.0000   0.0000   0.0000
     0.0000   0.0000

          k =-0.0471-0.2357 0.2357 ( 20293 PWs)   bands (ev):

   -12.3973 -12.3958 -12.3567 -12.2960 -12.2813 -12.1558 -12.1430 -12.1170
   -12.0802 -12.0686  -1.7842   3.1899   6.8602   8.0407   8.9964  11.6383
    11.6481  12.7366

     occupation numbers 
     1.0000   1.0000   1.0000   1.0000   1.0000   1.0000   1.0000   1.0000
     1.0000   1.0000   1.0000   1.0000   1.0000   1.0000   0.0000   0.0000
     0.0000   0.0000

          k = 0.0000-0.1886 0.1886 ( 20285 PWs)   bands (ev):

   -12.3923 -12.3886 -12.3645 -12.3030 -12.2921 -12.1465 -12.1364 -12.1063
   -12.0903 -12.0734  -2.0062   3.7640   7.2737   8.2534   8.9176  11.3076
    11.3650  12.4079

     occupation numbers 
     1.0000   1.0000   1.0000   1.0000   1.0000   1.0000   1.0000   1.0000
     1.0000   1.0000   1.0000   1.0000   1.0000   1.0000   0.0000   0.0000
     0.0000   0.0000

          k = 0.2828 0.0000 0.0000 ( 20271 PWs)   bands (ev):

   -12.3880 -12.3880 -12.3764 -12.3006 -12.2775 -12.1765 -12.1209 -12.0904
   -12.0904 -12.0841  -1.9495   3.6637   7.4564   7.4564   9.7903   9.9151
    12.5875  12.5875

     occupation numbers 
     1.0000   1.0000   1.0000   1.0000   1.0000   1.0000   1.0000   1.0000
     1.0000   1.0000   1.0000   1.0000   1.0000   1.0000   0.0000   0.0000
     0.0000   0.0000

          k = 0.3300 0.0471-0.0471 ( 20313 PWs)   bands (ev):

   -12.3946 -12.3921 -12.3706 -12.2926 -12.2657 -12.1898 -12.1292 -12.0960
   -12.0841 -12.0768  -1.7671   3.2159   7.1650   7.2459   9.8320   9.9865
    12.9458  12.9586

     occupation numbers 
     1.0000   1.0000   1.0000   1.0000   1.0000   1.0000   1.0000   1.0000
     1.0000   1.0000   1.0000   1.0000   1.0000   1.0000   0.0000   0.0000
     0.0000   0.0000

          k = 0.3771 0.0943-0.0943 ( 20311 PWs)   bands (ev):

   -12.4028 -12.3964 -12.3603 -12.2836 -12.2558 -12.1996 -12.1387 -12.1082
   -12.0777 -12.0669  -1.5244   2.6921   6.7986   7.0908   9.7464  10.3709
    13.0992  13.2104

     occupation numbers 
     1.0000   1.0000   1.0000   1.0000   1.0000   1.0000   1.0000   1.0000
     1.0000   1.0000   1.0000   1.0000   1.0000   1.0000   0.0000   0.0000
     0.0000   0.0000

          k = 0.4243 0.1414-0.1414 ( 20327 PWs)   bands (ev):

   -12.4102 -12.4001 -12.3484 -12.2746 -12.2500 -12.2042 -12.1486 -12.1219
   -12.0719 -12.0586  -1.2403   2.1617   6.4453   7.0030   9.6263  10.9069
    13.1630  13.3090

     occupation numbers 
     1.0000   1.0000   1.0000   1.0000   1.0000   1.0000   1.0000   1.0000
     1.0000   1.0000   1.0000   1.0000   1.0000   1.0000   0.0000   0.0000
     0.0000   0.0000

          k = 0.4714 0.1886-0.1886 ( 20333 PWs)   bands (ev):

   -12.4157 -12.4031 -12.3371 -12.2663 -12.2497 -12.2026 -12.1582 -12.1348
   -12.0671 -12.0527  -0.9563   1.6995   6.1591   6.9877   9.5175  11.4338
    13.2706  13.3361

     occupation numbers 
     1.0000   1.0000   1.0000   1.0000   1.0000   1.0000   1.0000   1.0000
     1.0000   1.0000   1.0000   1.0000   1.0000   1.0000   0.0000   0.0000
     0.0000   0.0000

          k =-0.1886-0.4714 0.4714 ( 20329 PWs)   bands (ev):

   -12.4188 -12.4053 -12.3286 -12.2593 -12.2547 -12.1952 -12.1671 -12.1447
   -12.0635 -12.0496  -0.7617   1.4143   5.9653   7.0453   9.4409  11.8152
    13.1334  13.6831

     occupation numbers 
     1.0000   1.0000   1.0000   1.0000   1.0000   1.0000   1.0000   1.0000
     1.0000   1.0000   1.0000   1.0000   1.0000   1.0000   0.0000   0.0000
     0.0000   0.0000

          k =-0.1414-0.4243 0.4243 ( 20306 PWs)   bands (ev):

   -12.4191 -12.4064 -12.3249 -12.2633 -12.2547 -12.1833 -12.1739 -12.1501
   -12.0613 -12.0499  -0.7726   1.4302   5.8783   7.1720   9.3993  12.0471
    12.9242  13.8837

     occupation numbers 
     1.0000   1.0000   1.0000   1.0000   1.0000   1.0000   1.0000   1.0000
     1.0000   1.0000   1.0000   1.0000   1.0000   1.0000   0.0000   0.0000
     0.0000   0.0000

          k =-0.0943-0.3771 0.3771 ( 20336 PWs)   bands (ev):

   -12.4166 -12.4062 -12.3270 -12.2735 -12.2545 -12.1766 -12.1686 -12.1506
   -12.0605 -12.0535  -0.9803   1.7348   5.9110   7.3586   9.3800  12.1904
    12.6503  13.4924

     occupation numbers 
     1.0000   1.0000   1.0000   1.0000   1.0000   1.0000   1.0000   1.0000
     1.0000   1.0000   1.0000   1.0000   1.0000   1.0000   0.0000   0.0000
     0.0000   0.0000

          k =-0.0471-0.3300 0.3300 ( 20323 PWs)   bands (ev):

   -12.4113 -12.4047 -12.3346 -12.2826 -12.2598 -12.1738 -12.1562 -12.1438
   -12.0614 -12.0605  -1.2660   2.1950   6.0774   7.5881   9.3492  12.1854
    12.3174  12.9882

     occupation numbers 
     1.0000   1.0000   1.0000   1.0000   1.0000   1.0000   1.0000   1.0000
     1.0000   1.0000   1.0000   1.0000   1.0000   1.0000   0.0000   0.0000
     0.0000   0.0000

          k = 0.0000-0.2828 0.2828 ( 20307 PWs)   bands (ev):

   -12.4040 -12.4017 -12.3456 -12.2900 -12.2696 -12.1662 -12.1496 -12.1295
   -12.0701 -12.0641  -1.5468   2.7030   6.3917   7.8315   9.2439  11.8964
    11.9587  12.8301

     occupation numbers 
     1.0000   1.0000   1.0000   1.0000   1.0000   1.0000   1.0000   1.0000
     1.0000   1.0000   1.0000   1.0000   1.0000   1.0000   0.0000   0.0000
     0.0000   0.0000

          k = 0.3771 0.0000 0.0000 ( 20331 PWs)   bands (ev):

   -12.3956 -12.3956 -12.3706 -12.2848 -12.2518 -12.2066 -12.1362 -12.0904
   -12.0794 -12.0794  -1.6047   2.8808   7.0290   7.0290   9.6202  10.0364
    13.4150  13.4151

     occupation numbers 
     1.0000   1.0000   1.0000   1.0000   1.0000   1.0000   1.0000   1.0000
     1.0000   1.0000   1.0000   1.0000   1.0000   1.0000   0.0000   0.0000
     0.0000   0.0000

          k = 0.4243 0.0471-0.0471 ( 20335 PWs)   bands (ev):

   -12.4016 -12.3993 -12.3624 -12.2755 -12.2394 -12.2202 -12.1456 -12.1013
   -12.0739 -12.0700  -1.3789   2.4484   6.7615   6.8660   9.6510  10.0783
    13.6073  13.7603

     occupation numbers 
     1.0000   1.0000   1.0000   1.0000   1.0000   1.0000   1.0000   1.0000
     1.0000   1.0000   1.0000   1.0000   1.0000   1.0000   0.0000   0.0000
     0.0000   0.0000

          k = 0.4714 0.0943-0.0943 ( 20341 PWs)   bands (ev):

   -12.4096 -12.4027 -12.3492 -12.2657 -12.2325 -12.2269 -12.1559 -12.1168
   -12.0686 -12.0597  -1.1031   1.9807   6.4018   6.7703   9.7089  10.3764
    13.5101  13.9340

     occupation numbers 
     1.0000   1.0000   1.0000   1.0000   1.0000   1.0000   1.0000   1.0000
     1.0000   1.0000   1.0000   1.0000   1.0000   1.0000   0.0000   0.0000
     0.0000   0.0000

          k = 0.5185 0.1414-0.1414 ( 20343 PWs)   bands (ev):

   -12.4169 -12.4055 -12.3348 -12.2561 -12.2353 -12.2233 -12.1667 -12.1327
   -12.0641 -12.0513  -0.8077   1.5396   6.0541   6.7483   9.6622  10.9754
    13.4046  13.9295

     occupation numbers 
     1.0000   1.0000   1.0000   1.0000   1.0000   1.0000   1.0000   1.0000
     1.0000   1.0000   1.0000   1.0000   1.0000   1.0000   0.0000   0.0000
     0.0000   0.0000

          k =-0.1414-0.5185 0.5185 ( 20335 PWs)   bands (ev):

   -12.4220 -12.4076 -12.3229 -12.2475 -12.2363 -12.2211 -12.1770 -12.1452
   -12.0607 -12.0457  -0.5663   1.2163   5.7848   6.8010   9.6190  11.6460
    13.3917  13.7809

     occupation numbers 
     1.0000   1.0000   1.0000   1.0000   1.0000   1.0000   1.0000   1.0000
     1.0000   1.0000   1.0000   1.0000   1.0000   1.0000   0.0000   0.0000
     0.0000   0.0000

          k =-0.0943-0.4714 0.4714 ( 20311 PWs)   bands (ev):

   -12.4242 -12.4087 -12.3166 -12.2439 -12.2415 -12.2118 -12.1852 -12.1520
   -12.0586 -12.0436  -0.5157   1.1531   5.6304   6.9250   9.6005  12.1949
    13.4575  13.5223

     occupation numbers 
     1.0000   1.0000   1.0000   1.0000   1.0000   1.0000   1.0000   1.0000
     1.0000   1.0000   1.0000   1.0000   1.0000   1.0000   0.0000   0.0000
     0.0000   0.0000

          k =-0.0471-0.4243 0.4243 ( 20330 PWs)   bands (ev):

   -12.4231 -12.4087 -12.3165 -12.2582 -12.2412 -12.1940 -12.1879 -12.1535
   -12.0579 -12.0455  -0.6970   1.3867   5.6152   7.1110   9.5888  12.5167
    13.1719  13.2653

     occupation numbers 
     1.0000   1.0000   1.0000   1.0000   1.0000   1.0000   1.0000   1.0000
     1.0000   1.0000   1.0000   1.0000   1.0000   1.0000   0.0000   0.0000
     0.0000   0.0000

          k =-0.0000-0.3771 0.3771 ( 20347 PWs)   bands (ev):

   -12.4186 -12.4074 -12.3229 -12.2723 -12.2483 -12.1832 -12.1734 -12.1512
   -12.0589 -12.0513  -0.9800   1.7731   5.7594   7.3419   9.5326  12.5609
    12.7524  12.9024

     occupation numbers 
     1.0000   1.0000   1.0000   1.0000   1.0000   1.0000   1.0000   1.0000
     1.0000   1.0000   1.0000   1.0000   1.0000   1.0000   0.0000   0.0000
     0.0000   0.0000

          k = 0.4714 0.0000 0.0000 ( 20367 PWs)   bands (ev):

   -12.4024 -12.4024 -12.3595 -12.2657 -12.2376 -12.2241 -12.1547 -12.1028
   -12.0693 -12.0693  -1.1690   2.0957   6.6918   6.6918   9.4367   9.9975
    14.2238  14.2239

     occupation numbers 
     1.0000   1.0000   1.0000   1.0000   1.0000   1.0000   1.0000   1.0000
     1.0000   1.0000   1.0000   1.0000   1.0000   1.0000   0.0000   0.0000
     0.0000   0.0000

          k = 0.5185 0.0471-0.0471 ( 20346 PWs)   bands (ev):

   -12.4076 -12.4053 -12.3488 -12.2553 -12.2507 -12.2118 -12.1652 -12.1150
   -12.0650 -12.0622  -0.9039   1.6895   6.4624   6.5835   9.5140   9.9879
    14.2616  14.5115

     occupation numbers 
     1.0000   1.0000   1.0000   1.0000   1.0000   1.0000   1.0000   1.0000
     1.0000   1.0000   1.0000   1.0000   1.0000   1.0000   0.0000   0.0000
     0.0000   0.0000

          k = 0.5657 0.0943-0.0943 ( 20330 PWs)   bands (ev):

   -12.4147 -12.4076 -12.3334 -12.2579 -12.2449 -12.2044 -12.1764 -12.1318
   -12.0613 -12.0534  -0.6044   1.2823   6.1287   6.5490   9.5997  10.3347
    14.0631  14.5775

     occupation numbers 
     1.0000   1.0000   1.0000   1.0000   1.0000   1.0000   1.0000   1.0000
     1.0000   1.0000   1.0000   1.0000   1.0000   1.0000   0.0000   0.0000
     0.0000   0.0000

          k =-0.0943-0.5657 0.5657 ( 20333 PWs)   bands (ev):

   -12.4213 -12.4093 -12.3191 -12.2564 -12.2350 -12.2054 -12.1876 -12.1467
   -12.0586 -12.0461  -0.3272   0.9454   5.8105   6.5903   9.6025  11.0110
    13.8569  14.4368

     occupation numbers 
     1.0000   1.0000   1.0000   1.0000   1.0000   1.0000   1.0000   1.0000
     1.0000   1.0000   1.0000   1.0000   1.0000   1.0000   0.0000   0.0000
     0.0000   0.0000

          k =-0.0471-0.5185 0.5185 ( 20332 PWs)   bands (ev):

   -12.4254 -12.4101 -12.3116 -12.2429 -12.2282 -12.2178 -12.1964 -12.1540
   -12.0570 -12.0418  -0.2302   0.8375   5.5889   6.7047   9.6157  11.7924
    13.6286  14.1287

     occupation numbers 
     1.0000   1.0000   1.0000   1.0000   1.0000   1.0000   1.0000   1.0000
     1.0000   1.0000   1.0000   1.0000   1.0000   1.0000   0.0000   0.0000
     0.0000   0.0000

          k =-0.0000-0.4714 0.4714 ( 20325 PWs)   bands (ev):

   -12.4261 -12.4099 -12.3114 -12.2380 -12.2304 -12.2201 -12.1964 -12.1551
   -12.0568 -12.0415  -0.4107   1.0470   5.5131   6.8836   9.6322  12.4695
    13.3062  13.6902

     occupation numbers 
     1.0000   1.0000   1.0000   1.0000   1.0000   1.0000   1.0000   1.0000
     1.0000   1.0000   1.0000   1.0000   1.0000   1.0000   0.0000   0.0000
     0.0000   0.0000

          k = 0.5657 0.0000 0.0000 ( 20351 PWs)   bands (ev):

   -12.4076 -12.4076 -12.3431 -12.2681 -12.2443 -12.1958 -12.1757 -12.1206
   -12.0617 -12.0617  -0.6484   1.3341   6.4604   6.4604   9.3722   9.7967
    14.9326  14.9327

     occupation numbers 
     1.0000   1.0000   1.0000   1.0000   1.0000   1.0000   1.0000   1.0000
     1.0000   1.0000   1.0000   1.0000   1.0000   1.0000   0.0000   0.0000
     0.0000   0.0000

          k = 0.6128 0.0471-0.0471 ( 20326 PWs)   bands (ev):

   -12.4115 -12.4093 -12.3302 -12.2800 -12.2332 -12.1871 -12.1843 -12.1343
   -12.0590 -12.0566  -0.3496   0.9604   6.2792   6.4102   9.4803   9.8096
    14.8890  15.1038

     occupation numbers 
     1.0000   1.0000   1.0000   1.0000   1.0000   1.0000   1.0000   1.0000
     1.0000   1.0000   1.0000   1.0000   1.0000   1.0000   0.0000   0.0000
     0.0000   0.0000

          k =-0.0471-0.6128 0.6128 ( 20319 PWs)   bands (ev):

   -12.4175 -12.4103 -12.3149 -12.2831 -12.2225 -12.1987 -12.1809 -12.1501
   -12.0573 -12.0498  -0.0471   0.6234   5.9898   6.4363   9.5387  10.2749
    14.5933  14.9970

     occupation numbers 
     1.0000   1.0000   1.0000   1.0000   1.0000   1.0000   1.0000   1.0000
     1.0000   1.0000   1.0000   1.0000   1.0000   1.0000   0.0000   0.0000
     0.0000   0.0000

          k = 0.0000-0.5657 0.5657 ( 20297 PWs)   bands (ev):

   -12.4228 -12.4106 -12.3094 -12.2688 -12.2175 -12.2051 -12.1945 -12.1555
   -12.0566 -12.0443   0.0265   0.5537   5.7278   6.5369   9.5729  11.0122
    14.1619  14.6492

     occupation numbers 
     1.0000   1.0000   1.0000   1.0000   1.0000   1.0000   1.0000   1.0000
     1.0000   1.0000   1.0000   1.0000   1.0000   1.0000   0.0000   0.0000
     0.0000   0.0000

          k = 0.6600 0.0000 0.0000 ( 20310 PWs)   bands (ev):

   -12.4103 -12.4103 -12.3219 -12.2966 -12.2215 -12.1983 -12.1683 -12.1428
   -12.0575 -12.0575  -0.0509   0.6139   6.3430   6.3430   9.4242   9.5781
    15.3860  15.3861

     occupation numbers 
     1.0000   1.0000   1.0000   1.0000   1.0000   1.0000   1.0000   1.0000
     1.0000   1.0000   1.0000   1.0000   1.0000   1.0000   0.0000   0.0000
     0.0000   0.0000

          k = 0.0000-0.6600 0.6600 ( 20309 PWs)   bands (ev):

   -12.4128 -12.4106 -12.3096 -12.3042 -12.2108 -12.2094 -12.1606 -12.1553
   -12.0569 -12.0546   0.2469   0.3050   6.2176   6.3519   9.5009   9.7066
    15.1954  15.3449

     occupation numbers 
     1.0000   1.0000   1.0000   1.0000   1.0000   1.0000   1.0000   1.0000
     1.0000   1.0000   1.0000   1.0000   1.0000   1.0000   0.0000   0.0000
     0.0000   0.0000

          k = 0.1886 0.0943-0.0000 ( 20273 PWs)   bands (ev):

   -12.3864 -12.3830 -12.3716 -12.3094 -12.2986 -12.1470 -12.1203 -12.1006
   -12.0977 -12.0800  -2.1505   4.2173   7.7218   8.0981   9.1222  10.6092
    11.6594  12.0017

     occupation numbers 
     1.0000   1.0000   1.0000   1.0000   1.0000   1.0000   1.0000   1.0000
     1.0000   1.0000   1.0000   1.0000   1.0000   1.0000   0.0000   0.0000
     0.0000   0.0000

          k = 0.2357 0.1414-0.0471 ( 20280 PWs)   bands (ev):

   -12.3926 -12.3889 -12.3660 -12.3018 -12.2881 -12.1571 -12.1284 -12.1080
   -12.0883 -12.0740  -1.9692   3.6650   7.3143   7.9336   9.1503  10.8264
    11.9636  12.4468

     occupation numbers 
     1.0000   1.0000   1.0000   1.0000   1.0000   1.0000   1.0000   1.0000
     1.0000   1.0000   1.0000   1.0000   1.0000   1.0000   0.0000   0.0000
     0.0000   0.0000

          k = 0.2828 0.1886-0.0943 ( 20314 PWs)   bands (ev):

   -12.3986 -12.3944 -12.3586 -12.2938 -12.2788 -12.1646 -12.1358 -12.1182
   -12.0799 -12.0689  -1.7279   3.0472   6.9834   7.7321   9.0725  11.2005
    12.2662  12.8318

     occupation numbers 
     1.0000   1.0000   1.0000   1.0000   1.0000   1.0000   1.0000   1.0000
     1.0000   1.0000   1.0000   1.0000   1.0000   1.0000   0.0000   0.0000
     0.0000   0.0000

          k = 0.3300 0.2357-0.1414 ( 20319 PWs)   bands (ev):

   -12.4038 -12.3984 -12.3510 -12.2864 -12.2722 -12.1684 -12.1418 -12.1295
   -12.0734 -12.0649  -1.4460   2.4416   6.7388   7.5483   8.9635  11.5586
    12.4262  13.3143

     occupation numbers 
     1.0000   1.0000   1.0000   1.0000   1.0000   1.0000   1.0000   1.0000
     1.0000   1.0000   1.0000   1.0000   1.0000   1.0000   0.0000   0.0000
     0.0000   0.0000

          k = 0.3771 0.2828-0.1886 ( 20330 PWs)   bands (ev):

   -12.4074 -12.4010 -12.3447 -12.2800 -12.2695 -12.1679 -12.1471 -12.1395
   -12.0693 -12.0620  -1.1660   1.9280   6.5791   7.4132   8.8721  11.7897
    12.4669  13.9062

     occupation numbers 
     1.0000   1.0000   1.0000   1.0000   1.0000   1.0000   1.0000   1.0000
     1.0000   1.0000   1.0000   1.0000   1.0000   1.0000   0.0000   0.0000
     0.0000   0.0000

          k =-0.2828-0.3771 0.4714 ( 20319 PWs)   bands (ev):

   -12.4093 -12.4022 -12.3411 -12.2750 -12.2702 -12.1640 -12.1539 -12.1443
   -12.0673 -12.0605  -0.9730   1.6132   6.5006   7.3422   8.8218  11.8901
    12.4693  14.3605

     occupation numbers 
     1.0000   1.0000   1.0000   1.0000   1.0000   1.0000   1.0000   1.0000
     1.0000   1.0000   1.0000   1.0000   1.0000   1.0000   0.0000   0.0000
     0.0000   0.0000

          k = 0.2828 0.0943 0.0000 ( 20300 PWs)   bands (ev):

   -12.3923 -12.3902 -12.3696 -12.2990 -12.2780 -12.1739 -12.1246 -12.1014
   -12.0876 -12.0759  -1.9040   3.5280   7.2469   7.5751   9.6450  10.2339
    12.4849  12.6255

     occupation numbers 
     1.0000   1.0000   1.0000   1.0000   1.0000   1.0000   1.0000   1.0000
     1.0000   1.0000   1.0000   1.0000   1.0000   1.0000   0.0000   0.0000
     0.0000   0.0000

          k = 0.3300 0.1414-0.0471 ( 20327 PWs)   bands (ev):

   -12.3994 -12.3955 -12.3608 -12.2907 -12.2675 -12.1841 -12.1334 -12.1111
   -12.0793 -12.0691  -1.6811   2.9985   6.8603   7.4095   9.6596  10.5090
    12.7993  12.8625

     occupation numbers 
     1.0000   1.0000   1.0000   1.0000   1.0000   1.0000   1.0000   1.0000
     1.0000   1.0000   1.0000   1.0000   1.0000   1.0000   0.0000   0.0000
     0.0000   0.0000

          k = 0.3771 0.1886-0.0943 ( 20315 PWs)   bands (ev):

   -12.4066 -12.3996 -12.3503 -12.2823 -12.2598 -12.1903 -12.1421 -12.1236
   -12.0726 -12.0622  -1.4088   2.4417   6.5366   7.2478   9.5713  10.9706
    12.9003  13.1247

     occupation numbers 
     1.0000   1.0000   1.0000   1.0000   1.0000   1.0000   1.0000   1.0000
     1.0000   1.0000   1.0000   1.0000   1.0000   1.0000   0.0000   0.0000
     0.0000   0.0000

          k = 0.4243 0.2357-0.1414 ( 20336 PWs)   bands (ev):

   -12.4123 -12.4026 -12.3400 -12.2745 -12.2565 -12.1913 -12.1509 -12.1357
   -12.0678 -12.0566  -1.1190   1.9293   6.2894   7.1379   9.4696  11.4137
    12.9402  13.4097

     occupation numbers 
     1.0000   1.0000   1.0000   1.0000   1.0000   1.0000   1.0000   1.0000
     1.0000   1.0000   1.0000   1.0000   1.0000   1.0000   0.0000   0.0000
     0.0000   0.0000

          k =-0.2357-0.4243 0.5185 ( 20328 PWs)   bands (ev):

   -12.4157 -12.4046 -12.3323 -12.2678 -12.2577 -12.1871 -12.1598 -12.1445
   -12.0646 -12.0531  -0.8809   1.5567   6.1254   7.1002   9.3931  11.6995
    12.9401  13.7899

     occupation numbers 
     1.0000   1.0000   1.0000   1.0000   1.0000   1.0000   1.0000   1.0000
     1.0000   1.0000   1.0000   1.0000   1.0000   1.0000   0.0000   0.0000
     0.0000   0.0000

          k =-0.1886-0.3771 0.4714 ( 20334 PWs)   bands (ev):

[...]
    13.1523  13.3496

     occupation numbers 
     1.0000   1.0000   1.0000   1.0000   1.0000   1.0000   1.0000   1.0000
     1.0000   1.0000   1.0000   1.0000   1.0000   1.0000   0.0000   0.0000
     0.0000   0.0000

          k = 0.4243 0.1414-0.0471 ( 20329 PWs)   bands (ev):

   -12.4064 -12.4020 -12.3520 -12.2751 -12.2437 -12.2129 -12.1473 -12.1164
   -12.0698 -12.0631  -1.3044   2.3030   6.4867   6.9531   9.9050  10.3632
    13.1209  13.6455

     occupation numbers 
     1.0000   1.0000   1.0000   1.0000   1.0000   1.0000   1.0000   1.0000
     1.0000   1.0000   1.0000   1.0000   1.0000   1.0000   0.0000   0.0000
     0.0000   0.0000

          k = 0.4714 0.1886-0.0943 ( 20334 PWs)   bands (ev):

   -12.4139 -12.4050 -12.3385 -12.2660 -12.2389 -12.2166 -12.1575 -12.1312
   -12.0651 -12.0548  -1.0124   1.8248   6.1682   6.8518   9.8197  10.9365
    13.0632  13.7665

     occupation numbers 
     1.0000   1.0000   1.0000   1.0000   1.0000   1.0000   1.0000   1.0000
     1.0000   1.0000   1.0000   1.0000   1.0000   1.0000   0.0000   0.0000
     0.0000   0.0000

          k =-0.1886-0.4714 0.5657 ( 20337 PWs)   bands (ev):

   -12.4194 -12.4072 -12.3266 -12.2578 -12.2400 -12.2137 -12.1679 -12.1438
   -12.0616 -12.0487  -0.7411   1.4302   5.9176   6.8272   9.7524  11.5076
    13.1256  13.7280

     occupation numbers 
     1.0000   1.0000   1.0000   1.0000   1.0000   1.0000   1.0000   1.0000
     1.0000   1.0000   1.0000   1.0000   1.0000   1.0000   0.0000   0.0000
     0.0000   0.0000

          k =-0.1414-0.4243 0.5185 ( 20331 PWs)   bands (ev):

   -12.4220 -12.4086 -12.3192 -12.2532 -12.2439 -12.2062 -12.1766 -12.1513
   -12.0593 -12.0460  -0.6028   1.2449   5.7623   6.8832   9.7156  11.8914
    13.3195  13.5952

     occupation numbers 
     1.0000   1.0000   1.0000   1.0000   1.0000   1.0000   1.0000   1.0000
     1.0000   1.0000   1.0000   1.0000   1.0000   1.0000   0.0000   0.0000
     0.0000   0.0000

          k =-0.0943-0.3771 0.4714 ( 20350 PWs)   bands (ev):

   -12.4216 -12.4088 -12.3181 -12.2600 -12.2442 -12.1973 -12.1777 -12.1536
   -12.0583 -12.0470  -0.6982   1.3721   5.7218   7.0132   9.7023  12.0464
    13.1671  13.5530

     occupation numbers 
     1.0000   1.0000   1.0000   1.0000   1.0000   1.0000   1.0000   1.0000
     1.0000   1.0000   1.0000   1.0000   1.0000   1.0000   0.0000   0.0000
     0.0000   0.0000

          k =-0.0471-0.3300 0.4243 ( 20349 PWs)   bands (ev):

   -12.4180 -12.4079 -12.3236 -12.2710 -12.2470 -12.1923 -12.1651 -12.1519
   -12.0587 -12.0518  -0.9527   1.7293   5.8132   7.2019   9.6844  11.9715
    12.8736  13.3008

     occupation numbers 
     1.0000   1.0000   1.0000   1.0000   1.0000   1.0000   1.0000   1.0000
     1.0000   1.0000   1.0000   1.0000   1.0000   1.0000   0.0000   0.0000
     0.0000   0.0000

          k = 0.0000-0.2828 0.3771 ( 20325 PWs)   bands (ev):

   -12.4117 -12.4056 -12.3344 -12.2805 -12.2554 -12.1855 -12.1496 -12.1451
   -12.0607 -12.0600  -1.2447   2.1780   6.0519   7.4221   9.6044  11.6387
    12.8123  12.9270

     occupation numbers 
     1.0000   1.0000   1.0000   1.0000   1.0000   1.0000   1.0000   1.0000
     1.0000   1.0000   1.0000   1.0000   1.0000   1.0000   0.0000   0.0000
     0.0000   0.0000

          k = 0.4714 0.0943-0.0000 ( 20343 PWs)   bands (ev):

   -12.4049 -12.4048 -12.3530 -12.2657 -12.2336 -12.2270 -12.1554 -12.1117
   -12.0666 -12.0652  -1.1344   2.0378   6.5228   6.7147   9.7329  10.0745
    13.6668  14.1777

     occupation numbers 
     1.0000   1.0000   1.0000   1.0000   1.0000   1.0000   1.0000   1.0000
     1.0000   1.0000   1.0000   1.0000   1.0000   1.0000   0.0000   0.0000
     0.0000   0.0000

          k = 0.5185 0.1414-0.0471 ( 20346 PWs)   bands (ev):

   -12.4124 -12.4076 -12.3385 -12.2557 -12.2423 -12.2180 -12.1662 -12.1277
   -12.0619 -12.0564  -0.8462   1.6077   6.2138   6.6039   9.8495  10.3565
    13.5246  14.3809

     occupation numbers 
     1.0000   1.0000   1.0000   1.0000   1.0000   1.0000   1.0000   1.0000
     1.0000   1.0000   1.0000   1.0000   1.0000   1.0000   0.0000   0.0000
     0.0000   0.0000

          k =-0.1414-0.5185 0.6128 ( 20343 PWs)   bands (ev):

   -12.4194 -12.4096 -12.3234 -12.2466 -12.2441 -12.2148 -12.1774 -12.1435
   -12.0588 -12.0484  -0.5527   1.2178   5.9049   6.5782   9.8306  10.9959
    13.3833  14.3113

     occupation numbers 
     1.0000   1.0000   1.0000   1.0000   1.0000   1.0000   1.0000   1.0000
     1.0000   1.0000   1.0000   1.0000   1.0000   1.0000   0.0000   0.0000
     0.0000   0.0000

          k =-0.0943-0.4714 0.5657 ( 20328 PWs)   bands (ev):

   -12.4240 -12.4108 -12.3128 -12.2409 -12.2356 -12.2201 -12.1876 -12.1537
   -12.0567 -12.0434  -0.3562   0.9797   5.6717   6.6377   9.8219  11.7103
    13.3100  13.9985

     occupation numbers 
     1.0000   1.0000   1.0000   1.0000   1.0000   1.0000   1.0000   1.0000
     1.0000   1.0000   1.0000   1.0000   1.0000   1.0000   0.0000   0.0000
     0.0000   0.0000

          k =-0.0471-0.4243 0.5185 ( 20333 PWs)   bands (ev):

   -12.4254 -12.4110 -12.3098 -12.2419 -12.2294 -12.2209 -12.1925 -12.1568
   -12.0559 -12.0422  -0.4104   1.0456   5.5605   6.7734   9.8286  12.2645
    13.2559  13.5884

     occupation numbers 
     1.0000   1.0000   1.0000   1.0000   1.0000   1.0000   1.0000   1.0000
     1.0000   1.0000   1.0000   1.0000   1.0000   1.0000   0.0000   0.0000
     0.0000   0.0000

          k =-0.0000-0.3771 0.4714 ( 20353 PWs)   bands (ev):

   -12.4233 -12.4101 -12.3137 -12.2569 -12.2357 -12.2053 -12.1843 -12.1554
   -12.0565 -12.0451  -0.6593   1.3504   5.6013   6.9703   9.8101  12.3484
    12.9504  13.4883

     occupation numbers 
     1.0000   1.0000   1.0000   1.0000   1.0000   1.0000   1.0000   1.0000
     1.0000   1.0000   1.0000   1.0000   1.0000   1.0000   0.0000   0.0000
     0.0000   0.0000

          k = 0.5657 0.0943 0.0000 ( 20344 PWs)   bands (ev):

   -12.4099 -12.4097 -12.3370 -12.2634 -12.2446 -12.1997 -12.1761 -12.1277
   -12.0591 -12.0589  -0.6232   1.3058   6.3204   6.4363   9.6458   9.9526
    14.2803  14.8559

     occupation numbers 
     1.0000   1.0000   1.0000   1.0000   1.0000   1.0000   1.0000   1.0000
     1.0000   1.0000   1.0000   1.0000   1.0000   1.0000   0.0000   0.0000
     0.0000   0.0000

          k =-0.0943-0.5657 0.6600 ( 20342 PWs)   bands (ev):

   -12.4164 -12.4114 -12.3206 -12.2699 -12.2339 -12.1929 -12.1878 -12.1446
   -12.0565 -12.0513  -0.3170   0.9330   6.0495   6.3847   9.7732  10.3067
    14.1006  14.8256

     occupation numbers 
     1.0000   1.0000   1.0000   1.0000   1.0000   1.0000   1.0000   1.0000
     1.0000   1.0000   1.0000   1.0000   1.0000   1.0000   0.0000   0.0000
     0.0000   0.0000

          k =-0.0471-0.5185 0.6128 ( 20321 PWs)   bands (ev):

   -12.4222 -12.4122 -12.3080 -12.2654 -12.2246 -12.1993 -12.1964 -12.1570
   -12.0551 -12.0449  -0.0748   0.6665   5.7674   6.4397   9.7938  11.0155
    13.8844  14.4244

     occupation numbers 
     1.0000   1.0000   1.0000   1.0000   1.0000   1.0000   1.0000   1.0000
     1.0000   1.0000   1.0000   1.0000   1.0000   1.0000   0.0000   0.0000
     0.0000   0.0000

          k = 0.0000-0.4714 0.5657 ( 20323 PWs)   bands (ev):

   -12.4256 -12.4121 -12.3058 -12.2465 -12.2251 -12.2128 -12.2020 -12.1590
   -12.0549 -12.0415  -0.1385   0.7414   5.5856   6.5742   9.8251  11.7930
    13.5658  13.9166

     occupation numbers 
     1.0000   1.0000   1.0000   1.0000   1.0000   1.0000   1.0000   1.0000
     1.0000   1.0000   1.0000   1.0000   1.0000   1.0000   0.0000   0.0000
     0.0000   0.0000

          k =-0.0471-0.6128 0.7071 ( 20324 PWs)   bands (ev):

   -12.4125 -12.4124 -12.3162 -12.2913 -12.2219 -12.1987 -12.1732 -12.1487
   -12.0551 -12.0551  -0.0385   0.6087   6.2368   6.2756   9.6689   9.7856
    14.8775  15.1523

     occupation numbers 
     1.0000   1.0000   1.0000   1.0000   1.0000   1.0000   1.0000   1.0000
     1.0000   1.0000   1.0000   1.0000   1.0000   1.0000   0.0000   0.0000
     0.0000   0.0000

          k = 0.0000-0.5657 0.6600 ( 20316 PWs)   bands (ev):

   -12.4177 -12.4127 -12.3043 -12.2897 -12.2130 -12.2087 -12.1745 -12.1603
   -12.0546 -12.0494   0.1959   0.3711   5.9949   6.3099   9.7471  10.2748
    14.5662  14.7709

     occupation numbers 
     1.0000   1.0000   1.0000   1.0000   1.0000   1.0000   1.0000   1.0000
     1.0000   1.0000   1.0000   1.0000   1.0000   1.0000   0.0000   0.0000
     0.0000   0.0000

          k = 0.3771 0.1886-0.0000 ( 20329 PWs)   bands (ev):

   -12.4041 -12.4030 -12.3496 -12.2829 -12.2564 -12.1948 -12.1415 -12.1235
   -12.0693 -12.0644  -1.4420   2.5330   6.4408   7.2738   9.8470  10.6816
    12.8541  13.1720

     occupation numbers 
     1.0000   1.0000   1.0000   1.0000   1.0000   1.0000   1.0000   1.0000
     1.0000   1.0000   1.0000   1.0000   1.0000   1.0000   0.0000   0.0000
     0.0000   0.0000

          k = 0.4243 0.2357-0.0471 ( 20339 PWs)   bands (ev):

   -12.4117 -12.4062 -12.3368 -12.2746 -12.2478 -12.2018 -12.1503 -12.1383
   -12.0625 -12.0580  -1.1595   2.0476   6.1246   7.0975   9.8964  11.0908
    12.8169  13.4808

     occupation numbers 
     1.0000   1.0000   1.0000   1.0000   1.0000   1.0000   1.0000   1.0000
     1.0000   1.0000   1.0000   1.0000   1.0000   1.0000   0.0000   0.0000
     0.0000   0.0000

          k =-0.2357-0.4243 0.6128 ( 20336 PWs)   bands (ev):

   -12.4176 -12.4083 -12.3256 -12.2662 -12.2439 -12.2037 -12.1618 -12.1489
   -12.0598 -12.0513  -0.8718   1.6079   5.9183   6.9481   9.8754  11.5118
    12.9263  13.6481

     occupation numbers 
     1.0000   1.0000   1.0000   1.0000   1.0000   1.0000   1.0000   1.0000
     1.0000   1.0000   1.0000   1.0000   1.0000   1.0000   0.0000   0.0000
     0.0000   0.0000

          k =-0.1886-0.3771 0.5657 ( 20336 PWs)   bands (ev):

   -12.4207 -12.4093 -12.3190 -12.2593 -12.2445 -12.2018 -12.1722 -12.1535
   -12.0585 -12.0477  -0.6654   1.3201   5.8175   6.8649   9.8532  11.7190
    13.2216  13.6422

     occupation numbers 
     1.0000   1.0000   1.0000   1.0000   1.0000   1.0000   1.0000   1.0000
     1.0000   1.0000   1.0000   1.0000   1.0000   1.0000   0.0000   0.0000
     0.0000   0.0000

          k = 0.4714 0.1886-0.0000 ( 20346 PWs)   bands (ev):

   -12.4108 -12.4085 -12.3382 -12.2660 -12.2330 -12.2232 -12.1573 -12.1312
   -12.0598 -12.0594  -1.0329   1.8751   6.1719   6.7859  10.2047  10.4608
    12.9882  14.0354

     occupation numbers 
     1.0000   1.0000   1.0000   1.0000   1.0000   1.0000   1.0000   1.0000
     1.0000   1.0000   1.0000   1.0000   1.0000   1.0000   0.0000   0.0000
     0.0000   0.0000

          k =-0.1886-0.4714 0.6600 ( 20344 PWs)   bands (ev):

   -12.4175 -12.4113 -12.3231 -12.2568 -12.2307 -12.2243 -12.1688 -12.1464
   -12.0567 -12.0510  -0.7365   1.4570   5.9178   6.6347  10.2315  10.9931
    12.8849  14.1600

     occupation numbers 
     1.0000   1.0000   1.0000   1.0000   1.0000   1.0000   1.0000   1.0000
     1.0000   1.0000   1.0000   1.0000   1.0000   1.0000   0.0000   0.0000
     0.0000   0.0000

          k =-0.1414-0.4243 0.6128 ( 20328 PWs)   bands (ev):

   -12.4223 -12.4127 -12.3113 -12.2490 -12.2312 -12.2220 -12.1805 -12.1567
   -12.0549 -12.0454  -0.4814   1.1300   5.7394   6.5626  10.2168  11.5514
    12.9510  13.9212

     occupation numbers 
     1.0000   1.0000   1.0000   1.0000   1.0000   1.0000   1.0000   1.0000
     1.0000   1.0000   1.0000   1.0000   1.0000   1.0000   0.0000   0.0000
     0.0000   0.0000

          k =-0.0943-0.3771 0.5657 ( 20328 PWs)   bands (ev):

   -12.4240 -12.4130 -12.3070 -12.2472 -12.2286 -12.2217 -12.1863 -12.1602
   -12.0541 -12.0436  -0.4099   1.0435   5.6537   6.5897  10.2125  11.8312
    13.2056  13.5103

     occupation numbers 
     1.0000   1.0000   1.0000   1.0000   1.0000   1.0000   1.0000   1.0000
     1.0000   1.0000   1.0000   1.0000   1.0000   1.0000   0.0000   0.0000
     0.0000   0.0000

          k =-0.0471-0.3300 0.5185 ( 20346 PWs)   bands (ev):

   -12.4224 -12.4123 -12.3112 -12.2547 -12.2305 -12.2173 -12.1793 -12.1579
   -12.0546 -12.0458  -0.5859   1.2607   5.6798   6.7084  10.2016  11.7593
    12.8613  13.7761

     occupation numbers 
     1.0000   1.0000   1.0000   1.0000   1.0000   1.0000   1.0000   1.0000
     1.0000   1.0000   1.0000   1.0000   1.0000   1.0000   0.0000   0.0000
     0.0000   0.0000

          k = 0.0000-0.2828 0.4714 ( 20354 PWs)   bands (ev):

   -12.4178 -12.4103 -12.3223 -12.2654 -12.2369 -12.2114 -12.1632 -12.1513
   -12.0566 -12.0517  -0.8711   1.6352   5.8343   6.8932  10.1254  11.4026
    12.7310  13.7920

     occupation numbers 
     1.0000   1.0000   1.0000   1.0000   1.0000   1.0000   1.0000   1.0000
     1.0000   1.0000   1.0000   1.0000   1.0000   1.0000   0.0000   0.0000
     0.0000   0.0000

          k =-0.1414-0.5185 0.7071 ( 20356 PWs)   bands (ev):

   -12.4155 -12.4135 -12.3223 -12.2515 -12.2456 -12.2085 -12.1777 -12.1442
   -12.0541 -12.0530  -0.5501   1.2225   6.0276   6.4013  10.3288  10.3331
    13.3685  14.5863

     occupation numbers 
     1.0000   1.0000   1.0000   1.0000   1.0000   1.0000   1.0000   1.0000
     1.0000   1.0000   1.0000   1.0000   1.0000   1.0000   0.0000   0.0000
     0.0000   0.0000

          k =-0.0943-0.4714 0.6600 ( 20338 PWs)   bands (ev):

   -12.4210 -12.4153 -12.3060 -12.2550 -12.2358 -12.2044 -12.1899 -12.1595
   -12.0520 -12.0464  -0.2591   0.8801   5.8273   6.3023  10.3251  11.0093
    13.2228  14.2530

     occupation numbers 
     1.0000   1.0000   1.0000   1.0000   1.0000   1.0000   1.0000   1.0000
     1.0000   1.0000   1.0000   1.0000   1.0000   1.0000   0.0000   0.0000
     0.0000   0.0000

          k =-0.0471-0.4243 0.6128 ( 20323 PWs)   bands (ev):

   -12.4246 -12.4155 -12.2980 -12.2483 -12.2299 -12.2103 -12.1986 -12.1660
   -12.0514 -12.0425  -0.1239   0.7323   5.6588   6.3447  10.3371  11.6965
    13.1509  13.6403

     occupation numbers 
     1.0000   1.0000   1.0000   1.0000   1.0000   1.0000   1.0000   1.0000
     1.0000   1.0000   1.0000   1.0000   1.0000   1.0000   0.0000   0.0000
     0.0000   0.0000

          k = 0.0000-0.3771 0.5657 ( 20318 PWs)   bands (ev):

   -12.4250 -12.4146 -12.3010 -12.2399 -12.2331 -12.2180 -12.1955 -12.1638
   -12.0522 -12.0424  -0.2960   0.9256   5.5967   6.4917  10.3274  12.0154
    12.9492  13.5158

     occupation numbers 
     1.0000   1.0000   1.0000   1.0000   1.0000   1.0000   1.0000   1.0000
     1.0000   1.0000   1.0000   1.0000   1.0000   1.0000   0.0000   0.0000
     0.0000   0.0000

          k =-0.0471-0.5185 0.7071 ( 20320 PWs)   bands (ev):

   -12.4175 -12.4167 -12.3021 -12.2781 -12.2232 -12.2002 -12.1845 -12.1625
   -12.0504 -12.0498  -0.0045   0.5911   6.0163   6.1415  10.2938  10.3156
    13.9466  14.4907

     occupation numbers 
     1.0000   1.0000   1.0000   1.0000   1.0000   1.0000   1.0000   1.0000
     1.0000   1.0000   1.0000   1.0000   1.0000   1.0000   0.0000   0.0000
     0.0000   0.0000

          k = 0.0000-0.4714 0.6600 ( 20323 PWs)   bands (ev):

   -12.4221 -12.4169 -12.2922 -12.2716 -12.2171 -12.2092 -12.1899 -12.1710
   -12.0502 -12.0449   0.1471   0.4409   5.8151   6.1703  10.3306  11.0227
    13.7190  13.8339

     occupation numbers 
     1.0000   1.0000   1.0000   1.0000   1.0000   1.0000   1.0000   1.0000
     1.0000   1.0000   1.0000   1.0000   1.0000   1.0000   0.0000   0.0000
     0.0000   0.0000

          k =-0.1414-0.4243 0.7071 ( 20361 PWs)   bands (ev):

   -12.4213 -12.4155 -12.3068 -12.2465 -12.2381 -12.2160 -12.1831 -12.1603
   -12.0516 -12.0466  -0.4372   1.0914   5.7564   6.4148  10.6022  11.2255
    12.7749  14.0631

     occupation numbers 
     1.0000   1.0000   1.0000   1.0000   1.0000   1.0000   1.0000   1.0000
     1.0000   1.0000   1.0000   1.0000   1.0000   1.0000   0.0000   0.0000
     0.0000   0.0000

          k =-0.0943-0.3771 0.6600 ( 20322 PWs)   bands (ev):

   -12.4240 -12.4171 -12.2953 -12.2447 -12.2354 -12.2117 -12.1953 -12.1688
   -12.0498 -12.0433  -0.1895   0.8088   5.6839   6.2789  10.7071  11.6130
    12.8625  13.5363

     occupation numbers 
     1.0000   1.0000   1.0000   1.0000   1.0000   1.0000   1.0000   1.0000
     1.0000   1.0000   1.0000   1.0000   1.0000   1.0000   0.0000   0.0000
     0.0000   0.0000

          k =-0.0471-0.4243 0.7071 ( 20327 PWs)   bands (ev):

   -12.4219 -12.4197 -12.2870 -12.2638 -12.2257 -12.2042 -12.1949 -12.1756
   -12.0471 -12.0451   0.0435   0.5573   5.8279   6.0505  10.9150  11.0860
    13.0952  13.6345

     occupation numbers 
     1.0000   1.0000   1.0000   1.0000   1.0000   1.0000   1.0000   1.0000
     1.0000   1.0000   1.0000   1.0000   1.0000   1.0000   0.0000   0.0000
     0.0000   0.0000

          k =-0.0000-0.3771 0.6600 ( 20321 PWs)   bands (ev):

   -12.4237 -12.4198 -12.2827 -12.2595 -12.2241 -12.2092 -12.1976 -12.1784
   -12.0471 -12.0432   0.0961   0.5058   5.7526   6.0612  10.9482  11.5498
    12.9925  13.1810

     occupation numbers 
     1.0000   1.0000   1.0000   1.0000   1.0000   1.0000   1.0000   1.0000
     1.0000   1.0000   1.0000   1.0000   1.0000   1.0000   0.0000   0.0000
     0.0000   0.0000

     the Fermi energy is     8.3252 ev

!    total energy              =    -233.44829575 Ry
     Harris-Foulkes estimate   =    -233.44829591 Ry
     estimated scf accuracy    <       0.00000043 Ry

     The total energy is the sum of the following terms:

     one-electron contribution =     -95.31567986 Ry
     hartree contribution      =      58.35564072 Ry
     xc contribution           =     -28.70691473 Ry
     ewald contribution        =    -167.78134157 Ry
     smearing contrib. (-TS)   =      -0.00000032 Ry

     convergence has been achieved in   5 iterations

     Writing output data file Sn.save
 
     init_run     :      6.50s CPU      7.09s WALL (       1 calls)
     electrons    :    125.96s CPU    134.16s WALL (       1 calls)

     Called by init_run:
     wfcinit      :      6.08s CPU      6.54s WALL (       1 calls)
     potinit      :      0.07s CPU      0.11s WALL (       1 calls)

     Called by electrons:
     c_bands      :    110.75s CPU    117.70s WALL (       5 calls)
     sum_band     :     14.86s CPU     15.89s WALL (       5 calls)
     v_of_rho     :      0.30s CPU      0.49s WALL (       6 calls)
     v_h          :      0.03s CPU      0.07s WALL (       6 calls)
     v_xc         :      0.27s CPU      0.42s WALL (       6 calls)
     mix_rho      :      0.03s CPU      0.05s WALL (       5 calls)

     Called by c_bands:
     init_us_2    :      1.19s CPU      1.40s WALL (    1320 calls)
     cegterg      :    106.02s CPU    112.72s WALL (     600 calls)

     Called by sum_band:

     Called by *egterg:
     h_psi        :     96.32s CPU    102.14s WALL (    2580 calls)
     g_psi        :      0.48s CPU      0.48s WALL (    1860 calls)
     cdiaghg      :      2.56s CPU      2.58s WALL (    2460 calls)
     cegterg:over :      5.14s CPU      5.17s WALL (    1860 calls)
     cegterg:upda :      2.59s CPU      2.61s WALL (    1860 calls)
     cegterg:last :      1.68s CPU      1.69s WALL (     828 calls)

     Called by h_psi:
     h_psi:vloc   :     90.06s CPU     95.69s WALL (    2580 calls)
     h_psi:vnl    :      5.75s CPU      5.89s WALL (    2580 calls)
     add_vuspsi   :      2.17s CPU      2.19s WALL (    2580 calls)

     General routines
     calbec       :      3.56s CPU      3.68s WALL (    2580 calls)
     fft          :      0.22s CPU      0.45s WALL (      65 calls)
     fftw         :     88.62s CPU     94.37s WALL (   86064 calls)
     davcio       :      0.05s CPU      0.41s WALL (     120 calls)
 
     Parallel routines
     fft_scatter  :     38.31s CPU     41.58s WALL (   86129 calls)
 
     PWSCF        :  2m12.91s CPU     2m22.23s WALL

 
   This run was terminated on:   0:19: 7  28Feb2020            

=------------------------------------------------------------------------------=
   JOB DONE.
=------------------------------------------------------------------------------=
