
     Program PWSCF v.5.4.0 starts on 18Feb2020 at 14: 3:34 

     This program is part of the open-source Quantum ESPRESSO suite
     for quantum simulation of materials; please cite
         "P. Giannozzi et al., J. Phys.:Condens. Matter 21 395502 (2009);
          URL http://www.quantum-espresso.org", 
     in publications or presentations arising from this work. More details at
     http://www.quantum-espresso.org/quote

     Parallel version (MPI & OpenMP), running on      16 processor cores
     Number of MPI processes:                16
     Threads/MPI process:                     1
     R & G space division:  proc/nbgrp/npool/nimage =      16
     Reading input from run.in
Warning: card &IONS ignored
Warning: card / ignored
Warning: card &CELL ignored
Warning: card / ignored

     Current dimensions of program PWSCF are:
     Max number of different atomic species (ntypx) = 10
     Max number of k-points (npk) =  40000
     Max angular momentum in pseudopotentials (lmaxx) =  3

     Subspace diagonalization in iterative solution of the eigenvalue problem:
     a serial algorithm will be used

 
     Parallelization info
     --------------------
     sticks:   dense  smooth     PW     G-vecs:    dense   smooth      PW
     Min          83      83     23                 1992     1992     312
     Max          84      84     24                 1993     1993     316
     Sum        1333    1333    379                31879    31879    5029
 


     bravais-lattice index     =            0
     lattice parameter (alat)  =       8.9528  a.u.
     unit-cell volume          =     507.4123 (a.u.)^3
     number of atoms/cell      =            2
     number of atomic types    =            1
     number of electrons       =        28.00
     number of Kohn-Sham states=           36
     kinetic-energy cutoff     =      60.0000  Ry
     charge density cutoff     =     240.0000  Ry
     convergence threshold     =      1.0E-06
     mixing beta               =       0.7000
     number of iterations used =            8  plain     mixing
     Exchange-correlation      = PBE ( 1  4  3  4 0 0)
     Non magnetic calculation with spin-orbit


     celldm(1)=   8.952796  celldm(2)=   0.000000  celldm(3)=   0.000000
     celldm(4)=   0.000000  celldm(5)=   0.000000  celldm(6)=   0.000000

     crystal axes: (cart. coord. in units of alat)
               a(1) = (   0.000000   0.707107   0.707107 )  
               a(2) = (   0.707107   0.000000   0.707107 )  
               a(3) = (   0.707107   0.707107   0.000000 )  

     reciprocal axes: (cart. coord. in units 2 pi/alat)
               b(1) = ( -0.707107  0.707107  0.707107 )  
               b(2) = (  0.707107 -0.707107  0.707107 )  
               b(3) = (  0.707107  0.707107 -0.707107 )  


     PseudoPot. # 1 for Sn read from file:
     ../PseudopotentialDatabase/Sn_ONCV_PBE_FR-1.1.upf
     MD5 check sum: 6dd2180f739ea5ae1610ead5e1628a0e
     Pseudo is Norm-conserving, Zval = 14.0
     Generated using ONCVPSP code by D. R. Hamann
     Using radial grid of  602 points, 10 beta functions with: 
                l(1) =   0
                l(2) =   0
                l(3) =   1
                l(4) =   1
                l(5) =   1
                l(6) =   1
                l(7) =   2
                l(8) =   2
                l(9) =   2
               l(10) =   2

     atomic species   valence    mass     pseudopotential
        Sn            14.00   118.71000     Sn( 1.00)

     24 Sym. Ops. (no inversion) found
          (note: 24 additional sym.ops. were found but ignored
           their fractional translations are incommensurate with FFT grid)


   Cartesian axes

     site n.     atom                  positions (alat units)
         1           Sn  tau(   1) = (   0.0000000   0.0000000   0.0000000  )
         2           Sn  tau(   2) = (   0.3535534   0.3535534   0.3535534  )

     number of k points=    47  gaussian smearing, width (Ry)=  0.0100
                       cart. coord. in units 2pi/alat
        k(    1) = (   0.0000000   0.0000000   0.0000000), wk =   0.0010000
        k(    2) = (   0.0707107   0.0707107  -0.0707107), wk =   0.0080000
        k(    3) = (   0.1414214   0.1414214  -0.1414214), wk =   0.0080000
        k(    4) = (   0.2121320   0.2121320  -0.2121320), wk =   0.0080000
        k(    5) = (   0.2828427   0.2828427  -0.2828427), wk =   0.0080000
        k(    6) = (  -0.3535534  -0.3535534   0.3535534), wk =   0.0040000
        k(    7) = (   0.1414214   0.0000000   0.0000000), wk =   0.0060000
        k(    8) = (   0.2121320   0.0707107  -0.0707107), wk =   0.0240000
        k(    9) = (   0.2828427   0.1414214  -0.1414214), wk =   0.0240000
        k(   10) = (   0.3535534   0.2121320  -0.2121320), wk =   0.0240000
        k(   11) = (  -0.2828427  -0.4242641   0.4242641), wk =   0.0240000
        k(   12) = (  -0.2121320  -0.3535534   0.3535534), wk =   0.0240000
        k(   13) = (  -0.1414214  -0.2828427   0.2828427), wk =   0.0240000
        k(   14) = (  -0.0707107  -0.2121320   0.2121320), wk =   0.0240000
        k(   15) = (   0.0000000  -0.1414214   0.1414214), wk =   0.0120000
        k(   16) = (   0.2828427   0.0000000   0.0000000), wk =   0.0060000
        k(   17) = (   0.3535534   0.0707107  -0.0707107), wk =   0.0240000
        k(   18) = (   0.4242641   0.1414214  -0.1414214), wk =   0.0240000
        k(   19) = (  -0.2121320  -0.4949747   0.4949747), wk =   0.0240000
        k(   20) = (  -0.1414214  -0.4242641   0.4242641), wk =   0.0240000
        k(   21) = (  -0.0707107  -0.3535534   0.3535534), wk =   0.0240000
        k(   22) = (   0.0000000  -0.2828427   0.2828427), wk =   0.0120000
        k(   23) = (   0.4242641   0.0000000   0.0000000), wk =   0.0060000
        k(   24) = (   0.4949747   0.0707107  -0.0707107), wk =   0.0240000
        k(   25) = (  -0.1414214  -0.5656854   0.5656854), wk =   0.0240000
        k(   26) = (  -0.0707107  -0.4949747   0.4949747), wk =   0.0240000
        k(   27) = (  -0.0000000  -0.4242641   0.4242641), wk =   0.0120000
        k(   28) = (   0.5656854   0.0000000   0.0000000), wk =   0.0060000
        k(   29) = (  -0.0707107  -0.6363961   0.6363961), wk =   0.0240000
        k(   30) = (   0.0000000  -0.5656854   0.5656854), wk =   0.0120000
        k(   31) = (  -0.7071068   0.0000000   0.0000000), wk =   0.0030000
        k(   32) = (   0.2828427   0.1414214   0.0000000), wk =   0.0240000
        k(   33) = (   0.3535534   0.2121320  -0.0707107), wk =   0.0480000
        k(   34) = (  -0.2828427  -0.4242641   0.5656854), wk =   0.0480000
        k(   35) = (  -0.2121320  -0.3535534   0.4949747), wk =   0.0240000
        k(   36) = (   0.4242641   0.1414214  -0.0000000), wk =   0.0240000
        k(   37) = (  -0.2121320  -0.4949747   0.6363961), wk =   0.0480000
        k(   38) = (  -0.1414214  -0.4242641   0.5656854), wk =   0.0480000
        k(   39) = (  -0.0707107  -0.3535534   0.4949747), wk =   0.0480000
        k(   40) = (   0.0000000  -0.2828427   0.4242641), wk =   0.0240000
        k(   41) = (  -0.1414214  -0.5656854   0.7071068), wk =   0.0240000
        k(   42) = (  -0.0707107  -0.4949747   0.6363961), wk =   0.0480000
        k(   43) = (  -0.0000000  -0.4242641   0.5656854), wk =   0.0240000
        k(   44) = (  -0.7071068   0.1414214   0.0000000), wk =   0.0120000
        k(   45) = (  -0.1414214  -0.4242641   0.7071068), wk =   0.0240000
        k(   46) = (  -0.0707107  -0.3535534   0.6363961), wk =   0.0240000
        k(   47) = (  -0.7071068   0.2828427   0.0000000), wk =   0.0120000

     Dense  grid:    31879 G-vectors     FFT dimensions: (  45,  45,  45)

     Largest allocated arrays     est. size (Mb)     dimensions
        Kohn-Sham Wavefunctions         0.28 Mb     (     518,   36)
        NL pseudopotentials             0.27 Mb     (     259,   68)
        Each V/rho on FFT grid          0.09 Mb     (    6075)
        Each G-vector array             0.02 Mb     (    1992)
        G-vector shells                 0.00 Mb     (     307)
     Largest temporary arrays     est. size (Mb)     dimensions
        Auxiliary wavefunctions         1.14 Mb     (     518,  144)
        Each subspace H/S matrix        0.32 Mb     (     144,  144)
        Each <psi_i|beta_j> matrix      0.07 Mb     (      68,   2,   36)
        Arrays for rho mixing           0.74 Mb     (    6075,    8)

     Initial potential from superposition of free atoms

     starting charge   27.82601, renormalised to   28.00000
     Starting wfc are random

     total cpu time spent up to now is       71.5 secs

     Self-consistent Calculation

     iteration #  1     ecut=    60.00 Ry     beta=0.70
     Davidson diagonalization with overlap
     ethr =  1.00E-02,  avg # of iterations =  7.1

     Threshold (ethr) on eigenvalues was too large:
     Diagonalizing with lowered threshold

     Davidson diagonalization with overlap
     ethr =  1.14E-04,  avg # of iterations =  2.4

     total cpu time spent up to now is      773.8 secs

     total energy              =    -241.37504596 Ry
     Harris-Foulkes estimate   =    -241.38666059 Ry
     estimated scf accuracy    <       0.03156518 Ry

     iteration #  2     ecut=    60.00 Ry     beta=0.70
     Davidson diagonalization with overlap
     ethr =  1.13E-04,  avg # of iterations =  2.0

     total cpu time spent up to now is      996.4 secs

     total energy              =    -241.38030747 Ry
     Harris-Foulkes estimate   =    -241.38052377 Ry
     estimated scf accuracy    <       0.00214686 Ry

     iteration #  3     ecut=    60.00 Ry     beta=0.70
     Davidson diagonalization with overlap
     ethr =  7.67E-06,  avg # of iterations =  3.2

     total cpu time spent up to now is     1187.1 secs

     total energy              =    -241.38058540 Ry
     Harris-Foulkes estimate   =    -241.38053638 Ry
     estimated scf accuracy    <       0.00015946 Ry

     iteration #  4     ecut=    60.00 Ry     beta=0.70
     Davidson diagonalization with overlap
     ethr =  5.69E-07,  avg # of iterations =  2.0

     total cpu time spent up to now is     1367.7 secs

     total energy              =    -241.38059582 Ry
     Harris-Foulkes estimate   =    -241.38059611 Ry
     estimated scf accuracy    <       0.00000176 Ry

     iteration #  5     ecut=    60.00 Ry     beta=0.70
     Davidson diagonalization with overlap
     ethr =  6.30E-09,  avg # of iterations =  4.0

     total cpu time spent up to now is     1630.5 secs

     End of self-consistent calculation

          k = 0.0000 0.0000 0.0000 (  3943 PWs)   bands (ev):

   -13.9789 -13.9789 -13.9789 -13.9789 -13.8992 -13.8992 -13.8992 -13.8992
   -13.0461 -13.0461 -12.8847 -12.8847 -12.8847 -12.8847 -12.8499 -12.8499
   -12.8499 -12.8499 -12.7478 -12.7478  -1.8929  -1.8929   6.8353   6.8353
     7.7495   7.7495   8.2334   8.2334   8.2334   8.2334   9.9405   9.9405
    10.2146  10.2146  10.2146  10.2146

          k = 0.0707 0.0707-0.0707 (  3951 PWs)   bands (ev):

   -13.9799 -13.9799 -13.9770 -13.9770 -13.9011 -13.9011 -13.8980 -13.8980
   -13.0418 -13.0418 -12.8955 -12.8955 -12.8916 -12.8916 -12.8424 -12.8424
   -12.8405 -12.8405 -12.7502 -12.7502  -1.8065  -1.8065   5.9913   5.9913
     7.7190   7.7190   8.0712   8.0712   8.4202   8.4202  10.2471  10.2471
    10.4259  10.4259  10.4883  10.4883

          k = 0.1414 0.1414-0.1414 (  3996 PWs)   bands (ev):

   -13.9821 -13.9821 -13.9713 -13.9713 -13.9065 -13.9065 -13.8949 -13.8949
   -13.0301 -13.0301 -12.9151 -12.9151 -12.9038 -12.9038 -12.8289 -12.8289
   -12.8253 -12.8253 -12.7569 -12.7569  -1.5537  -1.5537   4.6999   4.6999
     7.4322   7.4322   7.7536   7.7536   8.3421   8.3421  10.7079  10.7079
    10.8149  10.8149  11.5286  11.5286

          k = 0.2121 0.2121-0.2121 (  3960 PWs)   bands (ev):

   -13.9847 -13.9847 -13.9629 -13.9629 -13.9145 -13.9145 -13.8915 -13.8915
   -13.0132 -13.0132 -12.9356 -12.9356 -12.9144 -12.9144 -12.8167 -12.8167
   -12.8112 -12.8112 -12.7666 -12.7666  -1.1618  -1.1618   3.4828   3.4828
     7.1526   7.1526   7.4667   7.4667   8.1070   8.1070  11.0426  11.0427
    11.0453  11.0453  12.8833  12.8833

          k = 0.2828 0.2828-0.2828 (  3954 PWs)   bands (ev):

   -13.9865 -13.9865 -13.9533 -13.9533 -13.9238 -13.9238 -13.8889 -13.8889
   -12.9940 -12.9940 -12.9552 -12.9552 -12.9213 -12.9213 -12.8085 -12.8085
   -12.7992 -12.7992 -12.7775 -12.7775  -0.7182  -0.7182   2.5226   2.5226
     6.9679   6.9679   7.2804   7.2804   7.9288   7.9288  11.0756  11.0756
    11.1609  11.1609  13.8341  13.8342

          k =-0.3536-0.3536 0.3536 (  3996 PWs)   bands (ev):

   -13.9871 -13.9871 -13.9475 -13.9475 -13.9295 -13.9295 -13.8879 -13.8879
   -12.9770 -12.9770 -12.9720 -12.9720 -12.9237 -12.9237 -12.8056 -12.8056
   -12.7885 -12.7885 -12.7881 -12.7881  -0.4831  -0.4831   2.1124   2.1124
     6.9043   6.9043   7.2166   7.2166   7.8656   7.8656  11.0613  11.0613
    11.1761  11.1761  13.8065  13.8065

          k = 0.1414 0.0000 0.0000 (  3943 PWs)   bands (ev):

   -13.9791 -13.9791 -13.9775 -13.9775 -13.9008 -13.9008 -13.8984 -13.8984
   -13.0404 -13.0404 -12.8996 -12.8996 -12.8919 -12.8919 -12.8401 -12.8401
   -12.8390 -12.8390 -12.7508 -12.7508  -1.7773  -1.7773   5.8700   5.8700
     7.5170   7.5170   7.7451   7.7451   9.0102   9.0102   9.7950   9.7950
    10.6964  10.6964  10.7385  10.7385

          k = 0.2121 0.0707-0.0707 (  3962 PWs)   bands (ev):

   -13.9808 -13.9808 -13.9733 -13.9733 -13.9048 -13.9048 -13.8961 -13.8961
   -13.0312 -13.0312 -12.9150 -12.9150 -12.9001 -12.9001 -12.8334 -12.8334
   -12.8250 -12.8250 -12.7555 -12.7555  -1.5783  -1.5783   4.9124   4.9124
     7.1913   7.1913   7.3906   7.3906   9.2228   9.2228   9.9210   9.9210
    11.2165  11.2165  11.4465  11.4465

          k = 0.2828 0.1414-0.1414 (  3975 PWs)   bands (ev):

   -13.9835 -13.9835 -13.9657 -13.9657 -13.9121 -13.9121 -13.8924 -13.8924
   -13.0162 -13.0162 -12.9332 -12.9332 -12.9096 -12.9096 -12.8268 -12.8268
   -12.8095 -12.8095 -12.7627 -12.7627  -1.2275  -1.2275   3.7672   3.7672
     6.8287   6.8287   7.0874   7.0874   9.0256   9.0256  10.4495  10.4496
    11.5411  11.5411  12.2370  12.2370

          k = 0.3536 0.2121-0.2121 (  3981 PWs)   bands (ev):

   -13.9857 -13.9857 -13.9564 -13.9564 -13.9213 -13.9213 -13.8891 -13.8891
   -12.9986 -12.9986 -12.9503 -12.9503 -12.9173 -12.9173 -12.8218 -12.8218
   -12.7982 -12.7982 -12.7696 -12.7696  -0.7826  -0.7826   2.7491   2.7491
     6.5146   6.5146   6.9267   6.9267   8.8088   8.8088  10.8098  10.8098
    11.5759  11.5759  13.0579  13.0579

          k =-0.2828-0.4243 0.4243 (  3975 PWs)   bands (ev):

   -13.9869 -13.9869 -13.9482 -13.9482 -13.9294 -13.9294 -13.8874 -13.8874
   -12.9826 -12.9826 -12.9650 -12.9650 -12.9212 -12.9212 -12.8195 -12.8195
   -12.7930 -12.7930 -12.7733 -12.7733  -0.4321  -0.4321   2.1277   2.1277
     6.3157   6.3157   6.9180   6.9180   8.6796   8.6796  10.9626  10.9626
    11.4619  11.4619  13.8708  13.8708

          k =-0.2121-0.3536 0.3536 (  3975 PWs)   bands (ev):

   -13.9868 -13.9868 -13.9500 -13.9500 -13.9277 -13.9277 -13.8876 -13.8876
   -12.9873 -12.9873 -12.9607 -12.9607 -12.9201 -12.9201 -12.8206 -12.8206
   -12.7934 -12.7934 -12.7727 -12.7727  -0.5184  -0.5184   2.2699   2.2699
     6.2630   6.2630   7.0500   7.0500   8.6653   8.6653  11.0894  11.0894
    11.3212  11.3212  13.9053  13.9053

          k =-0.1414-0.2828 0.2828 (  3976 PWs)   bands (ev):

   -13.9854 -13.9854 -13.9590 -13.9590 -13.9189 -13.9189 -13.8897 -13.8897
   -13.0046 -13.0046 -12.9450 -12.9450 -12.9143 -12.9143 -12.8248 -12.8248
   -12.7998 -12.7998 -12.7679 -12.7679  -0.9367  -0.9367   3.0646   3.0646
     6.3750   6.3750   7.3000   7.3000   8.7580   8.7580  11.0957  11.0957
    11.2088  11.2088  12.9614  12.9614

          k =-0.0707-0.2121 0.2121 (  3965 PWs)   bands (ev):

   -13.9831 -13.9831 -13.9678 -13.9678 -13.9102 -13.9102 -13.8930 -13.8930
   -13.0217 -13.0217 -12.9275 -12.9275 -12.9058 -12.9058 -12.8309 -12.8309
   -12.8123 -12.8123 -12.7605 -12.7605  -1.3611  -1.3611   4.1399   4.1399
     6.6732   6.6732   7.6201   7.6201   8.8935   8.8935  10.7575  10.7575
    10.9635  10.9635  12.0455  12.0455

          k = 0.0000-0.1414 0.1414 (  3961 PWs)   bands (ev):

   -13.9809 -13.9809 -13.9741 -13.9741 -13.9039 -13.9039 -13.8963 -13.8963
   -13.0351 -13.0351 -12.9092 -12.9092 -12.8970 -12.8970 -12.8376 -12.8376
   -12.8281 -12.8281 -12.7538 -12.7538  -1.6640  -1.6640   5.2348   5.2348
     7.1930   7.1930   7.8995   7.8995   8.8288   8.8288  10.3636  10.3636
    10.4967  10.4967  11.2910  11.2910

          k = 0.2828 0.0000 0.0000 (  3964 PWs)   bands (ev):

   -13.9791 -13.9791 -13.9738 -13.9738 -13.9046 -13.9046 -13.8970 -13.8970
   -13.0248 -13.0248 -12.9235 -12.9235 -12.9033 -12.9033 -12.8294 -12.8294
   -12.8211 -12.8211 -12.7571 -12.7571  -1.4329  -1.4329   4.5213   4.5213
     6.8936   6.8936   7.0076   7.0076   9.2690   9.2690   9.9280   9.9280
    11.8116  11.8116  11.9064  11.9064

          k = 0.3536 0.0707-0.0707 (  3978 PWs)   bands (ev):

   -13.9808 -13.9808 -13.9687 -13.9687 -13.9095 -13.9095 -13.8944 -13.8944
   -13.0126 -13.0126 -12.9368 -12.9368 -12.9082 -12.9082 -12.8313 -12.8313
   -12.8078 -12.8078 -12.7605 -12.7605  -1.1280  -1.1280   3.7019   3.7019
     6.5009   6.5009   6.7011   6.7011   9.3263   9.3263  10.0502  10.0503
    12.1311  12.1312  12.3956  12.3956

          k = 0.4243 0.1414-0.1414 (  3970 PWs)   bands (ev):

   -13.9836 -13.9836 -13.9605 -13.9605 -13.9178 -13.9178 -13.8903 -13.8903
   -12.9980 -12.9980 -12.9497 -12.9497 -12.9123 -12.9123 -12.8359 -12.8359
   -12.7971 -12.7971 -12.7624 -12.7624  -0.7004  -0.7004   2.8020   2.8020
     6.0130   6.0130   6.5531   6.5531   9.3556   9.3556  10.5931  10.5931
    12.0945  12.0945  12.5166  12.5166

          k =-0.2121-0.4950 0.4950 (  3986 PWs)   bands (ev):

   -13.9857 -13.9857 -13.9519 -13.9519 -13.9267 -13.9267 -13.8872 -13.8872
   -12.9864 -12.9864 -12.9581 -12.9581 -12.9150 -12.9150 -12.8401 -12.8401
   -12.7931 -12.7931 -12.7613 -12.7613  -0.2756  -0.2756   2.0960   2.0960
     5.6408   5.6408   6.5638   6.5638   9.2778   9.2778  11.1588  11.1588
    12.2922  12.2922  12.6577  12.6577

          k =-0.1414-0.4243 0.4243 (  3975 PWs)   bands (ev):

   -13.9865 -13.9865 -13.9476 -13.9476 -13.9312 -13.9312 -13.8859 -13.8859
   -12.9849 -12.9849 -12.9594 -12.9594 -12.9145 -12.9145 -12.8419 -12.8419
   -12.7925 -12.7925 -12.7608 -12.7608  -0.2012  -0.2012   1.9872   1.9872
     5.4634   5.4634   6.7239   6.7239   9.2780   9.2780  11.3559  11.3559
    12.0579  12.0579  13.5889  13.5889

          k =-0.0707-0.3536 0.3536 (  3975 PWs)   bands (ev):

   -13.9861 -13.9861 -13.9534 -13.9534 -13.9254 -13.9254 -13.8870 -13.8870
   -12.9943 -12.9943 -12.9536 -12.9536 -12.9110 -12.9110 -12.8401 -12.8401
   -12.7934 -12.7934 -12.7627 -12.7627  -0.5713  -0.5713   2.5638   2.5638
     5.5291   5.5291   7.0074   7.0074   9.3447   9.3447  11.4984  11.4984
    11.7124  11.7124  12.7302  12.7302

          k = 0.0000-0.2828 0.2828 (  4003 PWs)   bands (ev):

   -13.9847 -13.9847 -13.9615 -13.9615 -13.9171 -13.9171 -13.8898 -13.8898
   -13.0085 -13.0085 -12.9423 -12.9423 -12.9076 -12.9076 -12.8357 -12.8357
   -12.7993 -12.7993 -12.7635 -12.7635  -1.0165  -1.0165   3.3823   3.3823
     5.9101   5.9101   7.3516   7.3516   9.3256   9.3256  11.1746  11.1746
    11.3464  11.3464  12.1016  12.1016

          k = 0.4243 0.0000 0.0000 (  4000 PWs)   bands (ev):

   -13.9780 -13.9780 -13.9703 -13.9703 -13.9077 -13.9077 -13.8967 -13.8967
   -13.0035 -13.0035 -12.9447 -12.9447 -12.9101 -12.9101 -12.8361 -12.8361
   -12.8006 -12.8006 -12.7608 -12.7608  -0.8678  -0.8678   3.2035   3.2035
     6.3581   6.3581   6.4156   6.4156   8.8798   8.8798   9.8577   9.8577
    13.0377  13.0377  13.2529  13.2529

          k = 0.4950 0.0707-0.0707 (  3995 PWs)   bands (ev):

   -13.9797 -13.9797 -13.9657 -13.9657 -13.9122 -13.9122 -13.8942 -13.8942
   -12.9924 -12.9924 -12.9534 -12.9534 -12.9096 -12.9096 -12.8463 -12.8463
   -12.7917 -12.7917 -12.7607 -12.7607  -0.4686  -0.4686   2.5097   2.5097
     5.9683   5.9683   6.2336   6.2336   9.0304   9.0304   9.8294   9.8294
    13.0860  13.0860  13.5963  13.5964

          k =-0.1414-0.5657 0.5657 (  3980 PWs)   bands (ev):

   -13.9827 -13.9827 -13.9583 -13.9583 -13.9204 -13.9204 -13.8896 -13.8896
   -12.9857 -12.9857 -12.9564 -12.9564 -12.9073 -12.9073 -12.8574 -12.8574
   -12.7896 -12.7896 -12.7569 -12.7569  -0.0065  -0.0065   1.8537   1.8537
     5.4506   5.4506   6.2251   6.2251   9.1442   9.1442  10.6267  10.6267
    12.8472  12.8472  13.4967  13.4967

          k =-0.0707-0.4950 0.4950 (  3977 PWs)   bands (ev):

   -13.9850 -13.9850 -13.9513 -13.9513 -13.9282 -13.9281 -13.8862 -13.8862
   -12.9854 -12.9854 -12.9547 -12.9547 -12.9056 -12.9056 -12.8623 -12.8623
   -12.7912 -12.7912 -12.7537 -12.7537   0.2081   0.2081   1.5909   1.5909
     5.1151   5.1151   6.3731   6.3731   9.2262   9.2262  11.8517  11.8517
    12.7390  12.7390  13.1381  13.1381

          k =-0.0000-0.4243 0.4243 (  3971 PWs)   bands (ev):

   -13.9862 -13.9862 -13.9489 -13.9488 -13.9307 -13.9307 -13.8854 -13.8854
   -12.9877 -12.9877 -12.9554 -12.9554 -12.9072 -12.9072 -12.8552 -12.8552
   -12.7922 -12.7922 -12.7559 -12.7559  -0.1195  -0.1195   1.9912   1.9912
     5.1076   5.1076   6.6542   6.6542   9.3668   9.3668  12.2939  12.2939
    12.5427  12.5427  12.6604  12.6604

          k = 0.5657 0.0000 0.0000 (  3988 PWs)   bands (ev):

   -13.9755 -13.9755 -13.9696 -13.9696 -13.9072 -13.9072 -13.8989 -13.8989
   -12.9841 -12.9841 -12.9604 -12.9604 -12.9050 -12.9050 -12.8581 -12.8581
   -12.7825 -12.7825 -12.7630 -12.7630  -0.0966  -0.0966   1.9706   1.9706
     6.0188   6.0188   6.0429   6.0429   8.7425   8.7425   9.3074   9.3074
    14.3018  14.3019  14.5407  14.5408

          k =-0.0707-0.6364 0.6364 (  3996 PWs)   bands (ev):

   -13.9780 -13.9780 -13.9653 -13.9653 -13.9121 -13.9121 -13.8953 -13.8953
   -12.9803 -12.9803 -12.9620 -12.9620 -12.8974 -12.8974 -12.8715 -12.8715
   -12.7809 -12.7809 -12.7603 -12.7603   0.3768   0.3768   1.3903   1.3903
     5.6911   5.6911   5.9952   5.9952   8.9298   8.9298   9.4529   9.4529
    14.2842  14.2843  14.6619  14.6619

          k = 0.0000-0.5657 0.5657 (  3979 PWs)   bands (ev):

   -13.9821 -13.9821 -13.9583 -13.9583 -13.9206 -13.9206 -13.8896 -13.8896
   -12.9837 -12.9837 -12.9560 -12.9560 -12.8957 -12.8957 -12.8760 -12.8760
   -12.7869 -12.7869 -12.7542 -12.7542   0.6198   0.6198   1.1433   1.1433
     5.2554   5.2554   6.1131   6.1131   9.0425   9.0425  10.5359  10.5359
    13.7572  13.7572  14.1304  14.1305

          k =-0.7071 0.0000 0.0000 (  3984 PWs)   bands (ev):

   -13.9720 -13.9720 -13.9720 -13.9720 -13.9033 -13.9033 -13.9033 -13.9033
   -12.9715 -12.9715 -12.9715 -12.9715 -12.8849 -12.8849 -12.8849 -12.8849
   -12.7696 -12.7696 -12.7696 -12.7696   0.8592   0.8592   0.8593   0.8593
     5.9098   5.9098   5.9098   5.9098   8.8893   8.8893   8.8893   8.8893
    15.1444  15.1445  15.1445  15.1445

          k = 0.2828 0.1414 0.0000 (  3975 PWs)   bands (ev):

   -13.9820 -13.9820 -13.9690 -13.9690 -13.9092 -13.9092 -13.8938 -13.8938
   -13.0204 -13.0204 -12.9293 -12.9293 -12.9049 -12.9049 -12.8323 -12.8323
   -12.8121 -12.8121 -12.7596 -12.7596  -1.3274  -1.3274   4.1451   4.1451
     6.5371   6.5371   7.2388   7.2388   9.5820   9.5820   9.9415   9.9416
    11.6533  11.6533  11.9094  11.9094

          k = 0.3536 0.2121-0.0707 (  3978 PWs)   bands (ev):

   -13.9842 -13.9842 -13.9615 -13.9615 -13.9169 -13.9169 -13.8902 -13.8902
   -13.0055 -13.0055 -12.9442 -12.9442 -12.9101 -12.9101 -12.8334 -12.8334
   -12.7998 -12.7998 -12.7634 -12.7634  -0.9363  -0.9363   3.2115   3.2115
     6.0435   6.0435   6.9816   6.9816   9.5317   9.5317  10.4900  10.4900
    11.8773  11.8773  12.2484  12.2484

          k =-0.2828-0.4243 0.5657 (  3989 PWs)   bands (ev):

   -13.9860 -13.9860 -13.9528 -13.9528 -13.9257 -13.9257 -13.8874 -13.8874
   -12.9908 -12.9908 -12.9560 -12.9560 -12.9150 -12.9150 -12.8349 -12.8349
   -12.7940 -12.7940 -12.7640 -12.7640  -0.4868  -0.4868   2.3731   2.3731
     5.7804   5.7804   6.7547   6.7547   9.4011   9.4011  10.8460  10.8461
    11.9929  11.9929  12.9081  12.9081

          k =-0.2121-0.3536 0.4950 (  3990 PWs)   bands (ev):

   -13.9866 -13.9866 -13.9474 -13.9474 -13.9311 -13.9311 -13.8863 -13.8863
   -12.9833 -12.9833 -12.9616 -12.9616 -12.9172 -12.9172 -12.8356 -12.8356
   -12.7930 -12.7930 -12.7634 -12.7634  -0.2418  -0.2418   1.9893   1.9893
     5.6991   5.6991   6.6690   6.6690   9.3494   9.3494  10.8919  10.8919
    12.0381  12.0381  13.6948  13.6948

          k = 0.4243 0.1414-0.0000 (  3992 PWs)   bands (ev):

   -13.9818 -13.9818 -13.9644 -13.9644 -13.9139 -13.9139 -13.8923 -13.8923
   -13.0008 -13.0008 -12.9472 -12.9472 -12.9100 -12.9100 -12.8383 -12.8383
   -12.7982 -12.7982 -12.7610 -12.7610  -0.7779  -0.7779   3.0102   3.0102
     6.0151   6.0151   6.4970   6.4970   9.5083   9.5083  10.0664  10.0664
    12.1116  12.1116  13.0806  13.0806

          k =-0.2121-0.4950 0.6364 (  3990 PWs)   bands (ev):

   -13.9838 -13.9838 -13.9575 -13.9575 -13.9213 -13.9213 -13.8888 -13.8888
   -12.9901 -12.9901 -12.9543 -12.9543 -12.9101 -12.9101 -12.8482 -12.8482
   -12.7931 -12.7931 -12.7583 -12.7583  -0.3264  -0.3264   2.2757   2.2757
     5.5771   5.5771   6.2953   6.2953   9.6962   9.6962  10.6443  10.6443
    11.9051  11.9051  13.3843  13.3843

          k =-0.1414-0.4243 0.5657 (  3994 PWs)   bands (ev):

   -13.9854 -13.9854 -13.9509 -13.9509 -13.9284 -13.9284 -13.8862 -13.8862
   -12.9858 -12.9857 -12.9552 -12.9552 -12.9098 -12.9098 -12.8549 -12.8549
   -12.7927 -12.7927 -12.7550 -12.7550   0.0425   0.0425   1.7684   1.7684
     5.2912   5.2912   6.2587   6.2587   9.7225   9.7225  11.2665  11.2665
    12.2908  12.2908  13.1932  13.1932

          k =-0.0707-0.3536 0.4950 (  3988 PWs)   bands (ev):

   -13.9859 -13.9859 -13.9498 -13.9497 -13.9297 -13.9297 -13.8857 -13.8857
   -12.9870 -12.9870 -12.9552 -12.9552 -12.9091 -12.9091 -12.8537 -12.8537
   -12.7930 -12.7930 -12.7556 -12.7556  -0.0766  -0.0766   1.9243   1.9243
     5.2258   5.2258   6.4118   6.4118   9.8137   9.8137  11.2670  11.2670
    12.3795  12.3795  13.1598  13.1599

          k = 0.0000-0.2828 0.4243 (  3965 PWs)   bands (ev):

   -13.9853 -13.9853 -13.9552 -13.9552 -13.9239 -13.9239 -13.8874 -13.8874
   -12.9940 -12.9940 -12.9529 -12.9529 -12.9092 -12.9092 -12.8447 -12.8447
   -12.7940 -12.7940 -12.7599 -12.7599  -0.5182  -0.5182   2.5464   2.5464
     5.4565   5.4565   6.6988   6.6988   9.8731   9.8731  10.8995  10.8995
    11.8138  11.8138  12.8413  12.8413

          k =-0.1414-0.5657 0.7071 (  3994 PWs)   bands (ev):

   -13.9805 -13.9805 -13.9626 -13.9626 -13.9156 -13.9156 -13.8924 -13.8924
   -12.9855 -12.9855 -12.9573 -12.9573 -12.9054 -12.9054 -12.8592 -12.8592
   -12.7875 -12.7875 -12.7582 -12.7582  -0.0347  -0.0347   1.9036   1.9036
     5.7230   5.7230   5.9754   5.9754   9.3355   9.3355   9.7557   9.7557
    13.0619  13.0619  14.3424  14.3424

          k =-0.0707-0.4950 0.6364 (  3988 PWs)   bands (ev):

   -13.9828 -13.9828 -13.9570 -13.9570 -13.9222 -13.9222 -13.8886 -13.8886
   -12.9851 -12.9851 -12.9541 -12.9541 -12.9000 -12.9000 -12.8710 -12.8710
   -12.7894 -12.7894 -12.7530 -12.7530   0.4160   0.4160   1.3764   1.3764
     5.3326   5.3326   5.9112   5.9112   9.5610   9.5610  10.6008  10.6008
    12.7830  12.7830  13.8658  13.8658

          k =-0.0000-0.4243 0.5657 (  3994 PWs)   bands (ev):

   -13.9848 -13.9848 -13.9516 -13.9516 -13.9282 -13.9282 -13.8859 -13.8859
   -12.9865 -12.9865 -12.9520 -12.9520 -12.9017 -12.9017 -12.8693 -12.8693
   -12.7921 -12.7921 -12.7512 -12.7512   0.3687   0.3687   1.4354   1.4354
     5.0917   5.0917   6.0886   6.0886   9.7067   9.7067  11.8677  11.8677
    12.5390  12.5390  12.6951  12.6951

          k =-0.7071 0.1414 0.0000 (  3996 PWs)   bands (ev):

   -13.9796 -13.9795 -13.9627 -13.9627 -13.9154 -13.9154 -13.8928 -13.8928
   -12.9815 -12.9815 -12.9592 -12.9592 -12.8904 -12.8904 -12.8811 -12.8811
   -12.7832 -12.7832 -12.7568 -12.7568   0.8707   0.8708   0.8748   0.8749
     5.6629   5.6629   5.7577   5.7577   9.3713   9.3713   9.4855   9.4855
    14.1049  14.1050  14.3418  14.3418

          k =-0.1414-0.4243 0.7071 (  3993 PWs)   bands (ev):

   -13.9845 -13.9845 -13.9537 -13.9537 -13.9259 -13.9259 -13.8867 -13.8867
   -12.9871 -12.9871 -12.9527 -12.9527 -12.9050 -12.9050 -12.8632 -12.8631
   -12.7927 -12.7927 -12.7525 -12.7525   0.1349   0.1349   1.7108   1.7108
     5.2838   5.2838   5.9512   5.9512  10.5245  10.5245  10.7531  10.7531
    11.6607  11.6608  13.6262  13.6262

          k =-0.0707-0.3536 0.6364 (  3986 PWs)   bands (ev):

   -13.9847 -13.9847 -13.9518 -13.9518 -13.9281 -13.9281 -13.8858 -13.8858
   -12.9871 -12.9871 -12.9501 -12.9501 -12.9014 -12.9014 -12.8710 -12.8710
   -12.7932 -12.7932 -12.7499 -12.7499   0.4418   0.4418   1.3659   1.3659
     5.1972   5.1972   5.7961   5.7961  10.5992  10.5992  11.2204  11.2204
    12.1582  12.1582  12.4648  12.4648

          k =-0.7071 0.2828 0.0000 (  3994 PWs)   bands (ev):

   -13.9837 -13.9837 -13.9545 -13.9545 -13.9254 -13.9254 -13.8868 -13.8868
   -12.9869 -12.9869 -12.9497 -12.9497 -12.8942 -12.8942 -12.8803 -12.8803
   -12.7920 -12.7920 -12.7493 -12.7493   0.8917   0.8918   0.8987   0.8989
     5.3858   5.3858   5.5125   5.5125  10.5804  10.5804  10.7710  10.7710
    12.4329  12.4329  12.5962  12.5962

     the Fermi energy is     7.9826 ev

!    total energy              =    -241.38059731 Ry
     Harris-Foulkes estimate   =    -241.38059733 Ry
     estimated scf accuracy    <       0.00000023 Ry

     The total energy is the sum of the following terms:

     one-electron contribution =    -111.19511772 Ry
     hartree contribution      =      65.98891649 Ry
     xc contribution           =     -29.39458285 Ry
     ewald contribution        =    -166.77966197 Ry
     smearing contrib. (-TS)   =      -0.00015127 Ry

     convergence has been achieved in   5 iterations

     Writing output data file pwscf.save
 
     init_run     :     32.48s CPU     61.44s WALL (       1 calls)
     electrons    :    797.57s CPU   1560.04s WALL (       1 calls)

     Called by init_run:
     wfcinit      :     30.64s CPU     59.02s WALL (       1 calls)
     potinit      :      1.37s CPU      1.48s WALL (       1 calls)

     Called by electrons:
     c_bands      :    711.80s CPU   1393.51s WALL (       6 calls)
     sum_band     :     82.58s CPU    160.63s WALL (       6 calls)
     v_of_rho     :      1.87s CPU      3.32s WALL (       6 calls)
     mix_rho      :      0.73s CPU      1.46s WALL (       6 calls)

     Called by c_bands:
     init_us_2    :      0.09s CPU      0.11s WALL (     611 calls)
     cegterg      :    702.99s CPU   1375.95s WALL (     282 calls)

     Called by sum_band:

     Called by *egterg:
     h_psi        :    626.57s CPU   1223.10s WALL (    1299 calls)
     g_psi        :      0.08s CPU      0.13s WALL (     970 calls)
     cdiaghg      :     21.62s CPU     43.93s WALL (    1205 calls)

     Called by h_psi:
     add_vuspsi   :      0.88s CPU      1.37s WALL (    1299 calls)

     General routines
     calbec       :     32.72s CPU     64.41s WALL (    1299 calls)
     fft          :      3.05s CPU      5.08s WALL (     103 calls)
     fftw         :    671.68s CPU   1311.86s WALL (  159396 calls)
     davcio       :      0.01s CPU      0.12s WALL (      47 calls)
 
     Parallel routines
     fft_scatter  :    664.78s CPU   1303.05s WALL (  159499 calls)
 
     PWSCF        : 13m59.02s CPU    27m18.56s WALL

 
   This run was terminated on:  14:30:53  18Feb2020            

=------------------------------------------------------------------------------=
   JOB DONE.
=------------------------------------------------------------------------------=
