
     Program PWSCF v.5.4.0 starts on 21Feb2020 at  0:52:48 

     This program is part of the open-source Quantum ESPRESSO suite
     for quantum simulation of materials; please cite
         "P. Giannozzi et al., J. Phys.:Condens. Matter 21 395502 (2009);
          URL http://www.quantum-espresso.org", 
     in publications or presentations arising from this work. More details at
     http://www.quantum-espresso.org/quote

     Parallel version (MPI & OpenMP), running on      16 processor cores
     Number of MPI processes:                16
     Threads/MPI process:                     1
     R & G space division:  proc/nbgrp/npool/nimage =      16
     Waiting for input...
     Reading input from standard input
Warning: card &IONS ignored
Warning: card / ignored
Warning: card &CELL ignored
Warning: card / ignored

     Current dimensions of program PWSCF are:
     Max number of different atomic species (ntypx) = 10
     Max number of k-points (npk) =  40000
     Max angular momentum in pseudopotentials (lmaxx) =  3

     Subspace diagonalization in iterative solution of the eigenvalue problem:
     a serial algorithm will be used

 
     Parallelization info
     --------------------
     sticks:   dense  smooth     PW     G-vecs:    dense   smooth      PW
     Min          80      80     23                 1931     1931     312
     Max          81      81     24                 1936     1936     316
     Sum        1285    1285    379                30923    30923    5029
 

     Title: 
     Sn                                                                         


     bravais-lattice index     =            0
     lattice parameter (alat)  =       8.8993  a.u.
     unit-cell volume          =     498.3785 (a.u.)^3
     number of atoms/cell      =            2
     number of atomic types    =            1
     number of electrons       =        28.00
     number of Kohn-Sham states=           18
     kinetic-energy cutoff     =      60.0000  Ry
     charge density cutoff     =     240.0000  Ry
     convergence threshold     =      1.0E-06
     mixing beta               =       0.7000
     number of iterations used =            8  plain     mixing
     Exchange-correlation      = PBE ( 1  4  3  4 0 0)

     celldm(1)=   8.899346  celldm(2)=   0.000000  celldm(3)=   0.000000
     celldm(4)=   0.000000  celldm(5)=   0.000000  celldm(6)=   0.000000

     crystal axes: (cart. coord. in units of alat)
               a(1) = (   0.000000   0.707107   0.707107 )  
               a(2) = (   0.707107   0.000000   0.707107 )  
               a(3) = (   0.707107   0.707107   0.000000 )  

     reciprocal axes: (cart. coord. in units 2 pi/alat)
               b(1) = ( -0.707107  0.707107  0.707107 )  
               b(2) = (  0.707107 -0.707107  0.707107 )  
               b(3) = (  0.707107  0.707107 -0.707107 )  


     PseudoPot. # 1 for Sn read from file:
     ../PseudopotentialDatabase/Sn_ONCV_PBE-1.0.upf
     MD5 check sum: 4ecdb67ea6112684f1b2ae1cab9d4ca6
     Pseudo is Norm-conserving, Zval = 14.0
     Generated using ONCVPSP code by D. R. Hamann
     Using radial grid of  602 points,  6 beta functions with: 
                l(1) =   0
                l(2) =   0
                l(3) =   1
                l(4) =   1
                l(5) =   2
                l(6) =   2

     atomic species   valence    mass     pseudopotential
        Sn            14.00   118.71000     Sn( 1.00)

     24 Sym. Ops. (no inversion) found
          (note: 24 additional sym.ops. were found but ignored
           their fractional translations are incommensurate with FFT grid)

                                    s                        frac. trans.

      isym =  1     identity                                     

 cryst.   s( 1) = (     1          0          0      )
                  (     0          1          0      )
                  (     0          0          1      )

 cart.    s( 1) = (  1.0000000  0.0000000  0.0000000 )
                  (  0.0000000  1.0000000  0.0000000 )
                  (  0.0000000  0.0000000  1.0000000 )


      isym =  2     180 deg rotation - cart. axis [0,0,1]        

 cryst.   s( 2) = (     0          1         -1      )
                  (     1          0         -1      )
                  (     0          0         -1      )

 cart.    s( 2) = ( -1.0000000  0.0000000  0.0000000 )
                  (  0.0000000 -1.0000000  0.0000000 )
                  (  0.0000000  0.0000000  1.0000000 )


      isym =  3     180 deg rotation - cart. axis [0,1,0]        

 cryst.   s( 3) = (     0         -1          1      )
                  (     0         -1          0      )
                  (     1         -1          0      )

 cart.    s( 3) = ( -1.0000000  0.0000000  0.0000000 )
                  (  0.0000000  1.0000000  0.0000000 )
                  (  0.0000000  0.0000000 -1.0000000 )


      isym =  4     180 deg rotation - cart. axis [1,0,0]        

 cryst.   s( 4) = (    -1          0          0      )
                  (    -1          0          1      )
                  (    -1          1          0      )

 cart.    s( 4) = (  1.0000000  0.0000000  0.0000000 )
                  (  0.0000000 -1.0000000  0.0000000 )
                  (  0.0000000  0.0000000 -1.0000000 )


      isym =  5     120 deg rotation - cart. axis [-1,-1,-1]     

 cryst.   s( 5) = (     0          0          1      )
                  (     1          0          0      )
                  (     0          1          0      )

 cart.    s( 5) = (  0.0000000  1.0000000  0.0000000 )
                  (  0.0000000  0.0000000  1.0000000 )
                  (  1.0000000  0.0000000  0.0000000 )


      isym =  6     120 deg rotation - cart. axis [-1,1,1]       

 cryst.   s( 6) = (     1         -1          0      )
                  (     0         -1          1      )
                  (     0         -1          0      )

 cart.    s( 6) = (  0.0000000 -1.0000000  0.0000000 )
                  (  0.0000000  0.0000000  1.0000000 )
                  ( -1.0000000  0.0000000  0.0000000 )


      isym =  7     120 deg rotation - cart. axis [1,1,-1]       

 cryst.   s( 7) = (    -1          1          0      )
                  (    -1          0          0      )
                  (    -1          0          1      )

 cart.    s( 7) = (  0.0000000  1.0000000  0.0000000 )
                  (  0.0000000  0.0000000 -1.0000000 )
                  ( -1.0000000  0.0000000  0.0000000 )


      isym =  8     120 deg rotation - cart. axis [1,-1,1]       

 cryst.   s( 8) = (     0          0         -1      )
                  (     0          1         -1      )
                  (     1          0         -1      )

 cart.    s( 8) = (  0.0000000 -1.0000000  0.0000000 )
                  (  0.0000000  0.0000000 -1.0000000 )
                  (  1.0000000  0.0000000  0.0000000 )


      isym =  9     120 deg rotation - cart. axis [1,1,1]        

 cryst.   s( 9) = (     0          1          0      )
                  (     0          0          1      )
                  (     1          0          0      )

 cart.    s( 9) = (  0.0000000  0.0000000  1.0000000 )
                  (  1.0000000  0.0000000  0.0000000 )
                  (  0.0000000  1.0000000  0.0000000 )


      isym = 10     120 deg rotation - cart. axis [-1,1,-1]      

 cryst.   s(10) = (    -1          0          1      )
                  (    -1          1          0      )
                  (    -1          0          0      )

 cart.    s(10) = (  0.0000000  0.0000000  1.0000000 )
                  ( -1.0000000  0.0000000  0.0000000 )
                  (  0.0000000 -1.0000000  0.0000000 )


      isym = 11     120 deg rotation - cart. axis [1,-1,-1]      

 cryst.   s(11) = (     1          0         -1      )
                  (     0          0         -1      )
                  (     0          1         -1      )

 cart.    s(11) = (  0.0000000  0.0000000 -1.0000000 )
                  ( -1.0000000  0.0000000  0.0000000 )
                  (  0.0000000  1.0000000  0.0000000 )


      isym = 12     120 deg rotation - cart. axis [-1,-1,1]      

 cryst.   s(12) = (     0         -1          0      )
                  (     1         -1          0      )
                  (     0         -1          1      )

 cart.    s(12) = (  0.0000000  0.0000000 -1.0000000 )
                  (  1.0000000  0.0000000  0.0000000 )
                  (  0.0000000 -1.0000000  0.0000000 )


      isym = 13     inv. 180 deg rotation - cart. axis [1,1,0]   

 cryst.   s(13) = (     1          0         -1      )
                  (     0          1         -1      )
                  (     0          0         -1      )

 cart.    s(13) = (  0.0000000 -1.0000000  0.0000000 )
                  ( -1.0000000  0.0000000  0.0000000 )
                  (  0.0000000  0.0000000  1.0000000 )


      isym = 14     inv. 180 deg rotation - cart. axis [1,-1,0]  

 cryst.   s(14) = (     0          1          0      )
                  (     1          0          0      )
                  (     0          0          1      )

 cart.    s(14) = (  0.0000000  1.0000000  0.0000000 )
                  (  1.0000000  0.0000000  0.0000000 )
                  (  0.0000000  0.0000000  1.0000000 )


      isym = 15     inv.  90 deg rotation - cart. axis [0,0,-1]  

 cryst.   s(15) = (     0         -1          0      )
                  (     0         -1          1      )
                  (     1         -1          0      )

 cart.    s(15) = (  0.0000000 -1.0000000  0.0000000 )
                  (  1.0000000  0.0000000  0.0000000 )
                  (  0.0000000  0.0000000 -1.0000000 )


      isym = 16     inv.  90 deg rotation - cart. axis [0,0,1]   

 cryst.   s(16) = (    -1          0          1      )
                  (    -1          0          0      )
                  (    -1          1          0      )

 cart.    s(16) = (  0.0000000  1.0000000  0.0000000 )
                  ( -1.0000000  0.0000000  0.0000000 )
                  (  0.0000000  0.0000000 -1.0000000 )


      isym = 17     inv. 180 deg rotation - cart. axis [1,0,1]   

 cryst.   s(17) = (     1         -1          0      )
                  (     0         -1          0      )
                  (     0         -1          1      )

 cart.    s(17) = (  0.0000000  0.0000000 -1.0000000 )
                  (  0.0000000  1.0000000  0.0000000 )
                  ( -1.0000000  0.0000000  0.0000000 )


      isym = 18     inv. 180 deg rotation - cart. axis [-1,0,1]  

 cryst.   s(18) = (     0          0          1      )
                  (     0          1          0      )
                  (     1          0          0      )

 cart.    s(18) = (  0.0000000  0.0000000  1.0000000 )
                  (  0.0000000  1.0000000  0.0000000 )
                  (  1.0000000  0.0000000  0.0000000 )


      isym = 19     inv.  90 deg rotation - cart. axis [0,1,0]   

 cryst.   s(19) = (     0          0         -1      )
                  (     1          0         -1      )
                  (     0          1         -1      )

 cart.    s(19) = (  0.0000000  0.0000000 -1.0000000 )
                  (  0.0000000 -1.0000000  0.0000000 )
                  (  1.0000000  0.0000000  0.0000000 )


      isym = 20     inv.  90 deg rotation - cart. axis [0,-1,0]  

 cryst.   s(20) = (    -1          1          0      )
                  (    -1          0          1      )
                  (    -1          0          0      )

 cart.    s(20) = (  0.0000000  0.0000000  1.0000000 )
                  (  0.0000000 -1.0000000  0.0000000 )
                  ( -1.0000000  0.0000000  0.0000000 )


      isym = 21     inv. 180 deg rotation - cart. axis [0,1,1]   

 cryst.   s(21) = (    -1          0          0      )
                  (    -1          1          0      )
                  (    -1          0          1      )

 cart.    s(21) = (  1.0000000  0.0000000  0.0000000 )
                  (  0.0000000  0.0000000 -1.0000000 )
                  (  0.0000000 -1.0000000  0.0000000 )


      isym = 22     inv. 180 deg rotation - cart. axis [0,1,-1]  

 cryst.   s(22) = (     1          0          0      )
                  (     0          0          1      )
                  (     0          1          0      )

 cart.    s(22) = (  1.0000000  0.0000000  0.0000000 )
                  (  0.0000000  0.0000000  1.0000000 )
                  (  0.0000000  1.0000000  0.0000000 )


      isym = 23     inv.  90 deg rotation - cart. axis [-1,0,0]  

 cryst.   s(23) = (     0          1         -1      )
                  (     0          0         -1      )
                  (     1          0         -1      )

 cart.    s(23) = ( -1.0000000  0.0000000  0.0000000 )
                  (  0.0000000  0.0000000 -1.0000000 )
                  (  0.0000000  1.0000000  0.0000000 )


      isym = 24     inv.  90 deg rotation - cart. axis [1,0,0]   

 cryst.   s(24) = (     0         -1          1      )
                  (     1         -1          0      )
                  (     0         -1          0      )

 cart.    s(24) = ( -1.0000000  0.0000000  0.0000000 )
                  (  0.0000000  0.0000000  1.0000000 )
                  (  0.0000000 -1.0000000  0.0000000 )


   Cartesian axes

     site n.     atom                  positions (alat units)
         1           Sn  tau(   1) = (   0.0000000   0.0000000   0.0000000  )
         2           Sn  tau(   2) = (   0.3535534   0.3535534   0.3535534  )

   Crystallographic axes

     site n.     atom                  positions (cryst. coord.)
         1           Sn  tau(   1) = (  0.0000000  0.0000000  0.0000000  )
         2           Sn  tau(   2) = (  0.2500000  0.2500000  0.2500000  )

     number of k points=   256  gaussian smearing, width (Ry)=  0.0100
                       cart. coord. in units 2pi/alat
        k(    1) = (   0.0000000   0.0000000   0.0000000), wk =   0.0002500
        k(    2) = (   0.0353553   0.0353553  -0.0353553), wk =   0.0020000
        k(    3) = (   0.0707107   0.0707107  -0.0707107), wk =   0.0020000
        k(    4) = (   0.1060660   0.1060660  -0.1060660), wk =   0.0020000
        k(    5) = (   0.1414214   0.1414214  -0.1414214), wk =   0.0020000
        k(    6) = (   0.1767767   0.1767767  -0.1767767), wk =   0.0020000
        k(    7) = (   0.2121320   0.2121320  -0.2121320), wk =   0.0020000
        k(    8) = (   0.2474874   0.2474874  -0.2474874), wk =   0.0020000
        k(    9) = (   0.2828427   0.2828427  -0.2828427), wk =   0.0020000
        k(   10) = (   0.3181981   0.3181981  -0.3181981), wk =   0.0020000
        k(   11) = (  -0.3535534  -0.3535534   0.3535534), wk =   0.0010000
        k(   12) = (   0.0707107   0.0000000   0.0000000), wk =   0.0015000
        k(   13) = (   0.1060660   0.0353553  -0.0353553), wk =   0.0060000
        k(   14) = (   0.1414214   0.0707107  -0.0707107), wk =   0.0060000
        k(   15) = (   0.1767767   0.1060660  -0.1060660), wk =   0.0060000
        k(   16) = (   0.2121320   0.1414214  -0.1414214), wk =   0.0060000
        k(   17) = (   0.2474874   0.1767767  -0.1767767), wk =   0.0060000
        k(   18) = (   0.2828427   0.2121320  -0.2121320), wk =   0.0060000
        k(   19) = (   0.3181981   0.2474874  -0.2474874), wk =   0.0060000
        k(   20) = (   0.3535534   0.2828427  -0.2828427), wk =   0.0060000
        k(   21) = (  -0.3181981  -0.3889087   0.3889087), wk =   0.0060000
        k(   22) = (  -0.2828427  -0.3535534   0.3535534), wk =   0.0060000
        k(   23) = (  -0.2474874  -0.3181981   0.3181981), wk =   0.0060000
        k(   24) = (  -0.2121320  -0.2828427   0.2828427), wk =   0.0060000
        k(   25) = (  -0.1767767  -0.2474874   0.2474874), wk =   0.0060000
        k(   26) = (  -0.1414214  -0.2121320   0.2121320), wk =   0.0060000
        k(   27) = (  -0.1060660  -0.1767767   0.1767767), wk =   0.0060000
        k(   28) = (  -0.0707107  -0.1414214   0.1414214), wk =   0.0060000
        k(   29) = (  -0.0353553  -0.1060660   0.1060660), wk =   0.0060000
        k(   30) = (  -0.0000000  -0.0707107   0.0707107), wk =   0.0030000
        k(   31) = (   0.1414214   0.0000000   0.0000000), wk =   0.0015000
        k(   32) = (   0.1767767   0.0353553  -0.0353553), wk =   0.0060000
        k(   33) = (   0.2121320   0.0707107  -0.0707107), wk =   0.0060000
        k(   34) = (   0.2474874   0.1060660  -0.1060660), wk =   0.0060000
        k(   35) = (   0.2828427   0.1414214  -0.1414214), wk =   0.0060000
        k(   36) = (   0.3181981   0.1767767  -0.1767767), wk =   0.0060000
        k(   37) = (   0.3535534   0.2121320  -0.2121320), wk =   0.0060000
        k(   38) = (   0.3889087   0.2474874  -0.2474874), wk =   0.0060000
        k(   39) = (  -0.2828427  -0.4242641   0.4242641), wk =   0.0060000
        k(   40) = (  -0.2474874  -0.3889087   0.3889087), wk =   0.0060000
        k(   41) = (  -0.2121320  -0.3535534   0.3535534), wk =   0.0060000
        k(   42) = (  -0.1767767  -0.3181981   0.3181981), wk =   0.0060000
        k(   43) = (  -0.1414214  -0.2828427   0.2828427), wk =   0.0060000
        k(   44) = (  -0.1060660  -0.2474874   0.2474874), wk =   0.0060000
        k(   45) = (  -0.0707107  -0.2121320   0.2121320), wk =   0.0060000
        k(   46) = (  -0.0353553  -0.1767767   0.1767767), wk =   0.0060000
        k(   47) = (   0.0000000  -0.1414214   0.1414214), wk =   0.0030000
        k(   48) = (   0.2121320   0.0000000   0.0000000), wk =   0.0015000
        k(   49) = (   0.2474874   0.0353553  -0.0353553), wk =   0.0060000
        k(   50) = (   0.2828427   0.0707107  -0.0707107), wk =   0.0060000
        k(   51) = (   0.3181981   0.1060660  -0.1060660), wk =   0.0060000
        k(   52) = (   0.3535534   0.1414214  -0.1414214), wk =   0.0060000
        k(   53) = (   0.3889087   0.1767767  -0.1767767), wk =   0.0060000
        k(   54) = (   0.4242641   0.2121320  -0.2121320), wk =   0.0060000
        k(   55) = (  -0.2474874  -0.4596194   0.4596194), wk =   0.0060000
        k(   56) = (  -0.2121320  -0.4242641   0.4242641), wk =   0.0060000
        k(   57) = (  -0.1767767  -0.3889087   0.3889087), wk =   0.0060000
        k(   58) = (  -0.1414214  -0.3535534   0.3535534), wk =   0.0060000
        k(   59) = (  -0.1060660  -0.3181981   0.3181981), wk =   0.0060000
        k(   60) = (  -0.0707107  -0.2828427   0.2828427), wk =   0.0060000
        k(   61) = (  -0.0353553  -0.2474874   0.2474874), wk =   0.0060000
        k(   62) = (  -0.0000000  -0.2121320   0.2121320), wk =   0.0030000
        k(   63) = (   0.2828427   0.0000000   0.0000000), wk =   0.0015000
        k(   64) = (   0.3181981   0.0353553  -0.0353553), wk =   0.0060000
        k(   65) = (   0.3535534   0.0707107  -0.0707107), wk =   0.0060000
        k(   66) = (   0.3889087   0.1060660  -0.1060660), wk =   0.0060000
        k(   67) = (   0.4242641   0.1414214  -0.1414214), wk =   0.0060000
        k(   68) = (   0.4596194   0.1767767  -0.1767767), wk =   0.0060000
        k(   69) = (  -0.2121320  -0.4949747   0.4949747), wk =   0.0060000
        k(   70) = (  -0.1767767  -0.4596194   0.4596194), wk =   0.0060000
        k(   71) = (  -0.1414214  -0.4242641   0.4242641), wk =   0.0060000
        k(   72) = (  -0.1060660  -0.3889087   0.3889087), wk =   0.0060000
        k(   73) = (  -0.0707107  -0.3535534   0.3535534), wk =   0.0060000
        k(   74) = (  -0.0353553  -0.3181981   0.3181981), wk =   0.0060000
        k(   75) = (   0.0000000  -0.2828427   0.2828427), wk =   0.0030000
        k(   76) = (   0.3535534   0.0000000   0.0000000), wk =   0.0015000
        k(   77) = (   0.3889087   0.0353553  -0.0353553), wk =   0.0060000
        k(   78) = (   0.4242641   0.0707107  -0.0707107), wk =   0.0060000
        k(   79) = (   0.4596194   0.1060660  -0.1060660), wk =   0.0060000
        k(   80) = (   0.4949747   0.1414214  -0.1414214), wk =   0.0060000
        k(   81) = (  -0.1767767  -0.5303301   0.5303301), wk =   0.0060000
        k(   82) = (  -0.1414214  -0.4949747   0.4949747), wk =   0.0060000
        k(   83) = (  -0.1060660  -0.4596194   0.4596194), wk =   0.0060000
        k(   84) = (  -0.0707107  -0.4242641   0.4242641), wk =   0.0060000
        k(   85) = (  -0.0353553  -0.3889087   0.3889087), wk =   0.0060000
        k(   86) = (   0.0000000  -0.3535534   0.3535534), wk =   0.0030000
        k(   87) = (   0.4242641   0.0000000   0.0000000), wk =   0.0015000
        k(   88) = (   0.4596194   0.0353553  -0.0353553), wk =   0.0060000
        k(   89) = (   0.4949747   0.0707107  -0.0707107), wk =   0.0060000
        k(   90) = (   0.5303301   0.1060660  -0.1060660), wk =   0.0060000
        k(   91) = (  -0.1414214  -0.5656854   0.5656854), wk =   0.0060000
        k(   92) = (  -0.1060660  -0.5303301   0.5303301), wk =   0.0060000
        k(   93) = (  -0.0707107  -0.4949747   0.4949747), wk =   0.0060000
        k(   94) = (  -0.0353553  -0.4596194   0.4596194), wk =   0.0060000
        k(   95) = (  -0.0000000  -0.4242641   0.4242641), wk =   0.0030000
        k(   96) = (   0.4949747   0.0000000   0.0000000), wk =   0.0015000
        k(   97) = (   0.5303301   0.0353553  -0.0353553), wk =   0.0060000
        k(   98) = (   0.5656854   0.0707107  -0.0707107), wk =   0.0060000
        k(   99) = (  -0.1060660  -0.6010408   0.6010408), wk =   0.0060000
        k(  100) = (  -0.0707107  -0.5656854   0.5656854), wk =   0.0060000
        k(  101) = (  -0.0353553  -0.5303301   0.5303301), wk =   0.0060000
        k(  102) = (   0.0000000  -0.4949747   0.4949747), wk =   0.0030000
        k(  103) = (   0.5656854   0.0000000   0.0000000), wk =   0.0015000
        k(  104) = (   0.6010408   0.0353553  -0.0353553), wk =   0.0060000
        k(  105) = (  -0.0707107  -0.6363961   0.6363961), wk =   0.0060000
        k(  106) = (  -0.0353553  -0.6010408   0.6010408), wk =   0.0060000
        k(  107) = (   0.0000000  -0.5656854   0.5656854), wk =   0.0030000
        k(  108) = (   0.6363961   0.0000000   0.0000000), wk =   0.0015000
        k(  109) = (  -0.0353553  -0.6717514   0.6717514), wk =   0.0060000
        k(  110) = (   0.0000000  -0.6363961   0.6363961), wk =   0.0030000
        k(  111) = (  -0.7071068   0.0000000   0.0000000), wk =   0.0007500
        k(  112) = (   0.1414214   0.0707107   0.0000000), wk =   0.0060000
        k(  113) = (   0.1767767   0.1060660  -0.0353553), wk =   0.0120000
        k(  114) = (   0.2121320   0.1414214  -0.0707107), wk =   0.0120000
        k(  115) = (   0.2474874   0.1767767  -0.1060660), wk =   0.0120000
        k(  116) = (   0.2828427   0.2121320  -0.1414214), wk =   0.0120000
        k(  117) = (   0.3181981   0.2474874  -0.1767767), wk =   0.0120000
        k(  118) = (   0.3535534   0.2828427  -0.2121320), wk =   0.0120000
        k(  119) = (  -0.3181981  -0.3889087   0.4596194), wk =   0.0120000
        k(  120) = (  -0.2828427  -0.3535534   0.4242641), wk =   0.0060000
        k(  121) = (   0.2121320   0.0707107  -0.0000000), wk =   0.0060000
        k(  122) = (   0.2474874   0.1060660  -0.0353553), wk =   0.0120000
        k(  123) = (   0.2828427   0.1414214  -0.0707107), wk =   0.0120000
        k(  124) = (   0.3181981   0.1767767  -0.1060660), wk =   0.0120000
        k(  125) = (   0.3535534   0.2121320  -0.1414214), wk =   0.0120000
        k(  126) = (   0.3889087   0.2474874  -0.1767767), wk =   0.0120000
        k(  127) = (  -0.2828427  -0.4242641   0.4949747), wk =   0.0120000
        k(  128) = (  -0.2474874  -0.3889087   0.4596194), wk =   0.0120000
        k(  129) = (  -0.2121320  -0.3535534   0.4242641), wk =   0.0120000
        k(  130) = (  -0.1767767  -0.3181981   0.3889087), wk =   0.0120000
        k(  131) = (  -0.1414214  -0.2828427   0.3535534), wk =   0.0120000
        k(  132) = (  -0.1060660  -0.2474874   0.3181981), wk =   0.0120000
        k(  133) = (  -0.0707107  -0.2121320   0.2828427), wk =   0.0120000
        k(  134) = (  -0.0353553  -0.1767767   0.2474874), wk =   0.0120000
        k(  135) = (   0.0000000  -0.1414214   0.2121320), wk =   0.0060000
        k(  136) = (   0.2828427   0.0707107   0.0000000), wk =   0.0060000
        k(  137) = (   0.3181981   0.1060660  -0.0353553), wk =   0.0120000
        k(  138) = (   0.3535534   0.1414214  -0.0707107), wk =   0.0120000
        k(  139) = (   0.3889087   0.1767767  -0.1060660), wk =   0.0120000
        k(  140) = (   0.4242641   0.2121320  -0.1414214), wk =   0.0120000
        k(  141) = (  -0.2474874  -0.4596194   0.5303301), wk =   0.0120000
        k(  142) = (  -0.2121320  -0.4242641   0.4949747), wk =   0.0120000
        k(  143) = (  -0.1767767  -0.3889087   0.4596194), wk =   0.0120000
        k(  144) = (  -0.1414214  -0.3535534   0.4242641), wk =   0.0120000
        k(  145) = (  -0.1060660  -0.3181981   0.3889087), wk =   0.0120000
        k(  146) = (  -0.0707107  -0.2828427   0.3535534), wk =   0.0120000
        k(  147) = (  -0.0353553  -0.2474874   0.3181981), wk =   0.0120000
        k(  148) = (  -0.0000000  -0.2121320   0.2828427), wk =   0.0060000
        k(  149) = (   0.3535534   0.0707107   0.0000000), wk =   0.0060000
        k(  150) = (   0.3889087   0.1060660  -0.0353553), wk =   0.0120000
        k(  151) = (   0.4242641   0.1414214  -0.0707107), wk =   0.0120000
        k(  152) = (   0.4596194   0.1767767  -0.1060660), wk =   0.0120000
        k(  153) = (  -0.2121320  -0.4949747   0.5656854), wk =   0.0120000
        k(  154) = (  -0.1767767  -0.4596194   0.5303301), wk =   0.0120000
        k(  155) = (  -0.1414214  -0.4242641   0.4949747), wk =   0.0120000
        k(  156) = (  -0.1060660  -0.3889087   0.4596194), wk =   0.0120000
        k(  157) = (  -0.0707107  -0.3535534   0.4242641), wk =   0.0120000
        k(  158) = (  -0.0353553  -0.3181981   0.3889087), wk =   0.0120000
        k(  159) = (   0.0000000  -0.2828427   0.3535534), wk =   0.0060000
        k(  160) = (   0.4242641   0.0707107   0.0000000), wk =   0.0060000
        k(  161) = (   0.4596194   0.1060660  -0.0353553), wk =   0.0120000
        k(  162) = (   0.4949747   0.1414214  -0.0707107), wk =   0.0120000
        k(  163) = (  -0.1767767  -0.5303301   0.6010408), wk =   0.0120000
        k(  164) = (  -0.1414214  -0.4949747   0.5656854), wk =   0.0120000
        k(  165) = (  -0.1060660  -0.4596194   0.5303301), wk =   0.0120000
        k(  166) = (  -0.0707107  -0.4242641   0.4949747), wk =   0.0120000
        k(  167) = (  -0.0353553  -0.3889087   0.4596194), wk =   0.0120000
        k(  168) = (  -0.0000000  -0.3535534   0.4242641), wk =   0.0060000
        k(  169) = (   0.4949747   0.0707107  -0.0000000), wk =   0.0060000
        k(  170) = (   0.5303301   0.1060660  -0.0353553), wk =   0.0120000
        k(  171) = (  -0.1414214  -0.5656854   0.6363961), wk =   0.0120000
        k(  172) = (  -0.1060660  -0.5303301   0.6010408), wk =   0.0120000
        k(  173) = (  -0.0707107  -0.4949747   0.5656854), wk =   0.0120000
        k(  174) = (  -0.0353553  -0.4596194   0.5303301), wk =   0.0120000
        k(  175) = (  -0.0000000  -0.4242641   0.4949747), wk =   0.0060000
        k(  176) = (   0.5656854   0.0707107   0.0000000), wk =   0.0060000
        k(  177) = (  -0.1060660  -0.6010408   0.6717514), wk =   0.0120000
        k(  178) = (  -0.0707107  -0.5656854   0.6363961), wk =   0.0120000
        k(  179) = (  -0.0353553  -0.5303301   0.6010408), wk =   0.0120000
        k(  180) = (   0.0000000  -0.4949747   0.5656854), wk =   0.0060000
        k(  181) = (  -0.0707107  -0.6363961   0.7071068), wk =   0.0060000
        k(  182) = (  -0.0353553  -0.6010408   0.6717514), wk =   0.0120000
        k(  183) = (   0.0000000  -0.5656854   0.6363961), wk =   0.0060000
        k(  184) = (  -0.7071068   0.0707107  -0.0000000), wk =   0.0030000
        k(  185) = (   0.2828427   0.1414214   0.0000000), wk =   0.0060000
        k(  186) = (   0.3181981   0.1767767  -0.0353553), wk =   0.0120000
        k(  187) = (   0.3535534   0.2121320  -0.0707107), wk =   0.0120000
        k(  188) = (   0.3889087   0.2474874  -0.1060660), wk =   0.0120000
        k(  189) = (  -0.2828427  -0.4242641   0.5656854), wk =   0.0120000
        k(  190) = (  -0.2474874  -0.3889087   0.5303301), wk =   0.0120000
        k(  191) = (  -0.2121320  -0.3535534   0.4949747), wk =   0.0060000
        k(  192) = (   0.3535534   0.1414214   0.0000000), wk =   0.0060000
        k(  193) = (   0.3889087   0.1767767  -0.0353553), wk =   0.0120000
        k(  194) = (   0.4242641   0.2121320  -0.0707107), wk =   0.0120000
        k(  195) = (  -0.2474874  -0.4596194   0.6010408), wk =   0.0120000
        k(  196) = (  -0.2121320  -0.4242641   0.5656854), wk =   0.0120000
        k(  197) = (  -0.1767767  -0.3889087   0.5303301), wk =   0.0120000
        k(  198) = (  -0.1414214  -0.3535534   0.4949747), wk =   0.0120000
        k(  199) = (  -0.1060660  -0.3181981   0.4596194), wk =   0.0120000
        k(  200) = (  -0.0707107  -0.2828427   0.4242641), wk =   0.0120000
        k(  201) = (  -0.0353553  -0.2474874   0.3889087), wk =   0.0120000
        k(  202) = (  -0.0000000  -0.2121320   0.3535534), wk =   0.0060000
        k(  203) = (   0.4242641   0.1414214  -0.0000000), wk =   0.0060000
        k(  204) = (   0.4596194   0.1767767  -0.0353553), wk =   0.0120000
        k(  205) = (  -0.2121320  -0.4949747   0.6363961), wk =   0.0120000
        k(  206) = (  -0.1767767  -0.4596194   0.6010408), wk =   0.0120000
        k(  207) = (  -0.1414214  -0.4242641   0.5656854), wk =   0.0120000
        k(  208) = (  -0.1060660  -0.3889087   0.5303301), wk =   0.0120000
        k(  209) = (  -0.0707107  -0.3535534   0.4949747), wk =   0.0120000
        k(  210) = (  -0.0353553  -0.3181981   0.4596194), wk =   0.0120000
        k(  211) = (   0.0000000  -0.2828427   0.4242641), wk =   0.0060000
        k(  212) = (   0.4949747   0.1414214   0.0000000), wk =   0.0060000
        k(  213) = (  -0.1767767  -0.5303301   0.6717514), wk =   0.0120000
        k(  214) = (  -0.1414214  -0.4949747   0.6363961), wk =   0.0120000
        k(  215) = (  -0.1060660  -0.4596194   0.6010408), wk =   0.0120000
        k(  216) = (  -0.0707107  -0.4242641   0.5656854), wk =   0.0120000
        k(  217) = (  -0.0353553  -0.3889087   0.5303301), wk =   0.0120000
        k(  218) = (  -0.0000000  -0.3535534   0.4949747), wk =   0.0060000
        k(  219) = (  -0.1414214  -0.5656854   0.7071068), wk =   0.0060000
        k(  220) = (  -0.1060660  -0.5303301   0.6717514), wk =   0.0120000
        k(  221) = (  -0.0707107  -0.4949747   0.6363961), wk =   0.0120000
        k(  222) = (  -0.0353553  -0.4596194   0.6010408), wk =   0.0120000
        k(  223) = (  -0.0000000  -0.4242641   0.5656854), wk =   0.0060000
        k(  224) = (  -0.0707107  -0.5656854   0.7071068), wk =   0.0060000
        k(  225) = (  -0.0353553  -0.5303301   0.6717514), wk =   0.0120000
        k(  226) = (   0.0000000  -0.4949747   0.6363961), wk =   0.0060000
        k(  227) = (  -0.7071068   0.1414214   0.0000000), wk =   0.0030000
        k(  228) = (   0.4242641   0.2121320  -0.0000000), wk =   0.0060000
        k(  229) = (  -0.2474874  -0.4596194   0.6717514), wk =   0.0120000
        k(  230) = (  -0.2121320  -0.4242641   0.6363961), wk =   0.0120000
        k(  231) = (  -0.1767767  -0.3889087   0.6010408), wk =   0.0120000
        k(  232) = (  -0.1414214  -0.3535534   0.5656854), wk =   0.0060000
        k(  233) = (  -0.2121320  -0.4949747   0.7071068), wk =   0.0060000
        k(  234) = (  -0.1767767  -0.4596194   0.6717514), wk =   0.0120000
        k(  235) = (  -0.1414214  -0.4242641   0.6363961), wk =   0.0120000
        k(  236) = (  -0.1060660  -0.3889087   0.6010408), wk =   0.0120000
        k(  237) = (  -0.0707107  -0.3535534   0.5656854), wk =   0.0120000
        k(  238) = (  -0.0353553  -0.3181981   0.5303301), wk =   0.0120000
        k(  239) = (   0.0000000  -0.2828427   0.4949747), wk =   0.0060000
        k(  240) = (  -0.1414214  -0.4949747   0.7071068), wk =   0.0060000
        k(  241) = (  -0.1060660  -0.4596194   0.6717514), wk =   0.0120000
        k(  242) = (  -0.0707107  -0.4242641   0.6363961), wk =   0.0120000
        k(  243) = (  -0.0353553  -0.3889087   0.6010408), wk =   0.0120000
        k(  244) = (   0.0000000  -0.3535534   0.5656854), wk =   0.0060000
        k(  245) = (  -0.0707107  -0.4949747   0.7071068), wk =   0.0060000
        k(  246) = (  -0.0353553  -0.4596194   0.6717514), wk =   0.0120000
        k(  247) = (  -0.0000000  -0.4242641   0.6363961), wk =   0.0060000
        k(  248) = (  -0.7071068   0.2121320   0.0000000), wk =   0.0030000
        k(  249) = (  -0.1414214  -0.4242641   0.7071068), wk =   0.0060000
        k(  250) = (  -0.1060660  -0.3889087   0.6717514), wk =   0.0120000
        k(  251) = (  -0.0707107  -0.3535534   0.6363961), wk =   0.0060000
        k(  252) = (  -0.0707107  -0.4242641   0.7071068), wk =   0.0060000
        k(  253) = (  -0.0353553  -0.3889087   0.6717514), wk =   0.0120000
        k(  254) = (   0.0000000  -0.3535534   0.6363961), wk =   0.0060000
        k(  255) = (  -0.7071068   0.2828427   0.0000000), wk =   0.0030000
        k(  256) = (  -0.7071068   0.3535534   0.0000000), wk =   0.0015000

                       cryst. coord.
        k(    1) = (   0.0000000   0.0000000   0.0000000), wk =   0.0002500
        k(    2) = (   0.0000000   0.0000000   0.0500000), wk =   0.0020000
        k(    3) = (   0.0000000   0.0000000   0.1000000), wk =   0.0020000
        k(    4) = (   0.0000000   0.0000000   0.1500000), wk =   0.0020000
        k(    5) = (   0.0000000   0.0000000   0.2000000), wk =   0.0020000
        k(    6) = (   0.0000000   0.0000000   0.2500000), wk =   0.0020000
        k(    7) = (   0.0000000   0.0000000   0.3000000), wk =   0.0020000
        k(    8) = (   0.0000000   0.0000000   0.3500000), wk =   0.0020000
        k(    9) = (   0.0000000   0.0000000   0.4000000), wk =   0.0020000
        k(   10) = (   0.0000000   0.0000000   0.4500000), wk =   0.0020000
        k(   11) = (   0.0000000   0.0000000  -0.5000000), wk =   0.0010000
        k(   12) = (   0.0000000   0.0500000   0.0500000), wk =   0.0015000
        k(   13) = (   0.0000000   0.0500000   0.1000000), wk =   0.0060000
        k(   14) = (   0.0000000   0.0500000   0.1500000), wk =   0.0060000
        k(   15) = (   0.0000000   0.0500000   0.2000000), wk =   0.0060000
        k(   16) = (   0.0000000   0.0500000   0.2500000), wk =   0.0060000
        k(   17) = (   0.0000000   0.0500000   0.3000000), wk =   0.0060000
        k(   18) = (   0.0000000   0.0500000   0.3500000), wk =   0.0060000
        k(   19) = (   0.0000000   0.0500000   0.4000000), wk =   0.0060000
        k(   20) = (   0.0000000   0.0500000   0.4500000), wk =   0.0060000
        k(   21) = (   0.0000000   0.0500000  -0.5000000), wk =   0.0060000
        k(   22) = (   0.0000000   0.0500000  -0.4500000), wk =   0.0060000
        k(   23) = (   0.0000000   0.0500000  -0.4000000), wk =   0.0060000
        k(   24) = (   0.0000000   0.0500000  -0.3500000), wk =   0.0060000
        k(   25) = (   0.0000000   0.0500000  -0.3000000), wk =   0.0060000
        k(   26) = (   0.0000000   0.0500000  -0.2500000), wk =   0.0060000
        k(   27) = (   0.0000000   0.0500000  -0.2000000), wk =   0.0060000
        k(   28) = (   0.0000000   0.0500000  -0.1500000), wk =   0.0060000
        k(   29) = (   0.0000000   0.0500000  -0.1000000), wk =   0.0060000
        k(   30) = (   0.0000000   0.0500000  -0.0500000), wk =   0.0030000
        k(   31) = (   0.0000000   0.1000000   0.1000000), wk =   0.0015000
        k(   32) = (   0.0000000   0.1000000   0.1500000), wk =   0.0060000
        k(   33) = (   0.0000000   0.1000000   0.2000000), wk =   0.0060000
        k(   34) = (   0.0000000   0.1000000   0.2500000), wk =   0.0060000
        k(   35) = (   0.0000000   0.1000000   0.3000000), wk =   0.0060000
        k(   36) = (   0.0000000   0.1000000   0.3500000), wk =   0.0060000
        k(   37) = (   0.0000000   0.1000000   0.4000000), wk =   0.0060000
        k(   38) = (   0.0000000   0.1000000   0.4500000), wk =   0.0060000
        k(   39) = (   0.0000000   0.1000000  -0.5000000), wk =   0.0060000
        k(   40) = (   0.0000000   0.1000000  -0.4500000), wk =   0.0060000
        k(   41) = (   0.0000000   0.1000000  -0.4000000), wk =   0.0060000
        k(   42) = (   0.0000000   0.1000000  -0.3500000), wk =   0.0060000
        k(   43) = (   0.0000000   0.1000000  -0.3000000), wk =   0.0060000
        k(   44) = (   0.0000000   0.1000000  -0.2500000), wk =   0.0060000
        k(   45) = (   0.0000000   0.1000000  -0.2000000), wk =   0.0060000
        k(   46) = (   0.0000000   0.1000000  -0.1500000), wk =   0.0060000
        k(   47) = (   0.0000000   0.1000000  -0.1000000), wk =   0.0030000
        k(   48) = (   0.0000000   0.1500000   0.1500000), wk =   0.0015000
        k(   49) = (   0.0000000   0.1500000   0.2000000), wk =   0.0060000
        k(   50) = (   0.0000000   0.1500000   0.2500000), wk =   0.0060000
        k(   51) = (   0.0000000   0.1500000   0.3000000), wk =   0.0060000
        k(   52) = (   0.0000000   0.1500000   0.3500000), wk =   0.0060000
        k(   53) = (   0.0000000   0.1500000   0.4000000), wk =   0.0060000
        k(   54) = (   0.0000000   0.1500000   0.4500000), wk =   0.0060000
        k(   55) = (   0.0000000   0.1500000  -0.5000000), wk =   0.0060000
        k(   56) = (   0.0000000   0.1500000  -0.4500000), wk =   0.0060000
        k(   57) = (   0.0000000   0.1500000  -0.4000000), wk =   0.0060000
        k(   58) = (   0.0000000   0.1500000  -0.3500000), wk =   0.0060000
        k(   59) = (   0.0000000   0.1500000  -0.3000000), wk =   0.0060000
        k(   60) = (   0.0000000   0.1500000  -0.2500000), wk =   0.0060000
        k(   61) = (   0.0000000   0.1500000  -0.2000000), wk =   0.0060000
        k(   62) = (   0.0000000   0.1500000  -0.1500000), wk =   0.0030000
        k(   63) = (   0.0000000   0.2000000   0.2000000), wk =   0.0015000
        k(   64) = (   0.0000000   0.2000000   0.2500000), wk =   0.0060000
        k(   65) = (   0.0000000   0.2000000   0.3000000), wk =   0.0060000
        k(   66) = (   0.0000000   0.2000000   0.3500000), wk =   0.0060000
        k(   67) = (   0.0000000   0.2000000   0.4000000), wk =   0.0060000
        k(   68) = (   0.0000000   0.2000000   0.4500000), wk =   0.0060000
        k(   69) = (   0.0000000   0.2000000  -0.5000000), wk =   0.0060000
        k(   70) = (   0.0000000   0.2000000  -0.4500000), wk =   0.0060000
        k(   71) = (   0.0000000   0.2000000  -0.4000000), wk =   0.0060000
        k(   72) = (   0.0000000   0.2000000  -0.3500000), wk =   0.0060000
        k(   73) = (   0.0000000   0.2000000  -0.3000000), wk =   0.0060000
        k(   74) = (   0.0000000   0.2000000  -0.2500000), wk =   0.0060000
        k(   75) = (   0.0000000   0.2000000  -0.2000000), wk =   0.0030000
        k(   76) = (   0.0000000   0.2500000   0.2500000), wk =   0.0015000
        k(   77) = (   0.0000000   0.2500000   0.3000000), wk =   0.0060000
        k(   78) = (   0.0000000   0.2500000   0.3500000), wk =   0.0060000
        k(   79) = (   0.0000000   0.2500000   0.4000000), wk =   0.0060000
        k(   80) = (   0.0000000   0.2500000   0.4500000), wk =   0.0060000
        k(   81) = (   0.0000000   0.2500000  -0.5000000), wk =   0.0060000
        k(   82) = (   0.0000000   0.2500000  -0.4500000), wk =   0.0060000
        k(   83) = (   0.0000000   0.2500000  -0.4000000), wk =   0.0060000
        k(   84) = (   0.0000000   0.2500000  -0.3500000), wk =   0.0060000
        k(   85) = (   0.0000000   0.2500000  -0.3000000), wk =   0.0060000
        k(   86) = (   0.0000000   0.2500000  -0.2500000), wk =   0.0030000
        k(   87) = (   0.0000000   0.3000000   0.3000000), wk =   0.0015000
        k(   88) = (   0.0000000   0.3000000   0.3500000), wk =   0.0060000
        k(   89) = (   0.0000000   0.3000000   0.4000000), wk =   0.0060000
        k(   90) = (   0.0000000   0.3000000   0.4500000), wk =   0.0060000
        k(   91) = (   0.0000000   0.3000000  -0.5000000), wk =   0.0060000
        k(   92) = (   0.0000000   0.3000000  -0.4500000), wk =   0.0060000
        k(   93) = (   0.0000000   0.3000000  -0.4000000), wk =   0.0060000
        k(   94) = (   0.0000000   0.3000000  -0.3500000), wk =   0.0060000
        k(   95) = (   0.0000000   0.3000000  -0.3000000), wk =   0.0030000
        k(   96) = (   0.0000000   0.3500000   0.3500000), wk =   0.0015000
        k(   97) = (   0.0000000   0.3500000   0.4000000), wk =   0.0060000
        k(   98) = (   0.0000000   0.3500000   0.4500000), wk =   0.0060000
        k(   99) = (   0.0000000   0.3500000  -0.5000000), wk =   0.0060000
        k(  100) = (   0.0000000   0.3500000  -0.4500000), wk =   0.0060000
        k(  101) = (   0.0000000   0.3500000  -0.4000000), wk =   0.0060000
        k(  102) = (   0.0000000   0.3500000  -0.3500000), wk =   0.0030000
        k(  103) = (   0.0000000   0.4000000   0.4000000), wk =   0.0015000
        k(  104) = (   0.0000000   0.4000000   0.4500000), wk =   0.0060000
        k(  105) = (   0.0000000   0.4000000  -0.5000000), wk =   0.0060000
        k(  106) = (   0.0000000   0.4000000  -0.4500000), wk =   0.0060000
        k(  107) = (   0.0000000   0.4000000  -0.4000000), wk =   0.0030000
        k(  108) = (   0.0000000   0.4500000   0.4500000), wk =   0.0015000
        k(  109) = (   0.0000000   0.4500000  -0.5000000), wk =   0.0060000
        k(  110) = (   0.0000000   0.4500000  -0.4500000), wk =   0.0030000
        k(  111) = (   0.0000000  -0.5000000  -0.5000000), wk =   0.0007500
        k(  112) = (   0.0500000   0.1000000   0.1500000), wk =   0.0060000
        k(  113) = (   0.0500000   0.1000000   0.2000000), wk =   0.0120000
        k(  114) = (   0.0500000   0.1000000   0.2500000), wk =   0.0120000
        k(  115) = (   0.0500000   0.1000000   0.3000000), wk =   0.0120000
        k(  116) = (   0.0500000   0.1000000   0.3500000), wk =   0.0120000
        k(  117) = (   0.0500000   0.1000000   0.4000000), wk =   0.0120000
        k(  118) = (   0.0500000   0.1000000   0.4500000), wk =   0.0120000
        k(  119) = (   0.0500000   0.1000000  -0.5000000), wk =   0.0120000
        k(  120) = (   0.0500000   0.1000000  -0.4500000), wk =   0.0060000
        k(  121) = (   0.0500000   0.1500000   0.2000000), wk =   0.0060000
        k(  122) = (   0.0500000   0.1500000   0.2500000), wk =   0.0120000
        k(  123) = (   0.0500000   0.1500000   0.3000000), wk =   0.0120000
        k(  124) = (   0.0500000   0.1500000   0.3500000), wk =   0.0120000
        k(  125) = (   0.0500000   0.1500000   0.4000000), wk =   0.0120000
        k(  126) = (   0.0500000   0.1500000   0.4500000), wk =   0.0120000
        k(  127) = (   0.0500000   0.1500000  -0.5000000), wk =   0.0120000
        k(  128) = (   0.0500000   0.1500000  -0.4500000), wk =   0.0120000
        k(  129) = (   0.0500000   0.1500000  -0.4000000), wk =   0.0120000
        k(  130) = (   0.0500000   0.1500000  -0.3500000), wk =   0.0120000
        k(  131) = (   0.0500000   0.1500000  -0.3000000), wk =   0.0120000
        k(  132) = (   0.0500000   0.1500000  -0.2500000), wk =   0.0120000
        k(  133) = (   0.0500000   0.1500000  -0.2000000), wk =   0.0120000
        k(  134) = (   0.0500000   0.1500000  -0.1500000), wk =   0.0120000
        k(  135) = (   0.0500000   0.1500000  -0.1000000), wk =   0.0060000
        k(  136) = (   0.0500000   0.2000000   0.2500000), wk =   0.0060000
        k(  137) = (   0.0500000   0.2000000   0.3000000), wk =   0.0120000
        k(  138) = (   0.0500000   0.2000000   0.3500000), wk =   0.0120000
        k(  139) = (   0.0500000   0.2000000   0.4000000), wk =   0.0120000
        k(  140) = (   0.0500000   0.2000000   0.4500000), wk =   0.0120000
        k(  141) = (   0.0500000   0.2000000  -0.5000000), wk =   0.0120000
        k(  142) = (   0.0500000   0.2000000  -0.4500000), wk =   0.0120000
        k(  143) = (   0.0500000   0.2000000  -0.4000000), wk =   0.0120000
        k(  144) = (   0.0500000   0.2000000  -0.3500000), wk =   0.0120000
        k(  145) = (   0.0500000   0.2000000  -0.3000000), wk =   0.0120000
        k(  146) = (   0.0500000   0.2000000  -0.2500000), wk =   0.0120000
        k(  147) = (   0.0500000   0.2000000  -0.2000000), wk =   0.0120000
        k(  148) = (   0.0500000   0.2000000  -0.1500000), wk =   0.0060000
        k(  149) = (   0.0500000   0.2500000   0.3000000), wk =   0.0060000
        k(  150) = (   0.0500000   0.2500000   0.3500000), wk =   0.0120000
        k(  151) = (   0.0500000   0.2500000   0.4000000), wk =   0.0120000
        k(  152) = (   0.0500000   0.2500000   0.4500000), wk =   0.0120000
        k(  153) = (   0.0500000   0.2500000  -0.5000000), wk =   0.0120000
        k(  154) = (   0.0500000   0.2500000  -0.4500000), wk =   0.0120000
        k(  155) = (   0.0500000   0.2500000  -0.4000000), wk =   0.0120000
        k(  156) = (   0.0500000   0.2500000  -0.3500000), wk =   0.0120000
        k(  157) = (   0.0500000   0.2500000  -0.3000000), wk =   0.0120000
        k(  158) = (   0.0500000   0.2500000  -0.2500000), wk =   0.0120000
        k(  159) = (   0.0500000   0.2500000  -0.2000000), wk =   0.0060000
        k(  160) = (   0.0500000   0.3000000   0.3500000), wk =   0.0060000
        k(  161) = (   0.0500000   0.3000000   0.4000000), wk =   0.0120000
        k(  162) = (   0.0500000   0.3000000   0.4500000), wk =   0.0120000
        k(  163) = (   0.0500000   0.3000000  -0.5000000), wk =   0.0120000
        k(  164) = (   0.0500000   0.3000000  -0.4500000), wk =   0.0120000
        k(  165) = (   0.0500000   0.3000000  -0.4000000), wk =   0.0120000
        k(  166) = (   0.0500000   0.3000000  -0.3500000), wk =   0.0120000
        k(  167) = (   0.0500000   0.3000000  -0.3000000), wk =   0.0120000
        k(  168) = (   0.0500000   0.3000000  -0.2500000), wk =   0.0060000
        k(  169) = (   0.0500000   0.3500000   0.4000000), wk =   0.0060000
        k(  170) = (   0.0500000   0.3500000   0.4500000), wk =   0.0120000
        k(  171) = (   0.0500000   0.3500000  -0.5000000), wk =   0.0120000
        k(  172) = (   0.0500000   0.3500000  -0.4500000), wk =   0.0120000
        k(  173) = (   0.0500000   0.3500000  -0.4000000), wk =   0.0120000
        k(  174) = (   0.0500000   0.3500000  -0.3500000), wk =   0.0120000
        k(  175) = (   0.0500000   0.3500000  -0.3000000), wk =   0.0060000
        k(  176) = (   0.0500000   0.4000000   0.4500000), wk =   0.0060000
        k(  177) = (   0.0500000   0.4000000  -0.5000000), wk =   0.0120000
        k(  178) = (   0.0500000   0.4000000  -0.4500000), wk =   0.0120000
        k(  179) = (   0.0500000   0.4000000  -0.4000000), wk =   0.0120000
        k(  180) = (   0.0500000   0.4000000  -0.3500000), wk =   0.0060000
        k(  181) = (   0.0500000   0.4500000  -0.5000000), wk =   0.0060000
        k(  182) = (   0.0500000   0.4500000  -0.4500000), wk =   0.0120000
        k(  183) = (   0.0500000   0.4500000  -0.4000000), wk =   0.0060000
        k(  184) = (   0.0500000  -0.5000000  -0.4500000), wk =   0.0030000
        k(  185) = (   0.1000000   0.2000000   0.3000000), wk =   0.0060000
        k(  186) = (   0.1000000   0.2000000   0.3500000), wk =   0.0120000
        k(  187) = (   0.1000000   0.2000000   0.4000000), wk =   0.0120000
        k(  188) = (   0.1000000   0.2000000   0.4500000), wk =   0.0120000
        k(  189) = (   0.1000000   0.2000000  -0.5000000), wk =   0.0120000
        k(  190) = (   0.1000000   0.2000000  -0.4500000), wk =   0.0120000
        k(  191) = (   0.1000000   0.2000000  -0.4000000), wk =   0.0060000
        k(  192) = (   0.1000000   0.2500000   0.3500000), wk =   0.0060000
        k(  193) = (   0.1000000   0.2500000   0.4000000), wk =   0.0120000
        k(  194) = (   0.1000000   0.2500000   0.4500000), wk =   0.0120000
        k(  195) = (   0.1000000   0.2500000  -0.5000000), wk =   0.0120000
        k(  196) = (   0.1000000   0.2500000  -0.4500000), wk =   0.0120000
        k(  197) = (   0.1000000   0.2500000  -0.4000000), wk =   0.0120000
        k(  198) = (   0.1000000   0.2500000  -0.3500000), wk =   0.0120000
        k(  199) = (   0.1000000   0.2500000  -0.3000000), wk =   0.0120000
        k(  200) = (   0.1000000   0.2500000  -0.2500000), wk =   0.0120000
        k(  201) = (   0.1000000   0.2500000  -0.2000000), wk =   0.0120000
        k(  202) = (   0.1000000   0.2500000  -0.1500000), wk =   0.0060000
        k(  203) = (   0.1000000   0.3000000   0.4000000), wk =   0.0060000
        k(  204) = (   0.1000000   0.3000000   0.4500000), wk =   0.0120000
        k(  205) = (   0.1000000   0.3000000  -0.5000000), wk =   0.0120000
        k(  206) = (   0.1000000   0.3000000  -0.4500000), wk =   0.0120000
        k(  207) = (   0.1000000   0.3000000  -0.4000000), wk =   0.0120000
        k(  208) = (   0.1000000   0.3000000  -0.3500000), wk =   0.0120000
        k(  209) = (   0.1000000   0.3000000  -0.3000000), wk =   0.0120000
        k(  210) = (   0.1000000   0.3000000  -0.2500000), wk =   0.0120000
        k(  211) = (   0.1000000   0.3000000  -0.2000000), wk =   0.0060000
        k(  212) = (   0.1000000   0.3500000   0.4500000), wk =   0.0060000
        k(  213) = (   0.1000000   0.3500000  -0.5000000), wk =   0.0120000
        k(  214) = (   0.1000000   0.3500000  -0.4500000), wk =   0.0120000
        k(  215) = (   0.1000000   0.3500000  -0.4000000), wk =   0.0120000
        k(  216) = (   0.1000000   0.3500000  -0.3500000), wk =   0.0120000
        k(  217) = (   0.1000000   0.3500000  -0.3000000), wk =   0.0120000
        k(  218) = (   0.1000000   0.3500000  -0.2500000), wk =   0.0060000
        k(  219) = (   0.1000000   0.4000000  -0.5000000), wk =   0.0060000
        k(  220) = (   0.1000000   0.4000000  -0.4500000), wk =   0.0120000
        k(  221) = (   0.1000000   0.4000000  -0.4000000), wk =   0.0120000
        k(  222) = (   0.1000000   0.4000000  -0.3500000), wk =   0.0120000
        k(  223) = (   0.1000000   0.4000000  -0.3000000), wk =   0.0060000
        k(  224) = (   0.1000000   0.4500000  -0.4500000), wk =   0.0060000
        k(  225) = (   0.1000000   0.4500000  -0.4000000), wk =   0.0120000
        k(  226) = (   0.1000000   0.4500000  -0.3500000), wk =   0.0060000
        k(  227) = (   0.1000000  -0.5000000  -0.4000000), wk =   0.0030000
        k(  228) = (   0.1500000   0.3000000   0.4500000), wk =   0.0060000
        k(  229) = (   0.1500000   0.3000000  -0.5000000), wk =   0.0120000
        k(  230) = (   0.1500000   0.3000000  -0.4500000), wk =   0.0120000
        k(  231) = (   0.1500000   0.3000000  -0.4000000), wk =   0.0120000
        k(  232) = (   0.1500000   0.3000000  -0.3500000), wk =   0.0060000
        k(  233) = (   0.1500000   0.3500000  -0.5000000), wk =   0.0060000
        k(  234) = (   0.1500000   0.3500000  -0.4500000), wk =   0.0120000
        k(  235) = (   0.1500000   0.3500000  -0.4000000), wk =   0.0120000
        k(  236) = (   0.1500000   0.3500000  -0.3500000), wk =   0.0120000
        k(  237) = (   0.1500000   0.3500000  -0.3000000), wk =   0.0120000
        k(  238) = (   0.1500000   0.3500000  -0.2500000), wk =   0.0120000
        k(  239) = (   0.1500000   0.3500000  -0.2000000), wk =   0.0060000
        k(  240) = (   0.1500000   0.4000000  -0.4500000), wk =   0.0060000
        k(  241) = (   0.1500000   0.4000000  -0.4000000), wk =   0.0120000
        k(  242) = (   0.1500000   0.4000000  -0.3500000), wk =   0.0120000
        k(  243) = (   0.1500000   0.4000000  -0.3000000), wk =   0.0120000
        k(  244) = (   0.1500000   0.4000000  -0.2500000), wk =   0.0060000
        k(  245) = (   0.1500000   0.4500000  -0.4000000), wk =   0.0060000
        k(  246) = (   0.1500000   0.4500000  -0.3500000), wk =   0.0120000
        k(  247) = (   0.1500000   0.4500000  -0.3000000), wk =   0.0060000
        k(  248) = (   0.1500000  -0.5000000  -0.3500000), wk =   0.0030000
        k(  249) = (   0.2000000   0.4000000  -0.4000000), wk =   0.0060000
        k(  250) = (   0.2000000   0.4000000  -0.3500000), wk =   0.0120000
        k(  251) = (   0.2000000   0.4000000  -0.3000000), wk =   0.0060000
        k(  252) = (   0.2000000   0.4500000  -0.3500000), wk =   0.0060000
        k(  253) = (   0.2000000   0.4500000  -0.3000000), wk =   0.0120000
        k(  254) = (   0.2000000   0.4500000  -0.2500000), wk =   0.0060000
        k(  255) = (   0.2000000  -0.5000000  -0.3000000), wk =   0.0030000
        k(  256) = (   0.2500000  -0.5000000  -0.2500000), wk =   0.0015000

     Dense  grid:    30923 G-vectors     FFT dimensions: (  45,  45,  45)

     Largest allocated arrays     est. size (Mb)     dimensions
        Kohn-Sham Wavefunctions         0.07 Mb     (     255,   18)
        NL pseudopotentials             0.14 Mb     (     255,   36)
        Each V/rho on FFT grid          0.09 Mb     (    6075)
        Each G-vector array             0.01 Mb     (    1932)
        G-vector shells                 0.00 Mb     (     295)
     Largest temporary arrays     est. size (Mb)     dimensions
        Auxiliary wavefunctions         0.28 Mb     (     255,   72)
        Each subspace H/S matrix        0.08 Mb     (      72,   72)
        Each <psi_i|beta_j> matrix      0.01 Mb     (      36,   18)
        Arrays for rho mixing           0.74 Mb     (    6075,    8)

     Initial potential from superposition of free atoms

     starting charge   27.82674, renormalised to   28.00000
     Starting wfc are random

     total cpu time spent up to now is        4.9 secs

     Self-consistent Calculation

     iteration #  1     ecut=    60.00 Ry     beta=0.70
     Davidson diagonalization with overlap
     ethr =  1.00E-02,  avg # of iterations =  7.8

     Threshold (ethr) on eigenvalues was too large:
     Diagonalizing with lowered threshold

     Davidson diagonalization with overlap
     ethr =  1.15E-04,  avg # of iterations =  6.0

     total cpu time spent up to now is       64.9 secs

     total energy              =    -256.21677278 Ry
     Harris-Foulkes estimate   =    -256.22963140 Ry
     estimated scf accuracy    <       0.03199304 Ry

     iteration #  2     ecut=    60.00 Ry     beta=0.70
     Davidson diagonalization with overlap
     ethr =  1.14E-04,  avg # of iterations =  2.2

     total cpu time spent up to now is       80.6 secs

     total energy              =    -256.22122005 Ry
     Harris-Foulkes estimate   =    -256.22146315 Ry
     estimated scf accuracy    <       0.00185017 Ry

     iteration #  3     ecut=    60.00 Ry     beta=0.70
     Davidson diagonalization with overlap
     ethr =  6.61E-06,  avg # of iterations =  2.6

     total cpu time spent up to now is       94.1 secs

     total energy              =    -256.22139357 Ry
     Harris-Foulkes estimate   =    -256.22137549 Ry
     estimated scf accuracy    <       0.00010987 Ry

     iteration #  4     ecut=    60.00 Ry     beta=0.70
     Davidson diagonalization with overlap
     ethr =  3.92E-07,  avg # of iterations =  2.7

     total cpu time spent up to now is      107.7 secs

     End of self-consistent calculation

          k = 0.0000 0.0000 0.0000 (  3839 PWs)   bands (ev):

   -14.0564 -14.0564 -14.0564 -14.0072 -14.0072 -13.7571 -13.7571 -13.7571
   -13.7560 -13.7560  -2.5776   6.3619   7.6175   7.6175   7.6175   9.4227
     9.4246   9.6835

     occupation numbers 
     1.0000   1.0000   1.0000   1.0000   1.0000   1.0000   1.0000   1.0000
     1.0000   1.0000   1.0000   1.0000   0.2379   0.2379   0.2379   0.0000
     0.0000   0.0000

          k = 0.0354 0.0354-0.0354 (  3849 PWs)   bands (ev):

   -14.0582 -14.0582 -14.0559 -14.0049 -14.0049 -13.7651 -13.7651 -13.7577
   -13.7483 -13.7483  -2.5552   6.0873   7.5700   7.5700   7.7557   9.4226
     9.4245   9.7456

     occupation numbers 
     1.0000   1.0000   1.0000   1.0000   1.0000   1.0000   1.0000   1.0000
     1.0000   1.0000   1.0000   1.0000   0.4135   0.4135   0.0158   0.0000
     0.0000   0.0000

          k = 0.0707 0.0707-0.0707 (  3876 PWs)   bands (ev):

   -14.0624 -14.0624 -14.0544 -13.9990 -13.9990 -13.7737 -13.7737 -13.7596
   -13.7408 -13.7408  -2.4884   5.5148   7.4458   7.4458   7.9133   9.4224
     9.4242   9.9091

     occupation numbers 
     1.0000   1.0000   1.0000   1.0000   1.0000   1.0000   1.0000   1.0000
     1.0000   1.0000   1.0000   1.0000   0.8581   0.8581   0.0001   0.0000
     0.0000   0.0000

          k = 0.1061 0.1061-0.1061 (  3876 PWs)   bands (ev):

   -14.0675 -14.0675 -14.0519 -13.9914 -13.9914 -13.7820 -13.7820 -13.7625
   -13.7341 -13.7341  -2.3783   4.8585   7.2817   7.2817   7.9291   9.4224
     9.4243  10.1247

     occupation numbers 
     1.0000   1.0000   1.0000   1.0000   1.0000   1.0000   1.0000   1.0000
     1.0000   1.0000   1.0000   1.0000   0.9973   0.9973   0.0000   0.0000
     0.0000   0.0000

          k = 0.1414 0.1414-0.1414 (  3897 PWs)   bands (ev):

   -14.0725 -14.0725 -14.0488 -13.9833 -13.9833 -13.7897 -13.7897 -13.7662
   -13.7283 -13.7283  -2.2271   4.1895   7.1079   7.1079   7.8484   9.4222
     9.4241  10.3419

     occupation numbers 
     1.0000   1.0000   1.0000   1.0000   1.0000   1.0000   1.0000   1.0000
     1.0000   1.0000   1.0000   1.0000   1.0000   1.0000   0.0009   0.0000
     0.0000   0.0000

          k = 0.1768 0.1768-0.1768 (  3903 PWs)   bands (ev):

   -14.0769 -14.0769 -14.0453 -13.9758 -13.9758 -13.7963 -13.7963 -13.7704
   -13.7235 -13.7235  -2.0387   3.5398   6.9437   6.9437   7.7329   9.4221
     9.4240  10.5207

     occupation numbers 
     1.0000   1.0000   1.0000   1.0000   1.0000   1.0000   1.0000   1.0000
     1.0000   1.0000   1.0000   1.0000   1.0000   1.0000   0.0279   0.0000
     0.0000   0.0000

          k = 0.2121 0.2121-0.2121 (  3891 PWs)   bands (ev):

   -14.0803 -14.0803 -14.0418 -13.9694 -13.9694 -13.8017 -13.8017 -13.7746
   -13.7198 -13.7198  -1.8203   2.9312   6.8002   6.8002   7.6171   9.4222
     9.4242  10.6397

     occupation numbers 
     1.0000   1.0000   1.0000   1.0000   1.0000   1.0000   1.0000   1.0000
     1.0000   1.0000   1.0000   1.0000   1.0000   1.0000   0.2392   0.0000
     0.0000   0.0000

          k = 0.2475 0.2475-0.2475 (  3891 PWs)   bands (ev):

   -14.0829 -14.0829 -14.0385 -13.9645 -13.9645 -13.8056 -13.8056 -13.7785
   -13.7170 -13.7170  -1.5847   2.3854   6.6839   6.6839   7.5179   9.4223
     9.4242  10.7013

     occupation numbers 
     1.0000   1.0000   1.0000   1.0000   1.0000   1.0000   1.0000   1.0000
     1.0000   1.0000   1.0000   1.0000   1.0000   1.0000   0.6264   0.0000
     0.0000   0.0000

          k = 0.2828 0.2828-0.2828 (  3882 PWs)   bands (ev):

   -14.0846 -14.0846 -14.0358 -13.9611 -13.9611 -13.8083 -13.8083 -13.7817
   -13.7152 -13.7152  -1.3562   1.9320   6.5988   6.5988   7.4434   9.4224
     9.4242  10.7239

     occupation numbers 
     1.0000   1.0000   1.0000   1.0000   1.0000   1.0000   1.0000   1.0000
     1.0000   1.0000   1.0000   1.0000   1.0000   1.0000   0.8637   0.0000
     0.0000   0.0000

          k = 0.3182 0.3182-0.3182 (  3876 PWs)   bands (ev):

   -14.0855 -14.0855 -14.0340 -13.9592 -13.9592 -13.8097 -13.8097 -13.7837
   -13.7141 -13.7141  -1.1777   1.6174   6.5469   6.5469   7.3975   9.4224
     9.4243  10.7281

     occupation numbers 
     1.0000   1.0000   1.0000   1.0000   1.0000   1.0000   1.0000   1.0000
     1.0000   1.0000   1.0000   1.0000   1.0000   1.0000   0.9422   0.0000
     0.0000   0.0000

          k =-0.3536-0.3536 0.3536 (  3852 PWs)   bands (ev):

   -14.0859 -14.0859 -14.0334 -13.9586 -13.9586 -13.8102 -13.8102 -13.7844
   -13.7137 -13.7137  -1.1075   1.5016   6.5295   6.5295   7.3821   9.4228
     9.4245  10.7279

     occupation numbers 
     1.0000   1.0000   1.0000   1.0000   1.0000   1.0000   1.0000   1.0000
     1.0000   1.0000   1.0000   1.0000   1.0000   1.0000   0.9586   0.0000
     0.0000   0.0000

          k = 0.0707 0.0000 0.0000 (  3851 PWs)   bands (ev):

   -14.0579 -14.0576 -14.0576 -14.0056 -14.0026 -13.7722 -13.7575 -13.7555
   -13.7555 -13.7446  -2.5477   6.0246   7.4798   7.4798   7.9431   9.4225
     9.4245   9.5869

     occupation numbers 
     1.0000   1.0000   1.0000   1.0000   1.0000   1.0000   1.0000   1.0000
     1.0000   1.0000   1.0000   1.0000   0.7637   0.7637   0.0000   0.0000
     0.0000   0.0000

          k = 0.1061 0.0354-0.0354 (  3881 PWs)   bands (ev):

   -14.0622 -14.0603 -14.0563 -14.0021 -13.9966 -13.7811 -13.7652 -13.7555
   -13.7480 -13.7387  -2.4957   5.5980   7.3289   7.3596   8.1658   9.4222
     9.4241   9.5763

     occupation numbers 
     1.0000   1.0000   1.0000   1.0000   1.0000   1.0000   1.0000   1.0000
     1.0000   1.0000   1.0000   1.0000   0.9889   0.9755   0.0000   0.0000
     0.0000   0.0000

          k = 0.1414 0.0707-0.0707 (  3875 PWs)   bands (ev):

   -14.0678 -14.0647 -14.0538 -13.9957 -13.9887 -13.7898 -13.7735 -13.7578
   -13.7406 -13.7322  -2.3998   5.0069   7.1529   7.2107   8.2451   9.4224
     9.4243   9.7165

     occupation numbers 
     1.0000   1.0000   1.0000   1.0000   1.0000   1.0000   1.0000   1.0000
     1.0000   1.0000   1.0000   1.0000   1.0000   0.9998   0.0000   0.0000
     0.0000   0.0000

          k = 0.1768 0.1061-0.1061 (  3881 PWs)   bands (ev):

   -14.0734 -14.0696 -14.0504 -13.9882 -13.9802 -13.7979 -13.7815 -13.7616
   -13.7340 -13.7262  -2.2620   4.3650   6.9775   7.0307   8.1991   9.4223
     9.4243   9.9467

     occupation numbers 
     1.0000   1.0000   1.0000   1.0000   1.0000   1.0000   1.0000   1.0000
     1.0000   1.0000   1.0000   1.0000   1.0000   1.0000   0.0000   0.0000
     0.0000   0.0000

          k = 0.2121 0.1414-0.1414 (  3906 PWs)   bands (ev):

   -14.0783 -14.0742 -14.0463 -13.9807 -13.9723 -13.8048 -13.7888 -13.7665
   -13.7284 -13.7211  -2.0855   3.7227   6.8185   6.8441   8.0951   9.4221
     9.4240  10.1861

     occupation numbers 
     1.0000   1.0000   1.0000   1.0000   1.0000   1.0000   1.0000   1.0000
     1.0000   1.0000   1.0000   1.0000   1.0000   1.0000   0.0000   0.0000
     0.0000   0.0000

          k = 0.2475 0.1768-0.1768 (  3894 PWs)   bands (ev):

   -14.0824 -14.0781 -14.0419 -13.9738 -13.9656 -13.8101 -13.7952 -13.7718
   -13.7237 -13.7169  -1.8760   3.1086   6.6693   6.6851   7.9779   9.4223
     9.4241  10.3794

     occupation numbers 
     1.0000   1.0000   1.0000   1.0000   1.0000   1.0000   1.0000   1.0000
     1.0000   1.0000   1.0000   1.0000   1.0000   1.0000   0.0000   0.0000
     0.0000   0.0000

          k = 0.2828 0.2121-0.2121 (  3891 PWs)   bands (ev):

   -14.0855 -14.0812 -14.0377 -13.9679 -13.9606 -13.8134 -13.8006 -13.7771
   -13.7199 -13.7137  -1.6441   2.5458   6.5168   6.5828   7.8701   9.4223
     9.4242  10.5080

     occupation numbers 
     1.0000   1.0000   1.0000   1.0000   1.0000   1.0000   1.0000   1.0000
     1.0000   1.0000   1.0000   1.0000   1.0000   1.0000   0.0004   0.0000
     0.0000   0.0000

          k = 0.3182 0.2475-0.2475 (  3892 PWs)   bands (ev):

   -14.0875 -14.0836 -14.0340 -13.9632 -13.9576 -13.8148 -13.8050 -13.7818
   -13.7169 -13.7117  -1.4093   2.0616   6.3931   6.5145   7.7830   9.4223
     9.4242  10.5841

     occupation numbers 
     1.0000   1.0000   1.0000   1.0000   1.0000   1.0000   1.0000   1.0000
     1.0000   1.0000   1.0000   1.0000   1.0000   1.0000   0.0075   0.0000
     0.0000   0.0000

          k = 0.3536 0.2828-0.2828 (  3898 PWs)   bands (ev):

   -14.0887 -14.0853 -14.0312 -13.9596 -13.9564 -13.8144 -13.8086 -13.7856
   -13.7147 -13.7106  -1.2076   1.6965   6.3016   6.4818   7.7222   9.4222
     9.4241  10.6317

     occupation numbers 
     1.0000   1.0000   1.0000   1.0000   1.0000   1.0000   1.0000   1.0000
     1.0000   1.0000   1.0000   1.0000   1.0000   1.0000   0.0359   0.0000
     0.0000   0.0000

          k =-0.3182-0.3889 0.3889 (  3889 PWs)   bands (ev):

   -14.0889 -14.0863 -14.0298 -13.9572 -13.9568 -13.8126 -13.8113 -13.7877
   -13.7132 -13.7106  -1.0949   1.5091   6.2449   6.4850   7.6904   9.4223
     9.4242  10.6703

     occupation numbers 
     1.0000   1.0000   1.0000   1.0000   1.0000   1.0000   1.0000   1.0000
     1.0000   1.0000   1.0000   1.0000   1.0000   1.0000   0.0707   0.0000
     0.0000   0.0000

          k =-0.2828-0.3536 0.3536 (  3892 PWs)   bands (ev):

   -14.0883 -14.0867 -14.0299 -13.9584 -13.9560 -13.8131 -13.8102 -13.7878
   -13.7125 -13.7115  -1.1189   1.5482   6.2244   6.5237   7.6888   9.4223
     9.4241  10.7097

     occupation numbers 
     1.0000   1.0000   1.0000   1.0000   1.0000   1.0000   1.0000   1.0000
     1.0000   1.0000   1.0000   1.0000   1.0000   1.0000   0.0730   0.0000
     0.0000   0.0000

          k =-0.2475-0.3182 0.3182 (  3897 PWs)   bands (ev):

   -14.0869 -14.0865 -14.0315 -13.9612 -13.9563 -13.8137 -13.8075 -13.7858
   -13.7134 -13.7125  -1.2683   1.8022   6.2410   6.5966   7.7173   9.4224
     9.4242  10.7325

     occupation numbers 
     1.0000   1.0000   1.0000   1.0000   1.0000   1.0000   1.0000   1.0000
     1.0000   1.0000   1.0000   1.0000   1.0000   1.0000   0.0400   0.0000
     0.0000   0.0000

          k =-0.2121-0.2828 0.2828 (  3889 PWs)   bands (ev):

   -14.0855 -14.0847 -14.0344 -13.9650 -13.9584 -13.8128 -13.8043 -13.7817
   -13.7162 -13.7134  -1.4864   2.2128   6.2953   6.7015   7.7744   9.4224
     9.4242  10.6760

     occupation numbers 
     1.0000   1.0000   1.0000   1.0000   1.0000   1.0000   1.0000   1.0000
     1.0000   1.0000   1.0000   1.0000   1.0000   1.0000   0.0095   0.0000
     0.0000   0.0000

          k =-0.1768-0.2475 0.2475 (  3895 PWs)   bands (ev):

   -14.0835 -14.0817 -14.0383 -13.9699 -13.9624 -13.8101 -13.8005 -13.7765
   -13.7199 -13.7153  -1.7232   2.7267   6.3871   6.8350   7.8564   9.4222
     9.4242  10.5887

     occupation numbers 
     1.0000   1.0000   1.0000   1.0000   1.0000   1.0000   1.0000   1.0000
     1.0000   1.0000   1.0000   1.0000   1.0000   1.0000   0.0007   0.0000
     0.0000   0.0000

          k =-0.1414-0.2121 0.2121 (  3899 PWs)   bands (ev):

   -14.0806 -14.0778 -14.0426 -13.9759 -13.9682 -13.8055 -13.7957 -13.7707
   -13.7246 -13.7182  -1.9493   3.3087   6.5156   6.9916   7.9559   9.4222
     9.4241  10.4546

     occupation numbers 
     1.0000   1.0000   1.0000   1.0000   1.0000   1.0000   1.0000   1.0000
     1.0000   1.0000   1.0000   1.0000   1.0000   1.0000   0.0000   0.0000
     0.0000   0.0000

          k =-0.1061-0.1768 0.1768 (  3887 PWs)   bands (ev):

   -14.0767 -14.0732 -14.0470 -13.9828 -13.9757 -13.7992 -13.7899 -13.7649
   -13.7303 -13.7223  -2.1486   3.9336   6.6791   7.1625   8.0577   9.4223
     9.4243  10.2724

     occupation numbers 
     1.0000   1.0000   1.0000   1.0000   1.0000   1.0000   1.0000   1.0000
     1.0000   1.0000   1.0000   1.0000   1.0000   1.0000   0.0000   0.0000
     0.0000   0.0000

          k =-0.0707-0.1414 0.1414 (  3878 PWs)   bands (ev):

   -14.0720 -14.0680 -14.0509 -13.9902 -13.9841 -13.7916 -13.7831 -13.7596
   -13.7368 -13.7274  -2.3126   4.5770   6.8747   7.3333   8.1307   9.4224
     9.4243  10.0642

     occupation numbers 
     1.0000   1.0000   1.0000   1.0000   1.0000   1.0000   1.0000   1.0000
     1.0000   1.0000   1.0000   1.0000   1.0000   0.9875   0.0000   0.0000
     0.0000   0.0000

          k =-0.0354-0.1061 0.1061 (  3876 PWs)   bands (ev):

   -14.0667 -14.0628 -14.0541 -13.9973 -13.9926 -13.7831 -13.7757 -13.7554
   -13.7440 -13.7335  -2.4367   5.2045   7.0978   7.4803   8.1177   9.4224
     9.4243   9.8732

     occupation numbers 
     1.0000   1.0000   1.0000   1.0000   1.0000   1.0000   1.0000   1.0000
     1.0000   1.0000   1.0000   1.0000   1.0000   0.7622   0.0000   0.0000
     0.0000   0.0000

          k =-0.0000-0.0707 0.0707 (  3877 PWs)   bands (ev):

   -14.0616 -14.0589 -14.0559 -14.0028 -14.0001 -13.7741 -13.7684 -13.7538
   -13.7500 -13.7406  -2.5180   5.7526   7.3427   7.5695   7.9629   9.4224
     9.4242   9.7524

     occupation numbers 
     1.0000   1.0000   1.0000   1.0000   1.0000   1.0000   1.0000   1.0000
     1.0000   1.0000   1.0000   1.0000   0.9840   0.4153   0.0000   0.0000
     0.0000   0.0000

          k = 0.1414 0.0000 0.0000 (  3871 PWs)   bands (ev):

   -14.0611 -14.0611 -14.0607 -14.0009 -13.9905 -13.7910 -13.7620 -13.7508
   -13.7508 -13.7365  -2.4583   5.3974   7.1627   7.1627   8.5211   9.3514
     9.4234   9.4250

     occupation numbers 
     1.0000   1.0000   1.0000   1.0000   1.0000   1.0000   1.0000   1.0000
     1.0000   1.0000   1.0000   1.0000   1.0000   1.0000   0.0000   0.0000
     0.0000   0.0000

          k = 0.1768 0.0354-0.0354 (  3885 PWs)   bands (ev):

   -14.0670 -14.0643 -14.0581 -13.9963 -13.9823 -13.8010 -13.7682 -13.7502
   -13.7449 -13.7322  -2.3769   4.9671   6.9796   6.9844   8.7249   9.3126
     9.4232   9.4249

     occupation numbers 
     1.0000   1.0000   1.0000   1.0000   1.0000   1.0000   1.0000   1.0000
     1.0000   1.0000   1.0000   1.0000   1.0000   1.0000   0.0000   0.0000
     0.0000   0.0000

          k = 0.2121 0.0707-0.0707 (  3889 PWs)   bands (ev):

   -14.0734 -14.0686 -14.0539 -13.9897 -13.9734 -13.8103 -13.7761 -13.7535
   -13.7380 -13.7261  -2.2528   4.4174   6.7854   6.8026   8.7493   9.4198
     9.4241   9.4666

     occupation numbers 
     1.0000   1.0000   1.0000   1.0000   1.0000   1.0000   1.0000   1.0000
     1.0000   1.0000   1.0000   1.0000   1.0000   1.0000   0.0000   0.0000
     0.0000   0.0000

          k = 0.2475 0.1061-0.1061 (  3907 PWs)   bands (ev):

   -14.0795 -14.0731 -14.0486 -13.9823 -13.9650 -13.8182 -13.7840 -13.7591
   -13.7316 -13.7199  -2.0887   3.8251   6.5703   6.6457   8.6669   9.4219
     9.4242   9.7285

     occupation numbers 
     1.0000   1.0000   1.0000   1.0000   1.0000   1.0000   1.0000   1.0000
     1.0000   1.0000   1.0000   1.0000   1.0000   1.0000   0.0000   0.0000
     0.0000   0.0000

          k = 0.2828 0.1414-0.1414 (  3890 PWs)   bands (ev):

   -14.0849 -14.0772 -14.0425 -13.9750 -13.9578 -13.8242 -13.7914 -13.7660
   -13.7260 -13.7144  -1.8893   3.2343   6.3601   6.5176   8.5500   9.4222
     9.4243  10.0096

     occupation numbers 
     1.0000   1.0000   1.0000   1.0000   1.0000   1.0000   1.0000   1.0000
     1.0000   1.0000   1.0000   1.0000   1.0000   1.0000   0.0000   0.0000
     0.0000   0.0000

          k = 0.3182 0.1768-0.1768 (  3896 PWs)   bands (ev):

   -14.0892 -14.0807 -14.0363 -13.9683 -13.9526 -13.8277 -13.7982 -13.7734
   -13.7213 -13.7098  -1.6631   2.6754   6.1699   6.4233   8.4323   9.4223
     9.4242  10.2388

     occupation numbers 
     1.0000   1.0000   1.0000   1.0000   1.0000   1.0000   1.0000   1.0000
     1.0000   1.0000   1.0000   1.0000   1.0000   1.0000   0.0000   0.0000
     0.0000   0.0000

          k = 0.3536 0.2121-0.2121 (  3898 PWs)   bands (ev):

   -14.0925 -14.0836 -14.0303 -13.9623 -13.9497 -13.8286 -13.8044 -13.7808
   -13.7173 -13.7064  -1.4257   2.1766   6.0083   6.3655   8.3297   9.4222
     9.4242  10.3921

     occupation numbers 
     1.0000   1.0000   1.0000   1.0000   1.0000   1.0000   1.0000   1.0000
     1.0000   1.0000   1.0000   1.0000   1.0000   1.0000   0.0000   0.0000
     0.0000   0.0000

          k = 0.3889 0.2475-0.2475 (  3895 PWs)   bands (ev):

   -14.0946 -14.0859 -14.0253 -13.9573 -13.9493 -13.8267 -13.8099 -13.7874
   -13.7141 -13.7043  -1.2067   1.7752   5.8805   6.3456   8.2503   9.4223
     9.4242  10.4892

     occupation numbers 
     1.0000   1.0000   1.0000   1.0000   1.0000   1.0000   1.0000   1.0000
     1.0000   1.0000   1.0000   1.0000   1.0000   1.0000   0.0000   0.0000
     0.0000   0.0000

          k =-0.2828-0.4243 0.4243 (  3915 PWs)   bands (ev):

   -14.0955 -14.0876 -14.0219 -13.9532 -13.9509 -13.8224 -13.8146 -13.7927
   -13.7117 -13.7036  -1.0565   1.5261   5.7896   6.3636   8.1984   9.4222
     9.4239  10.5620

     occupation numbers 
     1.0000   1.0000   1.0000   1.0000   1.0000   1.0000   1.0000   1.0000
     1.0000   1.0000   1.0000   1.0000   1.0000   1.0000   0.0000   0.0000
     0.0000   0.0000

          k =-0.2475-0.3889 0.3889 (  3905 PWs)   bands (ev):

   -14.0952 -14.0886 -14.0206 -13.9540 -13.9504 -13.8184 -13.8165 -13.7959
   -13.7101 -13.7043  -1.0331   1.4890   5.7382   6.4187   8.1757   9.4222
     9.4241  10.6306

     occupation numbers 
     1.0000   1.0000   1.0000   1.0000   1.0000   1.0000   1.0000   1.0000
     1.0000   1.0000   1.0000   1.0000   1.0000   1.0000   0.0000   0.0000
     0.0000   0.0000

          k =-0.2121-0.3536 0.3536 (  3908 PWs)   bands (ev):

   -14.0937 -14.0890 -14.0216 -13.9580 -13.9492 -13.8208 -13.8104 -13.7961
   -13.7093 -13.7064  -1.1478   1.6755   5.7284   6.5088   8.1822   9.4222
     9.4240  10.7018

     occupation numbers 
     1.0000   1.0000   1.0000   1.0000   1.0000   1.0000   1.0000   1.0000
     1.0000   1.0000   1.0000   1.0000   1.0000   1.0000   0.0000   0.0000
     0.0000   0.0000

          k =-0.1768-0.3182 0.3182 (  3904 PWs)   bands (ev):

   -14.0911 -14.0885 -14.0247 -13.9627 -13.9500 -13.8214 -13.8061 -13.7916
   -13.7099 -13.7095  -1.3511   2.0344   5.7622   6.6308   8.2159   9.4222
     9.4241  10.7667

     occupation numbers 
     1.0000   1.0000   1.0000   1.0000   1.0000   1.0000   1.0000   1.0000
     1.0000   1.0000   1.0000   1.0000   1.0000   1.0000   0.0000   0.0000
     0.0000   0.0000

          k =-0.1414-0.2828 0.2828 (  3903 PWs)   bands (ev):

   -14.0874 -14.0871 -14.0296 -13.9679 -13.9532 -13.8196 -13.8030 -13.7836
   -13.7148 -13.7107  -1.5866   2.5050   5.8422   6.7799   8.2722   9.4222
     9.4242  10.6951

     occupation numbers 
     1.0000   1.0000   1.0000   1.0000   1.0000   1.0000   1.0000   1.0000
     1.0000   1.0000   1.0000   1.0000   1.0000   1.0000   0.0000   0.0000
     0.0000   0.0000

          k =-0.1061-0.2475 0.2475 (  3903 PWs)   bands (ev):

   -14.0847 -14.0827 -14.0356 -13.9735 -13.9588 -13.8155 -13.7994 -13.7745
   -13.7209 -13.7131  -1.8186   3.0440   5.9715   6.9486   8.3414   9.4221
     9.4242  10.5352

     occupation numbers 
     1.0000   1.0000   1.0000   1.0000   1.0000   1.0000   1.0000   1.0000
     1.0000   1.0000   1.0000   1.0000   1.0000   1.0000   0.0000   0.0000
     0.0000   0.0000

          k =-0.0707-0.2121 0.2121 (  3910 PWs)   bands (ev):

   -14.0813 -14.0773 -14.0418 -13.9798 -13.9663 -13.8093 -13.7947 -13.7655
   -13.7281 -13.7166  -2.0278   3.6194   6.1550   7.1257   8.4040   9.4222
     9.4241  10.3383

     occupation numbers 
     1.0000   1.0000   1.0000   1.0000   1.0000   1.0000   1.0000   1.0000
     1.0000   1.0000   1.0000   1.0000   1.0000   1.0000   0.0000   0.0000
     0.0000   0.0000

          k =-0.0354-0.1768 0.1768 (  3888 PWs)   bands (ev):

   -14.0769 -14.0714 -14.0475 -13.9863 -13.9750 -13.8014 -13.7889 -13.7575
   -13.7363 -13.7212  -2.2039   4.1995   6.3999   7.2927   8.4213   9.4223
     9.4243  10.1305

     occupation numbers 
     1.0000   1.0000   1.0000   1.0000   1.0000   1.0000   1.0000   1.0000
     1.0000   1.0000   1.0000   1.0000   1.0000   0.9961   0.0000   0.0000
     0.0000   0.0000

          k = 0.0000-0.1414 0.1414 (  3885 PWs)   bands (ev):

   -14.0718 -14.0660 -14.0520 -13.9925 -13.9841 -13.7925 -13.7822 -13.7516
   -13.7442 -13.7269  -2.3412   4.7451   6.7150   7.4221   8.3341   9.4223
     9.4243   9.9582

     occupation numbers 
     1.0000   1.0000   1.0000   1.0000   1.0000   1.0000   1.0000   1.0000
     1.0000   1.0000   1.0000   1.0000   1.0000   0.9063   0.0000   0.0000
     0.0000   0.0000

          k = 0.2121 0.0000 0.0000 (  3895 PWs)   bands (ev):

   -14.0662 -14.0662 -14.0623 -13.9932 -13.9737 -13.8126 -13.7694 -13.7437
   -13.7437 -13.7327  -2.3097   4.7160   6.7924   6.7924   9.0667   9.0729
     9.4231   9.4253

     occupation numbers 
     1.0000   1.0000   1.0000   1.0000   1.0000   1.0000   1.0000   1.0000
     1.0000   1.0000   1.0000   1.0000   1.0000   1.0000   0.0000   0.0000
     0.0000   0.0000

          k = 0.2475 0.0354-0.0354 (  3901 PWs)   bands (ev):

   -14.0722 -14.0697 -14.0588 -13.9876 -13.9641 -13.8235 -13.7754 -13.7442
   -13.7383 -13.7285  -2.1995   4.3039   6.5932   6.6131   9.0221   9.2274
     9.4230   9.4265

     occupation numbers 
     1.0000   1.0000   1.0000   1.0000   1.0000   1.0000   1.0000   1.0000
     1.0000   1.0000   1.0000   1.0000   1.0000   1.0000   0.0000   0.0000
     0.0000   0.0000

          k = 0.2828 0.0707-0.0707 (  3909 PWs)   bands (ev):

   -14.0792 -14.0738 -14.0526 -13.9806 -13.9548 -13.8330 -13.7831 -13.7502
   -13.7321 -13.7212  -2.0483   3.8039   6.3609   6.4554   9.0304   9.3714
     9.4232   9.4319

     occupation numbers 
     1.0000   1.0000   1.0000   1.0000   1.0000   1.0000   1.0000   1.0000
     1.0000   1.0000   1.0000   1.0000   1.0000   1.0000   0.0000   0.0000
     0.0000   0.0000

          k = 0.3182 0.1061-0.1061 (  3909 PWs)   bands (ev):

   -14.0859 -14.0779 -14.0450 -13.9731 -13.9468 -13.8406 -13.7910 -13.7586
   -13.7262 -13.7139  -1.8598   3.2708   6.1156   6.3279   8.9643   9.4213
     9.4240   9.6567

     occupation numbers 
     1.0000   1.0000   1.0000   1.0000   1.0000   1.0000   1.0000   1.0000
     1.0000   1.0000   1.0000   1.0000   1.0000   1.0000   0.0000   0.0000
     0.0000   0.0000

          k = 0.3536 0.1414-0.1414 (  3905 PWs)   bands (ev):

   -14.0917 -14.0815 -14.0366 -13.9657 -13.9408 -13.8455 -13.7988 -13.7680
   -13.7210 -13.7075  -1.6409   2.7427   5.8824   6.2357   8.8630   9.4221
     9.4242   9.9784

     occupation numbers 
     1.0000   1.0000   1.0000   1.0000   1.0000   1.0000   1.0000   1.0000
     1.0000   1.0000   1.0000   1.0000   1.0000   1.0000   0.0000   0.0000
     0.0000   0.0000

          k = 0.3889 0.1768-0.1768 (  3909 PWs)   bands (ev):

   -14.0965 -14.0847 -14.0282 -13.9588 -13.9376 -13.8471 -13.8063 -13.7777
   -13.7164 -13.7023  -1.4040   2.2513   5.6768   6.1818   8.7631   9.4221
     9.4241  10.2525

     occupation numbers 
     1.0000   1.0000   1.0000   1.0000   1.0000   1.0000   1.0000   1.0000
     1.0000   1.0000   1.0000   1.0000   1.0000   1.0000   0.0000   0.0000
     0.0000   0.0000

          k = 0.4243 0.2121-0.2121 (  3906 PWs)   bands (ev):

   -14.1000 -14.0873 -14.0206 -13.9525 -13.9374 -13.8453 -13.8134 -13.7869
   -13.7126 -13.6986  -1.1730   1.8323   5.5070   6.1675   8.6805   9.4223
     9.4241  10.4341

     occupation numbers 
     1.0000   1.0000   1.0000   1.0000   1.0000   1.0000   1.0000   1.0000
     1.0000   1.0000   1.0000   1.0000   1.0000   1.0000   0.0000   0.0000
     0.0000   0.0000

          k =-0.2475-0.4596 0.4596 (  3915 PWs)   bands (ev):

   -14.1020 -14.0894 -14.0145 -13.9471 -13.9401 -13.8401 -13.8198 -13.7947
   -13.7095 -13.6965  -0.9917   1.5367   5.3782   6.1930   8.6225   9.4222
     9.4240  10.5473

     occupation numbers 
     1.0000   1.0000   1.0000   1.0000   1.0000   1.0000   1.0000   1.0000
     1.0000   1.0000   1.0000   1.0000   1.0000   1.0000   0.0000   0.0000
     0.0000   0.0000

          k =-0.2121-0.4243 0.4243 (  3919 PWs)   bands (ev):

   -14.1026 -14.0908 -14.0108 -13.9449 -13.9428 -13.8322 -13.8253 -13.8006
   -13.7073 -13.6962  -0.9218   1.4298   5.2939   6.2572   8.5919   9.4221
     9.4240  10.6344

     occupation numbers 
     1.0000   1.0000   1.0000   1.0000   1.0000   1.0000   1.0000   1.0000
     1.0000   1.0000   1.0000   1.0000   1.0000   1.0000   0.0000   0.0000
     0.0000   0.0000

          k =-0.1768-0.3889 0.3889 (  3908 PWs)   bands (ev):

   -14.1016 -14.0916 -14.0100 -13.9510 -13.9402 -13.8292 -13.8221 -13.8042
   -13.7061 -13.6977  -0.9973   1.5462   5.2575   6.3577   8.5882   9.4222
     9.4242  10.7198

     occupation numbers 
     1.0000   1.0000   1.0000   1.0000   1.0000   1.0000   1.0000   1.0000
[...]
     9.4272  11.3397

     occupation numbers 
     1.0000   1.0000   1.0000   1.0000   1.0000   1.0000   1.0000   1.0000
     1.0000   1.0000   1.0000   1.0000   1.0000   1.0000   0.0000   0.0000
     0.0000   0.0000

          k =-0.0000-0.3536 0.4950 (  3916 PWs)   bands (ev):

   -14.1129 -14.0998 -13.9861 -13.9306 -13.9036 -13.8767 -13.8452 -13.8159
   -13.6966 -13.6847  -0.6734   1.3558   4.5448   5.8153   9.3859   9.4225
     9.4346  11.1617

     occupation numbers 
     1.0000   1.0000   1.0000   1.0000   1.0000   1.0000   1.0000   1.0000
     1.0000   1.0000   1.0000   1.0000   1.0000   1.0000   0.0000   0.0000
     0.0000   0.0000

          k =-0.1414-0.5657 0.7071 (  3940 PWs)   bands (ev):

   -14.1007 -14.0999 -14.0087 -13.9276 -13.9196 -13.8689 -13.8424 -13.7900
   -13.6972 -13.6967  -0.6569   1.3419   5.1401   5.3804   8.8942   9.2837
     9.4227   9.4253

     occupation numbers 
     1.0000   1.0000   1.0000   1.0000   1.0000   1.0000   1.0000   1.0000
     1.0000   1.0000   1.0000   1.0000   1.0000   1.0000   0.0000   0.0000
     0.0000   0.0000

          k =-0.1061-0.5303 0.6718 (  3920 PWs)   bands (ev):

   -14.1063 -14.1015 -13.9941 -13.9323 -13.9107 -13.8637 -13.8523 -13.8047
   -13.6951 -13.6903  -0.4082   1.0421   4.9423   5.3063   9.0578   9.4208
     9.4237   9.5896

     occupation numbers 
     1.0000   1.0000   1.0000   1.0000   1.0000   1.0000   1.0000   1.0000
     1.0000   1.0000   1.0000   1.0000   1.0000   1.0000   0.0000   0.0000
     0.0000   0.0000

          k =-0.0707-0.4950 0.6364 (  3923 PWs)   bands (ev):

   -14.1113 -14.1023 -13.9819 -13.9307 -13.9025 -13.8652 -13.8613 -13.8166
   -13.6939 -13.6850  -0.1883   0.7978   4.7300   5.3174   9.1139   9.4220
     9.4241  10.1503

     occupation numbers 
     1.0000   1.0000   1.0000   1.0000   1.0000   1.0000   1.0000   1.0000
     1.0000   1.0000   1.0000   1.0000   1.0000   1.0000   0.0000   0.0000
     0.0000   0.0000

          k =-0.0354-0.4596 0.6010 (  3908 PWs)   bands (ev):

   -14.1147 -14.1025 -13.9763 -13.9203 -13.8977 -13.8741 -13.8682 -13.8217
   -13.6936 -13.6815  -0.1056   0.7134   4.5639   5.3883   9.1764   9.4223
     9.4245  10.8060

     occupation numbers 
     1.0000   1.0000   1.0000   1.0000   1.0000   1.0000   1.0000   1.0000
     1.0000   1.0000   1.0000   1.0000   1.0000   1.0000   0.0000   0.0000
     0.0000   0.0000

          k =-0.0000-0.4243 0.5657 (  3920 PWs)   bands (ev):

   -14.1161 -14.1021 -13.9769 -13.9039 -13.9037 -13.8850 -13.8675 -13.8213
   -13.6940 -13.6804  -0.2338   0.8553   4.4779   5.5072   9.2554   9.4223
     9.4251  11.4284

     occupation numbers 
     1.0000   1.0000   1.0000   1.0000   1.0000   1.0000   1.0000   1.0000
     1.0000   1.0000   1.0000   1.0000   1.0000   1.0000   0.0000   0.0000
     0.0000   0.0000

          k =-0.0707-0.5657 0.7071 (  3919 PWs)   bands (ev):

   -14.1031 -14.1025 -13.9919 -13.9509 -13.9005 -13.8613 -13.8468 -13.8067
   -13.6937 -13.6932  -0.2070   0.7987   5.0895   5.2089   8.9028   9.1078
     9.4226   9.4243

     occupation numbers 
     1.0000   1.0000   1.0000   1.0000   1.0000   1.0000   1.0000   1.0000
     1.0000   1.0000   1.0000   1.0000   1.0000   1.0000   0.0000   0.0000
     0.0000   0.0000

          k =-0.0354-0.5303 0.6718 (  3917 PWs)   bands (ev):

   -14.1080 -14.1033 -13.9777 -13.9527 -13.8916 -13.8714 -13.8444 -13.8205
   -13.6927 -13.6881   0.0358   0.5460   4.8986   5.1915   9.0294   9.4198
     9.4237   9.5161

     occupation numbers 
     1.0000   1.0000   1.0000   1.0000   1.0000   1.0000   1.0000   1.0000
     1.0000   1.0000   1.0000   1.0000   1.0000   1.0000   0.0000   0.0000
     0.0000   0.0000

          k = 0.0000-0.4950 0.6364 (  3914 PWs)   bands (ev):

   -14.1122 -14.1032 -13.9735 -13.9408 -13.8881 -13.8767 -13.8549 -13.8243
   -13.6927 -13.6839   0.0945   0.4962   4.6964   5.2652   9.0930   9.4220
     9.4242  10.1298

     occupation numbers 
     1.0000   1.0000   1.0000   1.0000   1.0000   1.0000   1.0000   1.0000
     1.0000   1.0000   1.0000   1.0000   1.0000   1.0000   0.0000   0.0000
     0.0000   0.0000

          k =-0.7071 0.1414 0.0000 (  3914 PWs)   bands (ev):

   -14.1037 -14.1037 -13.9725 -13.9724 -13.8812 -13.8806 -13.8259 -13.8258
   -13.6922 -13.6922   0.2801   0.2803   5.1120   5.1120   8.9757   8.9757
     9.4226   9.4242

     occupation numbers 
     1.0000   1.0000   1.0000   1.0000   1.0000   1.0000   1.0000   1.0000
     1.0000   1.0000   1.0000   1.0000   1.0000   1.0000   0.0000   0.0000
     0.0000   0.0000

          k = 0.4243 0.2121-0.0000 (  3905 PWs)   bands (ev):

   -14.0972 -14.0944 -14.0186 -13.9532 -13.9180 -13.8699 -13.8114 -13.7854
   -13.7034 -13.7033  -1.3103   2.2562   5.1449   6.0481   9.4201   9.4224
     9.6309   9.7189

     occupation numbers 
     1.0000   1.0000   1.0000   1.0000   1.0000   1.0000   1.0000   1.0000
     1.0000   1.0000   1.0000   1.0000   1.0000   1.0000   0.0000   0.0000
     0.0000   0.0000

          k =-0.2475-0.4596 0.6718 (  3914 PWs)   bands (ev):

   -14.1033 -14.0969 -14.0066 -13.9457 -13.9112 -13.8755 -13.8202 -13.7980
   -13.7007 -13.6955  -1.0728   1.8838   4.9320   5.9037   9.4201   9.4227
     9.6145  10.1118

     occupation numbers 
     1.0000   1.0000   1.0000   1.0000   1.0000   1.0000   1.0000   1.0000
     1.0000   1.0000   1.0000   1.0000   1.0000   1.0000   0.0000   0.0000
     0.0000   0.0000

          k =-0.2121-0.4243 0.6364 (  3912 PWs)   bands (ev):

   -14.1083 -14.0985 -13.9962 -13.9378 -13.9078 -13.8774 -13.8304 -13.8078
   -13.6987 -13.6896  -0.8352   1.5396   4.7875   5.7814   9.4197   9.4228
     9.5825  10.4185

     occupation numbers 
     1.0000   1.0000   1.0000   1.0000   1.0000   1.0000   1.0000   1.0000
     1.0000   1.0000   1.0000   1.0000   1.0000   1.0000   0.0000   0.0000
     0.0000   0.0000

          k =-0.1768-0.3889 0.6010 (  3914 PWs)   bands (ev):

   -14.1115 -14.0994 -13.9891 -13.9309 -13.9077 -13.8762 -13.8401 -13.8135
   -13.6975 -13.6859  -0.6403   1.2763   4.7047   5.7009   9.4192   9.4228
     9.5617  10.5266

     occupation numbers 
     1.0000   1.0000   1.0000   1.0000   1.0000   1.0000   1.0000   1.0000
     1.0000   1.0000   1.0000   1.0000   1.0000   1.0000   0.0000   0.0000
     0.0000   0.0000

          k =-0.1414-0.3536 0.5657 (  3916 PWs)   bands (ev):

   -14.1125 -14.0997 -13.9867 -13.9277 -13.9083 -13.8751 -13.8444 -13.8154
   -13.6971 -13.6846  -0.5599   1.1723   4.6778   5.6729   9.4190   9.4228
     9.5546  10.5436

     occupation numbers 
     1.0000   1.0000   1.0000   1.0000   1.0000   1.0000   1.0000   1.0000
     1.0000   1.0000   1.0000   1.0000   1.0000   1.0000   0.0000   0.0000
     0.0000   0.0000

          k =-0.2121-0.4950 0.7071 (  3918 PWs)   bands (ev):

   -14.1024 -14.0989 -14.0079 -13.9379 -13.8979 -13.8932 -13.8266 -13.7936
   -13.6985 -13.6963  -0.9655   1.7539   4.9827   5.6669   9.4207   9.4224
     9.5931   9.7825

     occupation numbers 
     1.0000   1.0000   1.0000   1.0000   1.0000   1.0000   1.0000   1.0000
     1.0000   1.0000   1.0000   1.0000   1.0000   1.0000   0.0000   0.0000
     0.0000   0.0000

          k =-0.1768-0.4596 0.6718 (  3922 PWs)   bands (ev):

   -14.1077 -14.1011 -13.9947 -13.9297 -13.8988 -13.8911 -13.8366 -13.8065
   -13.6959 -13.6899  -0.7221   1.4278   4.8068   5.5367   9.4210   9.4229
     9.6854  10.1765

     occupation numbers 
     1.0000   1.0000   1.0000   1.0000   1.0000   1.0000   1.0000   1.0000
     1.0000   1.0000   1.0000   1.0000   1.0000   1.0000   0.0000   0.0000
     0.0000   0.0000

          k =-0.1414-0.4243 0.6364 (  3922 PWs)   bands (ev):

   -14.1118 -14.1024 -13.9839 -13.9223 -13.9000 -13.8884 -13.8469 -13.8162
   -13.6944 -13.6851  -0.5012   1.1514   4.6775   5.4567   9.4210   9.4229
     9.7002  10.6123

     occupation numbers 
     1.0000   1.0000   1.0000   1.0000   1.0000   1.0000   1.0000   1.0000
     1.0000   1.0000   1.0000   1.0000   1.0000   1.0000   0.0000   0.0000
     0.0000   0.0000

          k =-0.1061-0.3889 0.6010 (  3918 PWs)   bands (ev):

   -14.1140 -14.1029 -13.9781 -13.9182 -13.8959 -13.8906 -13.8539 -13.8212
   -13.6936 -13.6827  -0.3730   0.9990   4.5974   5.4403   9.4211   9.4230
     9.7295  10.7712

     occupation numbers 
     1.0000   1.0000   1.0000   1.0000   1.0000   1.0000   1.0000   1.0000
     1.0000   1.0000   1.0000   1.0000   1.0000   1.0000   0.0000   0.0000
     0.0000   0.0000

          k =-0.0707-0.3536 0.5657 (  3919 PWs)   bands (ev):

   -14.1141 -14.1028 -13.9781 -13.9199 -13.8952 -13.8899 -13.8535 -13.8213
   -13.6937 -13.6827  -0.4152   1.0492   4.5733   5.4879   9.4211   9.4230
     9.7709  10.7606

     occupation numbers 
     1.0000   1.0000   1.0000   1.0000   1.0000   1.0000   1.0000   1.0000
     1.0000   1.0000   1.0000   1.0000   1.0000   1.0000   0.0000   0.0000
     0.0000   0.0000

          k =-0.0354-0.3182 0.5303 (  3917 PWs)   bands (ev):

   -14.1120 -14.1019 -13.9838 -13.9277 -13.8970 -13.8877 -13.8442 -13.8174
   -13.6947 -13.6853  -0.5972   1.2689   4.6150   5.5915   9.4212   9.4231
     9.8106  10.6495

     occupation numbers 
     1.0000   1.0000   1.0000   1.0000   1.0000   1.0000   1.0000   1.0000
     1.0000   1.0000   1.0000   1.0000   1.0000   1.0000   0.0000   0.0000
     0.0000   0.0000

          k = 0.0000-0.2828 0.4950 (  3921 PWs)   bands (ev):

   -14.1081 -14.1001 -13.9940 -13.9371 -13.9024 -13.8831 -13.8313 -13.8097
   -13.6967 -13.6900  -0.8331   1.5662   4.7324   5.7373   9.4211   9.4229
     9.8074  10.3454

     occupation numbers 
     1.0000   1.0000   1.0000   1.0000   1.0000   1.0000   1.0000   1.0000
     1.0000   1.0000   1.0000   1.0000   1.0000   1.0000   0.0000   0.0000
     0.0000   0.0000

          k =-0.1414-0.4950 0.7071 (  3933 PWs)   bands (ev):

   -14.1060 -14.1029 -13.9943 -13.9205 -13.9162 -13.8773 -13.8441 -13.8052
   -13.6938 -13.6912  -0.5792   1.2562   4.8945   5.3512   9.4200   9.4219
     9.5239   9.7451

     occupation numbers 
     1.0000   1.0000   1.0000   1.0000   1.0000   1.0000   1.0000   1.0000
     1.0000   1.0000   1.0000   1.0000   1.0000   1.0000   0.0000   0.0000
     0.0000   0.0000

          k =-0.1061-0.4596 0.6718 (  3919 PWs)   bands (ev):

   -14.1103 -14.1047 -13.9803 -13.9199 -13.9118 -13.8730 -13.8546 -13.8183
   -13.6917 -13.6863  -0.3394   0.9778   4.7529   5.2478   9.4211   9.4228
     9.6508  10.1995

     occupation numbers 
     1.0000   1.0000   1.0000   1.0000   1.0000   1.0000   1.0000   1.0000
     1.0000   1.0000   1.0000   1.0000   1.0000   1.0000   0.0000   0.0000
     0.0000   0.0000

          k =-0.0707-0.4243 0.6364 (  3916 PWs)   bands (ev):

   -14.1137 -14.1053 -13.9711 -13.9181 -13.9042 -13.8753 -13.8628 -13.8264
   -13.6910 -13.6827  -0.1674   0.7893   4.6264   5.2343   9.4217   9.7013
    10.7927  11.6417

     occupation numbers 
     1.0000   1.0000   1.0000   1.0000   1.0000   1.0000   1.0000   1.0000
     1.0000   1.0000   1.0000   1.0000   1.0000   1.0000   0.0000   0.0000
     0.0000   0.0000

          k =-0.0354-0.3889 0.6010 (  3917 PWs)   bands (ev):

   -14.1151 -14.1051 -13.9695 -13.9110 -13.9035 -13.8806 -13.8659 -13.8276
   -13.6911 -13.6813  -0.1792   0.8045   4.5454   5.2987   9.4213   9.4231
     9.7661  11.1696

     occupation numbers 
     1.0000   1.0000   1.0000   1.0000   1.0000   1.0000   1.0000   1.0000
     1.0000   1.0000   1.0000   1.0000   1.0000   1.0000   0.0000   0.0000
     0.0000   0.0000

          k = 0.0000-0.3536 0.5657 (  3912 PWs)   bands (ev):

   -14.1145 -14.1040 -13.9744 -13.9157 -13.8988 -13.8868 -13.8584 -13.8239
   -13.6923 -13.6822  -0.3605   1.0043   4.5363   5.4235   9.4214   9.4232
     9.8253  11.0597

     occupation numbers 
     1.0000   1.0000   1.0000   1.0000   1.0000   1.0000   1.0000   1.0000
     1.0000   1.0000   1.0000   1.0000   1.0000   1.0000   0.0000   0.0000
     0.0000   0.0000

          k =-0.0707-0.4950 0.7071 (  3920 PWs)   bands (ev):

   -14.1078 -14.1061 -13.9780 -13.9385 -13.9017 -13.8629 -13.8569 -13.8201
   -13.6901 -13.6885  -0.1572   0.7676   4.8849   5.1129   9.4197   9.4217
     9.5123   9.6427

     occupation numbers 
     1.0000   1.0000   1.0000   1.0000   1.0000   1.0000   1.0000   1.0000
     1.0000   1.0000   1.0000   1.0000   1.0000   1.0000   0.0000   0.0000
     0.0000   0.0000

          k =-0.0354-0.4596 0.6718 (  3924 PWs)   bands (ev):

   -14.1115 -14.1069 -13.9651 -13.9386 -13.8937 -13.8733 -13.8558 -13.8317
   -13.6892 -13.6846   0.0555   0.5500   4.7549   5.0704   9.4208   9.4228
     9.6235  10.1797

     occupation numbers 
     1.0000   1.0000   1.0000   1.0000   1.0000   1.0000   1.0000   1.0000
     1.0000   1.0000   1.0000   1.0000   1.0000   1.0000   0.0000   0.0000
     0.0000   0.0000

          k =-0.0000-0.4243 0.6364 (  3908 PWs)   bands (ev):

   -14.1142 -14.1064 -13.9639 -13.9263 -13.8941 -13.8758 -13.8658 -13.8323
   -13.6896 -13.6819   0.0341   0.5790   4.6146   5.1528   9.4213   9.4231
     9.6943  10.8321

     occupation numbers 
     1.0000   1.0000   1.0000   1.0000   1.0000   1.0000   1.0000   1.0000
     1.0000   1.0000   1.0000   1.0000   1.0000   1.0000   0.0000   0.0000
     0.0000   0.0000

          k =-0.7071 0.2121 0.0000 (  3924 PWs)   bands (ev):

   -14.1078 -14.1078 -13.9593 -13.9592 -13.8826 -13.8820 -13.8377 -13.8375
   -13.6882 -13.6882   0.2941   0.2943   4.9572   4.9572   9.4198   9.4215
     9.5550   9.5550

     occupation numbers 
     1.0000   1.0000   1.0000   1.0000   1.0000   1.0000   1.0000   1.0000
     1.0000   1.0000   1.0000   1.0000   1.0000   1.0000   0.0000   0.0000
     0.0000   0.0000

          k =-0.1414-0.4243 0.7071 (  3899 PWs)   bands (ev):

   -14.1109 -14.1044 -13.9809 -13.9206 -13.9051 -13.8839 -13.8485 -13.8188
   -13.6921 -13.6861  -0.4781   1.1412   4.6816   5.3641   9.4216   9.4234
    10.1162  10.2646

     occupation numbers 
     1.0000   1.0000   1.0000   1.0000   1.0000   1.0000   1.0000   1.0000
     1.0000   1.0000   1.0000   1.0000   1.0000   1.0000   0.0000   0.0000
     0.0000   0.0000

          k =-0.1061-0.3889 0.6718 (  3921 PWs)   bands (ev):

   -14.1135 -14.1060 -13.9702 -13.9136 -13.9078 -13.8793 -13.8597 -13.8274
   -13.6903 -13.6830  -0.2601   0.8960   4.6129   5.2437   9.4215   9.4232
    10.1545  10.6696

     occupation numbers 
     1.0000   1.0000   1.0000   1.0000   1.0000   1.0000   1.0000   1.0000
     1.0000   1.0000   1.0000   1.0000   1.0000   1.0000   0.0000   0.0000
     0.0000   0.0000

          k =-0.0707-0.3536 0.6364 (  3914 PWs)   bands (ev):

   -14.1144 -14.1065 -13.9661 -13.9143 -13.9035 -13.8798 -13.8638 -13.8306
   -13.6897 -13.6819  -0.1592   0.7858   4.5916   5.2003   9.4216   9.4233
    10.1581  10.7889

     occupation numbers 
     1.0000   1.0000   1.0000   1.0000   1.0000   1.0000   1.0000   1.0000
     1.0000   1.0000   1.0000   1.0000   1.0000   1.0000   0.0000   0.0000
     0.0000   0.0000

          k =-0.0707-0.4243 0.7071 (  3922 PWs)   bands (ev):

   -14.1118 -14.1082 -13.9650 -13.9265 -13.9030 -13.8665 -13.8653 -13.8317
   -13.6880 -13.6845  -0.0961   0.7198   4.7179   5.0619   9.4216   9.4232
    10.2296  10.2303

     occupation numbers 
     1.0000   1.0000   1.0000   1.0000   1.0000   1.0000   1.0000   1.0000
     1.0000   1.0000   1.0000   1.0000   1.0000   1.0000   0.0000   0.0000
     0.0000   0.0000

          k =-0.0354-0.3889 0.6718 (  3911 PWs)   bands (ev):

   -14.1134 -14.1091 -13.9557 -13.9284 -13.8961 -13.8762 -13.8625 -13.8393
   -13.6869 -13.6827   0.0681   0.5522   4.6776   4.9961   9.4217   9.4234
    10.2757  10.8066

     occupation numbers 
     1.0000   1.0000   1.0000   1.0000   1.0000   1.0000   1.0000   1.0000
     1.0000   1.0000   1.0000   1.0000   1.0000   1.0000   0.0000   0.0000
     0.0000   0.0000

          k = 0.0000-0.3536 0.6364 (  3915 PWs)   bands (ev):

   -14.1141 -14.1083 -13.9593 -13.9206 -13.9010 -13.8722 -13.8689 -13.8361
   -13.6878 -13.6821  -0.0304   0.6557   4.6224   5.0762   9.4217   9.4233
    10.3053  10.9552

     occupation numbers 
     1.0000   1.0000   1.0000   1.0000   1.0000   1.0000   1.0000   1.0000
     1.0000   1.0000   1.0000   1.0000   1.0000   1.0000   0.0000   0.0000
     0.0000   0.0000

          k =-0.7071 0.2828 0.0000 (  3920 PWs)   bands (ev):

   -14.1108 -14.1108 -13.9468 -13.9466 -13.8851 -13.8845 -13.8477 -13.8475
   -13.6852 -13.6852   0.3055   0.3057   4.8447   4.8447   9.4216   9.4232
    10.2317  10.2318

     occupation numbers 
     1.0000   1.0000   1.0000   1.0000   1.0000   1.0000   1.0000   1.0000
     1.0000   1.0000   1.0000   1.0000   1.0000   1.0000   0.0000   0.0000
     0.0000   0.0000

          k =-0.7071 0.3536 0.0000 (  3884 PWs)   bands (ev):

   -14.1119 -14.1119 -13.9412 -13.9410 -13.8868 -13.8862 -13.8516 -13.8514
   -13.6842 -13.6842   0.3099   0.3101   4.8041   4.8041   9.4220   9.4237
    10.7329  10.7330

     occupation numbers 
     1.0000   1.0000   1.0000   1.0000   1.0000   1.0000   1.0000   1.0000
     1.0000   1.0000   1.0000   1.0000   1.0000   1.0000   0.0000   0.0000
     0.0000   0.0000

     the Fermi energy is     7.5489 ev

!    total energy              =    -256.22140325 Ry
     Harris-Foulkes estimate   =    -256.22140291 Ry
     estimated scf accuracy    <       0.00000090 Ry

     The total energy is the sum of the following terms:

     one-electron contribution =    -136.18397900 Ry
     hartree contribution      =      79.21950098 Ry
     xc contribution           =     -31.47548825 Ry
     ewald contribution        =    -167.78134162 Ry
     smearing contrib. (-TS)   =      -0.00009536 Ry

     convergence has been achieved in   4 iterations

     Writing output data file Sn.save
 
     init_run     :      4.61s CPU      4.78s WALL (       1 calls)
     electrons    :    100.90s CPU    102.84s WALL (       1 calls)

     Called by init_run:
     wfcinit      :      4.43s CPU      4.55s WALL (       1 calls)
     potinit      :      0.02s CPU      0.02s WALL (       1 calls)

     Called by electrons:
     c_bands      :     91.03s CPU     92.78s WALL (       5 calls)
     sum_band     :      9.82s CPU      9.98s WALL (       5 calls)
     v_of_rho     :      0.04s CPU      0.04s WALL (       5 calls)
     v_h          :      0.00s CPU      0.00s WALL (       5 calls)
     v_xc         :      0.04s CPU      0.04s WALL (       5 calls)
     mix_rho      :      0.00s CPU      0.00s WALL (       5 calls)

     Called by c_bands:
     init_us_2    :      0.34s CPU      0.37s WALL (    2816 calls)
     cegterg      :     89.12s CPU     90.70s WALL (    1280 calls)

     Called by sum_band:

     Called by *egterg:
     h_psi        :     76.80s CPU     78.21s WALL (    6947 calls)
     g_psi        :      0.22s CPU      0.22s WALL (    5411 calls)
     cdiaghg      :      7.25s CPU      7.34s WALL (    6435 calls)
     cegterg:over :      4.16s CPU      4.24s WALL (    5411 calls)
     cegterg:upda :      1.08s CPU      1.10s WALL (    5411 calls)
     cegterg:last :      0.63s CPU      0.64s WALL (    1792 calls)

     Called by h_psi:
     h_psi:vloc   :     72.22s CPU     73.55s WALL (    6947 calls)
     h_psi:vnl    :      4.48s CPU      4.54s WALL (    6947 calls)
     add_vuspsi   :      1.02s CPU      1.03s WALL (    6947 calls)

     General routines
     calbec       :      3.40s CPU      3.47s WALL (    6947 calls)
     fft          :      0.06s CPU      0.06s WALL (      56 calls)
     fftw         :     79.09s CPU     80.51s WALL (  192650 calls)
     davcio       :      0.01s CPU      0.10s WALL (     256 calls)
 
     Parallel routines
     fft_scatter  :     61.30s CPU     62.46s WALL (  192706 calls)
 
     PWSCF        :  1m46.02s CPU     1m48.36s WALL

 
   This run was terminated on:   0:54:37  21Feb2020            

=------------------------------------------------------------------------------=
   JOB DONE.
=------------------------------------------------------------------------------=
