
     Program PWSCF v.5.4.0 starts on 16Mar2020 at 22:54:43 

     This program is part of the open-source Quantum ESPRESSO suite
     for quantum simulation of materials; please cite
         "P. Giannozzi et al., J. Phys.:Condens. Matter 21 395502 (2009);
          URL http://www.quantum-espresso.org", 
     in publications or presentations arising from this work. More details at
     http://www.quantum-espresso.org/quote

     Parallel version (MPI & OpenMP), running on      16 processor cores
     Number of MPI processes:                16
     Threads/MPI process:                     1
     R & G space division:  proc/nbgrp/npool/nimage =      16
     Waiting for input...
     Reading input from standard input
Warning: card &IONS ignored
Warning: card / ignored
Warning: card &CELL ignored
Warning: card / ignored

     Current dimensions of program PWSCF are:
     Max number of different atomic species (ntypx) = 10
     Max number of k-points (npk) =  40000
     Max angular momentum in pseudopotentials (lmaxx) =  3
               file Sn.pbe-dn-kjpaw_psl.0.2.UPF: wavefunction(s)  5P 4D renormalized
     Message from routine setup:
     At least one non s.o. pseudo

     Subspace diagonalization in iterative solution of the eigenvalue problem:
     a serial algorithm will be used

 
     Parallelization info
     --------------------
     sticks:   dense  smooth     PW     G-vecs:    dense   smooth      PW
     Min         109     109     31                 3022     3022     473
     Max         111     111     32                 3024     3024     477
     Sum        1759    1759    511                48359    48359    7583
 

     Title: 
     Sn                                                                         


     bravais-lattice index     =            0
     lattice parameter (alat)  =       8.9127  a.u.
     unit-cell volume          =     500.6268 (a.u.)^3
     number of atoms/cell      =            2
     number of atomic types    =            1
     number of electrons       =        28.00
     number of Kohn-Sham states=           36
     kinetic-energy cutoff     =      80.0000  Ry
     charge density cutoff     =     320.0000  Ry
     convergence threshold     =      1.0E-06
     mixing beta               =       0.7000
     number of iterations used =            8  plain     mixing
     Exchange-correlation      =  SLA  PW   PBX  PBC ( 1  4  3  4 0 0)
     Non magnetic calculation with spin-orbit


     celldm(1)=   8.912709  celldm(2)=   0.000000  celldm(3)=   0.000000
     celldm(4)=   0.000000  celldm(5)=   0.000000  celldm(6)=   0.000000

     crystal axes: (cart. coord. in units of alat)
               a(1) = (   0.000000   0.707107   0.707107 )  
               a(2) = (   0.707107   0.000000   0.707107 )  
               a(3) = (   0.707107   0.707107   0.000000 )  

     reciprocal axes: (cart. coord. in units 2 pi/alat)
               b(1) = ( -0.707107  0.707107  0.707107 )  
               b(2) = (  0.707107 -0.707107  0.707107 )  
               b(3) = (  0.707107  0.707107 -0.707107 )  


     PseudoPot. # 1 for Sn read from file:
     ../PseudopotentialDatabase/Sn.pbe-dn-kjpaw_psl.0.2.UPF
     MD5 check sum: b79c227927c2421b8b427190f2e58519
     Pseudo is Projector augmented-wave + core cor, Zval = 14.0
     Generated using "atomic" code by A. Dal Corso  v.5.0.2 svn rev. 9415
     Shape of augmentation charge: BESSEL
     Using radial grid of 1243 points,  6 beta functions with: 
                l(1) =   0
                l(2) =   0
                l(3) =   1
                l(4) =   1
                l(5) =   2
                l(6) =   2
     Q(r) pseudized with 0 coefficients 


     atomic species   valence    mass     pseudopotential
        Sn            14.00   118.71000     Sn( 1.00)

     24 Sym. Ops. (no inversion) found
          (note: 24 additional sym.ops. were found but ignored
           their fractional translations are incommensurate with FFT grid)

                                    s                        frac. trans.

      isym =  1     identity                                     

 cryst.   s( 1) = (     1          0          0      )
                  (     0          1          0      )
                  (     0          0          1      )

 cart.    s( 1) = (  1.0000000  0.0000000  0.0000000 )
                  (  0.0000000  1.0000000  0.0000000 )
                  (  0.0000000  0.0000000  1.0000000 )


      isym =  2     180 deg rotation - cart. axis [0,0,1]        

 cryst.   s( 2) = (     0          1         -1      )
                  (     1          0         -1      )
                  (     0          0         -1      )

 cart.    s( 2) = ( -1.0000000  0.0000000  0.0000000 )
                  (  0.0000000 -1.0000000  0.0000000 )
                  (  0.0000000  0.0000000  1.0000000 )


      isym =  3     180 deg rotation - cart. axis [0,1,0]        

 cryst.   s( 3) = (     0         -1          1      )
                  (     0         -1          0      )
                  (     1         -1          0      )

 cart.    s( 3) = ( -1.0000000  0.0000000  0.0000000 )
                  (  0.0000000  1.0000000  0.0000000 )
                  (  0.0000000  0.0000000 -1.0000000 )


      isym =  4     180 deg rotation - cart. axis [1,0,0]        

 cryst.   s( 4) = (    -1          0          0      )
                  (    -1          0          1      )
                  (    -1          1          0      )

 cart.    s( 4) = (  1.0000000  0.0000000  0.0000000 )
                  (  0.0000000 -1.0000000  0.0000000 )
                  (  0.0000000  0.0000000 -1.0000000 )


      isym =  5     120 deg rotation - cart. axis [-1,-1,-1]     

 cryst.   s( 5) = (     0          0          1      )
                  (     1          0          0      )
                  (     0          1          0      )

 cart.    s( 5) = (  0.0000000  1.0000000  0.0000000 )
                  (  0.0000000  0.0000000  1.0000000 )
                  (  1.0000000  0.0000000  0.0000000 )


      isym =  6     120 deg rotation - cart. axis [-1,1,1]       

 cryst.   s( 6) = (     1         -1          0      )
                  (     0         -1          1      )
                  (     0         -1          0      )

 cart.    s( 6) = (  0.0000000 -1.0000000  0.0000000 )
                  (  0.0000000  0.0000000  1.0000000 )
                  ( -1.0000000  0.0000000  0.0000000 )


      isym =  7     120 deg rotation - cart. axis [1,1,-1]       

 cryst.   s( 7) = (    -1          1          0      )
                  (    -1          0          0      )
                  (    -1          0          1      )

 cart.    s( 7) = (  0.0000000  1.0000000  0.0000000 )
                  (  0.0000000  0.0000000 -1.0000000 )
                  ( -1.0000000  0.0000000  0.0000000 )


      isym =  8     120 deg rotation - cart. axis [1,-1,1]       

 cryst.   s( 8) = (     0          0         -1      )
                  (     0          1         -1      )
                  (     1          0         -1      )

 cart.    s( 8) = (  0.0000000 -1.0000000  0.0000000 )
                  (  0.0000000  0.0000000 -1.0000000 )
                  (  1.0000000  0.0000000  0.0000000 )


      isym =  9     120 deg rotation - cart. axis [1,1,1]        

 cryst.   s( 9) = (     0          1          0      )
                  (     0          0          1      )
                  (     1          0          0      )

 cart.    s( 9) = (  0.0000000  0.0000000  1.0000000 )
                  (  1.0000000  0.0000000  0.0000000 )
                  (  0.0000000  1.0000000  0.0000000 )


      isym = 10     120 deg rotation - cart. axis [-1,1,-1]      

 cryst.   s(10) = (    -1          0          1      )
                  (    -1          1          0      )
                  (    -1          0          0      )

 cart.    s(10) = (  0.0000000  0.0000000  1.0000000 )
                  ( -1.0000000  0.0000000  0.0000000 )
                  (  0.0000000 -1.0000000  0.0000000 )


      isym = 11     120 deg rotation - cart. axis [1,-1,-1]      

 cryst.   s(11) = (     1          0         -1      )
                  (     0          0         -1      )
                  (     0          1         -1      )

 cart.    s(11) = (  0.0000000  0.0000000 -1.0000000 )
                  ( -1.0000000  0.0000000  0.0000000 )
                  (  0.0000000  1.0000000  0.0000000 )


      isym = 12     120 deg rotation - cart. axis [-1,-1,1]      

 cryst.   s(12) = (     0         -1          0      )
                  (     1         -1          0      )
                  (     0         -1          1      )

 cart.    s(12) = (  0.0000000  0.0000000 -1.0000000 )
                  (  1.0000000  0.0000000  0.0000000 )
                  (  0.0000000 -1.0000000  0.0000000 )


      isym = 13     inv. 180 deg rotation - cart. axis [1,1,0]   

 cryst.   s(13) = (     1          0         -1      )
                  (     0          1         -1      )
                  (     0          0         -1      )

 cart.    s(13) = (  0.0000000 -1.0000000  0.0000000 )
                  ( -1.0000000  0.0000000  0.0000000 )
                  (  0.0000000  0.0000000  1.0000000 )


      isym = 14     inv. 180 deg rotation - cart. axis [1,-1,0]  

 cryst.   s(14) = (     0          1          0      )
                  (     1          0          0      )
                  (     0          0          1      )

 cart.    s(14) = (  0.0000000  1.0000000  0.0000000 )
                  (  1.0000000  0.0000000  0.0000000 )
                  (  0.0000000  0.0000000  1.0000000 )


      isym = 15     inv.  90 deg rotation - cart. axis [0,0,-1]  

 cryst.   s(15) = (     0         -1          0      )
                  (     0         -1          1      )
                  (     1         -1          0      )

 cart.    s(15) = (  0.0000000 -1.0000000  0.0000000 )
                  (  1.0000000  0.0000000  0.0000000 )
                  (  0.0000000  0.0000000 -1.0000000 )


      isym = 16     inv.  90 deg rotation - cart. axis [0,0,1]   

 cryst.   s(16) = (    -1          0          1      )
                  (    -1          0          0      )
                  (    -1          1          0      )

 cart.    s(16) = (  0.0000000  1.0000000  0.0000000 )
                  ( -1.0000000  0.0000000  0.0000000 )
                  (  0.0000000  0.0000000 -1.0000000 )


      isym = 17     inv. 180 deg rotation - cart. axis [1,0,1]   

 cryst.   s(17) = (     1         -1          0      )
                  (     0         -1          0      )
                  (     0         -1          1      )

 cart.    s(17) = (  0.0000000  0.0000000 -1.0000000 )
                  (  0.0000000  1.0000000  0.0000000 )
                  ( -1.0000000  0.0000000  0.0000000 )


      isym = 18     inv. 180 deg rotation - cart. axis [-1,0,1]  

 cryst.   s(18) = (     0          0          1      )
                  (     0          1          0      )
                  (     1          0          0      )

 cart.    s(18) = (  0.0000000  0.0000000  1.0000000 )
                  (  0.0000000  1.0000000  0.0000000 )
                  (  1.0000000  0.0000000  0.0000000 )


      isym = 19     inv.  90 deg rotation - cart. axis [0,1,0]   

 cryst.   s(19) = (     0          0         -1      )
                  (     1          0         -1      )
                  (     0          1         -1      )

 cart.    s(19) = (  0.0000000  0.0000000 -1.0000000 )
                  (  0.0000000 -1.0000000  0.0000000 )
                  (  1.0000000  0.0000000  0.0000000 )


      isym = 20     inv.  90 deg rotation - cart. axis [0,-1,0]  

 cryst.   s(20) = (    -1          1          0      )
                  (    -1          0          1      )
                  (    -1          0          0      )

 cart.    s(20) = (  0.0000000  0.0000000  1.0000000 )
                  (  0.0000000 -1.0000000  0.0000000 )
                  ( -1.0000000  0.0000000  0.0000000 )


      isym = 21     inv. 180 deg rotation - cart. axis [0,1,1]   

 cryst.   s(21) = (    -1          0          0      )
                  (    -1          1          0      )
                  (    -1          0          1      )

 cart.    s(21) = (  1.0000000  0.0000000  0.0000000 )
                  (  0.0000000  0.0000000 -1.0000000 )
                  (  0.0000000 -1.0000000  0.0000000 )


      isym = 22     inv. 180 deg rotation - cart. axis [0,1,-1]  

 cryst.   s(22) = (     1          0          0      )
                  (     0          0          1      )
                  (     0          1          0      )

 cart.    s(22) = (  1.0000000  0.0000000  0.0000000 )
                  (  0.0000000  0.0000000  1.0000000 )
                  (  0.0000000  1.0000000  0.0000000 )


      isym = 23     inv.  90 deg rotation - cart. axis [-1,0,0]  

 cryst.   s(23) = (     0          1         -1      )
                  (     0          0         -1      )
                  (     1          0         -1      )

 cart.    s(23) = ( -1.0000000  0.0000000  0.0000000 )
                  (  0.0000000  0.0000000 -1.0000000 )
                  (  0.0000000  1.0000000  0.0000000 )


      isym = 24     inv.  90 deg rotation - cart. axis [1,0,0]   

 cryst.   s(24) = (     0         -1          1      )
                  (     1         -1          0      )
                  (     0         -1          0      )

 cart.    s(24) = ( -1.0000000  0.0000000  0.0000000 )
                  (  0.0000000  0.0000000  1.0000000 )
                  (  0.0000000 -1.0000000  0.0000000 )


   Cartesian axes

     site n.     atom                  positions (alat units)
         1           Sn  tau(   1) = (   0.0000000   0.0000000   0.0000000  )
         2           Sn  tau(   2) = (   0.3535534   0.3535534   0.3535534  )

   Crystallographic axes

     site n.     atom                  positions (cryst. coord.)
         1           Sn  tau(   1) = (  0.0000000  0.0000000  0.0000000  )
         2           Sn  tau(   2) = (  0.2500000  0.2500000  0.2500000  )

     number of k points=   145  gaussian smearing, width (Ry)=  0.0001
                       cart. coord. in units 2pi/alat
        k(    1) = (   0.0000000   0.0000000   0.0000000), wk =   0.0002441
        k(    2) = (   0.0441942   0.0441942  -0.0441942), wk =   0.0019531
        k(    3) = (   0.0883883   0.0883883  -0.0883883), wk =   0.0019531
        k(    4) = (   0.1325825   0.1325825  -0.1325825), wk =   0.0019531
        k(    5) = (   0.1767767   0.1767767  -0.1767767), wk =   0.0019531
        k(    6) = (   0.2209709   0.2209709  -0.2209709), wk =   0.0019531
        k(    7) = (   0.2651650   0.2651650  -0.2651650), wk =   0.0019531
        k(    8) = (   0.3093592   0.3093592  -0.3093592), wk =   0.0019531
        k(    9) = (  -0.3535534  -0.3535534   0.3535534), wk =   0.0009766
        k(   10) = (   0.0883883   0.0000000   0.0000000), wk =   0.0014648
        k(   11) = (   0.1325825   0.0441942  -0.0441942), wk =   0.0058594
        k(   12) = (   0.1767767   0.0883883  -0.0883883), wk =   0.0058594
        k(   13) = (   0.2209709   0.1325825  -0.1325825), wk =   0.0058594
        k(   14) = (   0.2651650   0.1767767  -0.1767767), wk =   0.0058594
        k(   15) = (   0.3093592   0.2209709  -0.2209709), wk =   0.0058594
        k(   16) = (   0.3535534   0.2651650  -0.2651650), wk =   0.0058594
        k(   17) = (  -0.3093592  -0.3977476   0.3977476), wk =   0.0058594
        k(   18) = (  -0.2651650  -0.3535534   0.3535534), wk =   0.0058594
        k(   19) = (  -0.2209709  -0.3093592   0.3093592), wk =   0.0058594
        k(   20) = (  -0.1767767  -0.2651650   0.2651650), wk =   0.0058594
        k(   21) = (  -0.1325825  -0.2209709   0.2209709), wk =   0.0058594
        k(   22) = (  -0.0883883  -0.1767767   0.1767767), wk =   0.0058594
        k(   23) = (  -0.0441942  -0.1325825   0.1325825), wk =   0.0058594
        k(   24) = (   0.0000000  -0.0883883   0.0883883), wk =   0.0029297
        k(   25) = (   0.1767767   0.0000000   0.0000000), wk =   0.0014648
        k(   26) = (   0.2209709   0.0441942  -0.0441942), wk =   0.0058594
        k(   27) = (   0.2651650   0.0883883  -0.0883883), wk =   0.0058594
        k(   28) = (   0.3093592   0.1325825  -0.1325825), wk =   0.0058594
        k(   29) = (   0.3535534   0.1767767  -0.1767767), wk =   0.0058594
        k(   30) = (   0.3977476   0.2209709  -0.2209709), wk =   0.0058594
        k(   31) = (  -0.2651650  -0.4419417   0.4419417), wk =   0.0058594
        k(   32) = (  -0.2209709  -0.3977476   0.3977476), wk =   0.0058594
        k(   33) = (  -0.1767767  -0.3535534   0.3535534), wk =   0.0058594
        k(   34) = (  -0.1325825  -0.3093592   0.3093592), wk =   0.0058594
        k(   35) = (  -0.0883883  -0.2651650   0.2651650), wk =   0.0058594
        k(   36) = (  -0.0441942  -0.2209709   0.2209709), wk =   0.0058594
        k(   37) = (   0.0000000  -0.1767767   0.1767767), wk =   0.0029297
        k(   38) = (   0.2651650   0.0000000   0.0000000), wk =   0.0014648
        k(   39) = (   0.3093592   0.0441942  -0.0441942), wk =   0.0058594
        k(   40) = (   0.3535534   0.0883883  -0.0883883), wk =   0.0058594
        k(   41) = (   0.3977476   0.1325825  -0.1325825), wk =   0.0058594
        k(   42) = (   0.4419417   0.1767767  -0.1767767), wk =   0.0058594
        k(   43) = (  -0.2209709  -0.4861359   0.4861359), wk =   0.0058594
        k(   44) = (  -0.1767767  -0.4419417   0.4419417), wk =   0.0058594
        k(   45) = (  -0.1325825  -0.3977476   0.3977476), wk =   0.0058594
        k(   46) = (  -0.0883883  -0.3535534   0.3535534), wk =   0.0058594
        k(   47) = (  -0.0441942  -0.3093592   0.3093592), wk =   0.0058594
        k(   48) = (   0.0000000  -0.2651650   0.2651650), wk =   0.0029297
        k(   49) = (   0.3535534   0.0000000   0.0000000), wk =   0.0014648
        k(   50) = (   0.3977476   0.0441942  -0.0441942), wk =   0.0058594
        k(   51) = (   0.4419417   0.0883883  -0.0883883), wk =   0.0058594
        k(   52) = (   0.4861359   0.1325825  -0.1325825), wk =   0.0058594
        k(   53) = (  -0.1767767  -0.5303301   0.5303301), wk =   0.0058594
        k(   54) = (  -0.1325825  -0.4861359   0.4861359), wk =   0.0058594
        k(   55) = (  -0.0883883  -0.4419417   0.4419417), wk =   0.0058594
        k(   56) = (  -0.0441942  -0.3977476   0.3977476), wk =   0.0058594
        k(   57) = (   0.0000000  -0.3535534   0.3535534), wk =   0.0029297
        k(   58) = (   0.4419417   0.0000000   0.0000000), wk =   0.0014648
        k(   59) = (   0.4861359   0.0441942  -0.0441942), wk =   0.0058594
        k(   60) = (   0.5303301   0.0883883  -0.0883883), wk =   0.0058594
        k(   61) = (  -0.1325825  -0.5745243   0.5745243), wk =   0.0058594
        k(   62) = (  -0.0883883  -0.5303301   0.5303301), wk =   0.0058594
        k(   63) = (  -0.0441942  -0.4861359   0.4861359), wk =   0.0058594
        k(   64) = (   0.0000000  -0.4419417   0.4419417), wk =   0.0029297
        k(   65) = (   0.5303301   0.0000000   0.0000000), wk =   0.0014648
        k(   66) = (   0.5745243   0.0441942  -0.0441942), wk =   0.0058594
        k(   67) = (  -0.0883883  -0.6187184   0.6187184), wk =   0.0058594
        k(   68) = (  -0.0441942  -0.5745243   0.5745243), wk =   0.0058594
        k(   69) = (   0.0000000  -0.5303301   0.5303301), wk =   0.0029297
        k(   70) = (   0.6187184   0.0000000   0.0000000), wk =   0.0014648
        k(   71) = (  -0.0441942  -0.6629126   0.6629126), wk =   0.0058594
        k(   72) = (   0.0000000  -0.6187184   0.6187184), wk =   0.0029297
        k(   73) = (  -0.7071068   0.0000000   0.0000000), wk =   0.0007324
        k(   74) = (   0.1767767   0.0883883   0.0000000), wk =   0.0058594
        k(   75) = (   0.2209709   0.1325825  -0.0441942), wk =   0.0117188
        k(   76) = (   0.2651650   0.1767767  -0.0883883), wk =   0.0117188
        k(   77) = (   0.3093592   0.2209709  -0.1325825), wk =   0.0117188
        k(   78) = (   0.3535534   0.2651650  -0.1767767), wk =   0.0117188
        k(   79) = (  -0.3093592  -0.3977476   0.4861359), wk =   0.0117188
        k(   80) = (  -0.2651650  -0.3535534   0.4419417), wk =   0.0058594
        k(   81) = (   0.2651650   0.0883883   0.0000000), wk =   0.0058594
        k(   82) = (   0.3093592   0.1325825  -0.0441942), wk =   0.0117188
        k(   83) = (   0.3535534   0.1767767  -0.0883883), wk =   0.0117188
        k(   84) = (   0.3977476   0.2209709  -0.1325825), wk =   0.0117188
        k(   85) = (  -0.2651650  -0.4419417   0.5303301), wk =   0.0117188
        k(   86) = (  -0.2209709  -0.3977476   0.4861359), wk =   0.0117188
        k(   87) = (  -0.1767767  -0.3535534   0.4419417), wk =   0.0117188
        k(   88) = (  -0.1325825  -0.3093592   0.3977476), wk =   0.0117188
        k(   89) = (  -0.0883883  -0.2651650   0.3535534), wk =   0.0117188
        k(   90) = (  -0.0441942  -0.2209709   0.3093592), wk =   0.0117188
        k(   91) = (   0.0000000  -0.1767767   0.2651650), wk =   0.0058594
        k(   92) = (   0.3535534   0.0883883   0.0000000), wk =   0.0058594
        k(   93) = (   0.3977476   0.1325825  -0.0441942), wk =   0.0117188
        k(   94) = (   0.4419417   0.1767767  -0.0883883), wk =   0.0117188
        k(   95) = (  -0.2209709  -0.4861359   0.5745243), wk =   0.0117188
        k(   96) = (  -0.1767767  -0.4419417   0.5303301), wk =   0.0117188
        k(   97) = (  -0.1325825  -0.3977476   0.4861359), wk =   0.0117188
        k(   98) = (  -0.0883883  -0.3535534   0.4419417), wk =   0.0117188
        k(   99) = (  -0.0441942  -0.3093592   0.3977476), wk =   0.0117188
        k(  100) = (   0.0000000  -0.2651650   0.3535534), wk =   0.0058594
        k(  101) = (   0.4419417   0.0883883   0.0000000), wk =   0.0058594
        k(  102) = (   0.4861359   0.1325825  -0.0441942), wk =   0.0117188
        k(  103) = (  -0.1767767  -0.5303301   0.6187184), wk =   0.0117188
        k(  104) = (  -0.1325825  -0.4861359   0.5745243), wk =   0.0117188
        k(  105) = (  -0.0883883  -0.4419417   0.5303301), wk =   0.0117188
        k(  106) = (  -0.0441942  -0.3977476   0.4861359), wk =   0.0117188
        k(  107) = (   0.0000000  -0.3535534   0.4419417), wk =   0.0058594
        k(  108) = (   0.5303301   0.0883883   0.0000000), wk =   0.0058594
        k(  109) = (  -0.1325825  -0.5745243   0.6629126), wk =   0.0117188
        k(  110) = (  -0.0883883  -0.5303301   0.6187184), wk =   0.0117188
        k(  111) = (  -0.0441942  -0.4861359   0.5745243), wk =   0.0117188
        k(  112) = (   0.0000000  -0.4419417   0.5303301), wk =   0.0058594
        k(  113) = (  -0.0883883  -0.6187184   0.7071068), wk =   0.0058594
        k(  114) = (  -0.0441942  -0.5745243   0.6629126), wk =   0.0117188
        k(  115) = (  -0.0000000  -0.5303301   0.6187184), wk =   0.0058594
        k(  116) = (  -0.7071068   0.0883883   0.0000000), wk =   0.0029297
        k(  117) = (   0.3535534   0.1767767   0.0000000), wk =   0.0058594
        k(  118) = (   0.3977476   0.2209709  -0.0441942), wk =   0.0117188
        k(  119) = (  -0.2651650  -0.4419417   0.6187184), wk =   0.0117188
        k(  120) = (  -0.2209709  -0.3977476   0.5745243), wk =   0.0117188
        k(  121) = (  -0.1767767  -0.3535534   0.5303301), wk =   0.0058594
        k(  122) = (   0.4419417   0.1767767   0.0000000), wk =   0.0058594
        k(  123) = (  -0.2209709  -0.4861359   0.6629126), wk =   0.0117188
        k(  124) = (  -0.1767767  -0.4419417   0.6187184), wk =   0.0117188
        k(  125) = (  -0.1325825  -0.3977476   0.5745243), wk =   0.0117188
        k(  126) = (  -0.0883883  -0.3535534   0.5303301), wk =   0.0117188
        k(  127) = (  -0.0441942  -0.3093592   0.4861359), wk =   0.0117188
        k(  128) = (   0.0000000  -0.2651650   0.4419417), wk =   0.0058594
        k(  129) = (  -0.1767767  -0.5303301   0.7071068), wk =   0.0058594
        k(  130) = (  -0.1325825  -0.4861359   0.6629126), wk =   0.0117188
        k(  131) = (  -0.0883883  -0.4419417   0.6187184), wk =   0.0117188
        k(  132) = (  -0.0441942  -0.3977476   0.5745243), wk =   0.0117188
        k(  133) = (   0.0000000  -0.3535534   0.5303301), wk =   0.0058594
        k(  134) = (  -0.0883883  -0.5303301   0.7071068), wk =   0.0058594
        k(  135) = (  -0.0441942  -0.4861359   0.6629126), wk =   0.0117188
        k(  136) = (   0.0000000  -0.4419417   0.6187184), wk =   0.0058594
        k(  137) = (  -0.7071068   0.1767767   0.0000000), wk =   0.0029297
        k(  138) = (  -0.1767767  -0.4419417   0.7071068), wk =   0.0058594
        k(  139) = (  -0.1325825  -0.3977476   0.6629126), wk =   0.0117188
        k(  140) = (  -0.0883883  -0.3535534   0.6187184), wk =   0.0058594
        k(  141) = (  -0.0883883  -0.4419417   0.7071068), wk =   0.0058594
        k(  142) = (  -0.0441942  -0.3977476   0.6629126), wk =   0.0117188
        k(  143) = (  -0.0000000  -0.3535534   0.6187184), wk =   0.0058594
        k(  144) = (  -0.7071068   0.2651650   0.0000000), wk =   0.0029297
        k(  145) = (  -0.7071068   0.3535534   0.0000000), wk =   0.0014648

                       cryst. coord.
        k(    1) = (   0.0000000   0.0000000   0.0000000), wk =   0.0002441
        k(    2) = (   0.0000000   0.0000000   0.0625000), wk =   0.0019531
        k(    3) = (   0.0000000   0.0000000   0.1250000), wk =   0.0019531
        k(    4) = (   0.0000000   0.0000000   0.1875000), wk =   0.0019531
        k(    5) = (   0.0000000   0.0000000   0.2500000), wk =   0.0019531
        k(    6) = (   0.0000000   0.0000000   0.3125000), wk =   0.0019531
        k(    7) = (   0.0000000   0.0000000   0.3750000), wk =   0.0019531
        k(    8) = (   0.0000000   0.0000000   0.4375000), wk =   0.0019531
        k(    9) = (   0.0000000   0.0000000  -0.5000000), wk =   0.0009766
        k(   10) = (   0.0000000   0.0625000   0.0625000), wk =   0.0014648
        k(   11) = (   0.0000000   0.0625000   0.1250000), wk =   0.0058594
        k(   12) = (   0.0000000   0.0625000   0.1875000), wk =   0.0058594
        k(   13) = (   0.0000000   0.0625000   0.2500000), wk =   0.0058594
        k(   14) = (   0.0000000   0.0625000   0.3125000), wk =   0.0058594
        k(   15) = (   0.0000000   0.0625000   0.3750000), wk =   0.0058594
        k(   16) = (   0.0000000   0.0625000   0.4375000), wk =   0.0058594
        k(   17) = (   0.0000000   0.0625000  -0.5000000), wk =   0.0058594
        k(   18) = (   0.0000000   0.0625000  -0.4375000), wk =   0.0058594
        k(   19) = (   0.0000000   0.0625000  -0.3750000), wk =   0.0058594
        k(   20) = (   0.0000000   0.0625000  -0.3125000), wk =   0.0058594
        k(   21) = (   0.0000000   0.0625000  -0.2500000), wk =   0.0058594
        k(   22) = (   0.0000000   0.0625000  -0.1875000), wk =   0.0058594
        k(   23) = (   0.0000000   0.0625000  -0.1250000), wk =   0.0058594
        k(   24) = (   0.0000000   0.0625000  -0.0625000), wk =   0.0029297
        k(   25) = (   0.0000000   0.1250000   0.1250000), wk =   0.0014648
        k(   26) = (   0.0000000   0.1250000   0.1875000), wk =   0.0058594
        k(   27) = (   0.0000000   0.1250000   0.2500000), wk =   0.0058594
        k(   28) = (   0.0000000   0.1250000   0.3125000), wk =   0.0058594
        k(   29) = (   0.0000000   0.1250000   0.3750000), wk =   0.0058594
        k(   30) = (   0.0000000   0.1250000   0.4375000), wk =   0.0058594
        k(   31) = (   0.0000000   0.1250000  -0.5000000), wk =   0.0058594
        k(   32) = (   0.0000000   0.1250000  -0.4375000), wk =   0.0058594
        k(   33) = (   0.0000000   0.1250000  -0.3750000), wk =   0.0058594
        k(   34) = (   0.0000000   0.1250000  -0.3125000), wk =   0.0058594
        k(   35) = (   0.0000000   0.1250000  -0.2500000), wk =   0.0058594
        k(   36) = (   0.0000000   0.1250000  -0.1875000), wk =   0.0058594
        k(   37) = (   0.0000000   0.1250000  -0.1250000), wk =   0.0029297
        k(   38) = (   0.0000000   0.1875000   0.1875000), wk =   0.0014648
        k(   39) = (   0.0000000   0.1875000   0.2500000), wk =   0.0058594
        k(   40) = (   0.0000000   0.1875000   0.3125000), wk =   0.0058594
        k(   41) = (   0.0000000   0.1875000   0.3750000), wk =   0.0058594
        k(   42) = (   0.0000000   0.1875000   0.4375000), wk =   0.0058594
        k(   43) = (   0.0000000   0.1875000  -0.5000000), wk =   0.0058594
        k(   44) = (   0.0000000   0.1875000  -0.4375000), wk =   0.0058594
        k(   45) = (   0.0000000   0.1875000  -0.3750000), wk =   0.0058594
        k(   46) = (   0.0000000   0.1875000  -0.3125000), wk =   0.0058594
        k(   47) = (   0.0000000   0.1875000  -0.2500000), wk =   0.0058594
        k(   48) = (   0.0000000   0.1875000  -0.1875000), wk =   0.0029297
        k(   49) = (   0.0000000   0.2500000   0.2500000), wk =   0.0014648
        k(   50) = (   0.0000000   0.2500000   0.3125000), wk =   0.0058594
        k(   51) = (   0.0000000   0.2500000   0.3750000), wk =   0.0058594
        k(   52) = (   0.0000000   0.2500000   0.4375000), wk =   0.0058594
        k(   53) = (   0.0000000   0.2500000  -0.5000000), wk =   0.0058594
        k(   54) = (   0.0000000   0.2500000  -0.4375000), wk =   0.0058594
        k(   55) = (   0.0000000   0.2500000  -0.3750000), wk =   0.0058594
        k(   56) = (   0.0000000   0.2500000  -0.3125000), wk =   0.0058594
        k(   57) = (   0.0000000   0.2500000  -0.2500000), wk =   0.0029297
        k(   58) = (   0.0000000   0.3125000   0.3125000), wk =   0.0014648
        k(   59) = (   0.0000000   0.3125000   0.3750000), wk =   0.0058594
        k(   60) = (   0.0000000   0.3125000   0.4375000), wk =   0.0058594
        k(   61) = (   0.0000000   0.3125000  -0.5000000), wk =   0.0058594
        k(   62) = (   0.0000000   0.3125000  -0.4375000), wk =   0.0058594
        k(   63) = (   0.0000000   0.3125000  -0.3750000), wk =   0.0058594
        k(   64) = (   0.0000000   0.3125000  -0.3125000), wk =   0.0029297
        k(   65) = (   0.0000000   0.3750000   0.3750000), wk =   0.0014648
        k(   66) = (   0.0000000   0.3750000   0.4375000), wk =   0.0058594
        k(   67) = (   0.0000000   0.3750000  -0.5000000), wk =   0.0058594
        k(   68) = (   0.0000000   0.3750000  -0.4375000), wk =   0.0058594
        k(   69) = (   0.0000000   0.3750000  -0.3750000), wk =   0.0029297
        k(   70) = (   0.0000000   0.4375000   0.4375000), wk =   0.0014648
        k(   71) = (   0.0000000   0.4375000  -0.5000000), wk =   0.0058594
        k(   72) = (   0.0000000   0.4375000  -0.4375000), wk =   0.0029297
        k(   73) = (   0.0000000  -0.5000000  -0.5000000), wk =   0.0007324
        k(   74) = (   0.0625000   0.1250000   0.1875000), wk =   0.0058594
        k(   75) = (   0.0625000   0.1250000   0.2500000), wk =   0.0117188
        k(   76) = (   0.0625000   0.1250000   0.3125000), wk =   0.0117188
        k(   77) = (   0.0625000   0.1250000   0.3750000), wk =   0.0117188
        k(   78) = (   0.0625000   0.1250000   0.4375000), wk =   0.0117188
        k(   79) = (   0.0625000   0.1250000  -0.5000000), wk =   0.0117188
        k(   80) = (   0.0625000   0.1250000  -0.4375000), wk =   0.0058594
        k(   81) = (   0.0625000   0.1875000   0.2500000), wk =   0.0058594
        k(   82) = (   0.0625000   0.1875000   0.3125000), wk =   0.0117188
        k(   83) = (   0.0625000   0.1875000   0.3750000), wk =   0.0117188
        k(   84) = (   0.0625000   0.1875000   0.4375000), wk =   0.0117188
        k(   85) = (   0.0625000   0.1875000  -0.5000000), wk =   0.0117188
        k(   86) = (   0.0625000   0.1875000  -0.4375000), wk =   0.0117188
        k(   87) = (   0.0625000   0.1875000  -0.3750000), wk =   0.0117188
        k(   88) = (   0.0625000   0.1875000  -0.3125000), wk =   0.0117188
        k(   89) = (   0.0625000   0.1875000  -0.2500000), wk =   0.0117188
        k(   90) = (   0.0625000   0.1875000  -0.1875000), wk =   0.0117188
        k(   91) = (   0.0625000   0.1875000  -0.1250000), wk =   0.0058594
        k(   92) = (   0.0625000   0.2500000   0.3125000), wk =   0.0058594
        k(   93) = (   0.0625000   0.2500000   0.3750000), wk =   0.0117188
        k(   94) = (   0.0625000   0.2500000   0.4375000), wk =   0.0117188
        k(   95) = (   0.0625000   0.2500000  -0.5000000), wk =   0.0117188
        k(   96) = (   0.0625000   0.2500000  -0.4375000), wk =   0.0117188
        k(   97) = (   0.0625000   0.2500000  -0.3750000), wk =   0.0117188
        k(   98) = (   0.0625000   0.2500000  -0.3125000), wk =   0.0117188
        k(   99) = (   0.0625000   0.2500000  -0.2500000), wk =   0.0117188
        k(  100) = (   0.0625000   0.2500000  -0.1875000), wk =   0.0058594
        k(  101) = (   0.0625000   0.3125000   0.3750000), wk =   0.0058594
        k(  102) = (   0.0625000   0.3125000   0.4375000), wk =   0.0117188
        k(  103) = (   0.0625000   0.3125000  -0.5000000), wk =   0.0117188
        k(  104) = (   0.0625000   0.3125000  -0.4375000), wk =   0.0117188
        k(  105) = (   0.0625000   0.3125000  -0.3750000), wk =   0.0117188
        k(  106) = (   0.0625000   0.3125000  -0.3125000), wk =   0.0117188
        k(  107) = (   0.0625000   0.3125000  -0.2500000), wk =   0.0058594
        k(  108) = (   0.0625000   0.3750000   0.4375000), wk =   0.0058594
        k(  109) = (   0.0625000   0.3750000  -0.5000000), wk =   0.0117188
        k(  110) = (   0.0625000   0.3750000  -0.4375000), wk =   0.0117188
        k(  111) = (   0.0625000   0.3750000  -0.3750000), wk =   0.0117188
        k(  112) = (   0.0625000   0.3750000  -0.3125000), wk =   0.0058594
        k(  113) = (   0.0625000   0.4375000  -0.5000000), wk =   0.0058594
        k(  114) = (   0.0625000   0.4375000  -0.4375000), wk =   0.0117188
        k(  115) = (   0.0625000   0.4375000  -0.3750000), wk =   0.0058594
        k(  116) = (   0.0625000  -0.5000000  -0.4375000), wk =   0.0029297
        k(  117) = (   0.1250000   0.2500000   0.3750000), wk =   0.0058594
        k(  118) = (   0.1250000   0.2500000   0.4375000), wk =   0.0117188
        k(  119) = (   0.1250000   0.2500000  -0.5000000), wk =   0.0117188
        k(  120) = (   0.1250000   0.2500000  -0.4375000), wk =   0.0117188
        k(  121) = (   0.1250000   0.2500000  -0.3750000), wk =   0.0058594
        k(  122) = (   0.1250000   0.3125000   0.4375000), wk =   0.0058594
        k(  123) = (   0.1250000   0.3125000  -0.5000000), wk =   0.0117188
        k(  124) = (   0.1250000   0.3125000  -0.4375000), wk =   0.0117188
        k(  125) = (   0.1250000   0.3125000  -0.3750000), wk =   0.0117188
        k(  126) = (   0.1250000   0.3125000  -0.3125000), wk =   0.0117188
        k(  127) = (   0.1250000   0.3125000  -0.2500000), wk =   0.0117188
        k(  128) = (   0.1250000   0.3125000  -0.1875000), wk =   0.0058594
        k(  129) = (   0.1250000   0.3750000  -0.5000000), wk =   0.0058594
        k(  130) = (   0.1250000   0.3750000  -0.4375000), wk =   0.0117188
        k(  131) = (   0.1250000   0.3750000  -0.3750000), wk =   0.0117188
        k(  132) = (   0.1250000   0.3750000  -0.3125000), wk =   0.0117188
        k(  133) = (   0.1250000   0.3750000  -0.2500000), wk =   0.0058594
        k(  134) = (   0.1250000   0.4375000  -0.4375000), wk =   0.0058594
        k(  135) = (   0.1250000   0.4375000  -0.3750000), wk =   0.0117188
        k(  136) = (   0.1250000   0.4375000  -0.3125000), wk =   0.0058594
        k(  137) = (   0.1250000  -0.5000000  -0.3750000), wk =   0.0029297
        k(  138) = (   0.1875000   0.3750000  -0.4375000), wk =   0.0058594
        k(  139) = (   0.1875000   0.3750000  -0.3750000), wk =   0.0117188
        k(  140) = (   0.1875000   0.3750000  -0.3125000), wk =   0.0058594
        k(  141) = (   0.1875000   0.4375000  -0.3750000), wk =   0.0058594
        k(  142) = (   0.1875000   0.4375000  -0.3125000), wk =   0.0117188
        k(  143) = (   0.1875000   0.4375000  -0.2500000), wk =   0.0058594
        k(  144) = (   0.1875000  -0.5000000  -0.3125000), wk =   0.0029297
        k(  145) = (   0.2500000  -0.5000000  -0.2500000), wk =   0.0014648

     Dense  grid:    48359 G-vectors     FFT dimensions: (  54,  54,  54)

     Largest allocated arrays     est. size (Mb)     dimensions
        Kohn-Sham Wavefunctions         0.43 Mb     (     774,   36)
        NL pseudopotentials             0.21 Mb     (     387,   36)
        Each V/rho on FFT grid          0.18 Mb     (   11664)
        Each G-vector array             0.02 Mb     (    3024)
        G-vector shells                 0.00 Mb     (     421)
     Largest temporary arrays     est. size (Mb)     dimensions
        Auxiliary wavefunctions         1.70 Mb     (     774,  144)
        Each subspace H/S matrix        0.32 Mb     (     144,  144)
        Each <psi_i|beta_j> matrix      0.04 Mb     (      36,   2,   36)
        Arrays for rho mixing           1.42 Mb     (   11664,    8)

     Check: negative/imaginary core charge=   -0.000020    0.000000

     Initial potential from superposition of free atoms

     starting charge   27.99723, renormalised to   28.00000
     Starting wfc are   36 randomized atomic wfcs
     Checking if some PAW data can be deallocated... 

     total cpu time spent up to now is       14.8 secs

     Self-consistent Calculation

     iteration #  1     ecut=    80.00 Ry     beta=0.70
     Davidson diagonalization with overlap
     ethr =  1.00E-02,  avg # of iterations =  4.0

     Threshold (ethr) on eigenvalues was too large:
     Diagonalizing with lowered threshold

     Davidson diagonalization with overlap
     ethr =  4.94E-05,  avg # of iterations =  4.2

     total cpu time spent up to now is      134.2 secs

     total energy              =    -884.12735861 Ry
     Harris-Foulkes estimate   =    -884.13155737 Ry
     estimated scf accuracy    <       0.02347021 Ry

     iteration #  2     ecut=    80.00 Ry     beta=0.70
     Davidson diagonalization with overlap
     ethr =  8.38E-05,  avg # of iterations =  1.0

     total cpu time spent up to now is      171.1 secs

     total energy              =    -884.12779890 Ry
     Harris-Foulkes estimate   =    -884.12814645 Ry
     estimated scf accuracy    <       0.00165552 Ry

     iteration #  3     ecut=    80.00 Ry     beta=0.70
     Davidson diagonalization with overlap
     ethr =  5.91E-06,  avg # of iterations =  2.5

     total cpu time spent up to now is      217.9 secs

     total energy              =    -884.12809792 Ry
     Harris-Foulkes estimate   =    -884.12822254 Ry
     estimated scf accuracy    <       0.00016583 Ry

     iteration #  4     ecut=    80.00 Ry     beta=0.70
     Davidson diagonalization with overlap
     ethr =  5.92E-07,  avg # of iterations =  3.0

     total cpu time spent up to now is      272.6 secs

     total energy              =    -884.12816802 Ry
     Harris-Foulkes estimate   =    -884.12816835 Ry
     estimated scf accuracy    <       0.00000806 Ry

     iteration #  5     ecut=    80.00 Ry     beta=0.70
     Davidson diagonalization with overlap
     ethr =  2.88E-08,  avg # of iterations =  3.0

     total cpu time spent up to now is      315.7 secs

     End of self-consistent calculation

          k = 0.0000 0.0000 0.0000 (  5985 PWs)   bands (ev):

   -14.0275 -14.0275 -14.0275 -14.0275 -14.0275 -14.0275 -13.9778 -13.9778
   -13.9778 -13.9778 -13.7313 -13.7313 -13.7313 -13.7313 -13.7313 -13.7313
   -13.7293 -13.7293 -13.7293 -13.7293  -2.5463  -2.5463   6.3373   6.3373
     7.6245   7.6245   7.6245   7.6245   7.6245   7.6245   9.6904   9.6904
     9.6904   9.6904   9.6904   9.6904

     occupation numbers 
     1.0000   1.0000   1.0000   1.0000   1.0000   1.0000   1.0000   1.0000
     1.0000   1.0000   1.0000   1.0000   1.0000   1.0000   1.0000   1.0000
     1.0000   1.0000   1.0000   1.0000   1.0000   1.0000   1.0000   1.0000
     0.0000   0.0000   0.0000   0.0000   0.0000   0.0000   0.0000   0.0000
     0.0000   0.0000   0.0000   0.0000

          k = 0.0442 0.0442-0.0442 (  6048 PWs)   bands (ev):

   -14.0300 -14.0300 -14.0300 -14.0300 -14.0266 -14.0266 -13.9743 -13.9743
   -13.9743 -13.9743 -13.7409 -13.7409 -13.7409 -13.7409 -13.7322 -13.7322
   -13.7203 -13.7203 -13.7203 -13.7203  -2.5115  -2.5115   5.9432   5.9432
     7.5520   7.5520   7.5520   7.5520   7.8059   7.8059   9.7853   9.7853
     9.7853   9.7853   9.8221   9.8221

     occupation numbers 
     1.0000   1.0000   1.0000   1.0000   1.0000   1.0000   1.0000   1.0000
     1.0000   1.0000   1.0000   1.0000   1.0000   1.0000   1.0000   1.0000
     1.0000   1.0000   1.0000   1.0000   1.0000   1.0000   1.0000   1.0000
     0.0232   0.0232   0.0232   0.0232   0.0000   0.0000   0.0000   0.0000
     0.0000   0.0000   0.0000   0.0000

          k = 0.0884 0.0884-0.0884 (  6051 PWs)   bands (ev):

   -14.0358 -14.0358 -14.0358 -14.0358 -14.0243 -14.0243 -13.9661 -13.9661
   -13.9661 -13.9661 -13.7513 -13.7513 -13.7513 -13.7513 -13.7350 -13.7350
   -13.7114 -13.7114 -13.7114 -13.7114  -2.4083  -2.4083   5.1828   5.1828
     7.3744   7.3744   7.3744   7.3744   7.9363   7.9363  10.0198  10.0198
    10.0198  10.0198  10.2592  10.2592

     occupation numbers 
     1.0000   1.0000   1.0000   1.0000   1.0000   1.0000   1.0000   1.0000
     1.0000   1.0000   1.0000   1.0000   1.0000   1.0000   1.0000   1.0000
     1.0000   1.0000   1.0000   1.0000   1.0000   1.0000   1.0000   1.0000
     1.0000   1.0000   1.0000   1.0000   0.0000   0.0000   0.0000   0.0000
     0.0000   0.0000   0.0000   0.0000

          k = 0.1326 0.1326-0.1326 (  6048 PWs)   bands (ev):

   -14.0421 -14.0421 -14.0421 -14.0421 -14.0207 -14.0207 -13.9562 -13.9562
   -13.9562 -13.9562 -13.7611 -13.7611 -13.7611 -13.7611 -13.7392 -13.7392
   -13.7039 -13.7039 -13.7039 -13.7039  -2.2394  -2.2394   4.3534   4.3534
     7.1595   7.1595   7.1595   7.1595   7.8746   7.8746  10.2956  10.2956
    10.2956  10.2956  10.9432  10.9432

     occupation numbers 
     1.0000   1.0000   1.0000   1.0000   1.0000   1.0000   1.0000   1.0000
     1.0000   1.0000   1.0000   1.0000   1.0000   1.0000   1.0000   1.0000
     1.0000   1.0000   1.0000   1.0000   1.0000   1.0000   1.0000   1.0000
     1.0000   1.0000   1.0000   1.0000   0.0000   0.0000   0.0000   0.0000
     0.0000   0.0000   0.0000   0.0000

          k = 0.1768 0.1768-0.1768 (  6057 PWs)   bands (ev):

   -14.0476 -14.0476 -14.0476 -14.0476 -14.0164 -14.0164 -13.9468 -13.9468
   -13.9468 -13.9468 -13.7694 -13.7694 -13.7694 -13.7694 -13.7443 -13.7443
   -13.6979 -13.6979 -13.6979 -13.6979  -2.0111  -2.0111   3.5421   3.5421
     6.9527   6.9527   6.9527   6.9527   7.7363   7.7363  10.5267  10.5267
    10.5267  10.5267  11.7546  11.7546

     occupation numbers 
     1.0000   1.0000   1.0000   1.0000   1.0000   1.0000   1.0000   1.0000
     1.0000   1.0000   1.0000   1.0000   1.0000   1.0000   1.0000   1.0000
     1.0000   1.0000   1.0000   1.0000   1.0000   1.0000   1.0000   1.0000
     1.0000   1.0000   1.0000   1.0000   0.0000   0.0000   0.0000   0.0000
     0.0000   0.0000   0.0000   0.0000

          k = 0.2210 0.2210-0.2210 (  6057 PWs)   bands (ev):

   -14.0517 -14.0517 -14.0517 -14.0517 -14.0119 -14.0119 -13.9391 -13.9391
   -13.9391 -13.9391 -13.7757 -13.7757 -13.7757 -13.7757 -13.7495 -13.7495
   -13.6935 -13.6935 -13.6935 -13.6935  -1.7366  -1.7366   2.7945   2.7945
     6.7779   6.7779   6.7779   6.7779   7.5953   7.5953  10.6670  10.6670
    10.6670  10.6670  12.6209  12.6209

     occupation numbers 
     1.0000   1.0000   1.0000   1.0000   1.0000   1.0000   1.0000   1.0000
     1.0000   1.0000   1.0000   1.0000   1.0000   1.0000   1.0000   1.0000
     1.0000   1.0000   1.0000   1.0000   1.0000   1.0000   1.0000   1.0000
     1.0000   1.0000   1.0000   1.0000   0.0000   0.0000   0.0000   0.0000
     0.0000   0.0000   0.0000   0.0000

          k = 0.2652 0.2652-0.2652 (  6077 PWs)   bands (ev):

   -14.0544 -14.0544 -14.0544 -14.0544 -14.0080 -14.0080 -13.9337 -13.9337
   -13.9337 -13.9337 -13.7799 -13.7799 -13.7799 -13.7799 -13.7540 -13.7540
   -13.6905 -13.6905 -13.6905 -13.6905  -1.4439  -1.4439   2.1550   2.1550
     6.6471   6.6471   6.6471   6.6471   7.4831   7.4831  10.7244  10.7244
    10.7244  10.7244  13.3004  13.3004

     occupation numbers 
     1.0000   1.0000   1.0000   1.0000   1.0000   1.0000   1.0000   1.0000
     1.0000   1.0000   1.0000   1.0000   1.0000   1.0000   1.0000   1.0000
     1.0000   1.0000   1.0000   1.0000   1.0000   1.0000   1.0000   1.0000
     1.0000   1.0000   1.0000   1.0000   1.0000   1.0000   0.0000   0.0000
     0.0000   0.0000   0.0000   0.0000

          k = 0.3094 0.3094-0.3094 (  6056 PWs)   bands (ev):

   -14.0560 -14.0560 -14.0560 -14.0560 -14.0054 -14.0054 -13.9307 -13.9307
   -13.9307 -13.9307 -13.7822 -13.7822 -13.7822 -13.7822 -13.7570 -13.7570
   -13.6889 -13.6889 -13.6889 -13.6889  -1.1930  -1.1930   1.6929   1.6929
     6.5667   6.5667   6.5667   6.5667   7.4124   7.4124  10.7371  10.7371
    10.7371  10.7371  13.3422  13.3422

     occupation numbers 
     1.0000   1.0000   1.0000   1.0000   1.0000   1.0000   1.0000   1.0000
     1.0000   1.0000   1.0000   1.0000   1.0000   1.0000   1.0000   1.0000
     1.0000   1.0000   1.0000   1.0000   1.0000   1.0000   1.0000   1.0000
     1.0000   1.0000   1.0000   1.0000   1.0000   1.0000   0.0000   0.0000
     0.0000   0.0000   0.0000   0.0000

          k =-0.3536-0.3536 0.3536 (  6062 PWs)   bands (ev):

   -14.0565 -14.0565 -14.0565 -14.0565 -14.0044 -14.0044 -13.9297 -13.9297
   -13.9297 -13.9297 -13.7829 -13.7829 -13.7829 -13.7829 -13.7581 -13.7581
   -13.6883 -13.6883 -13.6883 -13.6883  -1.0870  -1.0870   1.5160   1.5160
     6.5396   6.5396   6.5396   6.5396   7.3884   7.3884  10.7375  10.7375
    10.7375  10.7375  13.3189  13.3189

     occupation numbers 
     1.0000   1.0000   1.0000   1.0000   1.0000   1.0000   1.0000   1.0000
     1.0000   1.0000   1.0000   1.0000   1.0000   1.0000   1.0000   1.0000
     1.0000   1.0000   1.0000   1.0000   1.0000   1.0000   1.0000   1.0000
     1.0000   1.0000   1.0000   1.0000   1.0000   1.0000   0.0000   0.0000
     0.0000   0.0000   0.0000   0.0000

          k = 0.0884 0.0000 0.0000 (  6038 PWs)   bands (ev):

   -14.0295 -14.0295 -14.0293 -14.0293 -14.0293 -14.0293 -13.9753 -13.9753
   -13.9709 -13.9709 -13.7501 -13.7501 -13.7317 -13.7317 -13.7288 -13.7288
   -13.7288 -13.7288 -13.7161 -13.7161  -2.4999  -2.4999   5.8631   5.8631
     7.4192   7.4192   7.4192   7.4192   8.0795   8.0795   9.5482   9.5482
     9.9554   9.9554   9.9554   9.9554

     occupation numbers 
     1.0000   1.0000   1.0000   1.0000   1.0000   1.0000   1.0000   1.0000
     1.0000   1.0000   1.0000   1.0000   1.0000   1.0000   1.0000   1.0000
     1.0000   1.0000   1.0000   1.0000   1.0000   1.0000   1.0000   1.0000
     1.0000   1.0000   1.0000   1.0000   0.0000   0.0000   0.0000   0.0000
     0.0000   0.0000   0.0000   0.0000

          k = 0.1326 0.0442-0.0442 (  6057 PWs)   bands (ev):

   -14.0356 -14.0356 -14.0330 -14.0330 -14.0271 -14.0271 -13.9701 -13.9701
   -13.9624 -13.9624 -13.7614 -13.7614 -13.7411 -13.7411 -13.7289 -13.7289
   -13.7198 -13.7198 -13.7092 -13.7092  -2.4193  -2.4193   5.2993   5.2993
     7.2112   7.2112   7.2426   7.2426   8.3323   8.3323   9.5487   9.5487
    10.2389  10.2389  10.3142  10.3142

     occupation numbers 
     1.0000   1.0000   1.0000   1.0000   1.0000   1.0000   1.0000   1.0000
     1.0000   1.0000   1.0000   1.0000   1.0000   1.0000   1.0000   1.0000
     1.0000   1.0000   1.0000   1.0000   1.0000   1.0000   1.0000   1.0000
     1.0000   1.0000   1.0000   1.0000   0.0000   0.0000   0.0000   0.0000
     0.0000   0.0000   0.0000   0.0000

          k = 0.1768 0.0884-0.0884 (  6045 PWs)   bands (ev):

   -14.0428 -14.0428 -14.0388 -14.0388 -14.0230 -14.0230 -13.9616 -13.9616
   -13.9520 -13.9520 -13.7720 -13.7720 -13.7511 -13.7511 -13.7328 -13.7328
   -13.7111 -13.7111 -13.7017 -13.7017  -2.2718  -2.2718   4.5458   4.5458
     6.9888   6.9888   7.0256   7.0256   8.3517   8.3517   9.7754   9.7754
    10.5451  10.5451  10.8702  10.8702

     occupation numbers 
     1.0000   1.0000   1.0000   1.0000   1.0000   1.0000   1.0000   1.0000
     1.0000   1.0000   1.0000   1.0000   1.0000   1.0000   1.0000   1.0000
     1.0000   1.0000   1.0000   1.0000   1.0000   1.0000   1.0000   1.0000
     1.0000   1.0000   1.0000   1.0000   0.0000   0.0000   0.0000   0.0000
     0.0000   0.0000   0.0000   0.0000

          k = 0.2210 0.1326-0.1326 (  6053 PWs)   bands (ev):

   -14.0494 -14.0494 -14.0445 -14.0445 -14.0177 -14.0177 -13.9523 -13.9523
   -13.9419 -13.9419 -13.7809 -13.7809 -13.7604 -13.7604 -13.7388 -13.7388
   -13.7037 -13.7037 -13.6949 -13.6949  -2.0624  -2.0624   3.7579   3.7579
     6.7854   6.7854   6.7884   6.7884   8.2381   8.2381  10.0869  10.0869
    10.7931  10.7931  11.5196  11.5196

     occupation numbers 
     1.0000   1.0000   1.0000   1.0000   1.0000   1.0000   1.0000   1.0000
     1.0000   1.0000   1.0000   1.0000   1.0000   1.0000   1.0000   1.0000
     1.0000   1.0000   1.0000   1.0000   1.0000   1.0000   1.0000   1.0000
     1.0000   1.0000   1.0000   1.0000   0.0000   0.0000   0.0000   0.0000
     0.0000   0.0000   0.0000   0.0000

          k = 0.2652 0.1768-0.1768 (  6054 PWs)   bands (ev):

   -14.0546 -14.0546 -14.0493 -14.0493 -14.0117 -14.0117 -13.9437 -13.9437
   -13.9337 -13.9337 -13.7872 -13.7872 -13.7684 -13.7684 -13.7458 -13.7458
   -13.6978 -13.6978 -13.6896 -13.6896  -1.8012  -1.8012   3.0046   3.0046
     6.5602   6.5602   6.6292   6.6292   8.0937   8.0937  10.3473  10.3473
    10.9319  10.9319  12.2023  12.2023

     occupation numbers 
     1.0000   1.0000   1.0000   1.0000   1.0000   1.0000   1.0000   1.0000
     1.0000   1.0000   1.0000   1.0000   1.0000   1.0000   1.0000   1.0000
     1.0000   1.0000   1.0000   1.0000   1.0000   1.0000   1.0000   1.0000
     1.0000   1.0000   1.0000   1.0000   0.0000   0.0000   0.0000   0.0000
     0.0000   0.0000   0.0000   0.0000

          k = 0.3094 0.2210-0.2210 (  6068 PWs)   bands (ev):

   -14.0583 -14.0583 -14.0530 -14.0530 -14.0060 -14.0060 -13.9366 -13.9366
   -13.9284 -13.9284 -13.7901 -13.7901 -13.7751 -13.7751 -13.7529 -13.7529
   -13.6932 -13.6932 -13.6859 -13.6859  -1.5097  -1.5097   2.3346   2.3346
     6.3719   6.3719   6.5207   6.5207   7.9646   7.9646  10.5071  10.5071
    10.9640  10.9640  12.8759  12.8759

     occupation numbers 
     1.0000   1.0000   1.0000   1.0000   1.0000   1.0000   1.0000   1.0000
     1.0000   1.0000   1.0000   1.0000   1.0000   1.0000   1.0000   1.0000
     1.0000   1.0000   1.0000   1.0000   1.0000   1.0000   1.0000   1.0000
     1.0000   1.0000   1.0000   1.0000   0.0000   0.0000   0.0000   0.0000
     0.0000   0.0000   0.0000   0.0000

          k = 0.3536 0.2652-0.2652 (  6053 PWs)   bands (ev):

   -14.0603 -14.0603 -14.0556 -14.0556 -14.0015 -14.0015 -13.9312 -13.9312
   -13.9263 -13.9263 -13.7899 -13.7899 -13.7805 -13.7805 -13.7589 -13.7589
   -13.6898 -13.6898 -13.6840 -13.6840  -1.2346  -1.2346   1.8091   1.8091
     6.2313   6.2313   6.4677   6.4677   7.8705   7.8705  10.5948  10.5948
    10.9309  10.9309  13.3231  13.3232

     occupation numbers 
     1.0000   1.0000   1.0000   1.0000   1.0000   1.0000   1.0000   1.0000
     1.0000   1.0000   1.0000   1.0000   1.0000   1.0000   1.0000   1.0000
     1.0000   1.0000   1.0000   1.0000   1.0000   1.0000   1.0000   1.0000
     1.0000   1.0000   1.0000   1.0000   0.0000   0.0000   0.0000   0.0000
     0.0000   0.0000   0.0000   0.0000

          k =-0.3094-0.3977 0.3977 (  6060 PWs)   bands (ev):

   -14.0609 -14.0609 -14.0572 -14.0572 -13.9991 -13.9991 -13.9276 -13.9276
   -13.9269 -13.9269 -13.7870 -13.7870 -13.7847 -13.7847 -13.7627 -13.7627
   -13.6875 -13.6875 -13.6837 -13.6837  -1.0672  -1.0672   1.5267   1.5267
     6.1446   6.1446   6.4713   6.4713   7.8197   7.8197  10.6563  10.6563
    10.8732  10.8732  13.4258  13.4258

     occupation numbers 
     1.0000   1.0000   1.0000   1.0000   1.0000   1.0000   1.0000   1.0000
     1.0000   1.0000   1.0000   1.0000   1.0000   1.0000   1.0000   1.0000
     1.0000   1.0000   1.0000   1.0000   1.0000   1.0000   1.0000   1.0000
     1.0000   1.0000   1.0000   1.0000   0.0000   0.0000   0.0000   0.0000
     0.0000   0.0000   0.0000   0.0000

          k =-0.2652-0.3536 0.3536 (  6070 PWs)   bands (ev):

   -14.0601 -14.0601 -14.0578 -14.0578 -13.9992 -13.9992 -13.9295 -13.9295
   -13.9258 -13.9258 -13.7874 -13.7874 -13.7830 -13.7830 -13.7632 -13.7632
   -13.6864 -13.6864 -13.6850 -13.6850  -1.1041  -1.1041   1.5868   1.5868
     6.1153   6.1153   6.5308   6.5308   7.8154   7.8154  10.7163  10.7163
    10.8107  10.8107  13.4379  13.4379

     occupation numbers 
     1.0000   1.0000   1.0000   1.0000   1.0000   1.0000   1.0000   1.0000
     1.0000   1.0000   1.0000   1.0000   1.0000   1.0000   1.0000   1.0000
     1.0000   1.0000   1.0000   1.0000   1.0000   1.0000   1.0000   1.0000
     1.0000   1.0000   1.0000   1.0000   0.0000   0.0000   0.0000   0.0000
     0.0000   0.0000   0.0000   0.0000

          k =-0.2210-0.3094 0.3094 (  6063 PWs)   bands (ev):

   -14.0579 -14.0579 -14.0573 -14.0573 -14.0018 -14.0018 -13.9336 -13.9336
   -13.9266 -13.9266 -13.7881 -13.7881 -13.7791 -13.7791 -13.7597 -13.7597
   -13.6880 -13.6880 -13.6865 -13.6865  -1.3204  -1.3204   1.9642   1.9642
     6.1458   6.1458   6.6428   6.6428   7.8569   7.8569  10.7397  10.7397
    10.7718  10.7718  13.3110  13.3110

     occupation numbers 
     1.0000   1.0000   1.0000   1.0000   1.0000   1.0000   1.0000   1.0000
     1.0000   1.0000   1.0000   1.0000   1.0000   1.0000   1.0000   1.0000
     1.0000   1.0000   1.0000   1.0000   1.0000   1.0000   1.0000   1.0000
     1.0000   1.0000   1.0000   1.0000   0.0000   0.0000   0.0000   0.0000
     0.0000   0.0000   0.0000   0.0000

          k =-0.1768-0.2652 0.2652 (  6060 PWs)   bands (ev):

   -14.0555 -14.0555 -14.0543 -14.0543 -14.0065 -14.0065 -13.9393 -13.9393
   -13.9303 -13.9303 -13.7860 -13.7860 -13.7749 -13.7749 -13.7529 -13.7529
   -13.6925 -13.6925 -13.6881 -13.6881  -1.6087  -1.6087   2.5465   2.5465
     6.2375   6.2375   6.8018   6.8018   7.9398   7.9398  10.6358  10.6358
    10.7889  10.7889  12.7270  12.7270

     occupation numbers 
     1.0000   1.0000   1.0000   1.0000   1.0000   1.0000   1.0000   1.0000
     1.0000   1.0000   1.0000   1.0000   1.0000   1.0000   1.0000   1.0000
     1.0000   1.0000   1.0000   1.0000   1.0000   1.0000   1.0000   1.0000
     1.0000   1.0000   1.0000   1.0000   0.0000   0.0000   0.0000   0.0000
     0.0000   0.0000   0.0000   0.0000

          k =-0.1326-0.2210 0.2210 (  6046 PWs)   bands (ev):

   -14.0522 -14.0522 -14.0494 -14.0494 -14.0123 -14.0123 -13.9464 -13.9464
   -13.9371 -13.9371 -13.7809 -13.7809 -13.7696 -13.7696 -13.7448 -13.7448
   -13.6986 -13.6986 -13.6913 -13.6913  -1.8935  -1.8935   3.2488   3.2488
     6.3908   6.3908   6.9978   6.9978   8.0518   8.0518  10.4677  10.4677
    10.7008  10.7008  11.9937  11.9937

     occupation numbers 
     1.0000   1.0000   1.0000   1.0000   1.0000   1.0000   1.0000   1.0000
     1.0000   1.0000   1.0000   1.0000   1.0000   1.0000   1.0000   1.0000
     1.0000   1.0000   1.0000   1.0000   1.0000   1.0000   1.0000   1.0000
     1.0000   1.0000   1.0000   1.0000   0.0000   0.0000   0.0000   0.0000
     0.0000   0.0000   0.0000   0.0000

          k =-0.0884-0.1768 0.1768 (  6060 PWs)   bands (ev):

   -14.0474 -14.0474 -14.0434 -14.0434 -14.0182 -14.0182 -13.9549 -13.9549
   -13.9465 -13.9465 -13.7730 -13.7730 -13.7626 -13.7626 -13.7368 -13.7368
   -13.7062 -13.7062 -13.6962 -13.6962  -2.1390  -2.1390   4.0162   4.0162
     6.6055   6.6055   7.2133   7.2133   8.1636   8.1636  10.2314  10.2314
    10.4465  10.4465  11.3343  11.3343

     occupation numbers 
     1.0000   1.0000   1.0000   1.0000   1.0000   1.0000   1.0000   1.0000
     1.0000   1.0000   1.0000   1.0000   1.0000   1.0000   1.0000   1.0000
     1.0000   1.0000   1.0000   1.0000   1.0000   1.0000   1.0000   1.0000
     1.0000   1.0000   1.0000   1.0000   0.0000   0.0000   0.0000   0.0000
     0.0000   0.0000   0.0000   0.0000

          k =-0.0442-0.1326 0.1326 (  6051 PWs)   bands (ev):

   -14.0413 -14.0413 -14.0367 -14.0367 -14.0232 -14.0232 -13.9637 -13.9637
   -13.9572 -13.9572 -13.7631 -13.7631 -13.7543 -13.7543 -13.7298 -13.7298
   -13.7152 -13.7152 -13.7029 -13.7029  -2.3285  -2.3285   4.7952   4.7952
     6.8808   6.8808   7.4157   7.4157   8.2060   8.2060   9.9770   9.9770
    10.0914  10.0914  10.7576  10.7576

     occupation numbers 
     1.0000   1.0000   1.0000   1.0000   1.0000   1.0000   1.0000   1.0000
     1.0000   1.0000   1.0000   1.0000   1.0000   1.0000   1.0000   1.0000
     1.0000   1.0000   1.0000   1.0000   1.0000   1.0000   1.0000   1.0000
     1.0000   1.0000   1.0000   1.0000   0.0000   0.0000   0.0000   0.0000
     0.0000   0.0000   0.0000   0.0000

          k = 0.0000-0.0884 0.0884 (  6039 PWs)   bands (ev):

   -14.0349 -14.0349 -14.0312 -14.0312 -14.0264 -14.0264 -13.9712 -13.9712
   -13.9673 -13.9673 -13.7521 -13.7521 -13.7454 -13.7454 -13.7262 -13.7262
   -13.7233 -13.7233 -13.7110 -13.7110  -2.4539  -2.4539   5.4980   5.4980
     7.2155   7.2155   7.5492   7.5492   8.0658   8.0658   9.7978   9.7978
     9.8419   9.8419  10.2328  10.2328

     occupation numbers 
     1.0000   1.0000   1.0000   1.0000   1.0000   1.0000   1.0000   1.0000
     1.0000   1.0000   1.0000   1.0000   1.0000   1.0000   1.0000   1.0000
     1.0000   1.0000   1.0000   1.0000   1.0000   1.0000   1.0000   1.0000
     1.0000   1.0000   0.8024   0.8024   0.0000   0.0000   0.0000   0.0000
     0.0000   0.0000   0.0000   0.0000

          k = 0.1768 0.0000 0.0000 (  6058 PWs)   bands (ev):

   -14.0344 -14.0344 -14.0344 -14.0344 -14.0325 -14.0325 -13.9681 -13.9681
   -13.9536 -13.9536 -13.7747 -13.7747 -13.7386 -13.7386 -13.7218 -13.7218
   -13.7218 -13.7218 -13.7081 -13.7081  -2.3613  -2.3613   5.0494   5.0494
     6.9887   6.9887   6.9887   6.9887   8.8011   8.8011   9.2318   9.2318
    10.5633  10.5633  10.5633  10.5633

     occupation numbers 
     1.0000   1.0000   1.0000   1.0000   1.0000   1.0000   1.0000   1.0000
     1.0000   1.0000   1.0000   1.0000   1.0000   1.0000   1.0000   1.0000
     1.0000   1.0000   1.0000   1.0000   1.0000   1.0000   1.0000   1.0000
     1.0000   1.0000   1.0000   1.0000   0.0000   0.0000   0.0000   0.0000
     0.0000   0.0000   0.0000   0.0000

          k = 0.2210 0.0442-0.0442 (  6052 PWs)   bands (ev):

   -14.0419 -14.0419 -14.0387 -14.0387 -14.0283 -14.0283 -13.9614 -13.9614
   -13.9425 -13.9425 -13.7875 -13.7875 -13.7464 -13.7464 -13.7220 -13.7220
   -13.7146 -13.7146 -13.7027 -13.7027  -2.2356  -2.2356   4.5062   4.5062
     6.7458   6.7458   6.7614   6.7614   8.9852   8.9852   9.2267   9.2267
    10.9104  10.9104  10.9940  10.9940

     occupation numbers 
     1.0000   1.0000   1.0000   1.0000   1.0000   1.0000   1.0000   1.0000
     1.0000   1.0000   1.0000   1.0000   1.0000   1.0000   1.0000   1.0000
     1.0000   1.0000   1.0000   1.0000   1.0000   1.0000   1.0000   1.0000
     1.0000   1.0000   1.0000   1.0000   0.0000   0.0000   0.0000   0.0000
     0.0000   0.0000   0.0000   0.0000

          k = 0.2652 0.0884-0.0884 (  6054 PWs)   bands (ev):

   -14.0502 -14.0502 -14.0440 -14.0440 -14.0213 -14.0213 -13.9527 -13.9527
   -13.9315 -13.9315 -13.7985 -13.7985 -13.7561 -13.7561 -13.7287 -13.7287
   -13.7067 -13.7067 -13.6946 -13.6946  -2.0460  -2.0460   3.8304   3.8304
     6.4661   6.4661   6.5621   6.5621   8.9134   8.9134   9.5186   9.5186
    11.2001  11.2001  11.4345  11.4345

     occupation numbers 
     1.0000   1.0000   1.0000   1.0000   1.0000   1.0000   1.0000   1.0000
     1.0000   1.0000   1.0000   1.0000   1.0000   1.0000   1.0000   1.0000
     1.0000   1.0000   1.0000   1.0000   1.0000   1.0000   1.0000   1.0000
     1.0000   1.0000   1.0000   1.0000   0.0000   0.0000   0.0000   0.0000
     0.0000   0.0000   0.0000   0.0000

          k = 0.3094 0.1326-0.1326 (  6054 PWs)   bands (ev):

   -14.0575 -14.0575 -14.0490 -14.0490 -14.0126 -14.0126 -13.9435 -13.9435
   -13.9224 -13.9224 -13.8063 -13.8063 -13.7656 -13.7656 -13.7383 -13.7383
   -13.6996 -13.6996 -13.6869 -13.6869  -1.8003  -1.8003   3.1289   3.1289
     6.1833   6.1833   6.4086   6.4086   8.7723   8.7723   9.9016   9.9016
    11.3695  11.3695  11.7634  11.7634

     occupation numbers 
     1.0000   1.0000   1.0000   1.0000   1.0000   1.0000   1.0000   1.0000
     1.0000   1.0000   1.0000   1.0000   1.0000   1.0000   1.0000   1.0000
     1.0000   1.0000   1.0000   1.0000   1.0000   1.0000   1.0000   1.0000
     1.0000   1.0000   1.0000   1.0000   0.0000   0.0000   0.0000   0.0000
     0.0000   0.0000   0.0000   0.0000

          k = 0.3536 0.1768-0.1768 (  6061 PWs)   bands (ev):

   -14.0634 -14.0634 -14.0533 -14.0533 -14.0035 -14.0035 -13.9351 -13.9351
   -13.9167 -13.9167 -13.8100 -13.8100 -13.7745 -13.7745 -13.7488 -13.7488
   -13.6936 -13.6936 -13.6807 -13.6807  -1.5148  -1.5148   2.4683   2.4683
     5.9324   5.9324   6.3104   6.3104   8.6295   8.6295  10.2271  10.2271
    11.4068  11.4068  12.1266  12.1266

     occupation numbers 
     1.0000   1.0000   1.0000   1.0000   1.0000   1.0000   1.0000   1.0000
     1.0000   1.0000   1.0000   1.0000   1.0000   1.0000   1.0000   1.0000
     1.0000   1.0000   1.0000   1.0000   1.0000   1.0000   1.0000   1.0000
     1.0000   1.0000   1.0000   1.0000   0.0000   0.0000   0.0000   0.0000
     0.0000   0.0000   0.0000   0.0000

          k = 0.3977 0.2210-0.2210 (  6055 PWs)   bands (ev):

   -14.0673 -14.0673 -14.0566 -14.0566 -13.9952 -13.9952 -13.9276 -13.9276
   -13.9151 -13.9151 -13.8089 -13.8089 -13.7826 -13.7826 -13.7590 -13.7590
   -13.6889 -13.6889 -13.6765 -13.6765  -1.2251  -1.2251   1.9107   1.9107
     5.7313   5.7313   6.2718   6.2718   8.5132   8.5132  10.4283  10.4283
    11.3515  11.3515  12.6465  12.6466

     occupation numbers 
     1.0000   1.0000   1.0000   1.0000   1.0000   1.0000   1.0000   1.0000
     1.0000   1.0000   1.0000   1.0000   1.0000   1.0000   1.0000   1.0000
     1.0000   1.0000   1.0000   1.0000   1.0000   1.0000   1.0000   1.0000
     1.0000   1.0000   1.0000   1.0000   0.0000   0.0000   0.0000   0.0000
     0.0000   0.0000   0.0000   0.0000

          k =-0.2652-0.4419 0.4419 (  6059 PWs)   bands (ev):

   -14.0693 -14.0693 -14.0590 -14.0590 -13.9891 -13.9891 -13.9216 -13.9216
   -13.9174 -13.9174 -13.8032 -13.8032 -13.7897 -13.7897 -13.7674 -13.7674
   -13.6853 -13.6853 -13.6746 -13.6746  -1.0073  -1.0073   1.5459   1.5459
     5.5892   5.5892   6.2938   6.2938   8.4364   8.4364  10.5496  10.5496
    11.2519  11.2519  13.2178  13.2178

     occupation numbers 
     1.0000   1.0000   1.0000   1.0000   1.0000   1.0000   1.0000   1.0000
     1.0000   1.0000   1.0000   1.0000   1.0000   1.0000   1.0000   1.0000
     1.0000   1.0000   1.0000   1.0000   1.0000   1.0000   1.0000   1.0000
     1.0000   1.0000   1.0000   1.0000   0.0000   0.0000   0.0000   0.0000
     0.0000   0.0000   0.0000   0.0000

          k =-0.2210-0.3977 0.3977 (  6065 PWs)   bands (ev):

   -14.0692 -14.0692 -14.0605 -14.0605 -13.9865 -13.9865 -13.9225 -13.9225
   -13.9174 -13.9174 -13.7953 -13.7953 -13.7940 -13.7940 -13.7730 -13.7730
   -13.6830 -13.6830 -13.6752 -13.6752  -0.9720  -0.9720   1.4907   1.4907
     5.5123   5.5123   6.3747   6.3747   8.4037   8.4037  10.6504  10.6504
    11.1362  11.1362  13.5264  13.5264

     occupation numbers 
     1.0000   1.0000   1.0000   1.0000   1.0000   1.0000   1.0000   1.0000
     1.0000   1.0000   1.0000   1.0000   1.0000   1.0000   1.0000   1.0000
     1.0000   1.0000   1.0000   1.0000   1.0000   1.0000   1.0000   1.0000
     1.0000   1.0000   1.0000   1.0000   0.0000   0.0000   0.0000   0.0000
     0.0000   0.0000   0.0000   0.0000

          k =-0.1768-0.3536 0.3536 (  6059 PWs)   bands (ev):

   -14.0670 -14.0670 -14.0608 -14.0608 -13.9881 -13.9881 -13.9289 -13.9289
   -13.9161 -13.9161 -13.7984 -13.7984 -13.7834 -13.7834 -13.7744 -13.7744
   -13.6821 -13.6821 -13.6783 -13.6783  -1.1436  -1.1436   1.7698   1.7698
     5.5059   5.5059   6.5099   6.5099   8.4140   8.4140  10.7523  10.7523
    11.0073  11.0073  13.2650  13.2650

     occupation numbers 
     1.0000   1.0000   1.0000   1.0000   1.0000   1.0000   1.0000   1.0000
     1.0000   1.0000   1.0000   1.0000   1.0000   1.0000   1.0000   1.0000
     1.0000   1.0000   1.0000   1.0000   1.0000   1.0000   1.0000   1.0000
     1.0000   1.0000   1.0000   1.0000   0.0000   0.0000   0.0000   0.0000
     0.0000   0.0000   0.0000   0.0000

          k =-0.1326-0.3094 0.3094 (  6053 PWs)   bands (ev):

   -14.0628 -14.0628 -14.0598 -14.0598 -13.9936 -13.9936 -13.9357 -13.9357
   -13.9185 -13.9185 -13.7979 -13.7979 -13.7782 -13.7782 -13.7657 -13.7657
   -13.6839 -13.6839 -13.6828 -13.6828  -1.4211  -1.4211   2.2761   2.2761
     5.5766   5.5766   6.6914   6.6914   8.4600   8.4600  10.8327  10.8327
    10.8468  10.8468  12.6098  12.6098

     occupation numbers 
     1.0000   1.0000   1.0000   1.0000   1.0000   1.0000   1.0000   1.0000
     1.0000   1.0000   1.0000   1.0000   1.0000   1.0000   1.0000   1.0000
     1.0000   1.0000   1.0000   1.0000   1.0000   1.0000   1.0000   1.0000
     1.0000   1.0000   1.0000   1.0000   0.0000   0.0000   0.0000   0.0000
     0.0000   0.0000   0.0000   0.0000

          k =-0.0884-0.2652 0.2652 (  6050 PWs)   bands (ev):

   -14.0572 -14.0572 -14.0568 -14.0568 -14.0017 -14.0017 -13.9427 -13.9427
   -13.9249 -13.9249 -13.7934 -13.7934 -13.7748 -13.7748 -13.7524 -13.7524
   -13.6918 -13.6918 -13.6852 -13.6852  -1.7130  -1.7130   2.9037   2.9037
     5.7336   5.7336   6.9052   6.9052   8.5231   8.5231  10.6316  10.6316
    10.8000  10.8000  11.9980  11.9980

     occupation numbers 
     1.0000   1.0000   1.0000   1.0000   1.0000   1.0000   1.0000   1.0000
     1.0000   1.0000   1.0000   1.0000   1.0000   1.0000   1.0000   1.0000
     1.0000   1.0000   1.0000   1.0000   1.0000   1.0000   1.0000   1.0000
     1.0000   1.0000   1.0000   1.0000   0.0000   0.0000   0.0000   0.0000
     0.0000   0.0000   0.0000   0.0000

          k =-0.0442-0.2210 0.2210 (  6046 PWs)   bands (ev):

   -14.0531 -14.0531 -14.0495 -14.0495 -14.0107 -14.0107 -13.9501 -13.9501
   -13.9346 -13.9346 -13.7853 -13.7853 -13.7694 -13.7694 -13.7397 -13.7397
   -13.7015 -13.7015 -13.6894 -13.6894  -1.9735  -1.9735   3.5793   3.5793
     5.9917   5.9917   7.1276   7.1276   8.5587   8.5587  10.3683  10.3683
    10.5418  10.5418  11.6093  11.6093

     occupation numbers 
     1.0000   1.0000   1.0000   1.0000   1.0000   1.0000   1.0000   1.0000
     1.0000   1.0000   1.0000   1.0000   1.0000   1.0000   1.0000   1.0000
     1.0000   1.0000   1.0000   1.0000   1.0000   1.0000   1.0000   1.0000
     1.0000   1.0000   1.0000   1.0000   0.0000   0.0000   0.0000   0.0000
     0.0000   0.0000   0.0000   0.0000

          k = 0.0000-0.1768 0.1768 (  6047 PWs)   bands (ev):

   -14.0476 -14.0476 -14.0421 -14.0421 -14.0185 -14.0185 -13.9575 -13.9575
   -13.9460 -13.9460 -13.7748 -13.7748 -13.7622 -13.7622 -13.7298 -13.7298
   -13.7118 -13.7118 -13.6954 -13.6954  -2.1820  -2.1820   4.2350   4.2350
     6.3718   6.3718   7.3177   7.3177   8.4769   8.4769  10.1179  10.1179
    10.2270  10.2270  11.2630  11.2630

     occupation numbers 
     1.0000   1.0000   1.0000   1.0000   1.0000   1.0000   1.0000   1.0000
     1.0000   1.0000   1.0000   1.0000   1.0000   1.0000   1.0000   1.0000
     1.0000   1.0000   1.0000   1.0000   1.0000   1.0000   1.0000   1.0000
     1.0000   1.0000   1.0000   1.0000   0.0000   0.0000   0.0000   0.0000
     0.0000   0.0000   0.0000   0.0000

          k = 0.2652 0.0000 0.0000 (  6058 PWs)   bands (ev):

   -14.0417 -14.0417 -14.0417 -14.0417 -14.0324 -14.0324 -13.9564 -13.9564
   -13.9303 -13.9303 -13.8031 -13.8031 -13.7498 -13.7498 -13.7116 -13.7116
   -13.7116 -13.7116 -13.7065 -13.7065  -2.1315  -2.1315   4.1938   4.1938
     6.5298   6.5298   6.5298   6.5298   8.8930   8.8930   9.3655   9.3655
    11.3122  11.3122  11.3122  11.3122

     occupation numbers 
     1.0000   1.0000   1.0000   1.0000   1.0000   1.0000   1.0000   1.0000
     1.0000   1.0000   1.0000   1.0000   1.0000   1.0000   1.0000   1.0000
     1.0000   1.0000   1.0000   1.0000   1.0000   1.0000   1.0000   1.0000
     1.0000   1.0000   1.0000   1.0000   0.0000   0.0000   0.0000   0.0000
     0.0000   0.0000   0.0000   0.0000

          k = 0.3094 0.0442-0.0442 (  6047 PWs)   bands (ev):

   -14.0490 -14.0490 -14.0461 -14.0461 -14.0265 -14.0265 -13.9483 -13.9483
   -13.9178 -13.9178 -13.8169 -13.8169 -13.7581 -13.7581 -13.7174 -13.7174
   -13.7051 -13.7051 -13.6980 -13.6980  -1.9621  -1.9621   3.6889   3.6889
     6.2708   6.2708   6.3268   6.3268   8.8783   8.8783   9.4685   9.4685
    11.6447  11.6447  11.6696  11.6696

     occupation numbers 
     1.0000   1.0000   1.0000   1.0000   1.0000   1.0000   1.0000   1.0000
     1.0000   1.0000   1.0000   1.0000   1.0000   1.0000   1.0000   1.0000
     1.0000   1.0000   1.0000   1.0000   1.0000   1.0000   1.0000   1.0000
     1.0000   1.0000   1.0000   1.0000   0.0000   0.0000   0.0000   0.0000
     0.0000   0.0000   0.0000   0.0000

          k = 0.3536 0.0884-0.0884 (  6057 PWs)   bands (ev):

   -14.0578 -14.0578 -14.0508 -14.0508 -14.0162 -14.0162 -13.9390 -13.9390
   -13.9069 -13.9069 -13.8277 -13.8277 -13.7679 -13.7679 -13.7292 -13.7292
   -13.6981 -13.6981 -13.6875 -13.6875  -1.7334  -1.7334   3.0973   3.0973
     5.9519   5.9519   6.1709   6.1709   8.9708   8.9708   9.6145   9.6145
    11.7220  11.7220  11.9054  11.9054

     occupation numbers 
     1.0000   1.0000   1.0000   1.0000   1.0000   1.0000   1.0000   1.0000
     1.0000   1.0000   1.0000   1.0000   1.0000   1.0000   1.0000   1.0000
     1.0000   1.0000   1.0000   1.0000   1.0000   1.0000   1.0000   1.0000
     1.0000   1.0000   1.0000   1.0000   0.0000   0.0000   0.0000   0.0000
     0.0000   0.0000   0.0000   0.0000

          k = 0.3977 0.1326-0.1326 (  6053 PWs)   bands (ev):

   -14.0658 -14.0658 -14.0551 -14.0551 -14.0040 -14.0040 -13.9295 -13.9295
   -13.8996 -13.8996 -13.8339 -13.8339 -13.7780 -13.7780 -13.7428 -13.7428
   -13.6918 -13.6918 -13.6784 -13.6784  -1.4576  -1.4576   2.4957   2.4957
     5.6339   5.6339   6.0723   6.0723   8.9391   8.9391   9.9984   9.9984
    11.7333  11.7333  11.9838  11.9838

     occupation numbers 
     1.0000   1.0000   1.0000   1.0000   1.0000   1.0000   1.0000   1.0000
     1.0000   1.0000   1.0000   1.0000   1.0000   1.0000   1.0000   1.0000
     1.0000   1.0000   1.0000   1.0000   1.0000   1.0000   1.0000   1.0000
     1.0000   1.0000   1.0000   1.0000   0.0000   0.0000   0.0000   0.0000
     0.0000   0.0000   0.0000   0.0000

          k = 0.4419 0.1768-0.1768 (  6051 PWs)   bands (ev):

   -14.0721 -14.0721 -14.0587 -14.0587 -13.9918 -13.9918 -13.9206 -13.9206
   -13.8973 -13.8973 -13.8344 -13.8344 -13.7879 -13.7879 -13.7565 -13.7565
   -13.6865 -13.6865 -13.6714 -13.6714  -1.1614  -1.1614   1.9480   1.9480
     5.3604   5.3604   6.0358   6.0358   8.8608   8.8608  10.4163  10.4163
    11.9138  11.9138  11.9342  11.9342

     occupation numbers 
     1.0000   1.0000   1.0000   1.0000   1.0000   1.0000   1.0000   1.0000
     1.0000   1.0000   1.0000   1.0000   1.0000   1.0000   1.0000   1.0000
     1.0000   1.0000   1.0000   1.0000   1.0000   1.0000   1.0000   1.0000
     1.0000   1.0000   1.0000   1.0000   0.0000   0.0000   0.0000   0.0000
     0.0000   0.0000   0.0000   0.0000

          k =-0.2210-0.4861 0.4861 (  6058 PWs)   bands (ev):

   -14.0761 -14.0761 -14.0615 -14.0615 -13.9816 -13.9816 -13.9126 -13.9126
   -13.9004 -13.9004 -13.8289 -13.8289 -13.7972 -13.7972 -13.7683 -13.7683
   -13.6823 -13.6823 -13.6670 -13.6670  -0.9050  -0.9050   1.5359   1.5359
     5.1522   5.1522   6.0628   6.0628   8.8017   8.8017  10.6771  10.6771
    11.8122  11.8122  12.3925  12.3925

     occupation numbers 
     1.0000   1.0000   1.0000   1.0000   1.0000   1.0000   1.0000   1.0000
     1.0000   1.0000   1.0000   1.0000   1.0000   1.0000   1.0000   1.0000
     1.0000   1.0000   1.0000   1.0000   1.0000   1.0000   1.0000   1.0000
     1.0000   1.0000   1.0000   1.0000   0.0000   0.0000   0.0000   0.0000
     0.0000   0.0000   0.0000   0.0000

          k =-0.1768-0.4419 0.4419 (  6052 PWs)   bands (ev):

   -14.0776 -14.0776 -14.0633 -14.0633 -13.9752 -13.9752 -13.9078 -13.9078
   -13.9064 -13.9064 -13.8184 -13.8184 -13.8051 -13.8051 -13.7767 -13.7767
   -13.6795 -13.6795 -13.6657 -13.6657  -0.8001  -0.8001   1.3814   1.3814
     5.0208   5.0208   6.1515   6.1515   8.7791   8.7791  10.8150  10.8150
    11.6551  11.6551  13.0261  13.0261

     occupation numbers 
     1.0000   1.0000   1.0000   1.0000   1.0000   1.0000   1.0000   1.0000
     1.0000   1.0000   1.0000   1.0000   1.0000   1.0000   1.0000   1.0000
     1.0000   1.0000   1.0000   1.0000   1.0000   1.0000   1.0000   1.0000
     1.0000   1.0000   1.0000   1.0000   0.0000   0.0000   0.0000   0.0000
     0.0000   0.0000   0.0000   0.0000

          k =-0.1326-0.3977 0.3977 (  6051 PWs)   bands (ev):

   -14.0764 -14.0764 -14.0641 -14.0641 -13.9738 -13.9738 -13.9179 -13.9179
   -13.9033 -13.9033 -13.8101 -13.8101 -13.8038 -13.8038 -13.7811 -13.7811
   -13.6781 -13.6781 -13.6676 -13.6676  -0.9193  -0.9193   1.5585   1.5585
     4.9762   4.9762   6.2969   6.2969   8.7920   8.7920  10.9260  10.9260
    11.4711  11.4711  13.1312  13.1312

     occupation numbers 
     1.0000   1.0000   1.0000   1.0000   1.0000   1.0000   1.0000   1.0000
     1.0000   1.0000   1.0000   1.0000   1.0000   1.0000   1.0000   1.0000
     1.0000   1.0000   1.0000   1.0000   1.0000   1.0000   1.0000   1.0000
     1.0000   1.0000   1.0000   1.0000   0.0000   0.0000   0.0000   0.0000
     0.0000   0.0000   0.0000   0.0000

          k =-0.0884-0.3536 0.3536 (  6047 PWs)   bands (ev):

   -14.0724 -14.0724 -14.0636 -14.0636 -13.9782 -13.9782 -13.9280 -13.9280
   -13.9050 -13.9050 -13.8105 -13.8105 -13.7867 -13.7867 -13.7818 -13.7818
   -13.6784 -13.6784 -13.6728 -13.6728  -1.1806  -1.1806   1.9771   1.9771
     5.0307   5.0307   6.4897   6.4897   8.8269   8.8269  11.0365  11.0365
    11.2452  11.2452  12.4644  12.4644

     occupation numbers 
     1.0000   1.0000   1.0000   1.0000   1.0000   1.0000   1.0000   1.0000
     1.0000   1.0000   1.0000   1.0000   1.0000   1.0000   1.0000   1.0000
     1.0000   1.0000   1.0000   1.0000   1.0000   1.0000   1.0000   1.0000
     1.0000   1.0000   1.0000   1.0000   0.0000   0.0000   0.0000   0.0000
     0.0000   0.0000   0.0000   0.0000

          k =-0.0442-0.3094 0.3094 (  6053 PWs)   bands (ev):

   -14.0661 -14.0661 -14.0616 -14.0616 -13.9876 -13.9876 -13.9367 -13.9367
   -13.9118 -13.9118 -13.8056 -13.8056 -13.7800 -13.7800 -13.7685 -13.7685
   -13.6809 -13.6809 -13.6803 -13.6803  -1.4760  -1.4760   2.5089   2.5089
     5.2027   5.2027   6.7136   6.7136   8.8502   8.8502  10.9618  10.9618
    11.0676  11.0676  11.8515  11.8515

     occupation numbers 
     1.0000   1.0000   1.0000   1.0000   1.0000   1.0000   1.0000   1.0000
     1.0000   1.0000   1.0000   1.0000   1.0000   1.0000   1.0000   1.0000
     1.0000   1.0000   1.0000   1.0000   1.0000   1.0000   1.0000   1.0000
     1.0000   1.0000   1.0000   1.0000   0.0000   0.0000   0.0000   0.0000
     0.0000   0.0000   0.0000   0.0000

          k = 0.0000-0.2652 0.2652 (  6057 PWs)   bands (ev):

   -14.0580 -14.0580 -14.0580 -14.0580 -13.9995 -13.9995 -13.9439 -13.9439
   -13.9223 -13.9223 -13.7967 -13.7967 -13.7756 -13.7756 -13.7520 -13.7520
   -13.6912 -13.6912 -13.6841 -13.6841  -1.7486  -1.7486   3.0642   3.0642
     5.5168   5.5168   6.9412   6.9412   8.7920   8.7920  10.6441  10.6441
    10.8113  10.8113  11.6591  11.6591

     occupation numbers 
     1.0000   1.0000   1.0000   1.0000   1.0000   1.0000   1.0000   1.0000
     1.0000   1.0000   1.0000   1.0000   1.0000   1.0000   1.0000   1.0000
     1.0000   1.0000   1.0000   1.0000   1.0000   1.0000   1.0000   1.0000
     1.0000   1.0000   1.0000   1.0000   0.0000   0.0000   0.0000   0.0000
     0.0000   0.0000   0.0000   0.0000

          k = 0.3536 0.0000 0.0000 (  6030 PWs)   bands (ev):

   -14.0498 -14.0498 -14.0498 -14.0498 -14.0276 -14.0276 -13.9406 -13.9406
   -13.9033 -13.9033 -13.8339 -13.8339 -13.7649 -13.7649 -13.7115 -13.7115
   -13.7002 -13.7002 -13.7002 -13.7002  -1.8125  -1.8125   3.3445   3.3445
     6.1173   6.1173   6.1173   6.1173   8.6090   8.6090   9.5371   9.5371
    12.1202  12.1202  12.1202  12.1203

     occupation numbers 
     1.0000   1.0000   1.0000   1.0000   1.0000   1.0000   1.0000   1.0000
     1.0000   1.0000   1.0000   1.0000   1.0000   1.0000   1.0000   1.0000
     1.0000   1.0000   1.0000   1.0000   1.0000   1.0000   1.0000   1.0000
     1.0000   1.0000   1.0000   1.0000   0.0000   0.0000   0.0000   0.0000
     0.0000   0.0000   0.0000   0.0000

          k = 0.3977 0.0442-0.0442 (  6054 PWs)   bands (ev):

   -14.0564 -14.0564 -14.0539 -14.0539 -14.0196 -14.0196 -13.9312 -13.9312
   -13.8901 -13.8901 -13.8482 -13.8482 -13.7744 -13.7744 -13.7217 -13.7217
   -13.6941 -13.6941 -13.6903 -13.6903  -1.6014  -1.6014   2.8781   2.8781
     5.8670   5.8670   5.9539   5.9539   8.6329   8.6329   9.5039   9.5039
    12.2656  12.2656  12.4623  12.4623

     occupation numbers 
     1.0000   1.0000   1.0000   1.0000   1.0000   1.0000   1.0000   1.0000
     1.0000   1.0000   1.0000   1.0000   1.0000   1.0000   1.0000   1.0000
     1.0000   1.0000   1.0000   1.0000   1.0000   1.0000   1.0000   1.0000
     1.0000   1.0000   1.0000   1.0000   0.0000   0.0000   0.0000   0.0000
     0.0000   0.0000   0.0000   0.0000

          k = 0.4419 0.0884-0.0884 (  6061 PWs)   bands (ev):

   -14.0651 -14.0651 -14.0578 -14.0578 -14.0063 -14.0063 -13.9211 -13.9211
   -13.8802 -13.8802 -13.8579 -13.8579 -13.7849 -13.7849 -13.7369 -13.7369
   -13.6883 -13.6883 -13.6794 -13.6794  -1.3379  -1.3379   2.3653   2.3653
     5.5308   5.5308   5.8479   5.8479   8.7783   8.7783   9.6383   9.6383
    12.1396  12.1396  12.6267  12.6267

     occupation numbers 
     1.0000   1.0000   1.0000   1.0000   1.0000   1.0000   1.0000   1.0000
     1.0000   1.0000   1.0000   1.0000   1.0000   1.0000   1.0000   1.0000
     1.0000   1.0000   1.0000   1.0000   1.0000   1.0000   1.0000   1.0000
     1.0000   1.0000   1.0000   1.0000   0.0000   0.0000   0.0000   0.0000
     0.0000   0.0000   0.0000   0.0000

          k = 0.4861 0.1326-0.1326 (  6052 PWs)   bands (ev):

   -14.0732 -14.0732 -14.0612 -14.0612 -13.9913 -13.9913 -13.9110 -13.9110
   -13.8767 -13.8767 -13.8605 -13.8605 -13.7958 -13.7958 -13.7533 -13.7533
   -13.6832 -13.6832 -13.6701 -13.6701  -1.0415  -1.0415   1.8652   1.8652
     5.1930   5.1930   5.8051   5.8051   8.8198   8.8198  10.0982  10.0982
    12.0169  12.0169  12.6172  12.6172

     occupation numbers 
     1.0000   1.0000   1.0000   1.0000   1.0000   1.0000   1.0000   1.0000
     1.0000   1.0000   1.0000   1.0000   1.0000   1.0000   1.0000   1.0000
     1.0000   1.0000   1.0000   1.0000   1.0000   1.0000   1.0000   1.0000
     1.0000   1.0000   1.0000   1.0000   0.0000   0.0000   0.0000   0.0000
     0.0000   0.0000   0.0000   0.0000

          k =-0.1768-0.5303 0.5303 (  6053 PWs)   bands (ev):

   -14.0793 -14.0793 -14.0639 -14.0639 -13.9776 -13.9776 -13.9016 -13.9016
   -13.8791 -13.8791 -13.8566 -13.8566 -13.8066 -13.8066 -13.7680 -13.7680
   -13.6791 -13.6791 -13.6632 -13.6632  -0.7579  -0.7579   1.4458   1.4458
     4.9106   4.9106   5.8276   5.8276   8.8152   8.8152  10.7174  10.7174
    12.0028  12.0028  12.4926  12.4926

     occupation numbers 
     1.0000   1.0000   1.0000   1.0000   1.0000   1.0000   1.0000   1.0000
     1.0000   1.0000   1.0000   1.0000   1.0000   1.0000   1.0000   1.0000
[...]

     occupation numbers 
     1.0000   1.0000   1.0000   1.0000   1.0000   1.0000   1.0000   1.0000
     1.0000   1.0000   1.0000   1.0000   1.0000   1.0000   1.0000   1.0000
     1.0000   1.0000   1.0000   1.0000   1.0000   1.0000   1.0000   1.0000
     1.0000   1.0000   1.0000   1.0000   0.0000   0.0000   0.0000   0.0000
     0.0000   0.0000   0.0000   0.0000

          k =-0.1326-0.3977 0.5745 (  6042 PWs)   bands (ev):

   -14.0832 -14.0832 -14.0706 -14.0706 -13.9573 -13.9573 -13.8960 -13.8960
   -13.8758 -13.8758 -13.8540 -13.8540 -13.8188 -13.8188 -13.7882 -13.7882
   -13.6714 -13.6714 -13.6590 -13.6590  -0.5016  -0.5016   1.1484   1.1484
     4.6766   4.6766   5.6360   5.6360   9.4887   9.4887  10.7359  10.7359
    12.0175  12.0175  12.6966  12.6966

     occupation numbers 
     1.0000   1.0000   1.0000   1.0000   1.0000   1.0000   1.0000   1.0000
     1.0000   1.0000   1.0000   1.0000   1.0000   1.0000   1.0000   1.0000
     1.0000   1.0000   1.0000   1.0000   1.0000   1.0000   1.0000   1.0000
     1.0000   1.0000   1.0000   1.0000   0.0000   0.0000   0.0000   0.0000
     0.0000   0.0000   0.0000   0.0000

          k =-0.0884-0.3536 0.5303 (  6041 PWs)   bands (ev):

   -14.0831 -14.0831 -14.0706 -14.0706 -13.9568 -13.9568 -13.8990 -13.8990
   -13.8772 -13.8772 -13.8498 -13.8498 -13.8183 -13.8183 -13.7893 -13.7893
   -13.6713 -13.6713 -13.6592 -13.6592  -0.5561  -0.5561   1.2177   1.2177
     4.6436   4.6436   5.7050   5.7050   9.5329   9.5329  10.7292  10.7292
    12.0798  12.0798  12.6578  12.6578

     occupation numbers 
     1.0000   1.0000   1.0000   1.0000   1.0000   1.0000   1.0000   1.0000
     1.0000   1.0000   1.0000   1.0000   1.0000   1.0000   1.0000   1.0000
     1.0000   1.0000   1.0000   1.0000   1.0000   1.0000   1.0000   1.0000
     1.0000   1.0000   1.0000   1.0000   0.0000   0.0000   0.0000   0.0000
     0.0000   0.0000   0.0000   0.0000

          k =-0.0442-0.3094 0.4861 (  6046 PWs)   bands (ev):

   -14.0798 -14.0798 -14.0695 -14.0695 -13.9638 -13.9638 -13.9094 -13.9094
   -13.8795 -13.8795 -13.8473 -13.8473 -13.8053 -13.8053 -13.7850 -13.7850
   -13.6724 -13.6724 -13.6634 -13.6634  -0.7994  -0.7994   1.5368   1.5368
     4.7149   4.7149   5.8475   5.8475   9.5834   9.5834  10.6115  10.6115
    11.5067  11.5067  12.8815  12.8815

     occupation numbers 
     1.0000   1.0000   1.0000   1.0000   1.0000   1.0000   1.0000   1.0000
     1.0000   1.0000   1.0000   1.0000   1.0000   1.0000   1.0000   1.0000
     1.0000   1.0000   1.0000   1.0000   1.0000   1.0000   1.0000   1.0000
     1.0000   1.0000   1.0000   1.0000   0.0000   0.0000   0.0000   0.0000
     0.0000   0.0000   0.0000   0.0000

          k = 0.0000-0.2652 0.4419 (  6045 PWs)   bands (ev):

   -14.0737 -14.0737 -14.0672 -14.0672 -13.9766 -13.9766 -13.9201 -13.9201
   -13.8870 -13.8870 -13.8413 -13.8413 -13.7902 -13.7902 -13.7747 -13.7747
   -13.6750 -13.6750 -13.6709 -13.6709  -1.0971  -1.0971   1.9559   1.9559
     4.9096   4.9096   6.0377   6.0377   9.5816   9.5816  10.2558  10.2558
    11.3326  11.3326  12.6561  12.6561

     occupation numbers 
     1.0000   1.0000   1.0000   1.0000   1.0000   1.0000   1.0000   1.0000
     1.0000   1.0000   1.0000   1.0000   1.0000   1.0000   1.0000   1.0000
     1.0000   1.0000   1.0000   1.0000   1.0000   1.0000   1.0000   1.0000
     1.0000   1.0000   1.0000   1.0000   0.0000   0.0000   0.0000   0.0000
     0.0000   0.0000   0.0000   0.0000

          k =-0.1768-0.5303 0.7071 (  6053 PWs)   bands (ev):

   -14.0720 -14.0720 -14.0701 -14.0701 -13.9799 -13.9799 -13.9005 -13.9005
   -13.8824 -13.8824 -13.8561 -13.8561 -13.8065 -13.8065 -13.7640 -13.7640
   -13.6724 -13.6724 -13.6713 -13.6713  -0.8059  -0.8059   1.5742   1.5742
     5.0793   5.0793   5.5090   5.5090   9.2356   9.2356   9.5886   9.5886
    12.0149  12.0149  13.6152  13.6152

     occupation numbers 
     1.0000   1.0000   1.0000   1.0000   1.0000   1.0000   1.0000   1.0000
     1.0000   1.0000   1.0000   1.0000   1.0000   1.0000   1.0000   1.0000
     1.0000   1.0000   1.0000   1.0000   1.0000   1.0000   1.0000   1.0000
     1.0000   1.0000   1.0000   1.0000   0.0000   0.0000   0.0000   0.0000
     0.0000   0.0000   0.0000   0.0000

          k =-0.1326-0.4861 0.6629 (  6051 PWs)   bands (ev):

   -14.0787 -14.0787 -14.0724 -14.0724 -13.9626 -13.9626 -13.8905 -13.8905
   -13.8870 -13.8870 -13.8499 -13.8499 -13.8188 -13.8188 -13.7812 -13.7812
   -13.6695 -13.6695 -13.6634 -13.6634  -0.5024  -0.5024   1.1903   1.1903
     4.8500   4.8500   5.3877   5.3877   9.4005   9.4005  10.0637  10.0637
    11.8413  11.8413  13.5693  13.5693

     occupation numbers 
     1.0000   1.0000   1.0000   1.0000   1.0000   1.0000   1.0000   1.0000
     1.0000   1.0000   1.0000   1.0000   1.0000   1.0000   1.0000   1.0000
     1.0000   1.0000   1.0000   1.0000   1.0000   1.0000   1.0000   1.0000
     1.0000   1.0000   1.0000   1.0000   0.0000   0.0000   0.0000   0.0000
     0.0000   0.0000   0.0000   0.0000

          k =-0.0884-0.4419 0.6187 (  6041 PWs)   bands (ev):

   -14.0837 -14.0837 -14.0734 -14.0734 -13.9500 -13.9500 -13.8867 -13.8867
   -13.8789 -13.8789 -13.8519 -13.8519 -13.8300 -13.8300 -13.7929 -13.7929
   -13.6681 -13.6681 -13.6580 -13.6580  -0.2648  -0.2648   0.9149   0.9149
     4.6525   4.6525   5.3782   5.3782   9.4547   9.4547  10.7896  10.7896
    11.7399  11.7399  12.9947  12.9947

     occupation numbers 
     1.0000   1.0000   1.0000   1.0000   1.0000   1.0000   1.0000   1.0000
     1.0000   1.0000   1.0000   1.0000   1.0000   1.0000   1.0000   1.0000
     1.0000   1.0000   1.0000   1.0000   1.0000   1.0000   1.0000   1.0000
     1.0000   1.0000   1.0000   1.0000   0.0000   0.0000   0.0000   0.0000
     0.0000   0.0000   0.0000   0.0000

          k =-0.0442-0.3977 0.5745 (  6042 PWs)   bands (ev):

   -14.0856 -14.0856 -14.0734 -14.0734 -13.9468 -13.9468 -13.8828 -13.8828
   -13.8710 -13.8710 -13.8597 -13.8597 -13.8345 -13.8345 -13.7957 -13.7957
   -13.6680 -13.6680 -13.6561 -13.6561  -0.2670  -0.2670   0.9198   0.9198
     4.5401   4.5401   5.4671   5.4671   9.5304   9.5304  11.2585  11.2585
    11.9538  11.9538  12.2703  12.2703

     occupation numbers 
     1.0000   1.0000   1.0000   1.0000   1.0000   1.0000   1.0000   1.0000
     1.0000   1.0000   1.0000   1.0000   1.0000   1.0000   1.0000   1.0000
     1.0000   1.0000   1.0000   1.0000   1.0000   1.0000   1.0000   1.0000
     1.0000   1.0000   1.0000   1.0000   0.0000   0.0000   0.0000   0.0000
     0.0000   0.0000   0.0000   0.0000

          k = 0.0000-0.3536 0.5303 (  6045 PWs)   bands (ev):

   -14.0842 -14.0842 -14.0722 -14.0722 -13.9521 -13.9521 -13.8947 -13.8947
   -13.8676 -13.8676 -13.8597 -13.8597 -13.8241 -13.8241 -13.7923 -13.7923
   -13.6693 -13.6693 -13.6581 -13.6581  -0.5021  -0.5021   1.1888   1.1888
     4.5525   4.5525   5.6325   5.6325   9.6068   9.6068  11.1174  11.1174
    11.5796  11.5796  12.7498  12.7498

     occupation numbers 
     1.0000   1.0000   1.0000   1.0000   1.0000   1.0000   1.0000   1.0000
     1.0000   1.0000   1.0000   1.0000   1.0000   1.0000   1.0000   1.0000
     1.0000   1.0000   1.0000   1.0000   1.0000   1.0000   1.0000   1.0000
     1.0000   1.0000   1.0000   1.0000   0.0000   0.0000   0.0000   0.0000
     0.0000   0.0000   0.0000   0.0000

          k =-0.0884-0.5303 0.7071 (  6044 PWs)   bands (ev):

   -14.0754 -14.0754 -14.0742 -14.0742 -13.9607 -13.9607 -13.9110 -13.9110
   -13.8775 -13.8775 -13.8296 -13.8296 -13.8293 -13.8293 -13.7821 -13.7821
   -13.6674 -13.6674 -13.6663 -13.6663  -0.2801  -0.2801   0.9229   0.9229
     5.0056   5.0056   5.2192   5.2192   9.2042   9.2042   9.4116   9.4116
    12.6872  12.6872  13.9055  13.9055

     occupation numbers 
     1.0000   1.0000   1.0000   1.0000   1.0000   1.0000   1.0000   1.0000
     1.0000   1.0000   1.0000   1.0000   1.0000   1.0000   1.0000   1.0000
     1.0000   1.0000   1.0000   1.0000   1.0000   1.0000   1.0000   1.0000
     1.0000   1.0000   1.0000   1.0000   0.0000   0.0000   0.0000   0.0000
     0.0000   0.0000   0.0000   0.0000

          k =-0.0442-0.4861 0.6629 (  6036 PWs)   bands (ev):

   -14.0810 -14.0810 -14.0753 -14.0753 -13.9440 -13.9440 -13.9118 -13.9118
   -13.8671 -13.8671 -13.8420 -13.8420 -13.8277 -13.8277 -13.7980 -13.7980
   -13.6660 -13.6660 -13.6603 -13.6603   0.0033   0.0033   0.6230   0.6230
     4.7962   4.7962   5.1780   5.1780   9.3485   9.3485  10.0129  10.0129
    12.5053  12.5053  13.2131  13.2131

     occupation numbers 
     1.0000   1.0000   1.0000   1.0000   1.0000   1.0000   1.0000   1.0000
     1.0000   1.0000   1.0000   1.0000   1.0000   1.0000   1.0000   1.0000
     1.0000   1.0000   1.0000   1.0000   1.0000   1.0000   1.0000   1.0000
     1.0000   1.0000   1.0000   1.0000   0.0000   0.0000   0.0000   0.0000
     0.0000   0.0000   0.0000   0.0000

          k = 0.0000-0.4419 0.6187 (  6039 PWs)   bands (ev):

   -14.0849 -14.0849 -14.0749 -14.0749 -13.9410 -13.9410 -13.8959 -13.8959
   -13.8663 -13.8663 -13.8462 -13.8462 -13.8409 -13.8409 -13.8003 -13.8003
   -13.6663 -13.6663 -13.6565 -13.6565   0.0009   0.0009   0.6345   0.6345
     4.6037   4.6037   5.2826   5.2826   9.4349   9.4349  10.8297  10.8297
    12.3476  12.3476  12.3584  12.3584

     occupation numbers 
     1.0000   1.0000   1.0000   1.0000   1.0000   1.0000   1.0000   1.0000
     1.0000   1.0000   1.0000   1.0000   1.0000   1.0000   1.0000   1.0000
     1.0000   1.0000   1.0000   1.0000   1.0000   1.0000   1.0000   1.0000
     1.0000   1.0000   1.0000   1.0000   0.0000   0.0000   0.0000   0.0000
     0.0000   0.0000   0.0000   0.0000

          k =-0.7071 0.1768 0.0000 (  6042 PWs)   bands (ev):

   -14.0761 -14.0761 -14.0761 -14.0761 -13.9377 -13.9377 -13.9372 -13.9372
   -13.8547 -13.8547 -13.8522 -13.8522 -13.8047 -13.8047 -13.8042 -13.8042
   -13.6650 -13.6650 -13.6650 -13.6650   0.2998   0.2998   0.3009   0.3009
     5.0511   5.0511   5.0511   5.0511   9.2672   9.2672   9.2674   9.2674
    13.4075  13.4075  13.4078  13.4078

     occupation numbers 
     1.0000   1.0000   1.0000   1.0000   1.0000   1.0000   1.0000   1.0000
     1.0000   1.0000   1.0000   1.0000   1.0000   1.0000   1.0000   1.0000
     1.0000   1.0000   1.0000   1.0000   1.0000   1.0000   1.0000   1.0000
     1.0000   1.0000   1.0000   1.0000   0.0000   0.0000   0.0000   0.0000
     0.0000   0.0000   0.0000   0.0000

          k =-0.1768-0.4419 0.7071 (  6045 PWs)   bands (ev):

   -14.0788 -14.0788 -14.0725 -14.0725 -13.9621 -13.9621 -13.9009 -13.9009
   -13.8690 -13.8690 -13.8639 -13.8639 -13.8105 -13.8105 -13.7837 -13.7837
   -13.6694 -13.6694 -13.6640 -13.6640  -0.6725  -0.6725   1.4015   1.4015
     4.7714   4.7714   5.5455   5.5455   9.9825   9.9825  10.1198  10.1198
    11.2858  11.2858  13.3447  13.3447

     occupation numbers 
     1.0000   1.0000   1.0000   1.0000   1.0000   1.0000   1.0000   1.0000
     1.0000   1.0000   1.0000   1.0000   1.0000   1.0000   1.0000   1.0000
     1.0000   1.0000   1.0000   1.0000   1.0000   1.0000   1.0000   1.0000
     1.0000   1.0000   1.0000   1.0000   0.0000   0.0000   0.0000   0.0000
     0.0000   0.0000   0.0000   0.0000

          k =-0.1326-0.3977 0.6629 (  6038 PWs)   bands (ev):

   -14.0831 -14.0831 -14.0746 -14.0746 -13.9484 -13.9484 -13.8905 -13.8905
   -13.8738 -13.8738 -13.8578 -13.8578 -13.8248 -13.8248 -13.7950 -13.7950
   -13.6670 -13.6670 -13.6589 -13.6589  -0.3893  -0.3893   1.0626   1.0626
     4.6442   4.6442   5.3903   5.3903  10.0089  10.0089  10.6125  10.6125
    11.3963  11.3963  12.8811  12.8811

     occupation numbers 
     1.0000   1.0000   1.0000   1.0000   1.0000   1.0000   1.0000   1.0000
     1.0000   1.0000   1.0000   1.0000   1.0000   1.0000   1.0000   1.0000
     1.0000   1.0000   1.0000   1.0000   1.0000   1.0000   1.0000   1.0000
     1.0000   1.0000   1.0000   1.0000   0.0000   0.0000   0.0000   0.0000
     0.0000   0.0000   0.0000   0.0000

          k =-0.0884-0.3536 0.6187 (  6030 PWs)   bands (ev):

   -14.0847 -14.0847 -14.0752 -14.0752 -13.9431 -13.9431 -13.8867 -13.8867
   -13.8717 -13.8717 -13.8585 -13.8585 -13.8313 -13.8313 -13.7991 -13.7991
   -13.6663 -13.6663 -13.6570 -13.6570  -0.2516  -0.2516   0.9053   0.9053
     4.6039   4.6039   5.3335   5.3335  10.0085  10.0085  10.7398  10.7398
    11.9132  11.9132  12.2063  12.2063

     occupation numbers 
     1.0000   1.0000   1.0000   1.0000   1.0000   1.0000   1.0000   1.0000
     1.0000   1.0000   1.0000   1.0000   1.0000   1.0000   1.0000   1.0000
     1.0000   1.0000   1.0000   1.0000   1.0000   1.0000   1.0000   1.0000
     1.0000   1.0000   1.0000   1.0000   0.0000   0.0000   0.0000   0.0000
     0.0000   0.0000   0.0000   0.0000

          k =-0.0884-0.4419 0.7071 (  6038 PWs)   bands (ev):

   -14.0811 -14.0811 -14.0773 -14.0773 -13.9435 -13.9435 -13.8958 -13.8958
   -13.8791 -13.8791 -13.8406 -13.8406 -13.8329 -13.8329 -13.7985 -13.7985
   -13.6641 -13.6641 -13.6605 -13.6605  -0.1969  -0.1969   0.8527   0.8527
     4.7615   4.7615   5.1523   5.1523  10.0612  10.0612  10.1012  10.1012
    11.6629  11.6629  13.0507  13.0507

     occupation numbers 
     1.0000   1.0000   1.0000   1.0000   1.0000   1.0000   1.0000   1.0000
     1.0000   1.0000   1.0000   1.0000   1.0000   1.0000   1.0000   1.0000
     1.0000   1.0000   1.0000   1.0000   1.0000   1.0000   1.0000   1.0000
     1.0000   1.0000   1.0000   1.0000   0.0000   0.0000   0.0000   0.0000
     0.0000   0.0000   0.0000   0.0000

          k =-0.0442-0.3977 0.6629 (  6031 PWs)   bands (ev):

   -14.0838 -14.0838 -14.0786 -14.0786 -13.9311 -13.9311 -13.8974 -13.8974
   -13.8702 -13.8702 -13.8460 -13.8460 -13.8370 -13.8370 -13.8088 -13.8088
   -13.6627 -13.6627 -13.6575 -13.6575   0.0228   0.0228   0.6235   0.6235
     4.6801   4.6801   5.0721   5.0721  10.1386  10.1386  10.8092  10.8092
    11.5843  11.5843  12.1966  12.1966

     occupation numbers 
     1.0000   1.0000   1.0000   1.0000   1.0000   1.0000   1.0000   1.0000
     1.0000   1.0000   1.0000   1.0000   1.0000   1.0000   1.0000   1.0000
     1.0000   1.0000   1.0000   1.0000   1.0000   1.0000   1.0000   1.0000
     1.0000   1.0000   1.0000   1.0000   0.0000   0.0000   0.0000   0.0000
     0.0000   0.0000   0.0000   0.0000

          k =-0.0000-0.3536 0.6187 (  6031 PWs)   bands (ev):

   -14.0846 -14.0846 -14.0776 -14.0776 -13.9349 -13.9349 -13.8872 -13.8872
   -13.8765 -13.8765 -13.8456 -13.8456 -13.8409 -13.8409 -13.8054 -13.8054
   -13.6638 -13.6638 -13.6569 -13.6569  -0.0991  -0.0991   0.7534   0.7534
     4.6149   4.6149   5.1760   5.1760  10.1873  10.1873  10.9909  10.9909
    11.4737  11.4737  12.1020  12.1020

     occupation numbers 
     1.0000   1.0000   1.0000   1.0000   1.0000   1.0000   1.0000   1.0000
     1.0000   1.0000   1.0000   1.0000   1.0000   1.0000   1.0000   1.0000
     1.0000   1.0000   1.0000   1.0000   1.0000   1.0000   1.0000   1.0000
     1.0000   1.0000   1.0000   1.0000   0.0000   0.0000   0.0000   0.0000
     0.0000   0.0000   0.0000   0.0000

          k =-0.7071 0.2652 0.0000 (  6040 PWs)   bands (ev):

   -14.0805 -14.0805 -14.0805 -14.0805 -13.9214 -13.9214 -13.9207 -13.9207
   -13.8573 -13.8573 -13.8548 -13.8548 -13.8185 -13.8185 -13.8178 -13.8178
   -13.6607 -13.6607 -13.6607 -13.6607   0.3156   0.3156   0.3167   0.3167
     4.8878   4.8878   4.8878   4.8878  10.0715  10.0715  10.0715  10.0715
    12.3295  12.3295  12.3300  12.3300

     occupation numbers 
     1.0000   1.0000   1.0000   1.0000   1.0000   1.0000   1.0000   1.0000
     1.0000   1.0000   1.0000   1.0000   1.0000   1.0000   1.0000   1.0000
     1.0000   1.0000   1.0000   1.0000   1.0000   1.0000   1.0000   1.0000
     1.0000   1.0000   1.0000   1.0000   0.0000   0.0000   0.0000   0.0000
     0.0000   0.0000   0.0000   0.0000

          k =-0.7071 0.3536 0.0000 (  6032 PWs)   bands (ev):

   -14.0822 -14.0822 -14.0821 -14.0821 -13.9132 -13.9132 -13.9124 -13.9124
   -13.8597 -13.8597 -13.8572 -13.8572 -13.8244 -13.8244 -13.8236 -13.8236
   -13.6591 -13.6591 -13.6590 -13.6590   0.3222   0.3222   0.3233   0.3233
     4.8257   4.8257   4.8257   4.8257  10.7322  10.7322  10.7326  10.7326
    11.5719  11.5719  11.5729  11.5729

     occupation numbers 
     1.0000   1.0000   1.0000   1.0000   1.0000   1.0000   1.0000   1.0000
     1.0000   1.0000   1.0000   1.0000   1.0000   1.0000   1.0000   1.0000
     1.0000   1.0000   1.0000   1.0000   1.0000   1.0000   1.0000   1.0000
     1.0000   1.0000   1.0000   1.0000   0.0000   0.0000   0.0000   0.0000
     0.0000   0.0000   0.0000   0.0000

     the Fermi energy is     7.5500 ev

!    total energy              =    -884.12816973 Ry
     Harris-Foulkes estimate   =    -884.12816956 Ry
     estimated scf accuracy    <       0.00000067 Ry

     total all-electron energy =    -24709.383773 Ry

     The total energy is the sum of the following terms:

     one-electron contribution =    -155.40624212 Ry
     hartree contribution      =      78.94881770 Ry
     xc contribution           =     -54.77205101 Ry
     ewald contribution        =    -167.52979533 Ry
     one-center paw contrib.   =    -585.36889882 Ry
     smearing contrib. (-TS)   =      -0.00000015 Ry

     convergence has been achieved in   5 iterations

     Writing output data file Sn.save
 
     init_run     :     12.98s CPU     14.06s WALL (       1 calls)
     electrons    :    283.01s CPU    301.01s WALL (       1 calls)

     Called by init_run:
     wfcinit      :     12.59s CPU     13.43s WALL (       1 calls)
     potinit      :      0.15s CPU      0.20s WALL (       1 calls)

     Called by electrons:
     c_bands      :    243.36s CPU    259.00s WALL (       6 calls)
     sum_band     :     38.93s CPU     41.11s WALL (       6 calls)
     v_of_rho     :      0.08s CPU      0.10s WALL (       6 calls)
     v_h          :      0.01s CPU      0.01s WALL (       6 calls)
     v_xc         :      0.07s CPU      0.09s WALL (       6 calls)
     newd         :      0.09s CPU      0.13s WALL (       6 calls)
     PAW_pot      :      0.64s CPU      0.74s WALL (       6 calls)
     mix_rho      :      0.02s CPU      0.05s WALL (       6 calls)

     Called by c_bands:
     init_us_2    :      0.39s CPU      0.44s WALL (    1885 calls)
     cegterg      :    239.82s CPU    255.16s WALL (     870 calls)

     Called by sum_band:
     sum_band:bec :      0.12s CPU      0.13s WALL (     870 calls)
     addusdens    :      0.12s CPU      0.15s WALL (       6 calls)

     Called by *egterg:
     h_psi        :    206.83s CPU    219.56s WALL (    3585 calls)
     s_psi        :      2.68s CPU      2.71s WALL (    3585 calls)
     g_psi        :      0.61s CPU      0.61s WALL (    2570 calls)
     cdiaghg      :     15.23s CPU     15.51s WALL (    3295 calls)
     cegterg:over :     10.59s CPU     10.64s WALL (    2570 calls)
     cegterg:upda :      5.59s CPU      5.61s WALL (    2570 calls)
     cegterg:last :      3.67s CPU      3.68s WALL (     986 calls)

     Called by h_psi:
     h_psi:vloc   :    199.11s CPU    211.65s WALL (    3585 calls)
     h_psi:vnl    :      7.20s CPU      7.35s WALL (    3585 calls)
     add_vuspsi   :      2.80s CPU      2.82s WALL (    3585 calls)

     General routines
     calbec       :      5.70s CPU      5.86s WALL (    4455 calls)
     fft          :      0.10s CPU      0.16s WALL (     116 calls)
     fftw         :    219.77s CPU    233.50s WALL (  429580 calls)
     davcio       :      0.05s CPU      0.85s WALL (     145 calls)
 
     Parallel routines
     fft_scatter  :    138.93s CPU    147.89s WALL (  429696 calls)

     PAW routines
     PAW_pot      :      0.64s CPU      0.74s WALL (       6 calls)
     PAW_symme    :      0.01s CPU      0.01s WALL (      12 calls)
 
     PWSCF        :  4m56.82s CPU     5m17.17s WALL

 
   This run was terminated on:  23: 0: 0  16Mar2020            

=------------------------------------------------------------------------------=
   JOB DONE.
=------------------------------------------------------------------------------=
