
     Program PWSCF v.5.4.0 starts on 28Feb2020 at  7: 6:20 

     This program is part of the open-source Quantum ESPRESSO suite
     for quantum simulation of materials; please cite
         "P. Giannozzi et al., J. Phys.:Condens. Matter 21 395502 (2009);
          URL http://www.quantum-espresso.org", 
     in publications or presentations arising from this work. More details at
     http://www.quantum-espresso.org/quote

     Parallel version (MPI & OpenMP), running on      16 processor cores
     Number of MPI processes:                16
     Threads/MPI process:                     1
     R & G space division:  proc/nbgrp/npool/nimage =      16
     Waiting for input...
     Reading input from standard input
Warning: card &IONS ignored
Warning: card / ignored
Warning: card &CELL ignored
Warning: card / ignored

     Current dimensions of program PWSCF are:
     Max number of different atomic species (ntypx) = 10
     Max number of k-points (npk) =  40000
     Max angular momentum in pseudopotentials (lmaxx) =  3

     Subspace diagonalization in iterative solution of the eigenvalue problem:
     a serial algorithm will be used

 
     Parallelization info
     --------------------
     sticks:   dense  smooth     PW     G-vecs:    dense   smooth      PW
     Min         109     109     31                 3006     3006     461
     Max         111     111     32                 3009     3009     465
     Sum        1759    1759    499                48119    48119    7391
 

     Title: 
     Sn                                                                         


     bravais-lattice index     =            0
     lattice parameter (alat)  =       8.8993  a.u.
     unit-cell volume          =     498.3785 (a.u.)^3
     number of atoms/cell      =            2
     number of atomic types    =            1
     number of electrons       =        28.00
     number of Kohn-Sham states=           18
     kinetic-energy cutoff     =      80.0000  Ry
     charge density cutoff     =     320.0000  Ry
     convergence threshold     =      1.0E-06
     mixing beta               =       0.7000
     number of iterations used =            8  plain     mixing
     Exchange-correlation      = PBE ( 1  4  3  4 0 0)

     celldm(1)=   8.899346  celldm(2)=   0.000000  celldm(3)=   0.000000
     celldm(4)=   0.000000  celldm(5)=   0.000000  celldm(6)=   0.000000

     crystal axes: (cart. coord. in units of alat)
               a(1) = (   0.000000   0.707107   0.707107 )  
               a(2) = (   0.707107   0.000000   0.707107 )  
               a(3) = (   0.707107   0.707107   0.000000 )  

     reciprocal axes: (cart. coord. in units 2 pi/alat)
               b(1) = ( -0.707107  0.707107  0.707107 )  
               b(2) = (  0.707107 -0.707107  0.707107 )  
               b(3) = (  0.707107  0.707107 -0.707107 )  


     PseudoPot. # 1 for Sn read from file:
     ../PseudopotentialDatabase/Sn_ONCV_PBE-1.1.upf
     MD5 check sum: 7fc728ef37b8342e916bba54f6049344
     Pseudo is Norm-conserving, Zval = 14.0
     Generated using ONCVPSP code by D. R. Hamann
     Using radial grid of  602 points,  6 beta functions with: 
                l(1) =   0
                l(2) =   0
                l(3) =   1
                l(4) =   1
                l(5) =   2
                l(6) =   2

     atomic species   valence    mass     pseudopotential
        Sn            14.00   118.71000     Sn( 1.00)

     24 Sym. Ops. (no inversion) found
          (note: 24 additional sym.ops. were found but ignored
           their fractional translations are incommensurate with FFT grid)

                                    s                        frac. trans.

      isym =  1     identity                                     

 cryst.   s( 1) = (     1          0          0      )
                  (     0          1          0      )
                  (     0          0          1      )

 cart.    s( 1) = (  1.0000000  0.0000000  0.0000000 )
                  (  0.0000000  1.0000000  0.0000000 )
                  (  0.0000000  0.0000000  1.0000000 )


      isym =  2     180 deg rotation - cart. axis [0,0,1]        

 cryst.   s( 2) = (     0          1         -1      )
                  (     1          0         -1      )
                  (     0          0         -1      )

 cart.    s( 2) = ( -1.0000000  0.0000000  0.0000000 )
                  (  0.0000000 -1.0000000  0.0000000 )
                  (  0.0000000  0.0000000  1.0000000 )


      isym =  3     180 deg rotation - cart. axis [0,1,0]        

 cryst.   s( 3) = (     0         -1          1      )
                  (     0         -1          0      )
                  (     1         -1          0      )

 cart.    s( 3) = ( -1.0000000  0.0000000  0.0000000 )
                  (  0.0000000  1.0000000  0.0000000 )
                  (  0.0000000  0.0000000 -1.0000000 )


      isym =  4     180 deg rotation - cart. axis [1,0,0]        

 cryst.   s( 4) = (    -1          0          0      )
                  (    -1          0          1      )
                  (    -1          1          0      )

 cart.    s( 4) = (  1.0000000  0.0000000  0.0000000 )
                  (  0.0000000 -1.0000000  0.0000000 )
                  (  0.0000000  0.0000000 -1.0000000 )


      isym =  5     120 deg rotation - cart. axis [-1,-1,-1]     

 cryst.   s( 5) = (     0          0          1      )
                  (     1          0          0      )
                  (     0          1          0      )

 cart.    s( 5) = (  0.0000000  1.0000000  0.0000000 )
                  (  0.0000000  0.0000000  1.0000000 )
                  (  1.0000000  0.0000000  0.0000000 )


      isym =  6     120 deg rotation - cart. axis [-1,1,1]       

 cryst.   s( 6) = (     1         -1          0      )
                  (     0         -1          1      )
                  (     0         -1          0      )

 cart.    s( 6) = (  0.0000000 -1.0000000  0.0000000 )
                  (  0.0000000  0.0000000  1.0000000 )
                  ( -1.0000000  0.0000000  0.0000000 )


      isym =  7     120 deg rotation - cart. axis [1,1,-1]       

 cryst.   s( 7) = (    -1          1          0      )
                  (    -1          0          0      )
                  (    -1          0          1      )

 cart.    s( 7) = (  0.0000000  1.0000000  0.0000000 )
                  (  0.0000000  0.0000000 -1.0000000 )
                  ( -1.0000000  0.0000000  0.0000000 )


      isym =  8     120 deg rotation - cart. axis [1,-1,1]       

 cryst.   s( 8) = (     0          0         -1      )
                  (     0          1         -1      )
                  (     1          0         -1      )

 cart.    s( 8) = (  0.0000000 -1.0000000  0.0000000 )
                  (  0.0000000  0.0000000 -1.0000000 )
                  (  1.0000000  0.0000000  0.0000000 )


      isym =  9     120 deg rotation - cart. axis [1,1,1]        

 cryst.   s( 9) = (     0          1          0      )
                  (     0          0          1      )
                  (     1          0          0      )

 cart.    s( 9) = (  0.0000000  0.0000000  1.0000000 )
                  (  1.0000000  0.0000000  0.0000000 )
                  (  0.0000000  1.0000000  0.0000000 )


      isym = 10     120 deg rotation - cart. axis [-1,1,-1]      

 cryst.   s(10) = (    -1          0          1      )
                  (    -1          1          0      )
                  (    -1          0          0      )

 cart.    s(10) = (  0.0000000  0.0000000  1.0000000 )
                  ( -1.0000000  0.0000000  0.0000000 )
                  (  0.0000000 -1.0000000  0.0000000 )


      isym = 11     120 deg rotation - cart. axis [1,-1,-1]      

 cryst.   s(11) = (     1          0         -1      )
                  (     0          0         -1      )
                  (     0          1         -1      )

 cart.    s(11) = (  0.0000000  0.0000000 -1.0000000 )
                  ( -1.0000000  0.0000000  0.0000000 )
                  (  0.0000000  1.0000000  0.0000000 )


      isym = 12     120 deg rotation - cart. axis [-1,-1,1]      

 cryst.   s(12) = (     0         -1          0      )
                  (     1         -1          0      )
                  (     0         -1          1      )

 cart.    s(12) = (  0.0000000  0.0000000 -1.0000000 )
                  (  1.0000000  0.0000000  0.0000000 )
                  (  0.0000000 -1.0000000  0.0000000 )


      isym = 13     inv. 180 deg rotation - cart. axis [1,1,0]   

 cryst.   s(13) = (     1          0         -1      )
                  (     0          1         -1      )
                  (     0          0         -1      )

 cart.    s(13) = (  0.0000000 -1.0000000  0.0000000 )
                  ( -1.0000000  0.0000000  0.0000000 )
                  (  0.0000000  0.0000000  1.0000000 )


      isym = 14     inv. 180 deg rotation - cart. axis [1,-1,0]  

 cryst.   s(14) = (     0          1          0      )
                  (     1          0          0      )
                  (     0          0          1      )

 cart.    s(14) = (  0.0000000  1.0000000  0.0000000 )
                  (  1.0000000  0.0000000  0.0000000 )
                  (  0.0000000  0.0000000  1.0000000 )


      isym = 15     inv.  90 deg rotation - cart. axis [0,0,-1]  

 cryst.   s(15) = (     0         -1          0      )
                  (     0         -1          1      )
                  (     1         -1          0      )

 cart.    s(15) = (  0.0000000 -1.0000000  0.0000000 )
                  (  1.0000000  0.0000000  0.0000000 )
                  (  0.0000000  0.0000000 -1.0000000 )


      isym = 16     inv.  90 deg rotation - cart. axis [0,0,1]   

 cryst.   s(16) = (    -1          0          1      )
                  (    -1          0          0      )
                  (    -1          1          0      )

 cart.    s(16) = (  0.0000000  1.0000000  0.0000000 )
                  ( -1.0000000  0.0000000  0.0000000 )
                  (  0.0000000  0.0000000 -1.0000000 )


      isym = 17     inv. 180 deg rotation - cart. axis [1,0,1]   

 cryst.   s(17) = (     1         -1          0      )
                  (     0         -1          0      )
                  (     0         -1          1      )

 cart.    s(17) = (  0.0000000  0.0000000 -1.0000000 )
                  (  0.0000000  1.0000000  0.0000000 )
                  ( -1.0000000  0.0000000  0.0000000 )


      isym = 18     inv. 180 deg rotation - cart. axis [-1,0,1]  

 cryst.   s(18) = (     0          0          1      )
                  (     0          1          0      )
                  (     1          0          0      )

 cart.    s(18) = (  0.0000000  0.0000000  1.0000000 )
                  (  0.0000000  1.0000000  0.0000000 )
                  (  1.0000000  0.0000000  0.0000000 )


      isym = 19     inv.  90 deg rotation - cart. axis [0,1,0]   

 cryst.   s(19) = (     0          0         -1      )
                  (     1          0         -1      )
                  (     0          1         -1      )

 cart.    s(19) = (  0.0000000  0.0000000 -1.0000000 )
                  (  0.0000000 -1.0000000  0.0000000 )
                  (  1.0000000  0.0000000  0.0000000 )


      isym = 20     inv.  90 deg rotation - cart. axis [0,-1,0]  

 cryst.   s(20) = (    -1          1          0      )
                  (    -1          0          1      )
                  (    -1          0          0      )

 cart.    s(20) = (  0.0000000  0.0000000  1.0000000 )
                  (  0.0000000 -1.0000000  0.0000000 )
                  ( -1.0000000  0.0000000  0.0000000 )


      isym = 21     inv. 180 deg rotation - cart. axis [0,1,1]   

 cryst.   s(21) = (    -1          0          0      )
                  (    -1          1          0      )
                  (    -1          0          1      )

 cart.    s(21) = (  1.0000000  0.0000000  0.0000000 )
                  (  0.0000000  0.0000000 -1.0000000 )
                  (  0.0000000 -1.0000000  0.0000000 )


      isym = 22     inv. 180 deg rotation - cart. axis [0,1,-1]  

 cryst.   s(22) = (     1          0          0      )
                  (     0          0          1      )
                  (     0          1          0      )

 cart.    s(22) = (  1.0000000  0.0000000  0.0000000 )
                  (  0.0000000  0.0000000  1.0000000 )
                  (  0.0000000  1.0000000  0.0000000 )


      isym = 23     inv.  90 deg rotation - cart. axis [-1,0,0]  

 cryst.   s(23) = (     0          1         -1      )
                  (     0          0         -1      )
                  (     1          0         -1      )

 cart.    s(23) = ( -1.0000000  0.0000000  0.0000000 )
                  (  0.0000000  0.0000000 -1.0000000 )
                  (  0.0000000  1.0000000  0.0000000 )


      isym = 24     inv.  90 deg rotation - cart. axis [1,0,0]   

 cryst.   s(24) = (     0         -1          1      )
                  (     1         -1          0      )
                  (     0         -1          0      )

 cart.    s(24) = ( -1.0000000  0.0000000  0.0000000 )
                  (  0.0000000  0.0000000  1.0000000 )
                  (  0.0000000 -1.0000000  0.0000000 )


   Cartesian axes

     site n.     atom                  positions (alat units)
         1           Sn  tau(   1) = (   0.0000000   0.0000000   0.0000000  )
         2           Sn  tau(   2) = (   0.3535534   0.3535534   0.3535534  )

   Crystallographic axes

     site n.     atom                  positions (cryst. coord.)
         1           Sn  tau(   1) = (  0.0000000  0.0000000  0.0000000  )
         2           Sn  tau(   2) = (  0.2500000  0.2500000  0.2500000  )

     number of k points=    47  gaussian smearing, width (Ry)=  0.0001
                       cart. coord. in units 2pi/alat
        k(    1) = (   0.0000000   0.0000000   0.0000000), wk =   0.0020000
        k(    2) = (   0.0707107   0.0707107  -0.0707107), wk =   0.0160000
        k(    3) = (   0.1414214   0.1414214  -0.1414214), wk =   0.0160000
        k(    4) = (   0.2121320   0.2121320  -0.2121320), wk =   0.0160000
        k(    5) = (   0.2828427   0.2828427  -0.2828427), wk =   0.0160000
        k(    6) = (  -0.3535534  -0.3535534   0.3535534), wk =   0.0080000
        k(    7) = (   0.1414214   0.0000000   0.0000000), wk =   0.0120000
        k(    8) = (   0.2121320   0.0707107  -0.0707107), wk =   0.0480000
        k(    9) = (   0.2828427   0.1414214  -0.1414214), wk =   0.0480000
        k(   10) = (   0.3535534   0.2121320  -0.2121320), wk =   0.0480000
        k(   11) = (  -0.2828427  -0.4242641   0.4242641), wk =   0.0480000
        k(   12) = (  -0.2121320  -0.3535534   0.3535534), wk =   0.0480000
        k(   13) = (  -0.1414214  -0.2828427   0.2828427), wk =   0.0480000
        k(   14) = (  -0.0707107  -0.2121320   0.2121320), wk =   0.0480000
        k(   15) = (   0.0000000  -0.1414214   0.1414214), wk =   0.0240000
        k(   16) = (   0.2828427   0.0000000   0.0000000), wk =   0.0120000
        k(   17) = (   0.3535534   0.0707107  -0.0707107), wk =   0.0480000
        k(   18) = (   0.4242641   0.1414214  -0.1414214), wk =   0.0480000
        k(   19) = (  -0.2121320  -0.4949747   0.4949747), wk =   0.0480000
        k(   20) = (  -0.1414214  -0.4242641   0.4242641), wk =   0.0480000
        k(   21) = (  -0.0707107  -0.3535534   0.3535534), wk =   0.0480000
        k(   22) = (   0.0000000  -0.2828427   0.2828427), wk =   0.0240000
        k(   23) = (   0.4242641   0.0000000   0.0000000), wk =   0.0120000
        k(   24) = (   0.4949747   0.0707107  -0.0707107), wk =   0.0480000
        k(   25) = (  -0.1414214  -0.5656854   0.5656854), wk =   0.0480000
        k(   26) = (  -0.0707107  -0.4949747   0.4949747), wk =   0.0480000
        k(   27) = (  -0.0000000  -0.4242641   0.4242641), wk =   0.0240000
        k(   28) = (   0.5656854   0.0000000   0.0000000), wk =   0.0120000
        k(   29) = (  -0.0707107  -0.6363961   0.6363961), wk =   0.0480000
        k(   30) = (   0.0000000  -0.5656854   0.5656854), wk =   0.0240000
        k(   31) = (  -0.7071068   0.0000000   0.0000000), wk =   0.0060000
        k(   32) = (   0.2828427   0.1414214   0.0000000), wk =   0.0480000
        k(   33) = (   0.3535534   0.2121320  -0.0707107), wk =   0.0960000
        k(   34) = (  -0.2828427  -0.4242641   0.5656854), wk =   0.0960000
        k(   35) = (  -0.2121320  -0.3535534   0.4949747), wk =   0.0480000
        k(   36) = (   0.4242641   0.1414214  -0.0000000), wk =   0.0480000
        k(   37) = (  -0.2121320  -0.4949747   0.6363961), wk =   0.0960000
        k(   38) = (  -0.1414214  -0.4242641   0.5656854), wk =   0.0960000
        k(   39) = (  -0.0707107  -0.3535534   0.4949747), wk =   0.0960000
        k(   40) = (   0.0000000  -0.2828427   0.4242641), wk =   0.0480000
        k(   41) = (  -0.1414214  -0.5656854   0.7071068), wk =   0.0480000
        k(   42) = (  -0.0707107  -0.4949747   0.6363961), wk =   0.0960000
        k(   43) = (  -0.0000000  -0.4242641   0.5656854), wk =   0.0480000
        k(   44) = (  -0.7071068   0.1414214   0.0000000), wk =   0.0240000
        k(   45) = (  -0.1414214  -0.4242641   0.7071068), wk =   0.0480000
        k(   46) = (  -0.0707107  -0.3535534   0.6363961), wk =   0.0480000
        k(   47) = (  -0.7071068   0.2828427   0.0000000), wk =   0.0240000

                       cryst. coord.
        k(    1) = (   0.0000000   0.0000000   0.0000000), wk =   0.0020000
        k(    2) = (   0.0000000   0.0000000   0.1000000), wk =   0.0160000
        k(    3) = (   0.0000000   0.0000000   0.2000000), wk =   0.0160000
        k(    4) = (   0.0000000   0.0000000   0.3000000), wk =   0.0160000
        k(    5) = (   0.0000000   0.0000000   0.4000000), wk =   0.0160000
        k(    6) = (   0.0000000   0.0000000  -0.5000000), wk =   0.0080000
        k(    7) = (   0.0000000   0.1000000   0.1000000), wk =   0.0120000
        k(    8) = (   0.0000000   0.1000000   0.2000000), wk =   0.0480000
        k(    9) = (   0.0000000   0.1000000   0.3000000), wk =   0.0480000
        k(   10) = (   0.0000000   0.1000000   0.4000000), wk =   0.0480000
        k(   11) = (   0.0000000   0.1000000  -0.5000000), wk =   0.0480000
        k(   12) = (   0.0000000   0.1000000  -0.4000000), wk =   0.0480000
        k(   13) = (   0.0000000   0.1000000  -0.3000000), wk =   0.0480000
        k(   14) = (   0.0000000   0.1000000  -0.2000000), wk =   0.0480000
        k(   15) = (   0.0000000   0.1000000  -0.1000000), wk =   0.0240000
        k(   16) = (   0.0000000   0.2000000   0.2000000), wk =   0.0120000
        k(   17) = (   0.0000000   0.2000000   0.3000000), wk =   0.0480000
        k(   18) = (   0.0000000   0.2000000   0.4000000), wk =   0.0480000
        k(   19) = (   0.0000000   0.2000000  -0.5000000), wk =   0.0480000
        k(   20) = (   0.0000000   0.2000000  -0.4000000), wk =   0.0480000
        k(   21) = (   0.0000000   0.2000000  -0.3000000), wk =   0.0480000
        k(   22) = (   0.0000000   0.2000000  -0.2000000), wk =   0.0240000
        k(   23) = (   0.0000000   0.3000000   0.3000000), wk =   0.0120000
        k(   24) = (   0.0000000   0.3000000   0.4000000), wk =   0.0480000
        k(   25) = (   0.0000000   0.3000000  -0.5000000), wk =   0.0480000
        k(   26) = (   0.0000000   0.3000000  -0.4000000), wk =   0.0480000
        k(   27) = (   0.0000000   0.3000000  -0.3000000), wk =   0.0240000
        k(   28) = (   0.0000000   0.4000000   0.4000000), wk =   0.0120000
        k(   29) = (   0.0000000   0.4000000  -0.5000000), wk =   0.0480000
        k(   30) = (   0.0000000   0.4000000  -0.4000000), wk =   0.0240000
        k(   31) = (   0.0000000  -0.5000000  -0.5000000), wk =   0.0060000
        k(   32) = (   0.1000000   0.2000000   0.3000000), wk =   0.0480000
        k(   33) = (   0.1000000   0.2000000   0.4000000), wk =   0.0960000
        k(   34) = (   0.1000000   0.2000000  -0.5000000), wk =   0.0960000
        k(   35) = (   0.1000000   0.2000000  -0.4000000), wk =   0.0480000
        k(   36) = (   0.1000000   0.3000000   0.4000000), wk =   0.0480000
        k(   37) = (   0.1000000   0.3000000  -0.5000000), wk =   0.0960000
        k(   38) = (   0.1000000   0.3000000  -0.4000000), wk =   0.0960000
        k(   39) = (   0.1000000   0.3000000  -0.3000000), wk =   0.0960000
        k(   40) = (   0.1000000   0.3000000  -0.2000000), wk =   0.0480000
        k(   41) = (   0.1000000   0.4000000  -0.5000000), wk =   0.0480000
        k(   42) = (   0.1000000   0.4000000  -0.4000000), wk =   0.0960000
        k(   43) = (   0.1000000   0.4000000  -0.3000000), wk =   0.0480000
        k(   44) = (   0.1000000  -0.5000000  -0.4000000), wk =   0.0240000
        k(   45) = (   0.2000000   0.4000000  -0.4000000), wk =   0.0480000
        k(   46) = (   0.2000000   0.4000000  -0.3000000), wk =   0.0480000
        k(   47) = (   0.2000000  -0.5000000  -0.3000000), wk =   0.0240000

     Dense  grid:    48119 G-vectors     FFT dimensions: (  54,  54,  54)

     Largest allocated arrays     est. size (Mb)     dimensions
        Kohn-Sham Wavefunctions         0.10 Mb     (     381,   18)
        NL pseudopotentials             0.21 Mb     (     381,   36)
        Each V/rho on FFT grid          0.18 Mb     (   11664)
        Each G-vector array             0.02 Mb     (    3009)
        G-vector shells                 0.00 Mb     (     410)
     Largest temporary arrays     est. size (Mb)     dimensions
        Auxiliary wavefunctions         0.42 Mb     (     381,   72)
        Each subspace H/S matrix        0.08 Mb     (      72,   72)
        Each <psi_i|beta_j> matrix      0.01 Mb     (      36,   18)
        Arrays for rho mixing           1.42 Mb     (   11664,    8)

     Initial potential from superposition of free atoms

     starting charge   27.82674, renormalised to   28.00000
     Starting wfc are random

     total cpu time spent up to now is        1.2 secs

     Self-consistent Calculation

     iteration #  1     ecut=    80.00 Ry     beta=0.70
     Davidson diagonalization with overlap
     ethr =  1.00E-02,  avg # of iterations =  7.0

     Threshold (ethr) on eigenvalues was too large:
     Diagonalizing with lowered threshold

     Davidson diagonalization with overlap
     ethr =  1.07E-04,  avg # of iterations =  2.0

     total cpu time spent up to now is       11.1 secs

     total energy              =    -241.29466532 Ry
     Harris-Foulkes estimate   =    -241.30541633 Ry
     estimated scf accuracy    <       0.02996961 Ry

     iteration #  2     ecut=    80.00 Ry     beta=0.70
     Davidson diagonalization with overlap
     ethr =  1.07E-04,  avg # of iterations =  2.0

     total cpu time spent up to now is       13.9 secs

     total energy              =    -241.29861249 Ry
     Harris-Foulkes estimate   =    -241.29863585 Ry
     estimated scf accuracy    <       0.00151899 Ry

     iteration #  3     ecut=    80.00 Ry     beta=0.70
     Davidson diagonalization with overlap
     ethr =  5.42E-06,  avg # of iterations =  2.9

     total cpu time spent up to now is       16.6 secs

     total energy              =    -241.29875304 Ry
     Harris-Foulkes estimate   =    -241.29872509 Ry
     estimated scf accuracy    <       0.00009712 Ry

     iteration #  4     ecut=    80.00 Ry     beta=0.70
     Davidson diagonalization with overlap
     ethr =  3.47E-07,  avg # of iterations =  1.9

     total cpu time spent up to now is       19.0 secs

     total energy              =    -241.29875905 Ry
     Harris-Foulkes estimate   =    -241.29875874 Ry
     estimated scf accuracy    <       0.00000203 Ry

     iteration #  5     ecut=    80.00 Ry     beta=0.70
     Davidson diagonalization with overlap
     ethr =  7.27E-09,  avg # of iterations =  2.1

     total cpu time spent up to now is       21.7 secs

     End of self-consistent calculation

          k = 0.0000 0.0000 0.0000 (  5985 PWs)   bands (ev):

   -13.2650 -13.2650 -13.2650 -13.2111 -13.2111 -12.9641 -12.9641 -12.9641
   -12.9598 -12.9598  -1.7692   7.1741   8.4259   8.4259   8.4259  10.5001
    10.5001  10.5001

     occupation numbers 
     1.0000   1.0000   1.0000   1.0000   1.0000   1.0000   1.0000   1.0000
     1.0000   1.0000   1.0000   1.0000   0.0000   0.0000   0.0000   0.0000
     0.0000   0.0000

          k = 0.0707 0.0707-0.0707 (  6030 PWs)   bands (ev):

   -13.2707 -13.2707 -13.2629 -13.2032 -13.2032 -12.9789 -12.9789 -12.9666
   -12.9465 -12.9465  -1.6801   6.3247   8.2547   8.2547   8.7259  10.7256
    10.7256  10.8525

     occupation numbers 
     1.0000   1.0000   1.0000   1.0000   1.0000   1.0000   1.0000   1.0000
     1.0000   1.0000   1.0000   1.0000   0.8719   0.8719   0.0000   0.0000
     0.0000   0.0000

          k = 0.1414 0.1414-0.1414 (  6036 PWs)   bands (ev):

   -13.2807 -13.2807 -13.2573 -13.1876 -13.1876 -12.9944 -12.9944 -12.9733
   -12.9344 -12.9344  -1.4188   4.9985   7.9175   7.9175   8.6633  11.1583
    11.1583  11.9035

     occupation numbers 
     1.0000   1.0000   1.0000   1.0000   1.0000   1.0000   1.0000   1.0000
     1.0000   1.0000   1.0000   1.0000   1.0000   1.0000   0.0000   0.0000
     0.0000   0.0000

          k = 0.2121 0.2121-0.2121 (  6033 PWs)   bands (ev):

   -13.2885 -13.2885 -13.2500 -13.1737 -13.1737 -13.0061 -13.0061 -12.9819
   -12.9263 -12.9263  -1.0122   3.7401   7.6101   7.6101   8.4321  11.4557
    11.4557  13.2570

     occupation numbers 
     1.0000   1.0000   1.0000   1.0000   1.0000   1.0000   1.0000   1.0000
     1.0000   1.0000   1.0000   1.0000   1.0000   1.0000   0.0000   0.0000
     0.0000   0.0000

          k = 0.2828 0.2828-0.2828 (  6026 PWs)   bands (ev):

   -13.2929 -13.2929 -13.2440 -13.1652 -13.1652 -13.0124 -13.0124 -12.9890
   -12.9219 -12.9219  -0.5484   2.7410   7.4089   7.4089   8.2582  11.5394
    11.5394  14.1227

     occupation numbers 
     1.0000   1.0000   1.0000   1.0000   1.0000   1.0000   1.0000   1.0000
     1.0000   1.0000   1.0000   1.0000   1.0000   1.0000   0.0063   0.0000
     0.0000   0.0000

          k =-0.3536-0.3536 0.3536 (  6062 PWs)   bands (ev):

   -13.2942 -13.2942 -13.2416 -13.1626 -13.1626 -13.0142 -13.0142 -12.9918
   -12.9206 -12.9206  -0.2999   2.3108   7.3397   7.3397   8.1967  11.5431
    11.5431  14.0760

     occupation numbers 
     1.0000   1.0000   1.0000   1.0000   1.0000   1.0000   1.0000   1.0000
     1.0000   1.0000   1.0000   1.0000   1.0000   1.0000   1.0000   0.0000
     0.0000   0.0000

          k = 0.1414 0.0000 0.0000 (  6034 PWs)   bands (ev):

   -13.2696 -13.2696 -13.2685 -13.2048 -13.1951 -12.9966 -12.9659 -12.9578
   -12.9578 -12.9419  -1.6499   6.2071   7.9722   7.9722   9.3330  10.1693
    11.1065  11.1065

     occupation numbers 
     1.0000   1.0000   1.0000   1.0000   1.0000   1.0000   1.0000   1.0000
     1.0000   1.0000   1.0000   1.0000   1.0000   1.0000   0.0000   0.0000
     0.0000   0.0000

          k = 0.2121 0.0707-0.0707 (  6024 PWs)   bands (ev):

   -13.2815 -13.2770 -13.2619 -13.1936 -13.1782 -13.0157 -12.9804 -12.9602
   -12.9446 -12.9320  -1.4445   5.2263   7.5959   7.6126   9.5633  10.2797
    11.6285  11.8405

     occupation numbers 
     1.0000   1.0000   1.0000   1.0000   1.0000   1.0000   1.0000   1.0000
     1.0000   1.0000   1.0000   1.0000   1.0000   1.0000   0.0000   0.0000
     0.0000   0.0000

          k = 0.2828 0.1414-0.1414 (  6033 PWs)   bands (ev):

   -13.2929 -13.2856 -13.2505 -13.1790 -13.1625 -13.0294 -12.9955 -12.9725
   -12.9328 -12.9207  -1.0812   4.0429   7.1711   7.3279   9.3644  10.8258
    11.9696  12.6218

     occupation numbers 
     1.0000   1.0000   1.0000   1.0000   1.0000   1.0000   1.0000   1.0000
     1.0000   1.0000   1.0000   1.0000   1.0000   1.0000   0.0000   0.0000
     0.0000   0.0000

          k = 0.3536 0.2121-0.2121 (  6030 PWs)   bands (ev):

   -13.3007 -13.2920 -13.2383 -13.1663 -13.1542 -13.0336 -13.0084 -12.9874
   -12.9242 -12.9130  -0.6177   2.9854   6.8195   7.1759   9.1440  11.2083
    12.0053  13.4365

     occupation numbers 
     1.0000   1.0000   1.0000   1.0000   1.0000   1.0000   1.0000   1.0000
     1.0000   1.0000   1.0000   1.0000   1.0000   1.0000   0.0000   0.0000
     0.0000   0.0000

          k =-0.2828-0.4243 0.4243 (  6031 PWs)   bands (ev):

   -13.3038 -13.2959 -13.2300 -13.1573 -13.1551 -13.0271 -13.0187 -12.9995
   -12.9186 -12.9104  -0.2489   2.3350   6.6009   7.1740   9.0128  11.3779
    11.8819  14.1971

     occupation numbers 
     1.0000   1.0000   1.0000   1.0000   1.0000   1.0000   1.0000   1.0000
     1.0000   1.0000   1.0000   1.0000   1.0000   1.0000   0.0000   0.0000
     0.0000   0.0000

          k =-0.2121-0.3536 0.3536 (  6030 PWs)   bands (ev):

   -13.3021 -13.2972 -13.2297 -13.1621 -13.1534 -13.0250 -13.0144 -13.0035
   -12.9160 -12.9133  -0.3400   2.4844   6.5396   7.3190   8.9967  11.5176
    11.7249  14.2366

     occupation numbers 
     1.0000   1.0000   1.0000   1.0000   1.0000   1.0000   1.0000   1.0000
     1.0000   1.0000   1.0000   1.0000   1.0000   1.0000   0.0000   0.0000
     0.0000   0.0000

          k =-0.1414-0.2828 0.2828 (  6034 PWs)   bands (ev):

   -13.2958 -13.2952 -13.2378 -13.1719 -13.1576 -13.0241 -13.0079 -12.9900
   -12.9217 -12.9172  -0.7786   3.3136   6.6534   7.5897   9.0870  11.5117
    11.6130  13.3333

     occupation numbers 
     1.0000   1.0000   1.0000   1.0000   1.0000   1.0000   1.0000   1.0000
     1.0000   1.0000   1.0000   1.0000   1.0000   1.0000   0.0000   0.0000
     0.0000   0.0000

          k =-0.0707-0.2121 0.2121 (  6016 PWs)   bands (ev):

   -13.2892 -13.2857 -13.2499 -13.1839 -13.1708 -13.0140 -13.0001 -12.9714
   -12.9350 -12.9227  -1.2196   4.4280   6.9661   7.9350   9.2191  11.1553
    11.3566  12.4296

     occupation numbers 
     1.0000   1.0000   1.0000   1.0000   1.0000   1.0000   1.0000   1.0000
     1.0000   1.0000   1.0000   1.0000   1.0000   1.0000   0.0000   0.0000
     0.0000   0.0000

          k = 0.0000-0.1414 0.1414 (  6017 PWs)   bands (ev):

   -13.2798 -13.2746 -13.2602 -13.1967 -13.1886 -12.9976 -12.9878 -12.9570
   -12.9513 -12.9328  -1.5329   5.5542   7.5255   8.2309   9.1482  10.7751
    10.8474  11.6876

     occupation numbers 
     1.0000   1.0000   1.0000   1.0000   1.0000   1.0000   1.0000   1.0000
     1.0000   1.0000   1.0000   1.0000   1.0000   1.0000   0.0000   0.0000
     0.0000   0.0000

          k = 0.2828 0.0000 0.0000 (  6050 PWs)   bands (ev):

   -13.2810 -13.2810 -13.2684 -13.1866 -13.1589 -13.0419 -12.9833 -12.9420
   -12.9420 -12.9384  -1.2946   4.8358   7.2413   7.2413   9.6234  10.2559
    12.2846  12.2846

     occupation numbers 
     1.0000   1.0000   1.0000   1.0000   1.0000   1.0000   1.0000   1.0000
     1.0000   1.0000   1.0000   1.0000   1.0000   1.0000   0.0000   0.0000
     0.0000   0.0000

          k = 0.3536 0.0707-0.0707 (  6029 PWs)   bands (ev):

   -13.2935 -13.2882 -13.2559 -13.1725 -13.1392 -13.0630 -12.9979 -12.9569
   -12.9313 -12.9222  -0.9795   3.9931   6.7895   6.9503   9.6916  10.3769
    12.5936  12.7944

     occupation numbers 
     1.0000   1.0000   1.0000   1.0000   1.0000   1.0000   1.0000   1.0000
     1.0000   1.0000   1.0000   1.0000   1.0000   1.0000   0.0000   0.0000
     0.0000   0.0000

          k = 0.4243 0.1414-0.1414 (  6018 PWs)   bands (ev):

   -13.3066 -13.2950 -13.2355 -13.1571 -13.1274 -13.0732 -13.0145 -12.9797
   -12.9213 -12.9071  -0.5356   3.0606   6.2702   6.8008   9.7150  10.9428
    12.5470  12.9173

     occupation numbers 
     1.0000   1.0000   1.0000   1.0000   1.0000   1.0000   1.0000   1.0000
     1.0000   1.0000   1.0000   1.0000   1.0000   1.0000   0.0000   0.0000
     0.0000   0.0000

          k =-0.2121-0.4950 0.4950 (  6022 PWs)   bands (ev):

   -13.3150 -13.2998 -13.2168 -13.1432 -13.1294 -13.0678 -13.0304 -13.0008
   -12.9139 -12.8979  -0.0912   2.3242   5.8792   6.8130   9.6314  11.5395
    12.7511  13.0258

     occupation numbers 
     1.0000   1.0000   1.0000   1.0000   1.0000   1.0000   1.0000   1.0000
     1.0000   1.0000   1.0000   1.0000   1.0000   1.0000   0.0000   0.0000
     0.0000   0.0000

          k =-0.1414-0.4243 0.4243 (  6039 PWs)   bands (ev):

   -13.3167 -13.3023 -13.2079 -13.1433 -13.1341 -13.0487 -13.0426 -13.0128
   -12.9098 -12.8967  -0.0122   2.2095   5.6911   6.9839   9.6274  11.7580
    12.4742  13.9457

     occupation numbers 
     1.0000   1.0000   1.0000   1.0000   1.0000   1.0000   1.0000   1.0000
     1.0000   1.0000   1.0000   1.0000   1.0000   1.0000   0.0000   0.0000
     0.0000   0.0000

          k =-0.0707-0.3536 0.3536 (  6024 PWs)   bands (ev):

   -13.3111 -13.3016 -13.2136 -13.1608 -13.1361 -13.0442 -13.0216 -13.0137
   -12.9098 -12.9042  -0.3998   2.8111   5.7567   7.2866   9.6883  11.9295
    12.0973  13.0971

     occupation numbers 
     1.0000   1.0000   1.0000   1.0000   1.0000   1.0000   1.0000   1.0000
     1.0000   1.0000   1.0000   1.0000   1.0000   1.0000   0.0000   0.0000
     0.0000   0.0000

          k = 0.0000-0.2828 0.2828 (  6041 PWs)   bands (ev):

   -13.2993 -13.2971 -13.2315 -13.1742 -13.1508 -13.0327 -13.0103 -12.9904
   -12.9192 -12.9141  -0.8627   3.6561   6.1557   7.6539   9.6604  11.5855
    11.7478  12.4633

     occupation numbers 
     1.0000   1.0000   1.0000   1.0000   1.0000   1.0000   1.0000   1.0000
     1.0000   1.0000   1.0000   1.0000   1.0000   1.0000   0.0000   0.0000
     0.0000   0.0000

          k = 0.4243 0.0000 0.0000 (  6046 PWs)   bands (ev):

   -13.2938 -13.2938 -13.2561 -13.1583 -13.1135 -13.0932 -13.0106 -12.9515
   -12.9237 -12.9237  -0.7113   3.4873   6.6382   6.6382   9.2332  10.1977
    13.6010  13.6010

     occupation numbers 
     1.0000   1.0000   1.0000   1.0000   1.0000   1.0000   1.0000   1.0000
     1.0000   1.0000   1.0000   1.0000   1.0000   1.0000   0.0000   0.0000
     0.0000   0.0000

          k = 0.4950 0.0707-0.0707 (  6038 PWs)   bands (ev):

   -13.3047 -13.2994 -13.2372 -13.1413 -13.1139 -13.0936 -13.0279 -12.9730
   -12.9154 -12.9093  -0.2981   2.7727   6.2080   6.4645   9.3922  10.1761
    13.5495  14.0030

     occupation numbers 
     1.0000   1.0000   1.0000   1.0000   1.0000   1.0000   1.0000   1.0000
     1.0000   1.0000   1.0000   1.0000   1.0000   1.0000   0.0000   0.0000
     0.0000   0.0000

          k =-0.1414-0.5657 0.5657 (  6027 PWs)   bands (ev):

   -13.3171 -13.3036 -13.2114 -13.1244 -13.1193 -13.0869 -13.0465 -13.0006
   -12.9090 -12.8951   0.1825   2.0936   5.6669   6.4560   9.5060  10.9895
    13.2874  13.9019

     occupation numbers 
     1.0000   1.0000   1.0000   1.0000   1.0000   1.0000   1.0000   1.0000
     1.0000   1.0000   1.0000   1.0000   1.0000   1.0000   0.0000   0.0000
     0.0000   0.0000

          k =-0.0707-0.4950 0.4950 (  5997 PWs)   bands (ev):

   -13.3238 -13.3058 -13.1961 -13.1118 -13.1083 -13.0956 -13.0619 -13.0164
   -12.9056 -12.8881   0.4089   1.8183   5.3159   6.6134   9.5858  12.2277
    13.1765  13.5127

     occupation numbers 
     1.0000   1.0000   1.0000   1.0000   1.0000   1.0000   1.0000   1.0000
     1.0000   1.0000   1.0000   1.0000   1.0000   1.0000   0.0000   0.0000
     0.0000   0.0000

          k =-0.0000-0.4243 0.4243 (  6013 PWs)   bands (ev):

   -13.3218 -13.3053 -13.1973 -13.1361 -13.1163 -13.0618 -13.0609 -13.0181
   -12.9058 -12.8911   0.0688   2.2302   5.3091   6.9122   9.7217  12.8391
    12.8800  12.9424

     occupation numbers 
     1.0000   1.0000   1.0000   1.0000   1.0000   1.0000   1.0000   1.0000
     1.0000   1.0000   1.0000   1.0000   1.0000   1.0000   0.0000   0.0000
     0.0000   0.0000

          k = 0.5657 0.0000 0.0000 (  6026 PWs)   bands (ev):

   -13.3034 -13.3034 -13.2302 -13.1450 -13.1229 -13.0651 -13.0453 -12.9794
   -12.9096 -12.9096   0.0854   2.2193   6.2563   6.2563   9.0992   9.6614
    14.8831  14.8832

     occupation numbers 
     1.0000   1.0000   1.0000   1.0000   1.0000   1.0000   1.0000   1.0000
     1.0000   1.0000   1.0000   1.0000   1.0000   1.0000   0.0000   0.0000
     0.0000   0.0000

          k =-0.0707-0.6364 0.6364 (  6008 PWs)   bands (ev):

   -13.3113 -13.3061 -13.2062 -13.1619 -13.1041 -13.0647 -13.0482 -13.0044
   -12.9056 -12.9003   0.5754   1.6209   5.9089   6.2118   9.2923   9.8106
    14.7608  15.0490

     occupation numbers 
     1.0000   1.0000   1.0000   1.0000   1.0000   1.0000   1.0000   1.0000
     1.0000   1.0000   1.0000   1.0000   1.0000   1.0000   0.0000   0.0000
     0.0000   0.0000

          k = 0.0000-0.5657 0.5657 (  5994 PWs)   bands (ev):

   -13.3210 -13.3071 -13.1916 -13.1454 -13.0925 -13.0782 -13.0632 -13.0192
   -12.9041 -12.8903   0.8316   1.3628   5.4575   6.3372   9.4046  10.9062
    14.2113  14.5028

     occupation numbers 
     1.0000   1.0000   1.0000   1.0000   1.0000   1.0000   1.0000   1.0000
     1.0000   1.0000   1.0000   1.0000   1.0000   1.0000   0.0000   0.0000
     0.0000   0.0000

          k =-0.7071 0.0000 0.0000 (  5962 PWs)   bands (ev):

   -13.3070 -13.3070 -13.1922 -13.1922 -13.0840 -13.0839 -13.0188 -13.0187
   -12.9043 -12.9043   1.0727   1.0727   6.1263   6.1263   9.2476   9.2476
    15.6052  15.6052

     occupation numbers 
     1.0000   1.0000   1.0000   1.0000   1.0000   1.0000   1.0000   1.0000
     1.0000   1.0000   1.0000   1.0000   1.0000   1.0000   0.0000   0.0000
     0.0000   0.0000

          k = 0.2828 0.1414 0.0000 (  6017 PWs)   bands (ev):

   -13.2896 -13.2865 -13.2532 -13.1827 -13.1598 -13.0360 -12.9917 -12.9646
   -12.9352 -12.9231  -1.1852   4.4426   6.8179   7.5342   9.9367  10.2891
    12.0837  12.2988

     occupation numbers 
     1.0000   1.0000   1.0000   1.0000   1.0000   1.0000   1.0000   1.0000
     1.0000   1.0000   1.0000   1.0000   1.0000   1.0000   0.0000   0.0000
     0.0000   0.0000

          k = 0.3536 0.2121-0.0707 (  6031 PWs)   bands (ev):

   -13.3008 -13.2955 -13.2358 -13.1693 -13.1437 -13.0499 -13.0051 -12.9850
   -12.9209 -12.9130  -0.7797   3.4793   6.2982   7.2610   9.8794  10.8629
    12.3079  12.6360

     occupation numbers 
     1.0000   1.0000   1.0000   1.0000   1.0000   1.0000   1.0000   1.0000
     1.0000   1.0000   1.0000   1.0000   1.0000   1.0000   0.0000   0.0000
     0.0000   0.0000

          k =-0.2828-0.4243 0.5657 (  6019 PWs)   bands (ev):

   -13.3101 -13.2999 -13.2196 -13.1563 -13.1372 -13.0523 -13.0190 -13.0045
   -12.9137 -12.9038  -0.3108   2.6072   6.0261   7.0176   9.7471  11.2428
    12.4115  13.2989

     occupation numbers 
     1.0000   1.0000   1.0000   1.0000   1.0000   1.0000   1.0000   1.0000
     1.0000   1.0000   1.0000   1.0000   1.0000   1.0000   0.0000   0.0000
     0.0000   0.0000

          k =-0.2121-0.3536 0.4950 (  6018 PWs)   bands (ev):

   -13.3134 -13.3013 -13.2129 -13.1478 -13.1393 -13.0468 -13.0313 -13.0105
   -12.9117 -12.9001  -0.0528   2.2049   5.9430   6.9252   9.6952  11.2956
    12.4583  14.0503

     occupation numbers 
     1.0000   1.0000   1.0000   1.0000   1.0000   1.0000   1.0000   1.0000
     1.0000   1.0000   1.0000   1.0000   1.0000   1.0000   0.0000   0.0000
     0.0000   0.0000

          k = 0.4243 0.1414-0.0000 (  6024 PWs)   bands (ev):

   -13.2997 -13.2995 -13.2403 -13.1577 -13.1191 -13.0843 -13.0129 -12.9730
   -12.9170 -12.9143  -0.6173   3.2842   6.2614   6.7482   9.8860  10.3923
    12.5486  13.5034

     occupation numbers 
     1.0000   1.0000   1.0000   1.0000   1.0000   1.0000   1.0000   1.0000
     1.0000   1.0000   1.0000   1.0000   1.0000   1.0000   0.0000   0.0000
     0.0000   0.0000

          k =-0.2121-0.4950 0.6364 (  6023 PWs)   bands (ev):

   -13.3129 -13.3043 -13.2159 -13.1420 -13.1083 -13.0933 -13.0305 -12.9988
   -12.9090 -12.9002  -0.1484   2.5258   5.8035   6.5351  10.0649  10.9952
    12.3316  13.8048

     occupation numbers 
     1.0000   1.0000   1.0000   1.0000   1.0000   1.0000   1.0000   1.0000
     1.0000   1.0000   1.0000   1.0000   1.0000   1.0000   0.0000   0.0000
     0.0000   0.0000

          k =-0.1414-0.4243 0.5657 (  6021 PWs)   bands (ev):

   -13.3206 -13.3069 -13.1976 -13.1296 -13.1110 -13.0868 -13.0478 -13.0168
   -12.9051 -12.8916   0.2377   1.9975   5.5053   6.4965  10.0850  11.6517
    12.6987  13.5854

     occupation numbers 
     1.0000   1.0000   1.0000   1.0000   1.0000   1.0000   1.0000   1.0000
     1.0000   1.0000   1.0000   1.0000   1.0000   1.0000   0.0000   0.0000
     0.0000   0.0000

          k =-0.0707-0.3536 0.4950 (  6017 PWs)   bands (ev):

   -13.3203 -13.3070 -13.1962 -13.1371 -13.1141 -13.0763 -13.0465 -13.0197
   -12.9045 -12.8925   0.1137   2.1592   5.4354   6.6596  10.1725  11.6672
    12.7721  13.5429

     occupation numbers 
     1.0000   1.0000   1.0000   1.0000   1.0000   1.0000   1.0000   1.0000
     1.0000   1.0000   1.0000   1.0000   1.0000   1.0000   0.0000   0.0000
     0.0000   0.0000

          k = 0.0000-0.2828 0.4243 (  6033 PWs)   bands (ev):

   -13.3120 -13.3041 -13.2123 -13.1556 -13.1243 -13.0670 -13.0196 -13.0109
   -12.9075 -12.9029  -0.3462   2.8015   5.6768   6.9639  10.2261  11.2889
    12.2092  13.2486

     occupation numbers 
     1.0000   1.0000   1.0000   1.0000   1.0000   1.0000   1.0000   1.0000
     1.0000   1.0000   1.0000   1.0000   1.0000   1.0000   0.0000   0.0000
     0.0000   0.0000

          k =-0.1414-0.5657 0.7071 (  6015 PWs)   bands (ev):

   -13.3091 -13.3082 -13.2153 -13.1336 -13.1235 -13.0744 -13.0463 -12.9957
   -12.9041 -12.9037   0.1509   2.1496   5.9517   6.1917   9.7100  10.1019
    13.4970  14.7608

     occupation numbers 
     1.0000   1.0000   1.0000   1.0000   1.0000   1.0000   1.0000   1.0000
     1.0000   1.0000   1.0000   1.0000   1.0000   1.0000   0.0000   0.0000
     0.0000   0.0000

          k =-0.0707-0.4950 0.6364 (  6013 PWs)   bands (ev):

   -13.3196 -13.3106 -13.1884 -13.1369 -13.1065 -13.0704 -13.0655 -13.0221
   -12.9008 -12.8918   0.6193   1.6054   5.5419   6.1289   9.9303  10.9664
    13.2078  14.2607

     occupation numbers 
     1.0000   1.0000   1.0000   1.0000   1.0000   1.0000   1.0000   1.0000
     1.0000   1.0000   1.0000   1.0000   1.0000   1.0000   0.0000   0.0000
     0.0000   0.0000

          k =-0.0000-0.4243 0.5657 (  5996 PWs)   bands (ev):

   -13.3243 -13.3103 -13.1836 -13.1100 -13.1083 -13.0899 -13.0717 -13.0266
   -12.9008 -12.8873   0.5737   1.6631   5.2901   6.3185  10.0729  12.2471
    12.9825  13.0532

     occupation numbers 
     1.0000   1.0000   1.0000   1.0000   1.0000   1.0000   1.0000   1.0000
     1.0000   1.0000   1.0000   1.0000   1.0000   1.0000   0.0000   0.0000
     0.0000   0.0000

          k =-0.7071 0.1414 0.0000 (  6014 PWs)   bands (ev):

   -13.3121 -13.3121 -13.1787 -13.1787 -13.0848 -13.0848 -13.0314 -13.0314
   -12.8992 -12.8992   1.0879   1.0880   5.9236   5.9236   9.7917   9.7917
    14.6429  14.6429

     occupation numbers 
     1.0000   1.0000   1.0000   1.0000   1.0000   1.0000   1.0000   1.0000
     1.0000   1.0000   1.0000   1.0000   1.0000   1.0000   0.0000   0.0000
     0.0000   0.0000

          k =-0.1414-0.4243 0.7071 (  6022 PWs)   bands (ev):

   -13.3192 -13.3126 -13.1879 -13.1248 -13.1110 -13.0890 -13.0528 -13.0244
   -12.8988 -12.8929   0.3296   1.9489   5.4936   6.1755  10.9323  11.0804
    12.0787  14.0201

     occupation numbers 
     1.0000   1.0000   1.0000   1.0000   1.0000   1.0000   1.0000   1.0000
     1.0000   1.0000   1.0000   1.0000   1.0000   1.0000   0.0000   0.0000
     0.0000   0.0000

          k =-0.0707-0.3536 0.6364 (  6010 PWs)   bands (ev):

   -13.3227 -13.3148 -13.1730 -13.1200 -13.1084 -13.0847 -13.0681 -13.0359
   -12.8965 -12.8888   0.6484   1.5935   5.4037   6.0119  10.9741  11.6055
    12.5483  12.8683

     occupation numbers 
     1.0000   1.0000   1.0000   1.0000   1.0000   1.0000   1.0000   1.0000
     1.0000   1.0000   1.0000   1.0000   1.0000   1.0000   0.0000   0.0000
     0.0000   0.0000

          k =-0.7071 0.2828 0.0000 (  6012 PWs)   bands (ev):

   -13.3191 -13.3191 -13.1532 -13.1531 -13.0890 -13.0890 -13.0529 -13.0529
   -12.8921 -12.8921   1.1132   1.1132   5.6565   5.6565  11.0478  11.0478
    12.9227  12.9227

     occupation numbers 
     1.0000   1.0000   1.0000   1.0000   1.0000   1.0000   1.0000   1.0000
     1.0000   1.0000   1.0000   1.0000   1.0000   1.0000   0.0000   0.0000
     0.0000   0.0000

     the Fermi energy is     8.2558 ev

!    total energy              =    -241.29875948 Ry
     Harris-Foulkes estimate   =    -241.29875945 Ry
     estimated scf accuracy    <       0.00000006 Ry

     The total energy is the sum of the following terms:

     one-electron contribution =    -109.45218816 Ry
     hartree contribution      =      65.34299625 Ry
     xc contribution           =     -29.40822551 Ry
     ewald contribution        =    -167.78134157 Ry
     smearing contrib. (-TS)   =      -0.00000049 Ry

     convergence has been achieved in   5 iterations

     Writing output data file Sn.save
 
     init_run     :      0.99s CPU      1.15s WALL (       1 calls)
     electrons    :     19.23s CPU     20.49s WALL (       1 calls)

     Called by init_run:
     wfcinit      :      0.80s CPU      0.87s WALL (       1 calls)
     potinit      :      0.02s CPU      0.02s WALL (       1 calls)

     Called by electrons:
     c_bands      :     17.01s CPU     18.20s WALL (       6 calls)
     sum_band     :      2.14s CPU      2.18s WALL (       6 calls)
     v_of_rho     :      0.07s CPU      0.07s WALL (       6 calls)
     v_h          :      0.01s CPU      0.01s WALL (       6 calls)
     v_xc         :      0.06s CPU      0.07s WALL (       6 calls)
     mix_rho      :      0.01s CPU      0.01s WALL (       6 calls)

     Called by c_bands:
     init_us_2    :      0.10s CPU      0.11s WALL (     611 calls)
     cegterg      :     16.35s CPU     17.53s WALL (     282 calls)

     Called by sum_band:

     Called by *egterg:
     h_psi        :     14.11s CPU     15.29s WALL (    1174 calls)
     g_psi        :      0.03s CPU      0.03s WALL (     845 calls)
     cdiaghg      :      0.96s CPU      0.97s WALL (    1080 calls)
     cegterg:over :      0.93s CPU      0.94s WALL (     845 calls)
     cegterg:upda :      0.23s CPU      0.23s WALL (     845 calls)
     cegterg:last :      0.14s CPU      0.14s WALL (     359 calls)

     Called by h_psi:
     h_psi:vloc   :     13.33s CPU     14.46s WALL (    1174 calls)
     h_psi:vnl    :      0.76s CPU      0.81s WALL (    1174 calls)
     add_vuspsi   :      0.23s CPU      0.24s WALL (    1174 calls)

     General routines
     calbec       :      0.52s CPU      0.56s WALL (    1174 calls)
     fft          :      0.06s CPU      0.06s WALL (      67 calls)
     fftw         :     14.56s CPU     15.66s WALL (   38026 calls)
     davcio       :      0.00s CPU      0.04s WALL (      47 calls)
 
     Parallel routines
     fft_scatter  :      8.08s CPU      8.68s WALL (   38093 calls)
 
     PWSCF        :    20.39s CPU        21.91s WALL

 
   This run was terminated on:   7: 6:41  28Feb2020            

=------------------------------------------------------------------------------=
   JOB DONE.
=------------------------------------------------------------------------------=
