
     Program PWSCF v.5.4.0 starts on  9Mar2020 at  5:51:47 

     This program is part of the open-source Quantum ESPRESSO suite
     for quantum simulation of materials; please cite
         "P. Giannozzi et al., J. Phys.:Condens. Matter 21 395502 (2009);
          URL http://www.quantum-espresso.org", 
     in publications or presentations arising from this work. More details at
     http://www.quantum-espresso.org/quote

     Parallel version (MPI & OpenMP), running on      16 processor cores
     Number of MPI processes:                16
     Threads/MPI process:                     1
     R & G space division:  proc/nbgrp/npool/nimage =      16
     Waiting for input...
     Reading input from standard input
Warning: card &IONS ignored
Warning: card / ignored
Warning: card &CELL ignored
Warning: card / ignored

     Current dimensions of program PWSCF are:
     Max number of different atomic species (ntypx) = 10
     Max number of k-points (npk) =  40000
     Max angular momentum in pseudopotentials (lmaxx) =  3
               file Sn.rel-pbe-dn-kjpaw_psl.1.0.0.UPF: wavefunction(s)  5S 5P 5P 4D 4D renormalized

     Subspace diagonalization in iterative solution of the eigenvalue problem:
     a serial algorithm will be used

 
     Parallelization info
     --------------------
     sticks:   dense  smooth     PW     G-vecs:    dense   smooth      PW
     Min         111     111     31                 3108     3108     480
     Max         112     112     32                 3111     3111     485
     Sum        1789    1789    511                49757    49757    7727
 

     Title: 
     Sn                                                                         


     bravais-lattice index     =            0
     lattice parameter (alat)  =       9.2200  a.u.
     unit-cell volume          =     554.2222 (a.u.)^3
     number of atoms/cell      =            2
     number of atomic types    =            1
     number of electrons       =        28.00
     number of Kohn-Sham states=           36
     kinetic-energy cutoff     =      76.0000  Ry
     charge density cutoff     =     304.0000  Ry
     convergence threshold     =      1.0E-06
     mixing beta               =       0.7000
     number of iterations used =            8  plain     mixing
     Exchange-correlation      =  SLA  PW   PBX  PBC ( 1  4  3  4 0 0)
     Non magnetic calculation with spin-orbit


     celldm(1)=   9.220043  celldm(2)=   0.000000  celldm(3)=   0.000000
     celldm(4)=   0.000000  celldm(5)=   0.000000  celldm(6)=   0.000000

     crystal axes: (cart. coord. in units of alat)
               a(1) = (   0.000000   0.707107   0.707107 )  
               a(2) = (   0.707107   0.000000   0.707107 )  
               a(3) = (   0.707107   0.707107   0.000000 )  

     reciprocal axes: (cart. coord. in units 2 pi/alat)
               b(1) = ( -0.707107  0.707107  0.707107 )  
               b(2) = (  0.707107 -0.707107  0.707107 )  
               b(3) = (  0.707107  0.707107 -0.707107 )  


     PseudoPot. # 1 for Sn read from file:
     ../PseudopotentialDatabase/Sn.rel-pbe-dn-kjpaw_psl.1.0.0.UPF
     MD5 check sum: 6bcaba2b82cf8d008985ef5bb9854e68
     Pseudo is Projector augmented-wave + core cor, Zval = 14.0
     Generated using "atomic" code by A. Dal Corso  v.6.3
     Shape of augmentation charge: PSQ
     Using radial grid of 1243 points, 10 beta functions with: 
                l(1) =   0
                l(2) =   0
                l(3) =   1
                l(4) =   1
                l(5) =   1
                l(6) =   1
                l(7) =   2
                l(8) =   2
                l(9) =   2
               l(10) =   2
     Q(r) pseudized with 0 coefficients 


     atomic species   valence    mass     pseudopotential
        Sn            14.00   118.71000     Sn( 1.00)

     24 Sym. Ops. (no inversion) found
          (note: 24 additional sym.ops. were found but ignored
           their fractional translations are incommensurate with FFT grid)

                                    s                        frac. trans.

      isym =  1     identity                                     

 cryst.   s( 1) = (     1          0          0      )
                  (     0          1          0      )
                  (     0          0          1      )

 cart.    s( 1) = (  1.0000000  0.0000000  0.0000000 )
                  (  0.0000000  1.0000000  0.0000000 )
                  (  0.0000000  0.0000000  1.0000000 )


      isym =  2     180 deg rotation - cart. axis [0,0,1]        

 cryst.   s( 2) = (     0          1         -1      )
                  (     1          0         -1      )
                  (     0          0         -1      )

 cart.    s( 2) = ( -1.0000000  0.0000000  0.0000000 )
                  (  0.0000000 -1.0000000  0.0000000 )
                  (  0.0000000  0.0000000  1.0000000 )


      isym =  3     180 deg rotation - cart. axis [0,1,0]        

 cryst.   s( 3) = (     0         -1          1      )
                  (     0         -1          0      )
                  (     1         -1          0      )

 cart.    s( 3) = ( -1.0000000  0.0000000  0.0000000 )
                  (  0.0000000  1.0000000  0.0000000 )
                  (  0.0000000  0.0000000 -1.0000000 )


      isym =  4     180 deg rotation - cart. axis [1,0,0]        

 cryst.   s( 4) = (    -1          0          0      )
                  (    -1          0          1      )
                  (    -1          1          0      )

 cart.    s( 4) = (  1.0000000  0.0000000  0.0000000 )
                  (  0.0000000 -1.0000000  0.0000000 )
                  (  0.0000000  0.0000000 -1.0000000 )


      isym =  5     120 deg rotation - cart. axis [-1,-1,-1]     

 cryst.   s( 5) = (     0          0          1      )
                  (     1          0          0      )
                  (     0          1          0      )

 cart.    s( 5) = (  0.0000000  1.0000000  0.0000000 )
                  (  0.0000000  0.0000000  1.0000000 )
                  (  1.0000000  0.0000000  0.0000000 )


      isym =  6     120 deg rotation - cart. axis [-1,1,1]       

 cryst.   s( 6) = (     1         -1          0      )
                  (     0         -1          1      )
                  (     0         -1          0      )

 cart.    s( 6) = (  0.0000000 -1.0000000  0.0000000 )
                  (  0.0000000  0.0000000  1.0000000 )
                  ( -1.0000000  0.0000000  0.0000000 )


      isym =  7     120 deg rotation - cart. axis [1,1,-1]       

 cryst.   s( 7) = (    -1          1          0      )
                  (    -1          0          0      )
                  (    -1          0          1      )

 cart.    s( 7) = (  0.0000000  1.0000000  0.0000000 )
                  (  0.0000000  0.0000000 -1.0000000 )
                  ( -1.0000000  0.0000000  0.0000000 )


      isym =  8     120 deg rotation - cart. axis [1,-1,1]       

 cryst.   s( 8) = (     0          0         -1      )
                  (     0          1         -1      )
                  (     1          0         -1      )

 cart.    s( 8) = (  0.0000000 -1.0000000  0.0000000 )
                  (  0.0000000  0.0000000 -1.0000000 )
                  (  1.0000000  0.0000000  0.0000000 )


      isym =  9     120 deg rotation - cart. axis [1,1,1]        

 cryst.   s( 9) = (     0          1          0      )
                  (     0          0          1      )
                  (     1          0          0      )

 cart.    s( 9) = (  0.0000000  0.0000000  1.0000000 )
                  (  1.0000000  0.0000000  0.0000000 )
                  (  0.0000000  1.0000000  0.0000000 )


      isym = 10     120 deg rotation - cart. axis [-1,1,-1]      

 cryst.   s(10) = (    -1          0          1      )
                  (    -1          1          0      )
                  (    -1          0          0      )

 cart.    s(10) = (  0.0000000  0.0000000  1.0000000 )
                  ( -1.0000000  0.0000000  0.0000000 )
                  (  0.0000000 -1.0000000  0.0000000 )


      isym = 11     120 deg rotation - cart. axis [1,-1,-1]      

 cryst.   s(11) = (     1          0         -1      )
                  (     0          0         -1      )
                  (     0          1         -1      )

 cart.    s(11) = (  0.0000000  0.0000000 -1.0000000 )
                  ( -1.0000000  0.0000000  0.0000000 )
                  (  0.0000000  1.0000000  0.0000000 )


      isym = 12     120 deg rotation - cart. axis [-1,-1,1]      

 cryst.   s(12) = (     0         -1          0      )
                  (     1         -1          0      )
                  (     0         -1          1      )

 cart.    s(12) = (  0.0000000  0.0000000 -1.0000000 )
                  (  1.0000000  0.0000000  0.0000000 )
                  (  0.0000000 -1.0000000  0.0000000 )


      isym = 13     inv. 180 deg rotation - cart. axis [1,1,0]   

 cryst.   s(13) = (     1          0         -1      )
                  (     0          1         -1      )
                  (     0          0         -1      )

 cart.    s(13) = (  0.0000000 -1.0000000  0.0000000 )
                  ( -1.0000000  0.0000000  0.0000000 )
                  (  0.0000000  0.0000000  1.0000000 )


      isym = 14     inv. 180 deg rotation - cart. axis [1,-1,0]  

 cryst.   s(14) = (     0          1          0      )
                  (     1          0          0      )
                  (     0          0          1      )

 cart.    s(14) = (  0.0000000  1.0000000  0.0000000 )
                  (  1.0000000  0.0000000  0.0000000 )
                  (  0.0000000  0.0000000  1.0000000 )


      isym = 15     inv.  90 deg rotation - cart. axis [0,0,-1]  

 cryst.   s(15) = (     0         -1          0      )
                  (     0         -1          1      )
                  (     1         -1          0      )

 cart.    s(15) = (  0.0000000 -1.0000000  0.0000000 )
                  (  1.0000000  0.0000000  0.0000000 )
                  (  0.0000000  0.0000000 -1.0000000 )


      isym = 16     inv.  90 deg rotation - cart. axis [0,0,1]   

 cryst.   s(16) = (    -1          0          1      )
                  (    -1          0          0      )
                  (    -1          1          0      )

 cart.    s(16) = (  0.0000000  1.0000000  0.0000000 )
                  ( -1.0000000  0.0000000  0.0000000 )
                  (  0.0000000  0.0000000 -1.0000000 )


      isym = 17     inv. 180 deg rotation - cart. axis [1,0,1]   

 cryst.   s(17) = (     1         -1          0      )
                  (     0         -1          0      )
                  (     0         -1          1      )

 cart.    s(17) = (  0.0000000  0.0000000 -1.0000000 )
                  (  0.0000000  1.0000000  0.0000000 )
                  ( -1.0000000  0.0000000  0.0000000 )


      isym = 18     inv. 180 deg rotation - cart. axis [-1,0,1]  

 cryst.   s(18) = (     0          0          1      )
                  (     0          1          0      )
                  (     1          0          0      )

 cart.    s(18) = (  0.0000000  0.0000000  1.0000000 )
                  (  0.0000000  1.0000000  0.0000000 )
                  (  1.0000000  0.0000000  0.0000000 )


      isym = 19     inv.  90 deg rotation - cart. axis [0,1,0]   

 cryst.   s(19) = (     0          0         -1      )
                  (     1          0         -1      )
                  (     0          1         -1      )

 cart.    s(19) = (  0.0000000  0.0000000 -1.0000000 )
                  (  0.0000000 -1.0000000  0.0000000 )
                  (  1.0000000  0.0000000  0.0000000 )


      isym = 20     inv.  90 deg rotation - cart. axis [0,-1,0]  

 cryst.   s(20) = (    -1          1          0      )
                  (    -1          0          1      )
                  (    -1          0          0      )

 cart.    s(20) = (  0.0000000  0.0000000  1.0000000 )
                  (  0.0000000 -1.0000000  0.0000000 )
                  ( -1.0000000  0.0000000  0.0000000 )


      isym = 21     inv. 180 deg rotation - cart. axis [0,1,1]   

 cryst.   s(21) = (    -1          0          0      )
                  (    -1          1          0      )
                  (    -1          0          1      )

 cart.    s(21) = (  1.0000000  0.0000000  0.0000000 )
                  (  0.0000000  0.0000000 -1.0000000 )
                  (  0.0000000 -1.0000000  0.0000000 )


      isym = 22     inv. 180 deg rotation - cart. axis [0,1,-1]  

 cryst.   s(22) = (     1          0          0      )
                  (     0          0          1      )
                  (     0          1          0      )

 cart.    s(22) = (  1.0000000  0.0000000  0.0000000 )
                  (  0.0000000  0.0000000  1.0000000 )
                  (  0.0000000  1.0000000  0.0000000 )


      isym = 23     inv.  90 deg rotation - cart. axis [-1,0,0]  

 cryst.   s(23) = (     0          1         -1      )
                  (     0          0         -1      )
                  (     1          0         -1      )

 cart.    s(23) = ( -1.0000000  0.0000000  0.0000000 )
                  (  0.0000000  0.0000000 -1.0000000 )
                  (  0.0000000  1.0000000  0.0000000 )


      isym = 24     inv.  90 deg rotation - cart. axis [1,0,0]   

 cryst.   s(24) = (     0         -1          1      )
                  (     1         -1          0      )
                  (     0         -1          0      )

 cart.    s(24) = ( -1.0000000  0.0000000  0.0000000 )
                  (  0.0000000  0.0000000  1.0000000 )
                  (  0.0000000 -1.0000000  0.0000000 )


   Cartesian axes

     site n.     atom                  positions (alat units)
         1           Sn  tau(   1) = (   0.0000000   0.0000000   0.0000000  )
         2           Sn  tau(   2) = (   0.3535534   0.3535534   0.3535534  )

   Crystallographic axes

     site n.     atom                  positions (cryst. coord.)
         1           Sn  tau(   1) = (  0.0000000  0.0000000  0.0000000  )
         2           Sn  tau(   2) = (  0.2500000  0.2500000  0.2500000  )

     number of k points=   145  gaussian smearing, width (Ry)=  0.0001
                       cart. coord. in units 2pi/alat
        k(    1) = (   0.0000000   0.0000000   0.0000000), wk =   0.0002441
        k(    2) = (   0.0441942   0.0441942  -0.0441942), wk =   0.0019531
        k(    3) = (   0.0883883   0.0883883  -0.0883883), wk =   0.0019531
        k(    4) = (   0.1325825   0.1325825  -0.1325825), wk =   0.0019531
        k(    5) = (   0.1767767   0.1767767  -0.1767767), wk =   0.0019531
        k(    6) = (   0.2209709   0.2209709  -0.2209709), wk =   0.0019531
        k(    7) = (   0.2651650   0.2651650  -0.2651650), wk =   0.0019531
        k(    8) = (   0.3093592   0.3093592  -0.3093592), wk =   0.0019531
        k(    9) = (  -0.3535534  -0.3535534   0.3535534), wk =   0.0009766
        k(   10) = (   0.0883883   0.0000000   0.0000000), wk =   0.0014648
        k(   11) = (   0.1325825   0.0441942  -0.0441942), wk =   0.0058594
        k(   12) = (   0.1767767   0.0883883  -0.0883883), wk =   0.0058594
        k(   13) = (   0.2209709   0.1325825  -0.1325825), wk =   0.0058594
        k(   14) = (   0.2651650   0.1767767  -0.1767767), wk =   0.0058594
        k(   15) = (   0.3093592   0.2209709  -0.2209709), wk =   0.0058594
        k(   16) = (   0.3535534   0.2651650  -0.2651650), wk =   0.0058594
        k(   17) = (  -0.3093592  -0.3977476   0.3977476), wk =   0.0058594
        k(   18) = (  -0.2651650  -0.3535534   0.3535534), wk =   0.0058594
        k(   19) = (  -0.2209709  -0.3093592   0.3093592), wk =   0.0058594
        k(   20) = (  -0.1767767  -0.2651650   0.2651650), wk =   0.0058594
        k(   21) = (  -0.1325825  -0.2209709   0.2209709), wk =   0.0058594
        k(   22) = (  -0.0883883  -0.1767767   0.1767767), wk =   0.0058594
        k(   23) = (  -0.0441942  -0.1325825   0.1325825), wk =   0.0058594
        k(   24) = (   0.0000000  -0.0883883   0.0883883), wk =   0.0029297
        k(   25) = (   0.1767767   0.0000000   0.0000000), wk =   0.0014648
        k(   26) = (   0.2209709   0.0441942  -0.0441942), wk =   0.0058594
        k(   27) = (   0.2651650   0.0883883  -0.0883883), wk =   0.0058594
        k(   28) = (   0.3093592   0.1325825  -0.1325825), wk =   0.0058594
        k(   29) = (   0.3535534   0.1767767  -0.1767767), wk =   0.0058594
        k(   30) = (   0.3977476   0.2209709  -0.2209709), wk =   0.0058594
        k(   31) = (  -0.2651650  -0.4419417   0.4419417), wk =   0.0058594
        k(   32) = (  -0.2209709  -0.3977476   0.3977476), wk =   0.0058594
        k(   33) = (  -0.1767767  -0.3535534   0.3535534), wk =   0.0058594
        k(   34) = (  -0.1325825  -0.3093592   0.3093592), wk =   0.0058594
        k(   35) = (  -0.0883883  -0.2651650   0.2651650), wk =   0.0058594
        k(   36) = (  -0.0441942  -0.2209709   0.2209709), wk =   0.0058594
        k(   37) = (   0.0000000  -0.1767767   0.1767767), wk =   0.0029297
        k(   38) = (   0.2651650   0.0000000   0.0000000), wk =   0.0014648
        k(   39) = (   0.3093592   0.0441942  -0.0441942), wk =   0.0058594
        k(   40) = (   0.3535534   0.0883883  -0.0883883), wk =   0.0058594
        k(   41) = (   0.3977476   0.1325825  -0.1325825), wk =   0.0058594
        k(   42) = (   0.4419417   0.1767767  -0.1767767), wk =   0.0058594
        k(   43) = (  -0.2209709  -0.4861359   0.4861359), wk =   0.0058594
        k(   44) = (  -0.1767767  -0.4419417   0.4419417), wk =   0.0058594
        k(   45) = (  -0.1325825  -0.3977476   0.3977476), wk =   0.0058594
        k(   46) = (  -0.0883883  -0.3535534   0.3535534), wk =   0.0058594
        k(   47) = (  -0.0441942  -0.3093592   0.3093592), wk =   0.0058594
        k(   48) = (   0.0000000  -0.2651650   0.2651650), wk =   0.0029297
        k(   49) = (   0.3535534   0.0000000   0.0000000), wk =   0.0014648
        k(   50) = (   0.3977476   0.0441942  -0.0441942), wk =   0.0058594
        k(   51) = (   0.4419417   0.0883883  -0.0883883), wk =   0.0058594
        k(   52) = (   0.4861359   0.1325825  -0.1325825), wk =   0.0058594
        k(   53) = (  -0.1767767  -0.5303301   0.5303301), wk =   0.0058594
        k(   54) = (  -0.1325825  -0.4861359   0.4861359), wk =   0.0058594
        k(   55) = (  -0.0883883  -0.4419417   0.4419417), wk =   0.0058594
        k(   56) = (  -0.0441942  -0.3977476   0.3977476), wk =   0.0058594
        k(   57) = (   0.0000000  -0.3535534   0.3535534), wk =   0.0029297
        k(   58) = (   0.4419417   0.0000000   0.0000000), wk =   0.0014648
        k(   59) = (   0.4861359   0.0441942  -0.0441942), wk =   0.0058594
        k(   60) = (   0.5303301   0.0883883  -0.0883883), wk =   0.0058594
        k(   61) = (  -0.1325825  -0.5745243   0.5745243), wk =   0.0058594
        k(   62) = (  -0.0883883  -0.5303301   0.5303301), wk =   0.0058594
        k(   63) = (  -0.0441942  -0.4861359   0.4861359), wk =   0.0058594
        k(   64) = (   0.0000000  -0.4419417   0.4419417), wk =   0.0029297
        k(   65) = (   0.5303301   0.0000000   0.0000000), wk =   0.0014648
        k(   66) = (   0.5745243   0.0441942  -0.0441942), wk =   0.0058594
        k(   67) = (  -0.0883883  -0.6187184   0.6187184), wk =   0.0058594
        k(   68) = (  -0.0441942  -0.5745243   0.5745243), wk =   0.0058594
        k(   69) = (   0.0000000  -0.5303301   0.5303301), wk =   0.0029297
        k(   70) = (   0.6187184   0.0000000   0.0000000), wk =   0.0014648
        k(   71) = (  -0.0441942  -0.6629126   0.6629126), wk =   0.0058594
        k(   72) = (   0.0000000  -0.6187184   0.6187184), wk =   0.0029297
        k(   73) = (  -0.7071068   0.0000000   0.0000000), wk =   0.0007324
        k(   74) = (   0.1767767   0.0883883   0.0000000), wk =   0.0058594
        k(   75) = (   0.2209709   0.1325825  -0.0441942), wk =   0.0117188
        k(   76) = (   0.2651650   0.1767767  -0.0883883), wk =   0.0117188
        k(   77) = (   0.3093592   0.2209709  -0.1325825), wk =   0.0117188
        k(   78) = (   0.3535534   0.2651650  -0.1767767), wk =   0.0117188
        k(   79) = (  -0.3093592  -0.3977476   0.4861359), wk =   0.0117188
        k(   80) = (  -0.2651650  -0.3535534   0.4419417), wk =   0.0058594
        k(   81) = (   0.2651650   0.0883883   0.0000000), wk =   0.0058594
        k(   82) = (   0.3093592   0.1325825  -0.0441942), wk =   0.0117188
        k(   83) = (   0.3535534   0.1767767  -0.0883883), wk =   0.0117188
        k(   84) = (   0.3977476   0.2209709  -0.1325825), wk =   0.0117188
        k(   85) = (  -0.2651650  -0.4419417   0.5303301), wk =   0.0117188
        k(   86) = (  -0.2209709  -0.3977476   0.4861359), wk =   0.0117188
        k(   87) = (  -0.1767767  -0.3535534   0.4419417), wk =   0.0117188
        k(   88) = (  -0.1325825  -0.3093592   0.3977476), wk =   0.0117188
        k(   89) = (  -0.0883883  -0.2651650   0.3535534), wk =   0.0117188
        k(   90) = (  -0.0441942  -0.2209709   0.3093592), wk =   0.0117188
        k(   91) = (   0.0000000  -0.1767767   0.2651650), wk =   0.0058594
        k(   92) = (   0.3535534   0.0883883   0.0000000), wk =   0.0058594
        k(   93) = (   0.3977476   0.1325825  -0.0441942), wk =   0.0117188
        k(   94) = (   0.4419417   0.1767767  -0.0883883), wk =   0.0117188
        k(   95) = (  -0.2209709  -0.4861359   0.5745243), wk =   0.0117188
        k(   96) = (  -0.1767767  -0.4419417   0.5303301), wk =   0.0117188
        k(   97) = (  -0.1325825  -0.3977476   0.4861359), wk =   0.0117188
        k(   98) = (  -0.0883883  -0.3535534   0.4419417), wk =   0.0117188
        k(   99) = (  -0.0441942  -0.3093592   0.3977476), wk =   0.0117188
        k(  100) = (   0.0000000  -0.2651650   0.3535534), wk =   0.0058594
        k(  101) = (   0.4419417   0.0883883   0.0000000), wk =   0.0058594
        k(  102) = (   0.4861359   0.1325825  -0.0441942), wk =   0.0117188
        k(  103) = (  -0.1767767  -0.5303301   0.6187184), wk =   0.0117188
        k(  104) = (  -0.1325825  -0.4861359   0.5745243), wk =   0.0117188
        k(  105) = (  -0.0883883  -0.4419417   0.5303301), wk =   0.0117188
        k(  106) = (  -0.0441942  -0.3977476   0.4861359), wk =   0.0117188
        k(  107) = (   0.0000000  -0.3535534   0.4419417), wk =   0.0058594
        k(  108) = (   0.5303301   0.0883883   0.0000000), wk =   0.0058594
        k(  109) = (  -0.1325825  -0.5745243   0.6629126), wk =   0.0117188
        k(  110) = (  -0.0883883  -0.5303301   0.6187184), wk =   0.0117188
        k(  111) = (  -0.0441942  -0.4861359   0.5745243), wk =   0.0117188
        k(  112) = (   0.0000000  -0.4419417   0.5303301), wk =   0.0058594
        k(  113) = (  -0.0883883  -0.6187184   0.7071068), wk =   0.0058594
        k(  114) = (  -0.0441942  -0.5745243   0.6629126), wk =   0.0117188
        k(  115) = (  -0.0000000  -0.5303301   0.6187184), wk =   0.0058594
        k(  116) = (  -0.7071068   0.0883883   0.0000000), wk =   0.0029297
        k(  117) = (   0.3535534   0.1767767   0.0000000), wk =   0.0058594
        k(  118) = (   0.3977476   0.2209709  -0.0441942), wk =   0.0117188
        k(  119) = (  -0.2651650  -0.4419417   0.6187184), wk =   0.0117188
        k(  120) = (  -0.2209709  -0.3977476   0.5745243), wk =   0.0117188
        k(  121) = (  -0.1767767  -0.3535534   0.5303301), wk =   0.0058594
        k(  122) = (   0.4419417   0.1767767   0.0000000), wk =   0.0058594
        k(  123) = (  -0.2209709  -0.4861359   0.6629126), wk =   0.0117188
        k(  124) = (  -0.1767767  -0.4419417   0.6187184), wk =   0.0117188
        k(  125) = (  -0.1325825  -0.3977476   0.5745243), wk =   0.0117188
        k(  126) = (  -0.0883883  -0.3535534   0.5303301), wk =   0.0117188
        k(  127) = (  -0.0441942  -0.3093592   0.4861359), wk =   0.0117188
        k(  128) = (   0.0000000  -0.2651650   0.4419417), wk =   0.0058594
        k(  129) = (  -0.1767767  -0.5303301   0.7071068), wk =   0.0058594
        k(  130) = (  -0.1325825  -0.4861359   0.6629126), wk =   0.0117188
        k(  131) = (  -0.0883883  -0.4419417   0.6187184), wk =   0.0117188
        k(  132) = (  -0.0441942  -0.3977476   0.5745243), wk =   0.0117188
        k(  133) = (   0.0000000  -0.3535534   0.5303301), wk =   0.0058594
        k(  134) = (  -0.0883883  -0.5303301   0.7071068), wk =   0.0058594
        k(  135) = (  -0.0441942  -0.4861359   0.6629126), wk =   0.0117188
        k(  136) = (   0.0000000  -0.4419417   0.6187184), wk =   0.0058594
        k(  137) = (  -0.7071068   0.1767767   0.0000000), wk =   0.0029297
        k(  138) = (  -0.1767767  -0.4419417   0.7071068), wk =   0.0058594
        k(  139) = (  -0.1325825  -0.3977476   0.6629126), wk =   0.0117188
        k(  140) = (  -0.0883883  -0.3535534   0.6187184), wk =   0.0058594
        k(  141) = (  -0.0883883  -0.4419417   0.7071068), wk =   0.0058594
        k(  142) = (  -0.0441942  -0.3977476   0.6629126), wk =   0.0117188
        k(  143) = (  -0.0000000  -0.3535534   0.6187184), wk =   0.0058594
        k(  144) = (  -0.7071068   0.2651650   0.0000000), wk =   0.0029297
        k(  145) = (  -0.7071068   0.3535534   0.0000000), wk =   0.0014648

                       cryst. coord.
        k(    1) = (   0.0000000   0.0000000   0.0000000), wk =   0.0002441
        k(    2) = (   0.0000000   0.0000000   0.0625000), wk =   0.0019531
        k(    3) = (   0.0000000   0.0000000   0.1250000), wk =   0.0019531
        k(    4) = (   0.0000000   0.0000000   0.1875000), wk =   0.0019531
        k(    5) = (   0.0000000   0.0000000   0.2500000), wk =   0.0019531
        k(    6) = (   0.0000000   0.0000000   0.3125000), wk =   0.0019531
        k(    7) = (   0.0000000   0.0000000   0.3750000), wk =   0.0019531
        k(    8) = (   0.0000000   0.0000000   0.4375000), wk =   0.0019531
        k(    9) = (   0.0000000   0.0000000  -0.5000000), wk =   0.0009766
        k(   10) = (   0.0000000   0.0625000   0.0625000), wk =   0.0014648
        k(   11) = (   0.0000000   0.0625000   0.1250000), wk =   0.0058594
        k(   12) = (   0.0000000   0.0625000   0.1875000), wk =   0.0058594
        k(   13) = (   0.0000000   0.0625000   0.2500000), wk =   0.0058594
        k(   14) = (   0.0000000   0.0625000   0.3125000), wk =   0.0058594
        k(   15) = (   0.0000000   0.0625000   0.3750000), wk =   0.0058594
        k(   16) = (   0.0000000   0.0625000   0.4375000), wk =   0.0058594
        k(   17) = (   0.0000000   0.0625000  -0.5000000), wk =   0.0058594
        k(   18) = (   0.0000000   0.0625000  -0.4375000), wk =   0.0058594
        k(   19) = (   0.0000000   0.0625000  -0.3750000), wk =   0.0058594
        k(   20) = (   0.0000000   0.0625000  -0.3125000), wk =   0.0058594
        k(   21) = (   0.0000000   0.0625000  -0.2500000), wk =   0.0058594
        k(   22) = (   0.0000000   0.0625000  -0.1875000), wk =   0.0058594
        k(   23) = (   0.0000000   0.0625000  -0.1250000), wk =   0.0058594
        k(   24) = (   0.0000000   0.0625000  -0.0625000), wk =   0.0029297
        k(   25) = (   0.0000000   0.1250000   0.1250000), wk =   0.0014648
        k(   26) = (   0.0000000   0.1250000   0.1875000), wk =   0.0058594
        k(   27) = (   0.0000000   0.1250000   0.2500000), wk =   0.0058594
        k(   28) = (   0.0000000   0.1250000   0.3125000), wk =   0.0058594
        k(   29) = (   0.0000000   0.1250000   0.3750000), wk =   0.0058594
        k(   30) = (   0.0000000   0.1250000   0.4375000), wk =   0.0058594
        k(   31) = (   0.0000000   0.1250000  -0.5000000), wk =   0.0058594
        k(   32) = (   0.0000000   0.1250000  -0.4375000), wk =   0.0058594
        k(   33) = (   0.0000000   0.1250000  -0.3750000), wk =   0.0058594
        k(   34) = (   0.0000000   0.1250000  -0.3125000), wk =   0.0058594
        k(   35) = (   0.0000000   0.1250000  -0.2500000), wk =   0.0058594
        k(   36) = (   0.0000000   0.1250000  -0.1875000), wk =   0.0058594
        k(   37) = (   0.0000000   0.1250000  -0.1250000), wk =   0.0029297
        k(   38) = (   0.0000000   0.1875000   0.1875000), wk =   0.0014648
        k(   39) = (   0.0000000   0.1875000   0.2500000), wk =   0.0058594
        k(   40) = (   0.0000000   0.1875000   0.3125000), wk =   0.0058594
        k(   41) = (   0.0000000   0.1875000   0.3750000), wk =   0.0058594
        k(   42) = (   0.0000000   0.1875000   0.4375000), wk =   0.0058594
        k(   43) = (   0.0000000   0.1875000  -0.5000000), wk =   0.0058594
        k(   44) = (   0.0000000   0.1875000  -0.4375000), wk =   0.0058594
        k(   45) = (   0.0000000   0.1875000  -0.3750000), wk =   0.0058594
        k(   46) = (   0.0000000   0.1875000  -0.3125000), wk =   0.0058594
        k(   47) = (   0.0000000   0.1875000  -0.2500000), wk =   0.0058594
        k(   48) = (   0.0000000   0.1875000  -0.1875000), wk =   0.0029297
        k(   49) = (   0.0000000   0.2500000   0.2500000), wk =   0.0014648
        k(   50) = (   0.0000000   0.2500000   0.3125000), wk =   0.0058594
        k(   51) = (   0.0000000   0.2500000   0.3750000), wk =   0.0058594
        k(   52) = (   0.0000000   0.2500000   0.4375000), wk =   0.0058594
        k(   53) = (   0.0000000   0.2500000  -0.5000000), wk =   0.0058594
        k(   54) = (   0.0000000   0.2500000  -0.4375000), wk =   0.0058594
        k(   55) = (   0.0000000   0.2500000  -0.3750000), wk =   0.0058594
        k(   56) = (   0.0000000   0.2500000  -0.3125000), wk =   0.0058594
        k(   57) = (   0.0000000   0.2500000  -0.2500000), wk =   0.0029297
        k(   58) = (   0.0000000   0.3125000   0.3125000), wk =   0.0014648
        k(   59) = (   0.0000000   0.3125000   0.3750000), wk =   0.0058594
        k(   60) = (   0.0000000   0.3125000   0.4375000), wk =   0.0058594
        k(   61) = (   0.0000000   0.3125000  -0.5000000), wk =   0.0058594
        k(   62) = (   0.0000000   0.3125000  -0.4375000), wk =   0.0058594
        k(   63) = (   0.0000000   0.3125000  -0.3750000), wk =   0.0058594
        k(   64) = (   0.0000000   0.3125000  -0.3125000), wk =   0.0029297
        k(   65) = (   0.0000000   0.3750000   0.3750000), wk =   0.0014648
        k(   66) = (   0.0000000   0.3750000   0.4375000), wk =   0.0058594
        k(   67) = (   0.0000000   0.3750000  -0.5000000), wk =   0.0058594
        k(   68) = (   0.0000000   0.3750000  -0.4375000), wk =   0.0058594
        k(   69) = (   0.0000000   0.3750000  -0.3750000), wk =   0.0029297
        k(   70) = (   0.0000000   0.4375000   0.4375000), wk =   0.0014648
        k(   71) = (   0.0000000   0.4375000  -0.5000000), wk =   0.0058594
        k(   72) = (   0.0000000   0.4375000  -0.4375000), wk =   0.0029297
        k(   73) = (   0.0000000  -0.5000000  -0.5000000), wk =   0.0007324
        k(   74) = (   0.0625000   0.1250000   0.1875000), wk =   0.0058594
        k(   75) = (   0.0625000   0.1250000   0.2500000), wk =   0.0117188
        k(   76) = (   0.0625000   0.1250000   0.3125000), wk =   0.0117188
        k(   77) = (   0.0625000   0.1250000   0.3750000), wk =   0.0117188
        k(   78) = (   0.0625000   0.1250000   0.4375000), wk =   0.0117188
        k(   79) = (   0.0625000   0.1250000  -0.5000000), wk =   0.0117188
        k(   80) = (   0.0625000   0.1250000  -0.4375000), wk =   0.0058594
        k(   81) = (   0.0625000   0.1875000   0.2500000), wk =   0.0058594
        k(   82) = (   0.0625000   0.1875000   0.3125000), wk =   0.0117188
        k(   83) = (   0.0625000   0.1875000   0.3750000), wk =   0.0117188
        k(   84) = (   0.0625000   0.1875000   0.4375000), wk =   0.0117188
        k(   85) = (   0.0625000   0.1875000  -0.5000000), wk =   0.0117188
        k(   86) = (   0.0625000   0.1875000  -0.4375000), wk =   0.0117188
        k(   87) = (   0.0625000   0.1875000  -0.3750000), wk =   0.0117188
        k(   88) = (   0.0625000   0.1875000  -0.3125000), wk =   0.0117188
        k(   89) = (   0.0625000   0.1875000  -0.2500000), wk =   0.0117188
        k(   90) = (   0.0625000   0.1875000  -0.1875000), wk =   0.0117188
        k(   91) = (   0.0625000   0.1875000  -0.1250000), wk =   0.0058594
        k(   92) = (   0.0625000   0.2500000   0.3125000), wk =   0.0058594
        k(   93) = (   0.0625000   0.2500000   0.3750000), wk =   0.0117188
        k(   94) = (   0.0625000   0.2500000   0.4375000), wk =   0.0117188
        k(   95) = (   0.0625000   0.2500000  -0.5000000), wk =   0.0117188
        k(   96) = (   0.0625000   0.2500000  -0.4375000), wk =   0.0117188
        k(   97) = (   0.0625000   0.2500000  -0.3750000), wk =   0.0117188
        k(   98) = (   0.0625000   0.2500000  -0.3125000), wk =   0.0117188
        k(   99) = (   0.0625000   0.2500000  -0.2500000), wk =   0.0117188
        k(  100) = (   0.0625000   0.2500000  -0.1875000), wk =   0.0058594
        k(  101) = (   0.0625000   0.3125000   0.3750000), wk =   0.0058594
        k(  102) = (   0.0625000   0.3125000   0.4375000), wk =   0.0117188
        k(  103) = (   0.0625000   0.3125000  -0.5000000), wk =   0.0117188
        k(  104) = (   0.0625000   0.3125000  -0.4375000), wk =   0.0117188
        k(  105) = (   0.0625000   0.3125000  -0.3750000), wk =   0.0117188
        k(  106) = (   0.0625000   0.3125000  -0.3125000), wk =   0.0117188
        k(  107) = (   0.0625000   0.3125000  -0.2500000), wk =   0.0058594
        k(  108) = (   0.0625000   0.3750000   0.4375000), wk =   0.0058594
        k(  109) = (   0.0625000   0.3750000  -0.5000000), wk =   0.0117188
        k(  110) = (   0.0625000   0.3750000  -0.4375000), wk =   0.0117188
        k(  111) = (   0.0625000   0.3750000  -0.3750000), wk =   0.0117188
        k(  112) = (   0.0625000   0.3750000  -0.3125000), wk =   0.0058594
        k(  113) = (   0.0625000   0.4375000  -0.5000000), wk =   0.0058594
        k(  114) = (   0.0625000   0.4375000  -0.4375000), wk =   0.0117188
        k(  115) = (   0.0625000   0.4375000  -0.3750000), wk =   0.0058594
        k(  116) = (   0.0625000  -0.5000000  -0.4375000), wk =   0.0029297
        k(  117) = (   0.1250000   0.2500000   0.3750000), wk =   0.0058594
        k(  118) = (   0.1250000   0.2500000   0.4375000), wk =   0.0117188
        k(  119) = (   0.1250000   0.2500000  -0.5000000), wk =   0.0117188
        k(  120) = (   0.1250000   0.2500000  -0.4375000), wk =   0.0117188
        k(  121) = (   0.1250000   0.2500000  -0.3750000), wk =   0.0058594
        k(  122) = (   0.1250000   0.3125000   0.4375000), wk =   0.0058594
        k(  123) = (   0.1250000   0.3125000  -0.5000000), wk =   0.0117188
        k(  124) = (   0.1250000   0.3125000  -0.4375000), wk =   0.0117188
        k(  125) = (   0.1250000   0.3125000  -0.3750000), wk =   0.0117188
        k(  126) = (   0.1250000   0.3125000  -0.3125000), wk =   0.0117188
        k(  127) = (   0.1250000   0.3125000  -0.2500000), wk =   0.0117188
        k(  128) = (   0.1250000   0.3125000  -0.1875000), wk =   0.0058594
        k(  129) = (   0.1250000   0.3750000  -0.5000000), wk =   0.0058594
        k(  130) = (   0.1250000   0.3750000  -0.4375000), wk =   0.0117188
        k(  131) = (   0.1250000   0.3750000  -0.3750000), wk =   0.0117188
        k(  132) = (   0.1250000   0.3750000  -0.3125000), wk =   0.0117188
        k(  133) = (   0.1250000   0.3750000  -0.2500000), wk =   0.0058594
        k(  134) = (   0.1250000   0.4375000  -0.4375000), wk =   0.0058594
        k(  135) = (   0.1250000   0.4375000  -0.3750000), wk =   0.0117188
        k(  136) = (   0.1250000   0.4375000  -0.3125000), wk =   0.0058594
        k(  137) = (   0.1250000  -0.5000000  -0.3750000), wk =   0.0029297
        k(  138) = (   0.1875000   0.3750000  -0.4375000), wk =   0.0058594
        k(  139) = (   0.1875000   0.3750000  -0.3750000), wk =   0.0117188
        k(  140) = (   0.1875000   0.3750000  -0.3125000), wk =   0.0058594
        k(  141) = (   0.1875000   0.4375000  -0.3750000), wk =   0.0058594
        k(  142) = (   0.1875000   0.4375000  -0.3125000), wk =   0.0117188
        k(  143) = (   0.1875000   0.4375000  -0.2500000), wk =   0.0058594
        k(  144) = (   0.1875000  -0.5000000  -0.3125000), wk =   0.0029297
        k(  145) = (   0.2500000  -0.5000000  -0.2500000), wk =   0.0014648

     Dense  grid:    49757 G-vectors     FFT dimensions: (  54,  54,  54)

     Largest allocated arrays     est. size (Mb)     dimensions
        Kohn-Sham Wavefunctions         0.44 Mb     (     792,   36)
        NL pseudopotentials             0.41 Mb     (     396,   68)
        Each V/rho on FFT grid          0.18 Mb     (   11664)
        Each G-vector array             0.02 Mb     (    3110)
        G-vector shells                 0.00 Mb     (     423)
     Largest temporary arrays     est. size (Mb)     dimensions
        Auxiliary wavefunctions         1.74 Mb     (     792,  144)
        Each subspace H/S matrix        0.32 Mb     (     144,  144)
        Each <psi_i|beta_j> matrix      0.07 Mb     (      68,   2,   36)
        Arrays for rho mixing           1.42 Mb     (   11664,    8)

     Initial potential from superposition of free atoms

     starting charge   27.99781, renormalised to   28.00000
     Starting wfc are   36 randomized atomic wfcs
     Checking if some PAW data can be deallocated... 

     total cpu time spent up to now is        8.8 secs

     Self-consistent Calculation

     iteration #  1     ecut=    76.00 Ry     beta=0.70
     Davidson diagonalization with overlap
     ethr =  1.00E-02,  avg # of iterations =  3.4

     Threshold (ethr) on eigenvalues was too large:
     Diagonalizing with lowered threshold

     Davidson diagonalization with overlap
     ethr =  5.01E-05,  avg # of iterations =  3.6

     total cpu time spent up to now is       62.6 secs

     total energy              =    -885.87295356 Ry
     Harris-Foulkes estimate   =    -885.87462885 Ry
     estimated scf accuracy    <       0.01654452 Ry

     iteration #  2     ecut=    76.00 Ry     beta=0.70
     Davidson diagonalization with overlap
     ethr =  5.91E-05,  avg # of iterations =  2.0

     total cpu time spent up to now is       85.0 secs

     total energy              =    -885.87387246 Ry
     Harris-Foulkes estimate   =    -885.87401762 Ry
     estimated scf accuracy    <       0.00166974 Ry

     iteration #  3     ecut=    76.00 Ry     beta=0.70
     Davidson diagonalization with overlap
     ethr =  5.96E-06,  avg # of iterations =  2.1

     total cpu time spent up to now is      112.4 secs

     total energy              =    -885.87412886 Ry
     Harris-Foulkes estimate   =    -885.87419980 Ry
     estimated scf accuracy    <       0.00012721 Ry

     iteration #  4     ecut=    76.00 Ry     beta=0.70
     Davidson diagonalization with overlap
     ethr =  4.54E-07,  avg # of iterations =  2.1

     total cpu time spent up to now is      139.9 secs

     total energy              =    -885.87416786 Ry
     Harris-Foulkes estimate   =    -885.87417107 Ry
     estimated scf accuracy    <       0.00000963 Ry

     iteration #  5     ecut=    76.00 Ry     beta=0.70
     Davidson diagonalization with overlap
     ethr =  3.44E-08,  avg # of iterations =  2.0

     total cpu time spent up to now is      163.5 secs

     total energy              =    -885.87417050 Ry
     Harris-Foulkes estimate   =    -885.87417027 Ry
     estimated scf accuracy    <       0.00000107 Ry

     iteration #  6     ecut=    76.00 Ry     beta=0.70
     Davidson diagonalization with overlap
     ethr =  3.82E-09,  avg # of iterations =  2.0

     total cpu time spent up to now is      188.9 secs

     End of self-consistent calculation

          k = 0.0000 0.0000 0.0000 (  6183 PWs)   bands (ev):

   -16.1750 -16.1750 -16.1750 -16.1750 -16.1134 -16.1134 -16.1134 -16.1134
   -15.2206 -15.2206 -15.0956 -15.0956 -15.0956 -15.0956 -15.0724 -15.0724
   -15.0724 -15.0724 -14.9863 -14.9863  -3.7237  -3.7237   3.9508   3.9508
     5.4489   5.4489   6.0605   6.0605   6.0605   6.0605   7.5717   7.5717
     8.0360   8.0360   8.0360   8.0360

     occupation numbers 
     1.0000   1.0000   1.0000   1.0000   1.0000   1.0000   1.0000   1.0000
     1.0000   1.0000   1.0000   1.0000   1.0000   1.0000   1.0000   1.0000
     1.0000   1.0000   1.0000   1.0000   1.0000   1.0000   1.0000   1.0000
     1.0000   1.0000   0.0000   0.0000   0.0000   0.0000   0.0000   0.0000
     0.0000   0.0000   0.0000   0.0000

          k = 0.0442 0.0442-0.0442 (  6201 PWs)   bands (ev):

   -16.1753 -16.1753 -16.1744 -16.1744 -16.1140 -16.1140 -16.1130 -16.1130
   -15.2193 -15.2193 -15.0998 -15.0998 -15.0985 -15.0985 -15.0693 -15.0693
   -15.0686 -15.0686 -14.9870 -14.9870  -3.6925  -3.6925   3.6998   3.6998
     5.4617   5.4617   5.9973   5.9973   6.0531   6.0531   7.7031   7.7031
     8.0990   8.0991   8.1200   8.1200

     occupation numbers 
     1.0000   1.0000   1.0000   1.0000   1.0000   1.0000   1.0000   1.0000
     1.0000   1.0000   1.0000   1.0000   1.0000   1.0000   1.0000   1.0000
     1.0000   1.0000   1.0000   1.0000   1.0000   1.0000   1.0000   1.0000
     1.0000   1.0000   0.0000   0.0000   0.0000   0.0000   0.0000   0.0000
     0.0000   0.0000   0.0000   0.0000

          k = 0.0884 0.0884-0.0884 (  6183 PWs)   bands (ev):

   -16.1761 -16.1761 -16.1727 -16.1727 -16.1156 -16.1156 -16.1120 -16.1120
   -15.2157 -15.2157 -15.1085 -15.1085 -15.1047 -15.1047 -15.0627 -15.0627
   -15.0610 -15.0610 -14.9892 -14.9892  -3.5999  -3.5999   3.1311   3.1311
     5.3903   5.3903   5.8411   5.8411   6.0208   6.0208   8.0000   8.0000
     8.3295   8.3295   8.3605   8.3605

     occupation numbers 
     1.0000   1.0000   1.0000   1.0000   1.0000   1.0000   1.0000   1.0000
     1.0000   1.0000   1.0000   1.0000   1.0000   1.0000   1.0000   1.0000
     1.0000   1.0000   1.0000   1.0000   1.0000   1.0000   1.0000   1.0000
     1.0000   1.0000   0.0000   0.0000   0.0000   0.0000   0.0000   0.0000
     0.0000   0.0000   0.0000   0.0000

          k = 0.1326 0.1326-0.1326 (  6189 PWs)   bands (ev):

   -16.1772 -16.1772 -16.1699 -16.1699 -16.1183 -16.1183 -16.1105 -16.1105
   -15.2100 -15.2100 -15.1184 -15.1184 -15.1114 -15.1114 -15.0555 -15.0555
   -15.0530 -15.0530 -14.9927 -14.9927  -3.4488  -3.4488   2.4553   2.4553
     5.2345   5.2345   5.6501   5.6501   5.9277   5.9277   8.2731   8.2731
     8.5794   8.5794   8.9039   8.9039

     occupation numbers 
     1.0000   1.0000   1.0000   1.0000   1.0000   1.0000   1.0000   1.0000
     1.0000   1.0000   1.0000   1.0000   1.0000   1.0000   1.0000   1.0000
     1.0000   1.0000   1.0000   1.0000   1.0000   1.0000   1.0000   1.0000
     1.0000   1.0000   1.0000   1.0000   0.0000   0.0000   0.0000   0.0000
     0.0000   0.0000   0.0000   0.0000

          k = 0.1768 0.1768-0.1768 (  6204 PWs)   bands (ev):

   -16.1784 -16.1784 -16.1662 -16.1662 -16.1218 -16.1218 -16.1089 -16.1089
   -15.2026 -15.2026 -15.1285 -15.1285 -15.1175 -15.1175 -15.0487 -15.0487
   -15.0454 -15.0454 -14.9973 -14.9973  -3.2455  -3.2455   1.7694   1.7694
     5.0632   5.0632   5.4651   5.4651   5.7947   5.7947   8.4938   8.4938
     8.7932   8.7932   9.6142   9.6142

     occupation numbers 
     1.0000   1.0000   1.0000   1.0000   1.0000   1.0000   1.0000   1.0000
     1.0000   1.0000   1.0000   1.0000   1.0000   1.0000   1.0000   1.0000
     1.0000   1.0000   1.0000   1.0000   1.0000   1.0000   1.0000   1.0000
     1.0000   1.0000   1.0000   1.0000   0.8750   0.8750   0.0000   0.0000
     0.0000   0.0000   0.0000   0.0000

          k = 0.2210 0.2210-0.2210 (  6189 PWs)   bands (ev):

   -16.1796 -16.1796 -16.1618 -16.1618 -16.1259 -16.1259 -16.1073 -16.1073
   -15.1941 -15.1941 -15.1383 -15.1383 -15.1226 -15.1226 -15.0430 -15.0430
   -15.0384 -15.0384 -15.0026 -15.0026  -3.0025  -3.0025   1.1265   1.1265
     4.9123   4.9123   5.3081   5.3081   5.6625   5.6625   8.6468   8.6468
     8.9284   8.9284  10.4028  10.4028

     occupation numbers 
     1.0000   1.0000   1.0000   1.0000   1.0000   1.0000   1.0000   1.0000
     1.0000   1.0000   1.0000   1.0000   1.0000   1.0000   1.0000   1.0000
     1.0000   1.0000   1.0000   1.0000   1.0000   1.0000   1.0000   1.0000
     1.0000   1.0000   1.0000   1.0000   1.0000   1.0000   0.0000   0.0000
     0.0000   0.0000   0.0000   0.0000

          k = 0.2652 0.2652-0.2652 (  6204 PWs)   bands (ev):

   -16.1806 -16.1806 -16.1572 -16.1572 -16.1304 -16.1304 -16.1060 -16.1060
   -15.1851 -15.1851 -15.1478 -15.1478 -15.1264 -15.1264 -15.0386 -15.0386
   -15.0320 -15.0320 -15.0082 -15.0082  -2.7461  -2.7461   0.5737   0.5737
     4.7975   4.7975   5.1905   5.1905   5.5566   5.5566   8.7291   8.7291
     8.9887   8.9887  11.1685  11.1685

     occupation numbers 
     1.0000   1.0000   1.0000   1.0000   1.0000   1.0000   1.0000   1.0000
     1.0000   1.0000   1.0000   1.0000   1.0000   1.0000   1.0000   1.0000
     1.0000   1.0000   1.0000   1.0000   1.0000   1.0000   1.0000   1.0000
     1.0000   1.0000   1.0000   1.0000   1.0000   1.0000   0.0000   0.0000
     0.0000   0.0000   0.0000   0.0000

          k = 0.3094 0.3094-0.3094 (  6204 PWs)   bands (ev):

   -16.1812 -16.1812 -16.1529 -16.1529 -16.1345 -16.1345 -16.1052 -16.1052
   -15.1759 -15.1759 -15.1571 -15.1571 -15.1287 -15.1287 -15.0359 -15.0359
   -15.0260 -15.0260 -15.0140 -15.0140  -2.5297  -2.5297   0.1756   0.1756
     4.7265   4.7265   5.1180   5.1180   5.4894   5.4894   8.7626   8.7626
     9.0058   9.0058  11.4682  11.4682

     occupation numbers 
     1.0000   1.0000   1.0000   1.0000   1.0000   1.0000   1.0000   1.0000
     1.0000   1.0000   1.0000   1.0000   1.0000   1.0000   1.0000   1.0000
     1.0000   1.0000   1.0000   1.0000   1.0000   1.0000   1.0000   1.0000
     1.0000   1.0000   1.0000   1.0000   1.0000   1.0000   0.0000   0.0000
     0.0000   0.0000   0.0000   0.0000

          k =-0.3536-0.3536 0.3536 (  6230 PWs)   bands (ev):

   -16.1814 -16.1814 -16.1509 -16.1509 -16.1365 -16.1365 -16.1049 -16.1049
   -15.1682 -15.1682 -15.1647 -15.1647 -15.1295 -15.1295 -15.0350 -15.0350
   -15.0213 -15.0213 -15.0187 -15.0187  -2.4396  -2.4396   0.0243   0.0243
     4.7024   4.7024   5.0936   5.0936   5.4665   5.4665   8.7706   8.7706
     9.0080   9.0080  11.4772  11.4772

     occupation numbers 
     1.0000   1.0000   1.0000   1.0000   1.0000   1.0000   1.0000   1.0000
     1.0000   1.0000   1.0000   1.0000   1.0000   1.0000   1.0000   1.0000
     1.0000   1.0000   1.0000   1.0000   1.0000   1.0000   1.0000   1.0000
     1.0000   1.0000   1.0000   1.0000   1.0000   1.0000   0.0000   0.0000
     0.0000   0.0000   0.0000   0.0000

          k = 0.0884 0.0000 0.0000 (  6194 PWs)   bands (ev):

   -16.1750 -16.1750 -16.1746 -16.1746 -16.1138 -16.1138 -16.1133 -16.1133
   -15.2189 -15.2189 -15.1015 -15.1015 -15.0987 -15.0987 -15.0684 -15.0684
   -15.0676 -15.0676 -14.9873 -14.9873  -3.6821  -3.6821   3.6352   3.6352
     5.4186   5.4186   5.8454   5.8454   6.2470   6.2470   7.6453   7.6453
     8.1042   8.1042   8.2333   8.2333

     occupation numbers 
     1.0000   1.0000   1.0000   1.0000   1.0000   1.0000   1.0000   1.0000
     1.0000   1.0000   1.0000   1.0000   1.0000   1.0000   1.0000   1.0000
     1.0000   1.0000   1.0000   1.0000   1.0000   1.0000   1.0000   1.0000
     1.0000   1.0000   0.0000   0.0000   0.0000   0.0000   0.0000   0.0000
     0.0000   0.0000   0.0000   0.0000

          k = 0.1326 0.0442-0.0442 (  6193 PWs)   bands (ev):

   -16.1756 -16.1756 -16.1733 -16.1733 -16.1150 -16.1150 -16.1125 -16.1125
   -15.2161 -15.2161 -15.1085 -15.1085 -15.1031 -15.1031 -15.0639 -15.0639
   -15.0614 -15.0614 -14.9889 -14.9889  -3.6098  -3.6098   3.2080   3.2080
     5.3106   5.3106   5.6526   5.6526   6.3832   6.3832   7.7103   7.7103
     8.3393   8.3393   8.4851   8.4851

     occupation numbers 
     1.0000   1.0000   1.0000   1.0000   1.0000   1.0000   1.0000   1.0000
     1.0000   1.0000   1.0000   1.0000   1.0000   1.0000   1.0000   1.0000
     1.0000   1.0000   1.0000   1.0000   1.0000   1.0000   1.0000   1.0000
     1.0000   1.0000   1.0000   1.0000   0.0000   0.0000   0.0000   0.0000
     0.0000   0.0000   0.0000   0.0000

          k = 0.1768 0.0884-0.0884 (  6185 PWs)   bands (ev):

   -16.1767 -16.1766 -16.1708 -16.1708 -16.1174 -16.1174 -16.1111 -16.1111
   -15.2111 -15.2111 -15.1176 -15.1176 -15.1089 -15.1089 -15.0585 -15.0585
   -15.0532 -15.0532 -14.9919 -14.9919  -3.4777  -3.4777   2.6015   2.6015
     5.1392   5.1392   5.4486   5.4486   6.3795   6.3795   7.9266   7.9266
     8.6475   8.6475   8.8954   8.8954

     occupation numbers 
     1.0000   1.0000   1.0000   1.0000   1.0000   1.0000   1.0000   1.0000
     1.0000   1.0000   1.0000   1.0000   1.0000   1.0000   1.0000   1.0000
     1.0000   1.0000   1.0000   1.0000   1.0000   1.0000   1.0000   1.0000
     1.0000   1.0000   1.0000   1.0000   0.0000   0.0000   0.0000   0.0000
     0.0000   0.0000   0.0000   0.0000

          k = 0.2210 0.1326-0.1326 (  6193 PWs)   bands (ev):

   -16.1779 -16.1779 -16.1674 -16.1674 -16.1207 -16.1207 -16.1094 -16.1094
   -15.2043 -15.2043 -15.1271 -15.1271 -15.1148 -15.1148 -15.0531 -15.0530
   -15.0450 -15.0450 -14.9959 -14.9959  -3.2908  -3.2908   1.9419   1.9419
     4.9477   4.9477   5.2505   5.2505   6.2833   6.2833   8.2086   8.2086
     8.8945   8.8945   9.4492   9.4492

     occupation numbers 
     1.0000   1.0000   1.0000   1.0000   1.0000   1.0000   1.0000   1.0000
     1.0000   1.0000   1.0000   1.0000   1.0000   1.0000   1.0000   1.0000
     1.0000   1.0000   1.0000   1.0000   1.0000   1.0000   1.0000   1.0000
     1.0000   1.0000   1.0000   1.0000   0.0000   0.0000   0.0000   0.0000
     0.0000   0.0000   0.0000   0.0000

          k = 0.2652 0.1768-0.1768 (  6200 PWs)   bands (ev):

   -16.1791 -16.1791 -16.1633 -16.1633 -16.1247 -16.1247 -16.1077 -16.1077
   -15.1963 -15.1963 -15.1365 -15.1365 -15.1201 -15.1201 -15.0482 -15.0481
   -15.0376 -15.0376 -15.0006 -15.0006  -3.0590  -3.0590   1.2982   1.2982
     4.7693   4.7693   5.0841   5.0841   6.1580   6.1580   8.4564   8.4564
     9.0446   9.0446  10.0810  10.0810

     occupation numbers 
     1.0000   1.0000   1.0000   1.0000   1.0000   1.0000   1.0000   1.0000
     1.0000   1.0000   1.0000   1.0000   1.0000   1.0000   1.0000   1.0000
     1.0000   1.0000   1.0000   1.0000   1.0000   1.0000   1.0000   1.0000
     1.0000   1.0000   1.0000   1.0000   0.0000   0.0000   0.0000   0.0000
     0.0000   0.0000   0.0000   0.0000

          k = 0.3094 0.2210-0.2210 (  6194 PWs)   bands (ev):

   -16.1802 -16.1802 -16.1587 -16.1587 -16.1291 -16.1291 -16.1063 -16.1063
   -15.1876 -15.1876 -15.1455 -15.1455 -15.1243 -15.1243 -15.0441 -15.0441
   -15.0313 -15.0313 -15.0055 -15.0055  -2.8026  -2.8026   0.7205   0.7205
     4.6203   4.6204   4.9653   4.9653   6.0425   6.0425   8.6217   8.6217
     9.0990   9.0990  10.7468  10.7468

     occupation numbers 
     1.0000   1.0000   1.0000   1.0000   1.0000   1.0000   1.0000   1.0000
     1.0000   1.0000   1.0000   1.0000   1.0000   1.0000   1.0000   1.0000
     1.0000   1.0000   1.0000   1.0000   1.0000   1.0000   1.0000   1.0000
     1.0000   1.0000   1.0000   1.0000   0.0000   0.0000   0.0000   0.0000
     0.0000   0.0000   0.0000   0.0000

          k = 0.3536 0.2652-0.2652 (  6209 PWs)   bands (ev):

   -16.1809 -16.1809 -16.1542 -16.1541 -16.1335 -16.1335 -16.1052 -16.1052
   -15.1788 -15.1788 -15.1541 -15.1541 -15.1272 -15.1272 -15.0413 -15.0413
   -15.0262 -15.0262 -15.0101 -15.0101  -2.5639  -2.5639   0.2675   0.2675
     4.5106   4.5106   4.9005   4.9005   5.9563   5.9563   8.7161   8.7161
     9.0912   9.0912  11.3034  11.3035

     occupation numbers 
     1.0000   1.0000   1.0000   1.0000   1.0000   1.0000   1.0000   1.0000
     1.0000   1.0000   1.0000   1.0000   1.0000   1.0000   1.0000   1.0000
     1.0000   1.0000   1.0000   1.0000   1.0000   1.0000   1.0000   1.0000
     1.0000   1.0000   1.0000   1.0000   0.0000   0.0000   0.0000   0.0000
     0.0000   0.0000   0.0000   0.0000

          k =-0.3094-0.3977 0.3977 (  6209 PWs)   bands (ev):

   -16.1813 -16.1813 -16.1510 -16.1510 -16.1366 -16.1366 -16.1047 -16.1047
   -15.1710 -15.1710 -15.1616 -15.1616 -15.1285 -15.1285 -15.0399 -15.0399
   -15.0228 -15.0228 -15.0133 -15.0133  -2.4210  -2.4210   0.0258   0.0258
     4.4463   4.4463   4.8905   4.8905   5.9087   5.9087   8.7698   8.7698
     9.0592   9.0592  11.5071  11.5071

     occupation numbers 
     1.0000   1.0000   1.0000   1.0000   1.0000   1.0000   1.0000   1.0000
     1.0000   1.0000   1.0000   1.0000   1.0000   1.0000   1.0000   1.0000
     1.0000   1.0000   1.0000   1.0000   1.0000   1.0000   1.0000   1.0000
     1.0000   1.0000   1.0000   1.0000   0.0000   0.0000   0.0000   0.0000
     0.0000   0.0000   0.0000   0.0000

          k =-0.2652-0.3536 0.3536 (  6209 PWs)   bands (ev):

   -16.1812 -16.1812 -16.1517 -16.1517 -16.1360 -16.1360 -16.1048 -16.1048
   -15.1733 -15.1733 -15.1594 -15.1594 -15.1282 -15.1282 -15.0403 -15.0403
   -15.0234 -15.0234 -15.0126 -15.0126  -2.4523  -2.4523   0.0772   0.0772
     4.4320   4.4320   4.9336   4.9336   5.9033   5.9033   8.7945   8.7945
     9.0299   9.0299  11.5037  11.5037

     occupation numbers 
     1.0000   1.0000   1.0000   1.0000   1.0000   1.0000   1.0000   1.0000
     1.0000   1.0000   1.0000   1.0000   1.0000   1.0000   1.0000   1.0000
     1.0000   1.0000   1.0000   1.0000   1.0000   1.0000   1.0000   1.0000
     1.0000   1.0000   1.0000   1.0000   0.0000   0.0000   0.0000   0.0000
     0.0000   0.0000   0.0000   0.0000

          k =-0.2210-0.3094 0.3094 (  6204 PWs)   bands (ev):

   -16.1808 -16.1808 -16.1555 -16.1555 -16.1322 -16.1322 -16.1055 -16.1055
   -15.1817 -15.1817 -15.1513 -15.1513 -15.1263 -15.1263 -15.0424 -15.0424
   -15.0274 -15.0274 -15.0087 -15.0087  -2.6380  -2.6380   0.4010   0.4010
     4.4703   4.4703   5.0261   5.0261   5.9397   5.9397   8.7749   8.7749
     9.0125   9.0125  11.2143  11.2144

     occupation numbers 
     1.0000   1.0000   1.0000   1.0000   1.0000   1.0000   1.0000   1.0000
     1.0000   1.0000   1.0000   1.0000   1.0000   1.0000   1.0000   1.0000
     1.0000   1.0000   1.0000   1.0000   1.0000   1.0000   1.0000   1.0000
     1.0000   1.0000   1.0000   1.0000   0.0000   0.0000   0.0000   0.0000
     0.0000   0.0000   0.0000   0.0000

          k =-0.1768-0.2652 0.2652 (  6191 PWs)   bands (ev):

   -16.1799 -16.1799 -16.1601 -16.1601 -16.1277 -16.1277 -16.1066 -16.1066
   -15.1905 -15.1905 -15.1426 -15.1426 -15.1229 -15.1229 -15.0458 -15.0458
   -15.0327 -15.0327 -15.0039 -15.0039  -2.8894  -2.8894   0.9035   0.9035
     4.5625   4.5625   5.1622   5.1622   6.0129   6.0129   8.6901   8.6901
     8.9781   8.9781  10.5568  10.5568

     occupation numbers 
     1.0000   1.0000   1.0000   1.0000   1.0000   1.0000   1.0000   1.0000
     1.0000   1.0000   1.0000   1.0000   1.0000   1.0000   1.0000   1.0000
     1.0000   1.0000   1.0000   1.0000   1.0000   1.0000   1.0000   1.0000
     1.0000   1.0000   1.0000   1.0000   0.0000   0.0000   0.0000   0.0000
     0.0000   0.0000   0.0000   0.0000

          k =-0.1326-0.2210 0.2210 (  6196 PWs)   bands (ev):

   -16.1788 -16.1788 -16.1646 -16.1646 -16.1234 -16.1234 -16.1082 -16.1082
   -15.1991 -15.1991 -15.1335 -15.1335 -15.1182 -15.1182 -15.0503 -15.0503
   -15.0393 -15.0393 -14.9990 -14.9990  -3.1409  -3.1409   1.5080   1.5080
     4.7084   4.7084   5.3324   5.3324   6.1104   6.1104   8.5311   8.5311
     8.8580   8.8580   9.8724   9.8724

     occupation numbers 
     1.0000   1.0000   1.0000   1.0000   1.0000   1.0000   1.0000   1.0000
     1.0000   1.0000   1.0000   1.0000   1.0000   1.0000   1.0000   1.0000
     1.0000   1.0000   1.0000   1.0000   1.0000   1.0000   1.0000   1.0000
     1.0000   1.0000   1.0000   1.0000   0.0000   0.0000   0.0000   0.0000
     0.0000   0.0000   0.0000   0.0000

          k =-0.0884-0.1768 0.1768 (  6192 PWs)   bands (ev):

   -16.1776 -16.1776 -16.1685 -16.1685 -16.1197 -16.1197 -16.1098 -16.1098
   -15.2067 -15.2067 -15.1241 -15.1241 -15.1127 -15.1127 -15.0555 -15.0555
   -15.0470 -15.0470 -14.9945 -14.9945  -3.3592  -3.3592   2.1609   2.1609
     4.9043   4.9043   5.5207   5.5207   6.2052   6.2052   8.3081   8.3081
     8.6008   8.6008   9.2891   9.2891

     occupation numbers 
     1.0000   1.0000   1.0000   1.0000   1.0000   1.0000   1.0000   1.0000
     1.0000   1.0000   1.0000   1.0000   1.0000   1.0000   1.0000   1.0000
     1.0000   1.0000   1.0000   1.0000   1.0000   1.0000   1.0000   1.0000
     1.0000   1.0000   1.0000   1.0000   0.0000   0.0000   0.0000   0.0000
     0.0000   0.0000   0.0000   0.0000

          k =-0.0442-0.1326 0.1326 (  6180 PWs)   bands (ev):

   -16.1764 -16.1764 -16.1715 -16.1715 -16.1167 -16.1167 -16.1114 -16.1114
   -15.2130 -15.2130 -15.1145 -15.1145 -15.1068 -15.1068 -15.0610 -15.0610
   -15.0553 -15.0552 -14.9908 -14.9908  -3.5284  -3.5284   2.8083   2.8083
     5.1382   5.1382   5.7007   5.7007   6.2470   6.2470   8.0541   8.0541
     8.2916   8.2916   8.8070   8.8070

     occupation numbers 
     1.0000   1.0000   1.0000   1.0000   1.0000   1.0000   1.0000   1.0000
     1.0000   1.0000   1.0000   1.0000   1.0000   1.0000   1.0000   1.0000
     1.0000   1.0000   1.0000   1.0000   1.0000   1.0000   1.0000   1.0000
     1.0000   1.0000   1.0000   1.0000   0.0000   0.0000   0.0000   0.0000
     0.0000   0.0000   0.0000   0.0000

          k = 0.0000-0.0884 0.0884 (  6183 PWs)   bands (ev):

   -16.1756 -16.1756 -16.1736 -16.1736 -16.1148 -16.1148 -16.1126 -16.1126
   -15.2173 -15.2173 -15.1057 -15.1057 -15.1016 -15.1016 -15.0661 -15.0661
   -15.0633 -15.0633 -14.9882 -14.9882  -3.6408  -3.6408   3.3689   3.3689
     5.3653   5.3653   5.8476   5.8476   6.1819   6.1819   7.8266   7.8266
     8.1159   8.1159   8.3923   8.3923

     occupation numbers 
     1.0000   1.0000   1.0000   1.0000   1.0000   1.0000   1.0000   1.0000
     1.0000   1.0000   1.0000   1.0000   1.0000   1.0000   1.0000   1.0000
     1.0000   1.0000   1.0000   1.0000   1.0000   1.0000   1.0000   1.0000
     1.0000   1.0000   0.0000   0.0000   0.0000   0.0000   0.0000   0.0000
     0.0000   0.0000   0.0000   0.0000

          k = 0.1768 0.0000 0.0000 (  6186 PWs)   bands (ev):

   -16.1749 -16.1749 -16.1735 -16.1735 -16.1149 -16.1149 -16.1129 -16.1129
   -15.2141 -15.2141 -15.1129 -15.1129 -15.1049 -15.1049 -15.0600 -15.0600
   -15.0598 -15.0598 -14.9899 -14.9899  -3.5577  -3.5577   2.9884   2.9884
     5.1568   5.1568   5.4195   5.4195   6.7571   6.7571   7.4481   7.4481
     8.6036   8.6036   8.7194   8.7194

     occupation numbers 
     1.0000   1.0000   1.0000   1.0000   1.0000   1.0000   1.0000   1.0000
     1.0000   1.0000   1.0000   1.0000   1.0000   1.0000   1.0000   1.0000
     1.0000   1.0000   1.0000   1.0000   1.0000   1.0000   1.0000   1.0000
     1.0000   1.0000   1.0000   1.0000   0.0000   0.0000   0.0000   0.0000
     0.0000   0.0000   0.0000   0.0000

          k = 0.2210 0.0442-0.0442 (  6187 PWs)   bands (ev):

   -16.1757 -16.1757 -16.1717 -16.1717 -16.1166 -16.1166 -16.1119 -16.1119
   -15.2099 -15.2099 -15.1201 -15.1201 -15.1087 -15.1087 -15.0577 -15.0577
   -15.0524 -15.0524 -14.9921 -14.9921  -3.4450  -3.4450   2.5391   2.5391
     4.9690   4.9690   5.1993   5.1993   6.9178   6.9178   7.4462   7.4462
     8.9386   8.9386   9.0590   9.0590

     occupation numbers 
     1.0000   1.0000   1.0000   1.0000   1.0000   1.0000   1.0000   1.0000
     1.0000   1.0000   1.0000   1.0000   1.0000   1.0000   1.0000   1.0000
     1.0000   1.0000   1.0000   1.0000   1.0000   1.0000   1.0000   1.0000
     1.0000   1.0000   1.0000   1.0000   0.0000   0.0000   0.0000   0.0000
     0.0000   0.0000   0.0000   0.0000

          k = 0.2652 0.0884-0.0884 (  6201 PWs)   bands (ev):

   -16.1769 -16.1769 -16.1686 -16.1686 -16.1196 -16.1196 -16.1102 -16.1102
   -15.2039 -15.2039 -15.1285 -15.1285 -15.1130 -15.1130 -15.0553 -15.0552
   -15.0442 -15.0442 -14.9952 -14.9952  -3.2756  -3.2756   1.9741   1.9741
     4.7449   4.7449   4.9952   4.9952   6.8905   6.8906   7.6855   7.6855
     9.2204   9.2204   9.4542   9.4542

     occupation numbers 
     1.0000   1.0000   1.0000   1.0000   1.0000   1.0000   1.0000   1.0000
     1.0000   1.0000   1.0000   1.0000   1.0000   1.0000   1.0000   1.0000
     1.0000   1.0000   1.0000   1.0000   1.0000   1.0000   1.0000   1.0000
     1.0000   1.0000   1.0000   1.0000   0.0000   0.0000   0.0000   0.0000
     0.0000   0.0000   0.0000   0.0000

          k = 0.3094 0.1326-0.1326 (  6205 PWs)   bands (ev):

   -16.1783 -16.1783 -16.1647 -16.1647 -16.1234 -16.1234 -16.1084 -16.1084
   -15.1966 -15.1966 -15.1369 -15.1369 -15.1173 -15.1173 -15.0530 -15.0530
   -15.0366 -15.0366 -14.9988 -14.9988  -3.0570  -3.0570   1.3783   1.3783
     4.5089   4.5089   4.8357   4.8357   6.7829   6.7829   8.0308   8.0308
     9.3970   9.3970   9.8025   9.8025

     occupation numbers 
     1.0000   1.0000   1.0000   1.0000   1.0000   1.0000   1.0000   1.0000
     1.0000   1.0000   1.0000   1.0000   1.0000   1.0000   1.0000   1.0000
     1.0000   1.0000   1.0000   1.0000   1.0000   1.0000   1.0000   1.0000
     1.0000   1.0000   1.0000   1.0000   0.0000   0.0000   0.0000   0.0000
     0.0000   0.0000   0.0000   0.0000

          k = 0.3536 0.1768-0.1768 (  6192 PWs)   bands (ev):

   -16.1795 -16.1795 -16.1602 -16.1602 -16.1278 -16.1278 -16.1067 -16.1067
   -15.1886 -15.1886 -15.1448 -15.1448 -15.1212 -15.1212 -15.0511 -15.0511
   -15.0303 -15.0303 -15.0022 -15.0022  -2.8048  -2.8048   0.8115   0.8115
     4.2924   4.2924   4.7336   4.7337   6.6617   6.6617   8.3481   8.3481
     9.4571   9.4571  10.1653  10.1653

     occupation numbers 
     1.0000   1.0000   1.0000   1.0000   1.0000   1.0000   1.0000   1.0000
     1.0000   1.0000   1.0000   1.0000   1.0000   1.0000   1.0000   1.0000
     1.0000   1.0000   1.0000   1.0000   1.0000   1.0000   1.0000   1.0000
     1.0000   1.0000   1.0000   1.0000   0.0000   0.0000   0.0000   0.0000
     0.0000   0.0000   0.0000   0.0000

          k = 0.3977 0.2210-0.2210 (  6214 PWs)   bands (ev):

   -16.1804 -16.1804 -16.1556 -16.1556 -16.1324 -16.1324 -16.1053 -16.1053
   -15.1808 -15.1808 -15.1519 -15.1519 -15.1242 -15.1242 -15.0499 -15.0499
   -15.0259 -15.0259 -15.0049 -15.0049  -2.5519  -2.5519   0.3320   0.3320
     4.1174   4.1174   4.6896   4.6896   6.5582   6.5582   8.5645   8.5645
     9.4289   9.4289  10.6406  10.6406

     occupation numbers 
     1.0000   1.0000   1.0000   1.0000   1.0000   1.0000   1.0000   1.0000
     1.0000   1.0000   1.0000   1.0000   1.0000   1.0000   1.0000   1.0000
     1.0000   1.0000   1.0000   1.0000   1.0000   1.0000   1.0000   1.0000
     1.0000   1.0000   1.0000   1.0000   0.0000   0.0000   0.0000   0.0000
     0.0000   0.0000   0.0000   0.0000

          k =-0.2652-0.4419 0.4419 (  6213 PWs)   bands (ev):

   -16.1810 -16.1810 -16.1516 -16.1515 -16.1365 -16.1364 -16.1045 -16.1045
   -15.1743 -15.1743 -15.1577 -15.1577 -15.1259 -15.1259 -15.0494 -15.0494
   -15.0235 -15.0235 -15.0064 -15.0064  -2.3647  -2.3647   0.0198   0.0198
     3.9956   3.9956   4.7021   4.7021   6.4870   6.4870   8.6985   8.6985
     9.3528   9.3528  11.1604  11.1605

     occupation numbers 
     1.0000   1.0000   1.0000   1.0000   1.0000   1.0000   1.0000   1.0000
     1.0000   1.0000   1.0000   1.0000   1.0000   1.0000   1.0000   1.0000
     1.0000   1.0000   1.0000   1.0000   1.0000   1.0000   1.0000   1.0000
     1.0000   1.0000   1.0000   1.0000   0.0000   0.0000   0.0000   0.0000
     0.0000   0.0000   0.0000   0.0000

          k =-0.2210-0.3977 0.3977 (  6204 PWs)   bands (ev):

   -16.1811 -16.1811 -16.1504 -16.1503 -16.1377 -16.1376 -16.1043 -16.1043
   -15.1731 -15.1730 -15.1589 -15.1589 -15.1260 -15.1260 -15.0496 -15.0496
   -15.0228 -15.0228 -15.0067 -15.0067  -2.3349  -2.3349  -0.0269  -0.0269
     3.9340   3.9340   4.7685   4.7685   6.4536   6.4536   8.7954   8.7954
     9.2551   9.2551  11.4293  11.4293

     occupation numbers 
     1.0000   1.0000   1.0000   1.0000   1.0000   1.0000   1.0000   1.0000
     1.0000   1.0000   1.0000   1.0000   1.0000   1.0000   1.0000   1.0000
     1.0000   1.0000   1.0000   1.0000   1.0000   1.0000   1.0000   1.0000
     1.0000   1.0000   1.0000   1.0000   0.0000   0.0000   0.0000   0.0000
     0.0000   0.0000   0.0000   0.0000

          k =-0.1768-0.3536 0.3536 (  6203 PWs)   bands (ev):

   -16.1809 -16.1809 -16.1534 -16.1533 -16.1348 -16.1347 -16.1047 -16.1047
   -15.1785 -15.1785 -15.1541 -15.1541 -15.1244 -15.1244 -15.0506 -15.0506
   -15.0239 -15.0239 -15.0058 -15.0058  -2.4818  -2.4818   0.2115   0.2115
     3.9379   3.9379   4.8840   4.8840   6.4575   6.4575   8.8664   8.8664
     9.1475   9.1475  11.1166  11.1166

     occupation numbers 
     1.0000   1.0000   1.0000   1.0000   1.0000   1.0000   1.0000   1.0000
     1.0000   1.0000   1.0000   1.0000   1.0000   1.0000   1.0000   1.0000
     1.0000   1.0000   1.0000   1.0000   1.0000   1.0000   1.0000   1.0000
     1.0000   1.0000   1.0000   1.0000   0.0000   0.0000   0.0000   0.0000
     0.0000   0.0000   0.0000   0.0000

          k =-0.1326-0.3094 0.3094 (  6207 PWs)   bands (ev):

   -16.1802 -16.1802 -16.1578 -16.1578 -16.1304 -16.1304 -16.1057 -16.1057
   -15.1861 -15.1861 -15.1476 -15.1476 -15.1215 -15.1215 -15.0522 -15.0522
   -15.0271 -15.0271 -15.0036 -15.0036  -2.7231  -2.7231   0.6468   0.6468
     4.0128   4.0128   5.0409   5.0409   6.4911   6.4911   8.8539   8.8540
     9.0500   9.0500  10.5002  10.5002

     occupation numbers 
     1.0000   1.0000   1.0000   1.0000   1.0000   1.0000   1.0000   1.0000
     1.0000   1.0000   1.0000   1.0000   1.0000   1.0000   1.0000   1.0000
     1.0000   1.0000   1.0000   1.0000   1.0000   1.0000   1.0000   1.0000
     1.0000   1.0000   1.0000   1.0000   0.0000   0.0000   0.0000   0.0000
     0.0000   0.0000   0.0000   0.0000

          k =-0.0884-0.2652 0.2652 (  6197 PWs)   bands (ev):

   -16.1793 -16.1793 -16.1622 -16.1622 -16.1260 -16.1260 -16.1071 -16.1071
   -15.1941 -15.1941 -15.1401 -15.1401 -15.1177 -15.1177 -15.0543 -15.0543
   -15.0323 -15.0323 -15.0004 -15.0004  -2.9801  -2.9801   1.1871   1.1871
     4.1658   4.1658   5.2267   5.2267   6.5354   6.5354   8.6938   8.6938
     8.9271   8.9271   9.9562   9.9562

     occupation numbers 
     1.0000   1.0000   1.0000   1.0000   1.0000   1.0000   1.0000   1.0000
     1.0000   1.0000   1.0000   1.0000   1.0000   1.0000   1.0000   1.0000
     1.0000   1.0000   1.0000   1.0000   1.0000   1.0000   1.0000   1.0000
     1.0000   1.0000   1.0000   1.0000   0.0000   0.0000   0.0000   0.0000
     0.0000   0.0000   0.0000   0.0000

          k =-0.0442-0.2210 0.2210 (  6191 PWs)   bands (ev):

   -16.1782 -16.1782 -16.1662 -16.1662 -16.1220 -16.1220 -16.1087 -16.1087
   -15.2017 -15.2017 -15.1318 -15.1318 -15.1136 -15.1136 -15.0566 -15.0566
   -15.0392 -15.0392 -14.9968 -14.9968  -3.2114  -3.2114   1.7669   1.7669
     4.4055   4.4055   5.4203   5.4203   6.5497   6.5497   8.4567   8.4567
     8.6540   8.6540   9.6000   9.6000

     occupation numbers 
     1.0000   1.0000   1.0000   1.0000   1.0000   1.0000   1.0000   1.0000
     1.0000   1.0000   1.0000   1.0000   1.0000   1.0000   1.0000   1.0000
     1.0000   1.0000   1.0000   1.0000   1.0000   1.0000   1.0000   1.0000
     1.0000   1.0000   1.0000   1.0000   0.0000   0.0000   0.0000   0.0000
     0.0000   0.0000   0.0000   0.0000

          k = 0.0000-0.1768 0.1768 (  6199 PWs)   bands (ev):

   -16.1772 -16.1772 -16.1694 -16.1694 -16.1189 -16.1189 -16.1103 -16.1103
   -15.2082 -15.2082 -15.1230 -15.1230 -15.1098 -15.1098 -15.0590 -15.0590
   -15.0472 -15.0472 -14.9935 -14.9935  -3.3974  -3.3974   2.3285   2.3285
     4.7379   4.7379   5.5885   5.5885   6.4666   6.4666   8.2133   8.2133
     8.3878   8.3878   9.2612   9.2612

     occupation numbers 
     1.0000   1.0000   1.0000   1.0000   1.0000   1.0000   1.0000   1.0000
     1.0000   1.0000   1.0000   1.0000   1.0000   1.0000   1.0000   1.0000
     1.0000   1.0000   1.0000   1.0000   1.0000   1.0000   1.0000   1.0000
     1.0000   1.0000   1.0000   1.0000   0.0000   0.0000   0.0000   0.0000
     0.0000   0.0000   0.0000   0.0000

          k = 0.2652 0.0000 0.0000 (  6190 PWs)   bands (ev):

   -16.1747 -16.1747 -16.1719 -16.1719 -16.1164 -16.1164 -16.1125 -16.1125
   -15.2066 -15.2066 -15.1250 -15.1250 -15.1109 -15.1109 -15.0549 -15.0549
   -15.0497 -15.0497 -14.9934 -14.9934  -3.3516  -3.3516   2.2588   2.2588
     4.8054   4.8054   4.9805   4.9805   7.1539   7.1539   7.2563   7.2563
     9.2948   9.2948   9.3478   9.3478

     occupation numbers 
     1.0000   1.0000   1.0000   1.0000   1.0000   1.0000   1.0000   1.0000
     1.0000   1.0000   1.0000   1.0000   1.0000   1.0000   1.0000   1.0000
     1.0000   1.0000   1.0000   1.0000   1.0000   1.0000   1.0000   1.0000
     1.0000   1.0000   1.0000   1.0000   0.0000   0.0000   0.0000   0.0000
     0.0000   0.0000   0.0000   0.0000

          k = 0.3094 0.0442-0.0442 (  6193 PWs)   bands (ev):

   -16.1755 -16.1755 -16.1698 -16.1698 -16.1184 -16.1184 -16.1114 -16.1114
   -15.2014 -15.2014 -15.1316 -15.1316 -15.1137 -15.1137 -15.0546 -15.0546
   -15.0430 -15.0430 -14.9954 -14.9954  -3.2000  -3.2000   1.8257   1.8257
     4.6030   4.6030   4.7759   4.7759   7.1154   7.1154   7.4016   7.4016
     9.6185   9.6185   9.6718   9.6718

     occupation numbers 
     1.0000   1.0000   1.0000   1.0000   1.0000   1.0000   1.0000   1.0000
     1.0000   1.0000   1.0000   1.0000   1.0000   1.0000   1.0000   1.0000
     1.0000   1.0000   1.0000   1.0000   1.0000   1.0000   1.0000   1.0000
     1.0000   1.0000   1.0000   1.0000   0.0000   0.0000   0.0000   0.0000
     0.0000   0.0000   0.0000   0.0000

          k = 0.3536 0.0884-0.0884 (  6207 PWs)   bands (ev):

   -16.1769 -16.1769 -16.1663 -16.1663 -16.1218 -16.1218 -16.1096 -16.1096
   -15.1950 -15.1950 -15.1388 -15.1387 -15.1163 -15.1163 -15.0554 -15.0554
   -15.0356 -15.0356 -14.9978 -14.9978  -2.9961  -2.9961   1.3193   1.3193
     4.3428   4.3429   4.6124   4.6124   7.1169   7.1169   7.6308   7.6308
     9.7857   9.7857   9.8790   9.8790

     occupation numbers 
     1.0000   1.0000   1.0000   1.0000   1.0000   1.0000   1.0000   1.0000
     1.0000   1.0000   1.0000   1.0000   1.0000   1.0000   1.0000   1.0000
     1.0000   1.0000   1.0000   1.0000   1.0000   1.0000   1.0000   1.0000
     1.0000   1.0000   1.0000   1.0000   0.0000   0.0000   0.0000   0.0000
     0.0000   0.0000   0.0000   0.0000

          k = 0.3977 0.1326-0.1326 (  6208 PWs)   bands (ev):

   -16.1783 -16.1783 -16.1622 -16.1622 -16.1260 -16.1260 -16.1076 -16.1076
   -15.1880 -15.1880 -15.1454 -15.1454 -15.1186 -15.1186 -15.0566 -15.0566
   -15.0296 -15.0295 -14.9997 -14.9997  -2.7516  -2.7516   0.8022   0.8022
     4.0667   4.0667   4.5127   4.5127   7.0402   7.0402   8.0303   8.0303
     9.8417   9.8417   9.9777   9.9777

     occupation numbers 
     1.0000   1.0000   1.0000   1.0000   1.0000   1.0000   1.0000   1.0000
     1.0000   1.0000   1.0000   1.0000   1.0000   1.0000   1.0000   1.0000
     1.0000   1.0000   1.0000   1.0000   1.0000   1.0000   1.0000   1.0000
     1.0000   1.0000   1.0000   1.0000   0.0000   0.0000   0.0000   0.0000
     0.0000   0.0000   0.0000   0.0000

          k = 0.4419 0.1768-0.1768 (  6206 PWs)   bands (ev):

   -16.1795 -16.1795 -16.1577 -16.1576 -16.1307 -16.1306 -16.1059 -16.1059
   -15.1814 -15.1814 -15.1509 -15.1509 -15.1207 -15.1207 -15.0580 -15.0580
   -15.0255 -15.0255 -15.0008 -15.0008  -2.4914  -2.4914   0.3308   0.3308
     3.8244   3.8245   4.4735   4.4735   6.9517   6.9517   8.4396   8.4396
     9.9052   9.9052  10.0650  10.0650

     occupation numbers 
     1.0000   1.0000   1.0000   1.0000   1.0000   1.0000   1.0000   1.0000
     1.0000   1.0000   1.0000   1.0000   1.0000   1.0000   1.0000   1.0000
     1.0000   1.0000   1.0000   1.0000   1.0000   1.0000   1.0000   1.0000
     1.0000   1.0000   1.0000   1.0000   0.0000   0.0000   0.0000   0.0000
     0.0000   0.0000   0.0000   0.0000

          k =-0.2210-0.4861 0.4861 (  6216 PWs)   bands (ev):

   -16.1803 -16.1803 -16.1532 -16.1532 -16.1353 -16.1352 -16.1046 -16.1046
   -15.1764 -15.1764 -15.1547 -15.1547 -15.1220 -15.1220 -15.0592 -15.0592
   -15.0235 -15.0235 -15.0009 -15.0009  -2.2694  -2.2694  -0.0224  -0.0224
     3.6406   3.6406   4.4927   4.4927   6.8850   6.8850   8.7260   8.7260
     9.8314   9.8314  10.4397  10.4397

     occupation numbers 
     1.0000   1.0000   1.0000   1.0000   1.0000   1.0000   1.0000   1.0000
     1.0000   1.0000   1.0000   1.0000   1.0000   1.0000   1.0000   1.0000
     1.0000   1.0000   1.0000   1.0000   1.0000   1.0000   1.0000   1.0000
     1.0000   1.0000   1.0000   1.0000   0.0000   0.0000   0.0000   0.0000
     0.0000   0.0000   0.0000   0.0000

          k =-0.1768-0.4419 0.4419 (  6207 PWs)   bands (ev):

   -16.1808 -16.1808 -16.1501 -16.1500 -16.1385 -16.1384 -16.1039 -16.1039
   -15.1746 -15.1746 -15.1561 -15.1561 -15.1223 -15.1222 -15.0601 -15.0600
   -15.0228 -15.0228 -15.0008 -15.0008  -2.1803  -2.1803  -0.1534  -0.1533
     3.5279   3.5279   4.5677   4.5677   6.8500   6.8500   8.8935   8.8936
     9.6977   9.6977  10.9382  10.9382

     occupation numbers 
     1.0000   1.0000   1.0000   1.0000   1.0000   1.0000   1.0000   1.0000
     1.0000   1.0000   1.0000   1.0000   1.0000   1.0000   1.0000   1.0000
     1.0000   1.0000   1.0000   1.0000   1.0000   1.0000   1.0000   1.0000
     1.0000   1.0000   1.0000   1.0000   0.0000   0.0000   0.0000   0.0000
     0.0000   0.0000   0.0000   0.0000

          k =-0.1326-0.3977 0.3977 (  6203 PWs)   bands (ev):

   -16.1808 -16.1808 -16.1510 -16.1510 -16.1376 -16.1375 -16.1039 -16.1039
   -15.1768 -15.1768 -15.1548 -15.1548 -15.1212 -15.1211 -15.0603 -15.0603
   -15.0228 -15.0228 -15.0010 -15.0010  -2.2828  -2.2828  -0.0018  -0.0018
     3.4958   3.4958   4.6933   4.6933   6.8447   6.8447   9.0121   9.0121
     9.5289   9.5289  10.9480  10.9481

     occupation numbers 
     1.0000   1.0000   1.0000   1.0000   1.0000   1.0000   1.0000   1.0000
     1.0000   1.0000   1.0000   1.0000   1.0000   1.0000   1.0000   1.0000
     1.0000   1.0000   1.0000   1.0000   1.0000   1.0000   1.0000   1.0000
     1.0000   1.0000   1.0000   1.0000   0.0000   0.0000   0.0000   0.0000
     0.0000   0.0000   0.0000   0.0000

          k =-0.0884-0.3536 0.3536 (  6202 PWs)   bands (ev):

   -16.1805 -16.1805 -16.1549 -16.1548 -16.1338 -16.1337 -16.1046 -16.1046
   -15.1818 -15.1818 -15.1513 -15.1512 -15.1192 -15.1192 -15.0599 -15.0599
   -15.0239 -15.0239 -15.0013 -15.0012  -2.5099  -2.5099   0.3584   0.3584
     3.5546   3.5546   4.8609   4.8609   6.8553   6.8553   9.0939   9.0939
     9.3253   9.3253  10.3724  10.3725

     occupation numbers 
     1.0000   1.0000   1.0000   1.0000   1.0000   1.0000   1.0000   1.0000
     1.0000   1.0000   1.0000   1.0000   1.0000   1.0000   1.0000   1.0000
     1.0000   1.0000   1.0000   1.0000   1.0000   1.0000   1.0000   1.0000
     1.0000   1.0000   1.0000   1.0000   0.0000   0.0000   0.0000   0.0000
     0.0000   0.0000   0.0000   0.0000

          k =-0.0442-0.3094 0.3094 (  6205 PWs)   bands (ev):

   -16.1798 -16.1798 -16.1592 -16.1591 -16.1294 -16.1294 -16.1057 -16.1057
   -15.1884 -15.1884 -15.1460 -15.1460 -15.1170 -15.1170 -15.0591 -15.0591
   -15.0269 -15.0269 -15.0008 -15.0008  -2.7695  -2.7695   0.8198   0.8198
     3.7174   3.7174   5.0560   5.0560   6.8503   6.8503   9.0006   9.0006
     9.1322   9.1322   9.8748   9.8748

     occupation numbers 
     1.0000   1.0000   1.0000   1.0000   1.0000   1.0000   1.0000   1.0000
     1.0000   1.0000   1.0000   1.0000   1.0000   1.0000   1.0000   1.0000
     1.0000   1.0000   1.0000   1.0000   1.0000   1.0000   1.0000   1.0000
     1.0000   1.0000   1.0000   1.0000   0.0000   0.0000   0.0000   0.0000
     0.0000   0.0000   0.0000   0.0000

          k = 0.0000-0.2652 0.2652 (  6197 PWs)   bands (ev):

   -16.1790 -16.1790 -16.1631 -16.1630 -16.1254 -16.1254 -16.1072 -16.1072
   -15.1953 -15.1953 -15.1394 -15.1394 -15.1150 -15.1150 -15.0579 -15.0579
   -15.0321 -15.0321 -14.9992 -14.9992  -3.0111  -3.0111   1.3070   1.3070
     3.9988   3.9988   5.2546   5.2546   6.7703   6.7703   8.7248   8.7248
     8.8635   8.8635   9.7096   9.7096

     occupation numbers 
     1.0000   1.0000   1.0000   1.0000   1.0000   1.0000   1.0000   1.0000
     1.0000   1.0000   1.0000   1.0000   1.0000   1.0000   1.0000   1.0000
     1.0000   1.0000   1.0000   1.0000   1.0000   1.0000   1.0000   1.0000
     1.0000   1.0000   1.0000   1.0000   0.0000   0.0000   0.0000   0.0000
     0.0000   0.0000   0.0000   0.0000

          k = 0.3536 0.0000 0.0000 (  6206 PWs)   bands (ev):

   -16.1743 -16.1743 -16.1702 -16.1702 -16.1180 -16.1180 -16.1123 -16.1123
   -15.1972 -15.1972 -15.1362 -15.1362 -15.1153 -15.1153 -15.0547 -15.0547
   -15.0392 -15.0392 -14.9964 -14.9964  -3.0657  -3.0657   1.5169   1.5169
     4.4705   4.4705   4.5908   4.5908   6.8977   6.8977   7.5036   7.5036
    10.0354  10.0355  10.0432  10.0432

     occupation numbers 
     1.0000   1.0000   1.0000   1.0000   1.0000   1.0000   1.0000   1.0000
     1.0000   1.0000   1.0000   1.0000   1.0000   1.0000   1.0000   1.0000
     1.0000   1.0000   1.0000   1.0000   1.0000   1.0000   1.0000   1.0000
     1.0000   1.0000   1.0000   1.0000   0.0000   0.0000   0.0000   0.0000
     0.0000   0.0000   0.0000   0.0000

          k = 0.3977 0.0442-0.0442 (  6200 PWs)   bands (ev):

   -16.1750 -16.1750 -16.1681 -16.1681 -16.1200 -16.1199 -16.1113 -16.1113
   -15.1917 -15.1917 -15.1419 -15.1419 -15.1166 -15.1166 -15.0570 -15.0570
   -15.0333 -15.0333 -14.9977 -14.9977  -2.8771  -2.8771   1.1096   1.1096
     4.2762   4.2762   4.4204   4.4204   6.9095   6.9095   7.5252   7.5252
    10.2170  10.2170  10.3526  10.3526

     occupation numbers 
     1.0000   1.0000   1.0000   1.0000   1.0000   1.0000   1.0000   1.0000
     1.0000   1.0000   1.0000   1.0000   1.0000   1.0000   1.0000   1.0000
     1.0000   1.0000   1.0000   1.0000   1.0000   1.0000   1.0000   1.0000
     1.0000   1.0000   1.0000   1.0000   0.0000   0.0000   0.0000   0.0000
     0.0000   0.0000   0.0000   0.0000

          k = 0.4419 0.0884-0.0884 (  6213 PWs)   bands (ev):

   -16.1765 -16.1765 -16.1645 -16.1645 -16.1236 -16.1236 -16.1093 -16.1093
   -15.1858 -15.1858 -15.1473 -15.1473 -15.1173 -15.1173 -15.0607 -15.0607
   -15.0278 -15.0278 -14.9987 -14.9987  -2.6428  -2.6428   0.6631   0.6631
     3.9957   3.9957   4.3106   4.3106   7.0082   7.0082   7.6885   7.6885
    10.1453  10.1453  10.5208  10.5208

     occupation numbers 
     1.0000   1.0000   1.0000   1.0000   1.0000   1.0000   1.0000   1.0000
     1.0000   1.0000   1.0000   1.0000   1.0000   1.0000   1.0000   1.0000
     1.0000   1.0000   1.0000   1.0000   1.0000   1.0000   1.0000   1.0000
     1.0000   1.0000   1.0000   1.0000   0.0000   0.0000   0.0000   0.0000
     0.0000   0.0000   0.0000   0.0000

          k = 0.4861 0.1326-0.1326 (  6202 PWs)   bands (ev):

   -16.1780 -16.1780 -16.1603 -16.1603 -16.1281 -16.1280 -16.1071 -16.1071
   -15.1805 -15.1805 -15.1513 -15.1513 -15.1176 -15.1176 -15.0647 -15.0646
   -15.0242 -15.0242 -14.9986 -14.9986  -2.3810  -2.3810   0.2281   0.2281
     3.7016   3.7016   4.2668   4.2668   7.0120   7.0120   8.1249   8.1249
    10.0608  10.0608  10.5399  10.5399

     occupation numbers 
     1.0000   1.0000   1.0000   1.0000   1.0000   1.0000   1.0000   1.0000
     1.0000   1.0000   1.0000   1.0000   1.0000   1.0000   1.0000   1.0000
     1.0000   1.0000   1.0000   1.0000   1.0000   1.0000   1.0000   1.0000
     1.0000   1.0000   1.0000   1.0000   0.0000   0.0000   0.0000   0.0000
     0.0000   0.0000   0.0000   0.0000

          k =-0.1768-0.5303 0.5303 (  6210 PWs)   bands (ev):

   -16.1792 -16.1792 -16.1559 -16.1559 -16.1327 -16.1327 -16.1053 -16.1053
   -15.1771 -15.1771 -15.1533 -15.1533 -15.1176 -15.1176 -15.0681 -15.0681
   -15.0227 -15.0227 -14.9976 -14.9976  -2.1337  -2.1337  -0.1348  -0.1348
[...]

     occupation numbers 
     1.0000   1.0000   1.0000   1.0000   1.0000   1.0000   1.0000   1.0000
     1.0000   1.0000   1.0000   1.0000   1.0000   1.0000   1.0000   1.0000
     1.0000   1.0000   1.0000   1.0000   1.0000   1.0000   1.0000   1.0000
     1.0000   1.0000   1.0000   1.0000   0.0000   0.0000   0.0000   0.0000
     0.0000   0.0000   0.0000   0.0000

          k =-0.1326-0.3977 0.5745 (  6199 PWs)   bands (ev):

   -16.1800 -16.1800 -16.1513 -16.1512 -16.1379 -16.1378 -16.1038 -16.1038
   -15.1768 -15.1768 -15.1519 -15.1519 -15.1155 -15.1155 -15.0739 -15.0739
   -15.0230 -15.0230 -14.9949 -14.9949  -1.9104  -1.9104  -0.4014  -0.4014
     3.2520   3.2520   4.1238   4.1239   7.5139   7.5139   8.8166   8.8166
    10.0166  10.0166  10.5882  10.5882

     occupation numbers 
     1.0000   1.0000   1.0000   1.0000   1.0000   1.0000   1.0000   1.0000
     1.0000   1.0000   1.0000   1.0000   1.0000   1.0000   1.0000   1.0000
     1.0000   1.0000   1.0000   1.0000   1.0000   1.0000   1.0000   1.0000
     1.0000   1.0000   1.0000   1.0000   0.0000   0.0000   0.0000   0.0000
     0.0000   0.0000   0.0000   0.0000

          k =-0.0884-0.3536 0.5303 (  6195 PWs)   bands (ev):

   -16.1802 -16.1802 -16.1508 -16.1507 -16.1384 -16.1383 -16.1036 -16.1036
   -15.1771 -15.1771 -15.1519 -15.1519 -15.1155 -15.1154 -15.0735 -15.0735
   -15.0231 -15.0231 -14.9950 -14.9950  -1.9581  -1.9581  -0.3408  -0.3408
     3.2256   3.2256   4.1830   4.1830   7.5315   7.5315   8.8456   8.8457
    10.0398  10.0399  10.5499  10.5499

     occupation numbers 
     1.0000   1.0000   1.0000   1.0000   1.0000   1.0000   1.0000   1.0000
     1.0000   1.0000   1.0000   1.0000   1.0000   1.0000   1.0000   1.0000
     1.0000   1.0000   1.0000   1.0000   1.0000   1.0000   1.0000   1.0000
     1.0000   1.0000   1.0000   1.0000   0.0000   0.0000   0.0000   0.0000
     0.0000   0.0000   0.0000   0.0000

          k =-0.0442-0.3094 0.4861 (  6196 PWs)   bands (ev):

   -16.1800 -16.1800 -16.1533 -16.1533 -16.1357 -16.1356 -16.1041 -16.1041
   -15.1786 -15.1786 -15.1520 -15.1520 -15.1158 -15.1158 -15.0704 -15.0704
   -15.0234 -15.0234 -14.9964 -14.9964  -2.1703  -2.1703  -0.0619  -0.0619
     3.2923   3.2923   4.3059   4.3059   7.5467   7.5467   8.7120   8.7120
     9.6182   9.6182  10.7024  10.7024

     occupation numbers 
     1.0000   1.0000   1.0000   1.0000   1.0000   1.0000   1.0000   1.0000
     1.0000   1.0000   1.0000   1.0000   1.0000   1.0000   1.0000   1.0000
     1.0000   1.0000   1.0000   1.0000   1.0000   1.0000   1.0000   1.0000
     1.0000   1.0000   1.0000   1.0000   0.0000   0.0000   0.0000   0.0000
     0.0000   0.0000   0.0000   0.0000

          k = 0.0000-0.2652 0.4419 (  6197 PWs)   bands (ev):

   -16.1796 -16.1796 -16.1569 -16.1568 -16.1319 -16.1319 -16.1051 -16.1051
   -15.1818 -15.1818 -15.1506 -15.1506 -15.1165 -15.1165 -15.0655 -15.0655
   -15.0245 -15.0245 -14.9982 -14.9982  -2.4323  -2.4323   0.3097   0.3097
     3.4649   3.4649   4.4703   4.4703   7.5052   7.5052   8.3813   8.3813
     9.5096   9.5096  10.5065  10.5065

     occupation numbers 
     1.0000   1.0000   1.0000   1.0000   1.0000   1.0000   1.0000   1.0000
     1.0000   1.0000   1.0000   1.0000   1.0000   1.0000   1.0000   1.0000
     1.0000   1.0000   1.0000   1.0000   1.0000   1.0000   1.0000   1.0000
     1.0000   1.0000   1.0000   1.0000   0.0000   0.0000   0.0000   0.0000
     0.0000   0.0000   0.0000   0.0000

          k =-0.1768-0.5303 0.7071 (  6194 PWs)   bands (ev):

   -16.1774 -16.1774 -16.1604 -16.1603 -16.1281 -16.1281 -16.1073 -16.1073
   -15.1784 -15.1784 -15.1526 -15.1526 -15.1144 -15.1144 -15.0718 -15.0718
   -15.0221 -15.0221 -14.9970 -14.9970  -2.1698  -2.1698  -0.0443  -0.0443
     3.6077   3.6077   4.0150   4.0150   7.4111   7.4111   7.6912   7.6912
    10.0384  10.0384  11.3483  11.3483

     occupation numbers 
     1.0000   1.0000   1.0000   1.0000   1.0000   1.0000   1.0000   1.0000
     1.0000   1.0000   1.0000   1.0000   1.0000   1.0000   1.0000   1.0000
     1.0000   1.0000   1.0000   1.0000   1.0000   1.0000   1.0000   1.0000
     1.0000   1.0000   1.0000   1.0000   0.0000   0.0000   0.0000   0.0000
     0.0000   0.0000   0.0000   0.0000

          k =-0.1326-0.4861 0.6629 (  6195 PWs)   bands (ev):

   -16.1783 -16.1783 -16.1571 -16.1571 -16.1317 -16.1317 -16.1057 -16.1057
   -15.1771 -15.1771 -15.1523 -15.1523 -15.1120 -15.1120 -15.0779 -15.0779
   -15.0218 -15.0217 -14.9949 -14.9949  -1.9022  -1.9022  -0.3854  -0.3854
     3.4095   3.4095   3.9095   3.9095   7.5280   7.5280   8.1344   8.1344
     9.9017   9.9017  11.3139  11.3139

     occupation numbers 
     1.0000   1.0000   1.0000   1.0000   1.0000   1.0000   1.0000   1.0000
     1.0000   1.0000   1.0000   1.0000   1.0000   1.0000   1.0000   1.0000
     1.0000   1.0000   1.0000   1.0000   1.0000   1.0000   1.0000   1.0000
     1.0000   1.0000   1.0000   1.0000   0.0000   0.0000   0.0000   0.0000
     0.0000   0.0000   0.0000   0.0000

          k =-0.0884-0.4419 0.6187 (  6193 PWs)   bands (ev):

   -16.1792 -16.1791 -16.1538 -16.1537 -16.1353 -16.1353 -16.1045 -16.1044
   -15.1772 -15.1772 -15.1509 -15.1509 -15.1101 -15.1101 -15.0821 -15.0821
   -15.0223 -15.0223 -14.9932 -14.9932  -1.6956  -1.6956  -0.6270  -0.6270
     3.2405   3.2405   3.8991   3.8991   7.5594   7.5594   8.7604   8.7604
     9.8407   9.8407  10.8490  10.8490

     occupation numbers 
     1.0000   1.0000   1.0000   1.0000   1.0000   1.0000   1.0000   1.0000
     1.0000   1.0000   1.0000   1.0000   1.0000   1.0000   1.0000   1.0000
     1.0000   1.0000   1.0000   1.0000   1.0000   1.0000   1.0000   1.0000
     1.0000   1.0000   1.0000   1.0000   0.0000   0.0000   0.0000   0.0000
     0.0000   0.0000   0.0000   0.0000

          k =-0.0442-0.3977 0.5745 (  6195 PWs)   bands (ev):

   -16.1797 -16.1797 -16.1514 -16.1513 -16.1380 -16.1379 -16.1037 -16.1037
   -15.1776 -15.1776 -15.1503 -15.1503 -15.1103 -15.1103 -15.0821 -15.0820
   -15.0228 -15.0228 -14.9927 -14.9927  -1.7000  -1.7000  -0.6201  -0.6201
     3.1448   3.1448   3.9751   3.9751   7.6012   7.6012   9.1873   9.1873
     9.9683   9.9683  10.2912  10.2912

     occupation numbers 
     1.0000   1.0000   1.0000   1.0000   1.0000   1.0000   1.0000   1.0000
     1.0000   1.0000   1.0000   1.0000   1.0000   1.0000   1.0000   1.0000
     1.0000   1.0000   1.0000   1.0000   1.0000   1.0000   1.0000   1.0000
     1.0000   1.0000   1.0000   1.0000   0.0000   0.0000   0.0000   0.0000
     0.0000   0.0000   0.0000   0.0000

          k = 0.0000-0.3536 0.5303 (  6192 PWs)   bands (ev):

   -16.1800 -16.1800 -16.1512 -16.1511 -16.1381 -16.1379 -16.1036 -16.1036
   -15.1778 -15.1778 -15.1510 -15.1510 -15.1127 -15.1127 -15.0775 -15.0775
   -15.0231 -15.0231 -14.9939 -14.9939  -1.9074  -1.9074  -0.3792  -0.3792
     3.1556   3.1556   4.1187   4.1187   7.6260   7.6260   9.1049   9.1049
     9.6748   9.6748  10.6228  10.6228

     occupation numbers 
     1.0000   1.0000   1.0000   1.0000   1.0000   1.0000   1.0000   1.0000
     1.0000   1.0000   1.0000   1.0000   1.0000   1.0000   1.0000   1.0000
     1.0000   1.0000   1.0000   1.0000   1.0000   1.0000   1.0000   1.0000
     1.0000   1.0000   1.0000   1.0000   0.0000   0.0000   0.0000   0.0000
     0.0000   0.0000   0.0000   0.0000

          k =-0.0884-0.5303 0.7071 (  6195 PWs)   bands (ev):

   -16.1769 -16.1769 -16.1598 -16.1598 -16.1287 -16.1287 -16.1073 -16.1073
   -15.1757 -15.1756 -15.1540 -15.1540 -15.1077 -15.1077 -15.0836 -15.0835
   -15.0192 -15.0192 -14.9956 -14.9956  -1.7014  -1.7014  -0.6277  -0.6277
     3.5358   3.5358   3.7697   3.7697   7.3754   7.3754   7.5926   7.5927
    10.5981  10.5981  11.6164  11.6164

     occupation numbers 
     1.0000   1.0000   1.0000   1.0000   1.0000   1.0000   1.0000   1.0000
     1.0000   1.0000   1.0000   1.0000   1.0000   1.0000   1.0000   1.0000
     1.0000   1.0000   1.0000   1.0000   1.0000   1.0000   1.0000   1.0000
     1.0000   1.0000   1.0000   1.0000   0.0000   0.0000   0.0000   0.0000
     0.0000   0.0000   0.0000   0.0000

          k =-0.0442-0.4861 0.6629 (  6192 PWs)   bands (ev):

   -16.1780 -16.1780 -16.1568 -16.1568 -16.1321 -16.1321 -16.1057 -16.1057
   -15.1766 -15.1766 -15.1518 -15.1518 -15.1043 -15.1042 -15.0890 -15.0890
   -15.0205 -15.0205 -14.9934 -14.9934  -1.4526  -1.4526  -0.8945  -0.8945
     3.3631   3.3631   3.7279   3.7279   7.4979   7.4979   8.1197   8.1197
    10.4462  10.4462  11.0543  11.0543

     occupation numbers 
     1.0000   1.0000   1.0000   1.0000   1.0000   1.0000   1.0000   1.0000
     1.0000   1.0000   1.0000   1.0000   1.0000   1.0000   1.0000   1.0000
     1.0000   1.0000   1.0000   1.0000   1.0000   1.0000   1.0000   1.0000
     1.0000   1.0000   1.0000   1.0000   0.0000   0.0000   0.0000   0.0000
     0.0000   0.0000   0.0000   0.0000

          k = 0.0000-0.4419 0.6187 (  6194 PWs)   bands (ev):

   -16.1790 -16.1790 -16.1538 -16.1537 -16.1355 -16.1354 -16.1044 -16.1044
   -15.1774 -15.1774 -15.1502 -15.1502 -15.1054 -15.1053 -15.0885 -15.0884
   -15.0219 -15.0219 -14.9922 -14.9922  -1.4601  -1.4601  -0.8801  -0.8801
     3.2019   3.2019   3.8146   3.8146   7.5575   7.5575   8.8165   8.8165
    10.2852  10.2852  10.3757  10.3757

     occupation numbers 
     1.0000   1.0000   1.0000   1.0000   1.0000   1.0000   1.0000   1.0000
     1.0000   1.0000   1.0000   1.0000   1.0000   1.0000   1.0000   1.0000
     1.0000   1.0000   1.0000   1.0000   1.0000   1.0000   1.0000   1.0000
     1.0000   1.0000   1.0000   1.0000   0.0000   0.0000   0.0000   0.0000
     0.0000   0.0000   0.0000   0.0000

          k =-0.7071 0.1768 0.0000 (  6198 PWs)   bands (ev):

   -16.1767 -16.1767 -16.1597 -16.1596 -16.1289 -16.1288 -16.1074 -16.1074
   -15.1751 -15.1751 -15.1542 -15.1542 -15.0999 -15.0998 -15.0932 -15.0931
   -15.0182 -15.0182 -14.9950 -14.9950  -1.1964  -1.1963  -1.1714  -1.1713
     3.5330   3.5330   3.6654   3.6654   7.3791   7.3791   7.5307   7.5307
    11.1456  11.1456  11.2914  11.2914

     occupation numbers 
     1.0000   1.0000   1.0000   1.0000   1.0000   1.0000   1.0000   1.0000
     1.0000   1.0000   1.0000   1.0000   1.0000   1.0000   1.0000   1.0000
     1.0000   1.0000   1.0000   1.0000   1.0000   1.0000   1.0000   1.0000
     1.0000   1.0000   1.0000   1.0000   0.0000   0.0000   0.0000   0.0000
     0.0000   0.0000   0.0000   0.0000

          k =-0.1768-0.4419 0.7071 (  6192 PWs)   bands (ev):

   -16.1792 -16.1792 -16.1553 -16.1552 -16.1337 -16.1337 -16.1048 -16.1048
   -15.1782 -15.1782 -15.1516 -15.1515 -15.1140 -15.1140 -15.0742 -15.0742
   -15.0231 -15.0231 -14.9951 -14.9951  -2.0550  -2.0550  -0.1937  -0.1937
     3.3432   3.3432   4.0464   4.0464   7.8708   7.8708   8.2756   8.2756
     9.4801   9.4801  11.0979  11.0979

     occupation numbers 
     1.0000   1.0000   1.0000   1.0000   1.0000   1.0000   1.0000   1.0000
     1.0000   1.0000   1.0000   1.0000   1.0000   1.0000   1.0000   1.0000
     1.0000   1.0000   1.0000   1.0000   1.0000   1.0000   1.0000   1.0000
     1.0000   1.0000   1.0000   1.0000   0.0000   0.0000   0.0000   0.0000
     0.0000   0.0000   0.0000   0.0000

          k =-0.1326-0.3977 0.6629 (  6196 PWs)   bands (ev):

   -16.1796 -16.1796 -16.1526 -16.1525 -16.1367 -16.1366 -16.1040 -16.1040
   -15.1778 -15.1778 -15.1505 -15.1504 -15.1117 -15.1116 -15.0798 -15.0798
   -15.0231 -15.0231 -14.9932 -14.9932  -1.8061  -1.8061  -0.4955  -0.4955
     3.2321   3.2321   3.9126   3.9126   7.9443   7.9443   8.6838   8.6838
     9.5527   9.5527  10.7483  10.7483

     occupation numbers 
     1.0000   1.0000   1.0000   1.0000   1.0000   1.0000   1.0000   1.0000
     1.0000   1.0000   1.0000   1.0000   1.0000   1.0000   1.0000   1.0000
     1.0000   1.0000   1.0000   1.0000   1.0000   1.0000   1.0000   1.0000
     1.0000   1.0000   1.0000   1.0000   0.0000   0.0000   0.0000   0.0000
     0.0000   0.0000   0.0000   0.0000

          k =-0.0884-0.3536 0.6187 (  6200 PWs)   bands (ev):

   -16.1797 -16.1797 -16.1514 -16.1513 -16.1380 -16.1379 -16.1037 -16.1037
   -15.1778 -15.1778 -15.1498 -15.1498 -15.1106 -15.1106 -15.0821 -15.0820
   -15.0232 -15.0232 -14.9924 -14.9924  -1.6861  -1.6860  -0.6339  -0.6339
     3.1964   3.1964   3.8636   3.8636   7.9518   7.9518   8.8414   8.8414
     9.8896   9.8896  10.2469  10.2469

     occupation numbers 
     1.0000   1.0000   1.0000   1.0000   1.0000   1.0000   1.0000   1.0000
     1.0000   1.0000   1.0000   1.0000   1.0000   1.0000   1.0000   1.0000
     1.0000   1.0000   1.0000   1.0000   1.0000   1.0000   1.0000   1.0000
     1.0000   1.0000   1.0000   1.0000   0.0000   0.0000   0.0000   0.0000
     0.0000   0.0000   0.0000   0.0000

          k =-0.0884-0.4419 0.7071 (  6177 PWs)   bands (ev):

   -16.1788 -16.1788 -16.1548 -16.1547 -16.1344 -16.1343 -16.1047 -16.1047
   -15.1775 -15.1775 -15.1504 -15.1504 -15.1079 -15.1079 -15.0850 -15.0849
   -15.0222 -15.0222 -14.9926 -14.9926  -1.6316  -1.6316  -0.6901  -0.6901
     3.3299   3.3299   3.7116   3.7116   8.0137   8.0137   8.2528   8.2528
     9.7618   9.7618  10.9077  10.9077

     occupation numbers 
     1.0000   1.0000   1.0000   1.0000   1.0000   1.0000   1.0000   1.0000
     1.0000   1.0000   1.0000   1.0000   1.0000   1.0000   1.0000   1.0000
     1.0000   1.0000   1.0000   1.0000   1.0000   1.0000   1.0000   1.0000
     1.0000   1.0000   1.0000   1.0000   0.0000   0.0000   0.0000   0.0000
     0.0000   0.0000   0.0000   0.0000

          k =-0.0442-0.3977 0.6629 (  6187 PWs)   bands (ev):

   -16.1792 -16.1792 -16.1528 -16.1526 -16.1367 -16.1366 -16.1040 -16.1040
   -15.1781 -15.1781 -15.1489 -15.1489 -15.1052 -15.1052 -15.0893 -15.0892
   -15.0229 -15.0229 -14.9913 -14.9913  -1.4388  -1.4388  -0.8943  -0.8943
     3.2606   3.2606   3.6425   3.6425   8.1249   8.1249   8.7815   8.7815
     9.7190   9.7190  10.2088  10.2088

     occupation numbers 
     1.0000   1.0000   1.0000   1.0000   1.0000   1.0000   1.0000   1.0000
     1.0000   1.0000   1.0000   1.0000   1.0000   1.0000   1.0000   1.0000
     1.0000   1.0000   1.0000   1.0000   1.0000   1.0000   1.0000   1.0000
     1.0000   1.0000   1.0000   1.0000   0.0000   0.0000   0.0000   0.0000
     0.0000   0.0000   0.0000   0.0000

          k =-0.0000-0.3536 0.6187 (  6192 PWs)   bands (ev):

   -16.1795 -16.1795 -16.1519 -16.1517 -16.1376 -16.1375 -16.1038 -16.1037
   -15.1782 -15.1782 -15.1489 -15.1489 -15.1072 -15.1072 -15.0868 -15.0867
   -15.0232 -15.0232 -14.9915 -14.9915  -1.5482  -1.5482  -0.7767  -0.7767
     3.2079   3.2079   3.7285   3.7285   8.1296   8.1296   8.9597   8.9597
     9.6133   9.6133  10.1480  10.1480

     occupation numbers 
     1.0000   1.0000   1.0000   1.0000   1.0000   1.0000   1.0000   1.0000
     1.0000   1.0000   1.0000   1.0000   1.0000   1.0000   1.0000   1.0000
     1.0000   1.0000   1.0000   1.0000   1.0000   1.0000   1.0000   1.0000
     1.0000   1.0000   1.0000   1.0000   0.0000   0.0000   0.0000   0.0000
     0.0000   0.0000   0.0000   0.0000

          k =-0.7071 0.2652 0.0000 (  6200 PWs)   bands (ev):

   -16.1786 -16.1786 -16.1548 -16.1547 -16.1345 -16.1344 -16.1048 -16.1047
   -15.1776 -15.1776 -15.1498 -15.1497 -15.1014 -15.1013 -15.0932 -15.0931
   -15.0219 -15.0219 -14.9917 -14.9917  -1.1894  -1.1893  -1.1563  -1.1562
     3.3824   3.3824   3.5399   3.5399   8.0308   8.0309   8.2510   8.2510
    10.2673  10.2673  10.3513  10.3513

     occupation numbers 
     1.0000   1.0000   1.0000   1.0000   1.0000   1.0000   1.0000   1.0000
     1.0000   1.0000   1.0000   1.0000   1.0000   1.0000   1.0000   1.0000
     1.0000   1.0000   1.0000   1.0000   1.0000   1.0000   1.0000   1.0000
     1.0000   1.0000   1.0000   1.0000   0.0000   0.0000   0.0000   0.0000
     0.0000   0.0000   0.0000   0.0000

          k =-0.7071 0.3536 0.0000 (  6228 PWs)   bands (ev):

   -16.1793 -16.1793 -16.1523 -16.1522 -16.1372 -16.1371 -16.1039 -16.1038
   -15.1785 -15.1785 -15.1481 -15.1481 -15.1020 -15.1019 -15.0934 -15.0933
   -15.0232 -15.0232 -14.9906 -14.9906  -1.1862  -1.1861  -1.1502  -1.1501
     3.3261   3.3261   3.4911   3.4911   8.4783   8.4784   8.8054   8.8054
     9.7163   9.7163   9.7395   9.7396

     occupation numbers 
     1.0000   1.0000   1.0000   1.0000   1.0000   1.0000   1.0000   1.0000
     1.0000   1.0000   1.0000   1.0000   1.0000   1.0000   1.0000   1.0000
     1.0000   1.0000   1.0000   1.0000   1.0000   1.0000   1.0000   1.0000
     1.0000   1.0000   1.0000   1.0000   0.0000   0.0000   0.0000   0.0000
     0.0000   0.0000   0.0000   0.0000

     the Fermi energy is     5.7958 ev

!    total energy              =    -885.87417074 Ry
     Harris-Foulkes estimate   =    -885.87417074 Ry
     estimated scf accuracy    <       0.00000002 Ry

     total all-electron energy =    -24716.573920 Ry

     The total energy is the sum of the following terms:

     one-electron contribution =    -163.14501726 Ry
     hartree contribution      =      99.10212604 Ry
     xc contribution           =     -96.03136423 Ry
     ewald contribution        =    -161.94546882 Ry
     one-center paw contrib.   =    -563.85444642 Ry
     smearing contrib. (-TS)   =      -0.00000006 Ry

     convergence has been achieved in   6 iterations

     Writing output data file Sn.save
 
     init_run     :      7.11s CPU      7.87s WALL (       1 calls)
     electrons    :    163.09s CPU    180.10s WALL (       1 calls)

     Called by init_run:
     wfcinit      :      6.63s CPU      7.27s WALL (       1 calls)
     potinit      :      0.13s CPU      0.15s WALL (       1 calls)

     Called by electrons:
     c_bands      :    136.78s CPU    151.50s WALL (       7 calls)
     sum_band     :     25.16s CPU     27.25s WALL (       7 calls)
     v_of_rho     :      0.06s CPU      0.06s WALL (       7 calls)
     v_h          :      0.00s CPU      0.00s WALL (       7 calls)
     v_xc         :      0.05s CPU      0.06s WALL (       7 calls)
     newd         :      0.43s CPU      0.49s WALL (       7 calls)
     PAW_pot      :      0.81s CPU      0.86s WALL (       7 calls)
     mix_rho      :      0.02s CPU      0.04s WALL (       7 calls)

     Called by c_bands:
     init_us_2    :      0.45s CPU      0.54s WALL (    2175 calls)
     cegterg      :    127.43s CPU    141.91s WALL (    1015 calls)

     Called by sum_band:
     sum_band:bec :      2.27s CPU      2.33s WALL (    1015 calls)
     addusdens    :      0.25s CPU      0.31s WALL (       7 calls)

     Called by *egterg:
     h_psi        :    108.26s CPU    119.63s WALL (    3649 calls)
     s_psi        :      3.30s CPU      3.32s WALL (    3649 calls)
     g_psi        :      0.30s CPU      0.31s WALL (    2489 calls)
     cdiaghg      :      8.88s CPU      9.06s WALL (    3359 calls)
     cegterg:over :      4.76s CPU      4.79s WALL (    2489 calls)
     cegterg:upda :      2.53s CPU      2.55s WALL (    2489 calls)
     cegterg:last :      1.26s CPU      1.27s WALL (    1015 calls)

     Called by h_psi:
     h_psi:vloc   :    100.75s CPU    111.91s WALL (    3649 calls)
     h_psi:vnl    :      7.24s CPU      7.41s WALL (    3649 calls)
     add_vuspsi   :      3.47s CPU      3.50s WALL (    3649 calls)

     General routines
     calbec       :      5.04s CPU      5.23s WALL (    4664 calls)
     fft          :      0.06s CPU      0.07s WALL (     135 calls)
     fftw         :    113.60s CPU    125.95s WALL (  459112 calls)
     davcio       :      0.06s CPU      0.36s WALL (     145 calls)
 
     Parallel routines
     fft_scatter  :     58.51s CPU     64.59s WALL (  459247 calls)

     PAW routines
     PAW_pot      :      0.81s CPU      0.86s WALL (       7 calls)
     PAW_symme    :      0.02s CPU      0.02s WALL (      14 calls)
 
     PWSCF        :  2m51.43s CPU     3m 9.63s WALL

 
   This run was terminated on:   5:54:56   9Mar2020            

=------------------------------------------------------------------------------=
   JOB DONE.
=------------------------------------------------------------------------------=
