
     Program PWSCF v.5.4.0 starts on 21Feb2020 at  0:53:24 

     This program is part of the open-source Quantum ESPRESSO suite
     for quantum simulation of materials; please cite
         "P. Giannozzi et al., J. Phys.:Condens. Matter 21 395502 (2009);
          URL http://www.quantum-espresso.org", 
     in publications or presentations arising from this work. More details at
     http://www.quantum-espresso.org/quote

     Parallel version (MPI & OpenMP), running on      16 processor cores
     Number of MPI processes:                16
     Threads/MPI process:                     1
     R & G space division:  proc/nbgrp/npool/nimage =      16
     Waiting for input...
     Reading input from standard input
Warning: card &IONS ignored
Warning: card / ignored
Warning: card &CELL ignored
Warning: card / ignored

     Current dimensions of program PWSCF are:
     Max number of different atomic species (ntypx) = 10
     Max number of k-points (npk) =  40000
     Max angular momentum in pseudopotentials (lmaxx) =  3

     Subspace diagonalization in iterative solution of the eigenvalue problem:
     a serial algorithm will be used

 
     Parallelization info
     --------------------
     sticks:   dense  smooth     PW     G-vecs:    dense   smooth      PW
     Min         109     109     31                 3006     3006     461
     Max         111     111     32                 3009     3009     465
     Sum        1759    1759    499                48119    48119    7391
 

     Title: 
     Sn                                                                         


     bravais-lattice index     =            0
     lattice parameter (alat)  =       8.8993  a.u.
     unit-cell volume          =     498.3785 (a.u.)^3
     number of atoms/cell      =            2
     number of atomic types    =            1
     number of electrons       =        28.00
     number of Kohn-Sham states=           18
     kinetic-energy cutoff     =      80.0000  Ry
     charge density cutoff     =     320.0000  Ry
     convergence threshold     =      1.0E-06
     mixing beta               =       0.7000
     number of iterations used =            8  plain     mixing
     Exchange-correlation      = PBE ( 1  4  3  4 0 0)

     celldm(1)=   8.899346  celldm(2)=   0.000000  celldm(3)=   0.000000
     celldm(4)=   0.000000  celldm(5)=   0.000000  celldm(6)=   0.000000

     crystal axes: (cart. coord. in units of alat)
               a(1) = (   0.000000   0.707107   0.707107 )  
               a(2) = (   0.707107   0.000000   0.707107 )  
               a(3) = (   0.707107   0.707107   0.000000 )  

     reciprocal axes: (cart. coord. in units 2 pi/alat)
               b(1) = ( -0.707107  0.707107  0.707107 )  
               b(2) = (  0.707107 -0.707107  0.707107 )  
               b(3) = (  0.707107  0.707107 -0.707107 )  


     PseudoPot. # 1 for Sn read from file:
     ../PseudopotentialDatabase/Sn_ONCV_PBE-1.1.upf
     MD5 check sum: 7fc728ef37b8342e916bba54f6049344
     Pseudo is Norm-conserving, Zval = 14.0
     Generated using ONCVPSP code by D. R. Hamann
     Using radial grid of  602 points,  6 beta functions with: 
                l(1) =   0
                l(2) =   0
                l(3) =   1
                l(4) =   1
                l(5) =   2
                l(6) =   2

     atomic species   valence    mass     pseudopotential
        Sn            14.00   118.71000     Sn( 1.00)

     24 Sym. Ops. (no inversion) found
          (note: 24 additional sym.ops. were found but ignored
           their fractional translations are incommensurate with FFT grid)

                                    s                        frac. trans.

      isym =  1     identity                                     

 cryst.   s( 1) = (     1          0          0      )
                  (     0          1          0      )
                  (     0          0          1      )

 cart.    s( 1) = (  1.0000000  0.0000000  0.0000000 )
                  (  0.0000000  1.0000000  0.0000000 )
                  (  0.0000000  0.0000000  1.0000000 )


      isym =  2     180 deg rotation - cart. axis [0,0,1]        

 cryst.   s( 2) = (     0          1         -1      )
                  (     1          0         -1      )
                  (     0          0         -1      )

 cart.    s( 2) = ( -1.0000000  0.0000000  0.0000000 )
                  (  0.0000000 -1.0000000  0.0000000 )
                  (  0.0000000  0.0000000  1.0000000 )


      isym =  3     180 deg rotation - cart. axis [0,1,0]        

 cryst.   s( 3) = (     0         -1          1      )
                  (     0         -1          0      )
                  (     1         -1          0      )

 cart.    s( 3) = ( -1.0000000  0.0000000  0.0000000 )
                  (  0.0000000  1.0000000  0.0000000 )
                  (  0.0000000  0.0000000 -1.0000000 )


      isym =  4     180 deg rotation - cart. axis [1,0,0]        

 cryst.   s( 4) = (    -1          0          0      )
                  (    -1          0          1      )
                  (    -1          1          0      )

 cart.    s( 4) = (  1.0000000  0.0000000  0.0000000 )
                  (  0.0000000 -1.0000000  0.0000000 )
                  (  0.0000000  0.0000000 -1.0000000 )


      isym =  5     120 deg rotation - cart. axis [-1,-1,-1]     

 cryst.   s( 5) = (     0          0          1      )
                  (     1          0          0      )
                  (     0          1          0      )

 cart.    s( 5) = (  0.0000000  1.0000000  0.0000000 )
                  (  0.0000000  0.0000000  1.0000000 )
                  (  1.0000000  0.0000000  0.0000000 )


      isym =  6     120 deg rotation - cart. axis [-1,1,1]       

 cryst.   s( 6) = (     1         -1          0      )
                  (     0         -1          1      )
                  (     0         -1          0      )

 cart.    s( 6) = (  0.0000000 -1.0000000  0.0000000 )
                  (  0.0000000  0.0000000  1.0000000 )
                  ( -1.0000000  0.0000000  0.0000000 )


      isym =  7     120 deg rotation - cart. axis [1,1,-1]       

 cryst.   s( 7) = (    -1          1          0      )
                  (    -1          0          0      )
                  (    -1          0          1      )

 cart.    s( 7) = (  0.0000000  1.0000000  0.0000000 )
                  (  0.0000000  0.0000000 -1.0000000 )
                  ( -1.0000000  0.0000000  0.0000000 )


      isym =  8     120 deg rotation - cart. axis [1,-1,1]       

 cryst.   s( 8) = (     0          0         -1      )
                  (     0          1         -1      )
                  (     1          0         -1      )

 cart.    s( 8) = (  0.0000000 -1.0000000  0.0000000 )
                  (  0.0000000  0.0000000 -1.0000000 )
                  (  1.0000000  0.0000000  0.0000000 )


      isym =  9     120 deg rotation - cart. axis [1,1,1]        

 cryst.   s( 9) = (     0          1          0      )
                  (     0          0          1      )
                  (     1          0          0      )

 cart.    s( 9) = (  0.0000000  0.0000000  1.0000000 )
                  (  1.0000000  0.0000000  0.0000000 )
                  (  0.0000000  1.0000000  0.0000000 )


      isym = 10     120 deg rotation - cart. axis [-1,1,-1]      

 cryst.   s(10) = (    -1          0          1      )
                  (    -1          1          0      )
                  (    -1          0          0      )

 cart.    s(10) = (  0.0000000  0.0000000  1.0000000 )
                  ( -1.0000000  0.0000000  0.0000000 )
                  (  0.0000000 -1.0000000  0.0000000 )


      isym = 11     120 deg rotation - cart. axis [1,-1,-1]      

 cryst.   s(11) = (     1          0         -1      )
                  (     0          0         -1      )
                  (     0          1         -1      )

 cart.    s(11) = (  0.0000000  0.0000000 -1.0000000 )
                  ( -1.0000000  0.0000000  0.0000000 )
                  (  0.0000000  1.0000000  0.0000000 )


      isym = 12     120 deg rotation - cart. axis [-1,-1,1]      

 cryst.   s(12) = (     0         -1          0      )
                  (     1         -1          0      )
                  (     0         -1          1      )

 cart.    s(12) = (  0.0000000  0.0000000 -1.0000000 )
                  (  1.0000000  0.0000000  0.0000000 )
                  (  0.0000000 -1.0000000  0.0000000 )


      isym = 13     inv. 180 deg rotation - cart. axis [1,1,0]   

 cryst.   s(13) = (     1          0         -1      )
                  (     0          1         -1      )
                  (     0          0         -1      )

 cart.    s(13) = (  0.0000000 -1.0000000  0.0000000 )
                  ( -1.0000000  0.0000000  0.0000000 )
                  (  0.0000000  0.0000000  1.0000000 )


      isym = 14     inv. 180 deg rotation - cart. axis [1,-1,0]  

 cryst.   s(14) = (     0          1          0      )
                  (     1          0          0      )
                  (     0          0          1      )

 cart.    s(14) = (  0.0000000  1.0000000  0.0000000 )
                  (  1.0000000  0.0000000  0.0000000 )
                  (  0.0000000  0.0000000  1.0000000 )


      isym = 15     inv.  90 deg rotation - cart. axis [0,0,-1]  

 cryst.   s(15) = (     0         -1          0      )
                  (     0         -1          1      )
                  (     1         -1          0      )

 cart.    s(15) = (  0.0000000 -1.0000000  0.0000000 )
                  (  1.0000000  0.0000000  0.0000000 )
                  (  0.0000000  0.0000000 -1.0000000 )


      isym = 16     inv.  90 deg rotation - cart. axis [0,0,1]   

 cryst.   s(16) = (    -1          0          1      )
                  (    -1          0          0      )
                  (    -1          1          0      )

 cart.    s(16) = (  0.0000000  1.0000000  0.0000000 )
                  ( -1.0000000  0.0000000  0.0000000 )
                  (  0.0000000  0.0000000 -1.0000000 )


      isym = 17     inv. 180 deg rotation - cart. axis [1,0,1]   

 cryst.   s(17) = (     1         -1          0      )
                  (     0         -1          0      )
                  (     0         -1          1      )

 cart.    s(17) = (  0.0000000  0.0000000 -1.0000000 )
                  (  0.0000000  1.0000000  0.0000000 )
                  ( -1.0000000  0.0000000  0.0000000 )


      isym = 18     inv. 180 deg rotation - cart. axis [-1,0,1]  

 cryst.   s(18) = (     0          0          1      )
                  (     0          1          0      )
                  (     1          0          0      )

 cart.    s(18) = (  0.0000000  0.0000000  1.0000000 )
                  (  0.0000000  1.0000000  0.0000000 )
                  (  1.0000000  0.0000000  0.0000000 )


      isym = 19     inv.  90 deg rotation - cart. axis [0,1,0]   

 cryst.   s(19) = (     0          0         -1      )
                  (     1          0         -1      )
                  (     0          1         -1      )

 cart.    s(19) = (  0.0000000  0.0000000 -1.0000000 )
                  (  0.0000000 -1.0000000  0.0000000 )
                  (  1.0000000  0.0000000  0.0000000 )


      isym = 20     inv.  90 deg rotation - cart. axis [0,-1,0]  

 cryst.   s(20) = (    -1          1          0      )
                  (    -1          0          1      )
                  (    -1          0          0      )

 cart.    s(20) = (  0.0000000  0.0000000  1.0000000 )
                  (  0.0000000 -1.0000000  0.0000000 )
                  ( -1.0000000  0.0000000  0.0000000 )


      isym = 21     inv. 180 deg rotation - cart. axis [0,1,1]   

 cryst.   s(21) = (    -1          0          0      )
                  (    -1          1          0      )
                  (    -1          0          1      )

 cart.    s(21) = (  1.0000000  0.0000000  0.0000000 )
                  (  0.0000000  0.0000000 -1.0000000 )
                  (  0.0000000 -1.0000000  0.0000000 )


      isym = 22     inv. 180 deg rotation - cart. axis [0,1,-1]  

 cryst.   s(22) = (     1          0          0      )
                  (     0          0          1      )
                  (     0          1          0      )

 cart.    s(22) = (  1.0000000  0.0000000  0.0000000 )
                  (  0.0000000  0.0000000  1.0000000 )
                  (  0.0000000  1.0000000  0.0000000 )


      isym = 23     inv.  90 deg rotation - cart. axis [-1,0,0]  

 cryst.   s(23) = (     0          1         -1      )
                  (     0          0         -1      )
                  (     1          0         -1      )

 cart.    s(23) = ( -1.0000000  0.0000000  0.0000000 )
                  (  0.0000000  0.0000000 -1.0000000 )
                  (  0.0000000  1.0000000  0.0000000 )


      isym = 24     inv.  90 deg rotation - cart. axis [1,0,0]   

 cryst.   s(24) = (     0         -1          1      )
                  (     1         -1          0      )
                  (     0         -1          0      )

 cart.    s(24) = ( -1.0000000  0.0000000  0.0000000 )
                  (  0.0000000  0.0000000  1.0000000 )
                  (  0.0000000 -1.0000000  0.0000000 )


   Cartesian axes

     site n.     atom                  positions (alat units)
         1           Sn  tau(   1) = (   0.0000000   0.0000000   0.0000000  )
         2           Sn  tau(   2) = (   0.3535534   0.3535534   0.3535534  )

   Crystallographic axes

     site n.     atom                  positions (cryst. coord.)
         1           Sn  tau(   1) = (  0.0000000  0.0000000  0.0000000  )
         2           Sn  tau(   2) = (  0.2500000  0.2500000  0.2500000  )

     number of k points=    47  gaussian smearing, width (Ry)=  0.0100
                       cart. coord. in units 2pi/alat
        k(    1) = (   0.0000000   0.0000000   0.0000000), wk =   0.0020000
        k(    2) = (   0.0707107   0.0707107  -0.0707107), wk =   0.0160000
        k(    3) = (   0.1414214   0.1414214  -0.1414214), wk =   0.0160000
        k(    4) = (   0.2121320   0.2121320  -0.2121320), wk =   0.0160000
        k(    5) = (   0.2828427   0.2828427  -0.2828427), wk =   0.0160000
        k(    6) = (  -0.3535534  -0.3535534   0.3535534), wk =   0.0080000
        k(    7) = (   0.1414214   0.0000000   0.0000000), wk =   0.0120000
        k(    8) = (   0.2121320   0.0707107  -0.0707107), wk =   0.0480000
        k(    9) = (   0.2828427   0.1414214  -0.1414214), wk =   0.0480000
        k(   10) = (   0.3535534   0.2121320  -0.2121320), wk =   0.0480000
        k(   11) = (  -0.2828427  -0.4242641   0.4242641), wk =   0.0480000
        k(   12) = (  -0.2121320  -0.3535534   0.3535534), wk =   0.0480000
        k(   13) = (  -0.1414214  -0.2828427   0.2828427), wk =   0.0480000
        k(   14) = (  -0.0707107  -0.2121320   0.2121320), wk =   0.0480000
        k(   15) = (   0.0000000  -0.1414214   0.1414214), wk =   0.0240000
        k(   16) = (   0.2828427   0.0000000   0.0000000), wk =   0.0120000
        k(   17) = (   0.3535534   0.0707107  -0.0707107), wk =   0.0480000
        k(   18) = (   0.4242641   0.1414214  -0.1414214), wk =   0.0480000
        k(   19) = (  -0.2121320  -0.4949747   0.4949747), wk =   0.0480000
        k(   20) = (  -0.1414214  -0.4242641   0.4242641), wk =   0.0480000
        k(   21) = (  -0.0707107  -0.3535534   0.3535534), wk =   0.0480000
        k(   22) = (   0.0000000  -0.2828427   0.2828427), wk =   0.0240000
        k(   23) = (   0.4242641   0.0000000   0.0000000), wk =   0.0120000
        k(   24) = (   0.4949747   0.0707107  -0.0707107), wk =   0.0480000
        k(   25) = (  -0.1414214  -0.5656854   0.5656854), wk =   0.0480000
        k(   26) = (  -0.0707107  -0.4949747   0.4949747), wk =   0.0480000
        k(   27) = (  -0.0000000  -0.4242641   0.4242641), wk =   0.0240000
        k(   28) = (   0.5656854   0.0000000   0.0000000), wk =   0.0120000
        k(   29) = (  -0.0707107  -0.6363961   0.6363961), wk =   0.0480000
        k(   30) = (   0.0000000  -0.5656854   0.5656854), wk =   0.0240000
        k(   31) = (  -0.7071068   0.0000000   0.0000000), wk =   0.0060000
        k(   32) = (   0.2828427   0.1414214   0.0000000), wk =   0.0480000
        k(   33) = (   0.3535534   0.2121320  -0.0707107), wk =   0.0960000
        k(   34) = (  -0.2828427  -0.4242641   0.5656854), wk =   0.0960000
        k(   35) = (  -0.2121320  -0.3535534   0.4949747), wk =   0.0480000
        k(   36) = (   0.4242641   0.1414214  -0.0000000), wk =   0.0480000
        k(   37) = (  -0.2121320  -0.4949747   0.6363961), wk =   0.0960000
        k(   38) = (  -0.1414214  -0.4242641   0.5656854), wk =   0.0960000
        k(   39) = (  -0.0707107  -0.3535534   0.4949747), wk =   0.0960000
        k(   40) = (   0.0000000  -0.2828427   0.4242641), wk =   0.0480000
        k(   41) = (  -0.1414214  -0.5656854   0.7071068), wk =   0.0480000
        k(   42) = (  -0.0707107  -0.4949747   0.6363961), wk =   0.0960000
        k(   43) = (  -0.0000000  -0.4242641   0.5656854), wk =   0.0480000
        k(   44) = (  -0.7071068   0.1414214   0.0000000), wk =   0.0240000
        k(   45) = (  -0.1414214  -0.4242641   0.7071068), wk =   0.0480000
        k(   46) = (  -0.0707107  -0.3535534   0.6363961), wk =   0.0480000
        k(   47) = (  -0.7071068   0.2828427   0.0000000), wk =   0.0240000

                       cryst. coord.
        k(    1) = (   0.0000000   0.0000000   0.0000000), wk =   0.0020000
        k(    2) = (   0.0000000   0.0000000   0.1000000), wk =   0.0160000
        k(    3) = (   0.0000000   0.0000000   0.2000000), wk =   0.0160000
        k(    4) = (   0.0000000   0.0000000   0.3000000), wk =   0.0160000
        k(    5) = (   0.0000000   0.0000000   0.4000000), wk =   0.0160000
        k(    6) = (   0.0000000   0.0000000  -0.5000000), wk =   0.0080000
        k(    7) = (   0.0000000   0.1000000   0.1000000), wk =   0.0120000
        k(    8) = (   0.0000000   0.1000000   0.2000000), wk =   0.0480000
        k(    9) = (   0.0000000   0.1000000   0.3000000), wk =   0.0480000
        k(   10) = (   0.0000000   0.1000000   0.4000000), wk =   0.0480000
        k(   11) = (   0.0000000   0.1000000  -0.5000000), wk =   0.0480000
        k(   12) = (   0.0000000   0.1000000  -0.4000000), wk =   0.0480000
        k(   13) = (   0.0000000   0.1000000  -0.3000000), wk =   0.0480000
        k(   14) = (   0.0000000   0.1000000  -0.2000000), wk =   0.0480000
        k(   15) = (   0.0000000   0.1000000  -0.1000000), wk =   0.0240000
        k(   16) = (   0.0000000   0.2000000   0.2000000), wk =   0.0120000
        k(   17) = (   0.0000000   0.2000000   0.3000000), wk =   0.0480000
        k(   18) = (   0.0000000   0.2000000   0.4000000), wk =   0.0480000
        k(   19) = (   0.0000000   0.2000000  -0.5000000), wk =   0.0480000
        k(   20) = (   0.0000000   0.2000000  -0.4000000), wk =   0.0480000
        k(   21) = (   0.0000000   0.2000000  -0.3000000), wk =   0.0480000
        k(   22) = (   0.0000000   0.2000000  -0.2000000), wk =   0.0240000
        k(   23) = (   0.0000000   0.3000000   0.3000000), wk =   0.0120000
        k(   24) = (   0.0000000   0.3000000   0.4000000), wk =   0.0480000
        k(   25) = (   0.0000000   0.3000000  -0.5000000), wk =   0.0480000
        k(   26) = (   0.0000000   0.3000000  -0.4000000), wk =   0.0480000
        k(   27) = (   0.0000000   0.3000000  -0.3000000), wk =   0.0240000
        k(   28) = (   0.0000000   0.4000000   0.4000000), wk =   0.0120000
        k(   29) = (   0.0000000   0.4000000  -0.5000000), wk =   0.0480000
        k(   30) = (   0.0000000   0.4000000  -0.4000000), wk =   0.0240000
        k(   31) = (   0.0000000  -0.5000000  -0.5000000), wk =   0.0060000
        k(   32) = (   0.1000000   0.2000000   0.3000000), wk =   0.0480000
        k(   33) = (   0.1000000   0.2000000   0.4000000), wk =   0.0960000
        k(   34) = (   0.1000000   0.2000000  -0.5000000), wk =   0.0960000
        k(   35) = (   0.1000000   0.2000000  -0.4000000), wk =   0.0480000
        k(   36) = (   0.1000000   0.3000000   0.4000000), wk =   0.0480000
        k(   37) = (   0.1000000   0.3000000  -0.5000000), wk =   0.0960000
        k(   38) = (   0.1000000   0.3000000  -0.4000000), wk =   0.0960000
        k(   39) = (   0.1000000   0.3000000  -0.3000000), wk =   0.0960000
        k(   40) = (   0.1000000   0.3000000  -0.2000000), wk =   0.0480000
        k(   41) = (   0.1000000   0.4000000  -0.5000000), wk =   0.0480000
        k(   42) = (   0.1000000   0.4000000  -0.4000000), wk =   0.0960000
        k(   43) = (   0.1000000   0.4000000  -0.3000000), wk =   0.0480000
        k(   44) = (   0.1000000  -0.5000000  -0.4000000), wk =   0.0240000
        k(   45) = (   0.2000000   0.4000000  -0.4000000), wk =   0.0480000
        k(   46) = (   0.2000000   0.4000000  -0.3000000), wk =   0.0480000
        k(   47) = (   0.2000000  -0.5000000  -0.3000000), wk =   0.0240000

     Dense  grid:    48119 G-vectors     FFT dimensions: (  54,  54,  54)

     Largest allocated arrays     est. size (Mb)     dimensions
        Kohn-Sham Wavefunctions         0.10 Mb     (     381,   18)
        NL pseudopotentials             0.21 Mb     (     381,   36)
        Each V/rho on FFT grid          0.18 Mb     (   11664)
        Each G-vector array             0.02 Mb     (    3009)
        G-vector shells                 0.00 Mb     (     410)
     Largest temporary arrays     est. size (Mb)     dimensions
        Auxiliary wavefunctions         0.42 Mb     (     381,   72)
        Each subspace H/S matrix        0.08 Mb     (      72,   72)
        Each <psi_i|beta_j> matrix      0.01 Mb     (      36,   18)
        Arrays for rho mixing           1.42 Mb     (   11664,    8)

     Initial potential from superposition of free atoms

     starting charge   27.82674, renormalised to   28.00000
     Starting wfc are random

     total cpu time spent up to now is        0.7 secs

     Self-consistent Calculation

     iteration #  1     ecut=    80.00 Ry     beta=0.70
     Davidson diagonalization with overlap
     ethr =  1.00E-02,  avg # of iterations =  7.0

     Threshold (ethr) on eigenvalues was too large:
     Diagonalizing with lowered threshold

     Davidson diagonalization with overlap
     ethr =  1.07E-04,  avg # of iterations =  2.0

     total cpu time spent up to now is        5.5 secs

     total energy              =    -241.29484400 Ry
     Harris-Foulkes estimate   =    -241.30557198 Ry
     estimated scf accuracy    <       0.02971864 Ry

     iteration #  2     ecut=    80.00 Ry     beta=0.70
     Davidson diagonalization with overlap
     ethr =  1.06E-04,  avg # of iterations =  2.0

     total cpu time spent up to now is        6.9 secs

     total energy              =    -241.29878183 Ry
     Harris-Foulkes estimate   =    -241.29880351 Ry
     estimated scf accuracy    <       0.00159156 Ry

     iteration #  3     ecut=    80.00 Ry     beta=0.70
     Davidson diagonalization with overlap
     ethr =  5.68E-06,  avg # of iterations =  2.8

     total cpu time spent up to now is        8.2 secs

     total energy              =    -241.29892178 Ry
     Harris-Foulkes estimate   =    -241.29889464 Ry
     estimated scf accuracy    <       0.00008886 Ry

     iteration #  4     ecut=    80.00 Ry     beta=0.70
     Davidson diagonalization with overlap
     ethr =  3.17E-07,  avg # of iterations =  2.0

     total cpu time spent up to now is        9.4 secs

     total energy              =    -241.29892643 Ry
     Harris-Foulkes estimate   =    -241.29892646 Ry
     estimated scf accuracy    <       0.00000127 Ry

     iteration #  5     ecut=    80.00 Ry     beta=0.70
     Davidson diagonalization with overlap
     ethr =  4.55E-09,  avg # of iterations =  2.3

     total cpu time spent up to now is       10.7 secs

     End of self-consistent calculation

          k = 0.0000 0.0000 0.0000 (  5985 PWs)   bands (ev):

   -13.2673 -13.2673 -13.2673 -13.2132 -13.2132 -12.9664 -12.9664 -12.9664
   -12.9619 -12.9619  -1.7714   7.1717   8.4237   8.4237   8.4237  10.4985
    10.4985  10.4985

     occupation numbers 
     1.0000   1.0000   1.0000   1.0000   1.0000   1.0000   1.0000   1.0000
     1.0000   1.0000   1.0000   1.0000   0.0977   0.0977   0.0977   0.0000
     0.0000   0.0000

          k = 0.0707 0.0707-0.0707 (  6030 PWs)   bands (ev):

   -13.2730 -13.2730 -13.2652 -13.2053 -13.2053 -12.9811 -12.9811 -12.9689
   -12.9487 -12.9487  -1.6823   6.3224   8.2525   8.2525   8.7238  10.7239
    10.7239  10.8505

     occupation numbers 
     1.0000   1.0000   1.0000   1.0000   1.0000   1.0000   1.0000   1.0000
     1.0000   1.0000   1.0000   1.0000   0.6860   0.6860   0.0000   0.0000
     0.0000   0.0000

          k = 0.1414 0.1414-0.1414 (  6036 PWs)   bands (ev):

   -13.2830 -13.2830 -13.2596 -13.1897 -13.1897 -12.9966 -12.9966 -12.9756
   -12.9366 -12.9366  -1.4210   4.9962   7.9153   7.9153   8.6612  11.1566
    11.1566  11.9012

     occupation numbers 
     1.0000   1.0000   1.0000   1.0000   1.0000   1.0000   1.0000   1.0000
     1.0000   1.0000   1.0000   1.0000   1.0000   1.0000   0.0001   0.0000
     0.0000   0.0000

          k = 0.2121 0.2121-0.2121 (  6033 PWs)   bands (ev):

   -13.2908 -13.2908 -13.2524 -13.1758 -13.1758 -13.0082 -13.0082 -12.9841
   -12.9285 -12.9285  -1.0144   3.7379   7.6080   7.6080   8.4301  11.4541
    11.4541  13.2545

     occupation numbers 
     1.0000   1.0000   1.0000   1.0000   1.0000   1.0000   1.0000   1.0000
     1.0000   1.0000   1.0000   1.0000   1.0000   1.0000   0.0868   0.0000
     0.0000   0.0000

          k = 0.2828 0.2828-0.2828 (  6026 PWs)   bands (ev):

   -13.2952 -13.2952 -13.2463 -13.1673 -13.1673 -13.0145 -13.0145 -12.9913
   -12.9242 -12.9242  -0.5506   2.7389   7.4068   7.4068   8.2561  11.5378
    11.5378  14.1201

     occupation numbers 
     1.0000   1.0000   1.0000   1.0000   1.0000   1.0000   1.0000   1.0000
     1.0000   1.0000   1.0000   1.0000   1.0000   1.0000   0.6727   0.0000
     0.0000   0.0000

          k =-0.3536-0.3536 0.3536 (  6062 PWs)   bands (ev):

   -13.2965 -13.2965 -13.2439 -13.1647 -13.1647 -13.0163 -13.0163 -12.9941
   -12.9228 -12.9228  -0.3021   2.3087   7.3376   7.3376   8.1946  11.5415
    11.5415  14.0733

     occupation numbers 
     1.0000   1.0000   1.0000   1.0000   1.0000   1.0000   1.0000   1.0000
     1.0000   1.0000   1.0000   1.0000   1.0000   1.0000   0.8613   0.0000
     0.0000   0.0000

          k = 0.1414 0.0000 0.0000 (  6034 PWs)   bands (ev):

   -13.2719 -13.2719 -13.2708 -13.2069 -13.1972 -12.9988 -12.9679 -12.9601
   -12.9601 -12.9440  -1.6522   6.2047   7.9701   7.9701   9.3307  10.1675
    11.1048  11.1048

     occupation numbers 
     1.0000   1.0000   1.0000   1.0000   1.0000   1.0000   1.0000   1.0000
     1.0000   1.0000   1.0000   1.0000   0.9997   0.9997   0.0000   0.0000
     0.0000   0.0000

          k = 0.2121 0.0707-0.0707 (  6024 PWs)   bands (ev):

   -13.2837 -13.2794 -13.2642 -13.1957 -13.1804 -13.0179 -12.9825 -12.9624
   -12.9468 -12.9342  -1.4467   5.2240   7.5938   7.6105   9.5612  10.2778
    11.6267  11.8385

     occupation numbers 
     1.0000   1.0000   1.0000   1.0000   1.0000   1.0000   1.0000   1.0000
     1.0000   1.0000   1.0000   1.0000   1.0000   1.0000   0.0000   0.0000
     0.0000   0.0000

          k = 0.2828 0.1414-0.1414 (  6033 PWs)   bands (ev):

   -13.2952 -13.2879 -13.2528 -13.1811 -13.1646 -13.0316 -12.9976 -12.9747
   -12.9351 -12.9229  -1.0834   4.0407   7.1691   7.3259   9.3622  10.8241
    11.9678  12.6196

     occupation numbers 
     1.0000   1.0000   1.0000   1.0000   1.0000   1.0000   1.0000   1.0000
     1.0000   1.0000   1.0000   1.0000   1.0000   1.0000   0.0000   0.0000
     0.0000   0.0000

          k = 0.3536 0.2121-0.2121 (  6030 PWs)   bands (ev):

   -13.3030 -13.2944 -13.2405 -13.1684 -13.1563 -13.0358 -13.0105 -12.9896
   -12.9265 -12.9153  -0.6200   2.9831   6.8175   7.1739   9.1419  11.2066
    12.0036  13.4342

     occupation numbers 
     1.0000   1.0000   1.0000   1.0000   1.0000   1.0000   1.0000   1.0000
     1.0000   1.0000   1.0000   1.0000   1.0000   1.0000   0.0000   0.0000
     0.0000   0.0000

          k =-0.2828-0.4243 0.4243 (  6031 PWs)   bands (ev):

   -13.3061 -13.2983 -13.2323 -13.1594 -13.1572 -13.0293 -13.0208 -13.0017
   -12.9208 -12.9126  -0.2511   2.3328   6.5988   7.1719   9.0107  11.3762
    11.8803  14.1947

     occupation numbers 
     1.0000   1.0000   1.0000   1.0000   1.0000   1.0000   1.0000   1.0000
     1.0000   1.0000   1.0000   1.0000   1.0000   1.0000   0.0000   0.0000
     0.0000   0.0000

          k =-0.2121-0.3536 0.3536 (  6030 PWs)   bands (ev):

   -13.3044 -13.2995 -13.2320 -13.1642 -13.1555 -13.0271 -13.0165 -13.0058
   -12.9182 -12.9155  -0.3423   2.4822   6.5376   7.3169   8.9946  11.5158
    11.7233  14.2342

     occupation numbers 
     1.0000   1.0000   1.0000   1.0000   1.0000   1.0000   1.0000   1.0000
     1.0000   1.0000   1.0000   1.0000   1.0000   1.0000   0.0000   0.0000
     0.0000   0.0000

          k =-0.1414-0.2828 0.2828 (  6034 PWs)   bands (ev):

   -13.2981 -13.2975 -13.2401 -13.1740 -13.1597 -13.0262 -13.0101 -12.9922
   -12.9239 -12.9194  -0.7808   3.3114   6.6514   7.5876   9.0849  11.5101
    11.6111  13.3309

     occupation numbers 
     1.0000   1.0000   1.0000   1.0000   1.0000   1.0000   1.0000   1.0000
     1.0000   1.0000   1.0000   1.0000   1.0000   1.0000   0.0000   0.0000
     0.0000   0.0000

          k =-0.0707-0.2121 0.2121 (  6016 PWs)   bands (ev):

   -13.2915 -13.2880 -13.2522 -13.1860 -13.1729 -13.0162 -13.0022 -12.9736
   -12.9372 -12.9249  -1.2218   4.4258   6.9641   7.9329   9.2171  11.1537
    11.3545  12.4274

     occupation numbers 
     1.0000   1.0000   1.0000   1.0000   1.0000   1.0000   1.0000   1.0000
     1.0000   1.0000   1.0000   1.0000   1.0000   0.9999   0.0000   0.0000
     0.0000   0.0000

          k = 0.0000-0.1414 0.1414 (  6017 PWs)   bands (ev):

   -13.2821 -13.2769 -13.2625 -13.1988 -13.1908 -12.9997 -12.9899 -12.9592
   -12.9535 -12.9349  -1.5351   5.5519   7.5235   8.2287   9.1462  10.7735
    10.8453  11.6858

     occupation numbers 
     1.0000   1.0000   1.0000   1.0000   1.0000   1.0000   1.0000   1.0000
     1.0000   1.0000   1.0000   1.0000   1.0000   0.7679   0.0000   0.0000
     0.0000   0.0000

          k = 0.2828 0.0000 0.0000 (  6050 PWs)   bands (ev):

   -13.2833 -13.2833 -13.2706 -13.1887 -13.1610 -13.0441 -12.9854 -12.9443
   -12.9443 -12.9406  -1.2968   4.8335   7.2393   7.2393   9.6215  10.2537
    12.2827  12.2827

     occupation numbers 
     1.0000   1.0000   1.0000   1.0000   1.0000   1.0000   1.0000   1.0000
     1.0000   1.0000   1.0000   1.0000   1.0000   1.0000   0.0000   0.0000
     0.0000   0.0000

          k = 0.3536 0.0707-0.0707 (  6029 PWs)   bands (ev):

   -13.2958 -13.2906 -13.2581 -13.1746 -13.1413 -13.0652 -13.0000 -12.9591
   -12.9335 -12.9244  -0.9817   3.9908   6.7875   6.9483   9.6896  10.3749
    12.5916  12.7926

     occupation numbers 
     1.0000   1.0000   1.0000   1.0000   1.0000   1.0000   1.0000   1.0000
     1.0000   1.0000   1.0000   1.0000   1.0000   1.0000   0.0000   0.0000
     0.0000   0.0000

          k = 0.4243 0.1414-0.1414 (  6018 PWs)   bands (ev):

   -13.3089 -13.2973 -13.2378 -13.1592 -13.1296 -13.0754 -13.0166 -12.9819
   -12.9235 -12.9093  -0.5378   3.0583   6.2682   6.7988   9.7129  10.9409
    12.5448  12.9155

     occupation numbers 
     1.0000   1.0000   1.0000   1.0000   1.0000   1.0000   1.0000   1.0000
     1.0000   1.0000   1.0000   1.0000   1.0000   1.0000   0.0000   0.0000
     0.0000   0.0000

          k =-0.2121-0.4950 0.4950 (  6022 PWs)   bands (ev):

   -13.3173 -13.3021 -13.2191 -13.1453 -13.1316 -13.0700 -13.0325 -13.0030
   -12.9161 -12.9001  -0.0934   2.3220   5.8772   6.8110   9.6294  11.5376
    12.7494  13.0236

     occupation numbers 
     1.0000   1.0000   1.0000   1.0000   1.0000   1.0000   1.0000   1.0000
     1.0000   1.0000   1.0000   1.0000   1.0000   1.0000   0.0000   0.0000
     0.0000   0.0000

          k =-0.1414-0.4243 0.4243 (  6039 PWs)   bands (ev):

   -13.3190 -13.3046 -13.2102 -13.1454 -13.1362 -13.0509 -13.0447 -13.0150
   -12.9121 -12.8989  -0.0144   2.2073   5.6891   6.9818   9.6254  11.7560
    12.4726  13.9436

     occupation numbers 
     1.0000   1.0000   1.0000   1.0000   1.0000   1.0000   1.0000   1.0000
     1.0000   1.0000   1.0000   1.0000   1.0000   1.0000   0.0000   0.0000
     0.0000   0.0000

          k =-0.0707-0.3536 0.3536 (  6024 PWs)   bands (ev):

   -13.3134 -13.3039 -13.2159 -13.1629 -13.1382 -13.0463 -13.0238 -13.0159
   -12.9120 -12.9064  -0.4021   2.8089   5.7547   7.2845   9.6863  11.9274
    12.0957  13.0948

     occupation numbers 
     1.0000   1.0000   1.0000   1.0000   1.0000   1.0000   1.0000   1.0000
     1.0000   1.0000   1.0000   1.0000   1.0000   1.0000   0.0000   0.0000
     0.0000   0.0000

          k = 0.0000-0.2828 0.2828 (  6041 PWs)   bands (ev):

   -13.3016 -13.2994 -13.2338 -13.1763 -13.1529 -13.0348 -13.0125 -12.9926
   -12.9215 -12.9163  -0.8649   3.6539   6.1537   7.6518   9.6584  11.5839
    11.7455  12.4612

     occupation numbers 
     1.0000   1.0000   1.0000   1.0000   1.0000   1.0000   1.0000   1.0000
     1.0000   1.0000   1.0000   1.0000   1.0000   1.0000   0.0000   0.0000
     0.0000   0.0000

          k = 0.4243 0.0000 0.0000 (  6046 PWs)   bands (ev):

   -13.2961 -13.2961 -13.2583 -13.1604 -13.1157 -13.0953 -13.0127 -12.9537
   -12.9259 -12.9259  -0.7135   3.4850   6.6362   6.6362   9.2312  10.1957
    13.5991  13.5991

     occupation numbers 
     1.0000   1.0000   1.0000   1.0000   1.0000   1.0000   1.0000   1.0000
     1.0000   1.0000   1.0000   1.0000   1.0000   1.0000   0.0000   0.0000
     0.0000   0.0000

          k = 0.4950 0.0707-0.0707 (  6038 PWs)   bands (ev):

   -13.3070 -13.3017 -13.2395 -13.1434 -13.1160 -13.0958 -13.0300 -12.9752
   -12.9176 -12.9115  -0.3004   2.7704   6.2060   6.4625   9.3902  10.1741
    13.5474  14.0011

     occupation numbers 
     1.0000   1.0000   1.0000   1.0000   1.0000   1.0000   1.0000   1.0000
     1.0000   1.0000   1.0000   1.0000   1.0000   1.0000   0.0000   0.0000
     0.0000   0.0000

          k =-0.1414-0.5657 0.5657 (  6027 PWs)   bands (ev):

   -13.3194 -13.3060 -13.2136 -13.1265 -13.1215 -13.0891 -13.0486 -13.0028
   -12.9112 -12.8973   0.1803   2.0914   5.6649   6.4540   9.5040  10.9875
    13.2852  13.9001

     occupation numbers 
     1.0000   1.0000   1.0000   1.0000   1.0000   1.0000   1.0000   1.0000
     1.0000   1.0000   1.0000   1.0000   1.0000   1.0000   0.0000   0.0000
     0.0000   0.0000

          k =-0.0707-0.4950 0.4950 (  5997 PWs)   bands (ev):

   -13.3261 -13.3081 -13.1984 -13.1139 -13.1105 -13.0978 -13.0640 -13.0185
   -12.9078 -12.8903   0.4067   1.8160   5.3140   6.6114   9.5838  12.2258
    13.1743  13.5110

     occupation numbers 
     1.0000   1.0000   1.0000   1.0000   1.0000   1.0000   1.0000   1.0000
     1.0000   1.0000   1.0000   1.0000   1.0000   1.0000   0.0000   0.0000
     0.0000   0.0000

          k =-0.0000-0.4243 0.4243 (  6013 PWs)   bands (ev):

   -13.3241 -13.3076 -13.1996 -13.1382 -13.1184 -13.0640 -13.0630 -13.0203
   -12.9080 -12.8934   0.0666   2.2280   5.3071   6.9102   9.7198  12.8370
    12.8783  12.9403

     occupation numbers 
     1.0000   1.0000   1.0000   1.0000   1.0000   1.0000   1.0000   1.0000
     1.0000   1.0000   1.0000   1.0000   1.0000   1.0000   0.0000   0.0000
     0.0000   0.0000

          k = 0.5657 0.0000 0.0000 (  6026 PWs)   bands (ev):

   -13.3058 -13.3058 -13.2324 -13.1472 -13.1250 -13.0672 -13.0474 -12.9816
   -12.9118 -12.9118   0.0832   2.2170   6.2543   6.2543   9.0972   9.6594
    14.8811  14.8812

     occupation numbers 
     1.0000   1.0000   1.0000   1.0000   1.0000   1.0000   1.0000   1.0000
     1.0000   1.0000   1.0000   1.0000   1.0000   1.0000   0.0000   0.0000
     0.0000   0.0000

          k =-0.0707-0.6364 0.6364 (  6008 PWs)   bands (ev):

   -13.3136 -13.3084 -13.2085 -13.1641 -13.1061 -13.0667 -13.0503 -13.0066
   -12.9078 -12.9025   0.5732   1.6187   5.9070   6.2099   9.2903   9.8086
    14.7586  15.0472

     occupation numbers 
     1.0000   1.0000   1.0000   1.0000   1.0000   1.0000   1.0000   1.0000
     1.0000   1.0000   1.0000   1.0000   1.0000   1.0000   0.0000   0.0000
     0.0000   0.0000

          k = 0.0000-0.5657 0.5657 (  5994 PWs)   bands (ev):

   -13.3233 -13.3094 -13.1938 -13.1476 -13.0946 -13.0803 -13.0653 -13.0214
   -12.9064 -12.8926   0.8294   1.3605   5.4555   6.3352   9.4026  10.9043
    14.2092  14.5011

     occupation numbers 
     1.0000   1.0000   1.0000   1.0000   1.0000   1.0000   1.0000   1.0000
     1.0000   1.0000   1.0000   1.0000   1.0000   1.0000   0.0000   0.0000
     0.0000   0.0000

          k =-0.7071 0.0000 0.0000 (  5962 PWs)   bands (ev):

   -13.3093 -13.3093 -13.1944 -13.1944 -13.0860 -13.0860 -13.0209 -13.0209
   -12.9066 -12.9066   1.0704   1.0705   6.1243   6.1243   9.2456   9.2456
    15.6032  15.6032

     occupation numbers 
     1.0000   1.0000   1.0000   1.0000   1.0000   1.0000   1.0000   1.0000
     1.0000   1.0000   1.0000   1.0000   1.0000   1.0000   0.0000   0.0000
     0.0000   0.0000

          k = 0.2828 0.1414 0.0000 (  6017 PWs)   bands (ev):

   -13.2919 -13.2889 -13.2555 -13.1848 -13.1619 -13.0382 -12.9938 -12.9667
   -12.9374 -12.9253  -1.1874   4.4403   6.8159   7.5321   9.9346  10.2872
    12.0818  12.2969

     occupation numbers 
     1.0000   1.0000   1.0000   1.0000   1.0000   1.0000   1.0000   1.0000
     1.0000   1.0000   1.0000   1.0000   1.0000   1.0000   0.0000   0.0000
     0.0000   0.0000

          k = 0.3536 0.2121-0.0707 (  6031 PWs)   bands (ev):

   -13.3031 -13.2978 -13.2381 -13.1714 -13.1458 -13.0520 -13.0072 -12.9872
   -12.9231 -12.9152  -0.7819   3.4771   6.2962   7.2590   9.8773  10.8610
    12.3059  12.6339

     occupation numbers 
     1.0000   1.0000   1.0000   1.0000   1.0000   1.0000   1.0000   1.0000
     1.0000   1.0000   1.0000   1.0000   1.0000   1.0000   0.0000   0.0000
     0.0000   0.0000

          k =-0.2828-0.4243 0.5657 (  6019 PWs)   bands (ev):

   -13.3124 -13.3022 -13.2219 -13.1584 -13.1393 -13.0545 -13.0210 -13.0067
   -12.9159 -12.9060  -0.3130   2.6050   6.0241   7.0155   9.7451  11.2410
    12.4097  13.2967

     occupation numbers 
     1.0000   1.0000   1.0000   1.0000   1.0000   1.0000   1.0000   1.0000
     1.0000   1.0000   1.0000   1.0000   1.0000   1.0000   0.0000   0.0000
     0.0000   0.0000

          k =-0.2121-0.3536 0.4950 (  6018 PWs)   bands (ev):

   -13.3157 -13.3036 -13.2152 -13.1499 -13.1414 -13.0489 -13.0334 -13.0127
   -12.9139 -12.9023  -0.0551   2.2027   5.9410   6.9232   9.6931  11.2937
    12.4567  14.0481

     occupation numbers 
     1.0000   1.0000   1.0000   1.0000   1.0000   1.0000   1.0000   1.0000
     1.0000   1.0000   1.0000   1.0000   1.0000   1.0000   0.0000   0.0000
     0.0000   0.0000

          k = 0.4243 0.1414-0.0000 (  6024 PWs)   bands (ev):

   -13.3020 -13.3018 -13.2425 -13.1598 -13.1212 -13.0865 -13.0149 -12.9752
   -12.9193 -12.9165  -0.6195   3.2819   6.2595   6.7462   9.8840  10.3903
    12.5466  13.5014

     occupation numbers 
     1.0000   1.0000   1.0000   1.0000   1.0000   1.0000   1.0000   1.0000
     1.0000   1.0000   1.0000   1.0000   1.0000   1.0000   0.0000   0.0000
     0.0000   0.0000

          k =-0.2121-0.4950 0.6364 (  6023 PWs)   bands (ev):

   -13.3152 -13.3066 -13.2181 -13.1441 -13.1104 -13.0955 -13.0326 -13.0010
   -12.9112 -12.9025  -0.1506   2.5235   5.8016   6.5331  10.0630  10.9933
    12.3295  13.8029

     occupation numbers 
     1.0000   1.0000   1.0000   1.0000   1.0000   1.0000   1.0000   1.0000
     1.0000   1.0000   1.0000   1.0000   1.0000   1.0000   0.0000   0.0000
     0.0000   0.0000

          k =-0.1414-0.4243 0.5657 (  6021 PWs)   bands (ev):

   -13.3229 -13.3092 -13.1998 -13.1317 -13.1132 -13.0890 -13.0499 -13.0189
   -12.9074 -12.8938   0.2354   1.9953   5.5033   6.4945  10.0830  11.6497
    12.6966  13.5836

     occupation numbers 
     1.0000   1.0000   1.0000   1.0000   1.0000   1.0000   1.0000   1.0000
     1.0000   1.0000   1.0000   1.0000   1.0000   1.0000   0.0000   0.0000
     0.0000   0.0000

          k =-0.0707-0.3536 0.4950 (  6017 PWs)   bands (ev):

   -13.3226 -13.3093 -13.1985 -13.1392 -13.1162 -13.0785 -13.0486 -13.0219
   -12.9067 -12.8947   0.1115   2.1570   5.4334   6.6576  10.1706  11.6652
    12.7701  13.5410

     occupation numbers 
     1.0000   1.0000   1.0000   1.0000   1.0000   1.0000   1.0000   1.0000
     1.0000   1.0000   1.0000   1.0000   1.0000   1.0000   0.0000   0.0000
     0.0000   0.0000

          k = 0.0000-0.2828 0.4243 (  6033 PWs)   bands (ev):

   -13.3143 -13.3064 -13.2146 -13.1577 -13.1265 -13.0691 -13.0217 -13.0131
   -12.9097 -12.9052  -0.3484   2.7993   5.6748   6.9619  10.2242  11.2870
    12.2071  13.2467

     occupation numbers 
     1.0000   1.0000   1.0000   1.0000   1.0000   1.0000   1.0000   1.0000
     1.0000   1.0000   1.0000   1.0000   1.0000   1.0000   0.0000   0.0000
     0.0000   0.0000

          k =-0.1414-0.5657 0.7071 (  6015 PWs)   bands (ev):

   -13.3114 -13.3105 -13.2175 -13.1358 -13.1256 -13.0765 -13.0484 -12.9978
   -12.9063 -12.9059   0.1487   2.1473   5.9497   6.1898   9.7079  10.0999
    13.4949  14.7589

     occupation numbers 
     1.0000   1.0000   1.0000   1.0000   1.0000   1.0000   1.0000   1.0000
     1.0000   1.0000   1.0000   1.0000   1.0000   1.0000   0.0000   0.0000
     0.0000   0.0000

          k =-0.0707-0.4950 0.6364 (  6013 PWs)   bands (ev):

   -13.3219 -13.3129 -13.1907 -13.1391 -13.1086 -13.0725 -13.0676 -13.0243
   -12.9031 -12.8941   0.6171   1.6032   5.5400   6.1269   9.9283  10.9644
    13.2057  14.2588

     occupation numbers 
     1.0000   1.0000   1.0000   1.0000   1.0000   1.0000   1.0000   1.0000
     1.0000   1.0000   1.0000   1.0000   1.0000   1.0000   0.0000   0.0000
     0.0000   0.0000

          k =-0.0000-0.4243 0.5657 (  5996 PWs)   bands (ev):

   -13.3266 -13.3126 -13.1859 -13.1122 -13.1105 -13.0921 -13.0738 -13.0288
   -12.9031 -12.8895   0.5715   1.6608   5.2881   6.3165  10.0710  12.2452
    12.9804  13.0512

     occupation numbers 
     1.0000   1.0000   1.0000   1.0000   1.0000   1.0000   1.0000   1.0000
     1.0000   1.0000   1.0000   1.0000   1.0000   1.0000   0.0000   0.0000
     0.0000   0.0000

          k =-0.7071 0.1414 0.0000 (  6014 PWs)   bands (ev):

   -13.3144 -13.3144 -13.1809 -13.1809 -13.0869 -13.0869 -13.0336 -13.0335
   -12.9014 -12.9014   1.0856   1.0857   5.9216   5.9216   9.7897   9.7897
    14.6409  14.6409

     occupation numbers 
     1.0000   1.0000   1.0000   1.0000   1.0000   1.0000   1.0000   1.0000
     1.0000   1.0000   1.0000   1.0000   1.0000   1.0000   0.0000   0.0000
     0.0000   0.0000

          k =-0.1414-0.4243 0.7071 (  6022 PWs)   bands (ev):

   -13.3215 -13.3150 -13.1901 -13.1269 -13.1132 -13.0911 -13.0549 -13.0265
   -12.9011 -12.8952   0.3274   1.9466   5.4917   6.1735  10.9304  11.0784
    12.0766  14.0182

     occupation numbers 
     1.0000   1.0000   1.0000   1.0000   1.0000   1.0000   1.0000   1.0000
     1.0000   1.0000   1.0000   1.0000   1.0000   1.0000   0.0000   0.0000
     0.0000   0.0000

          k =-0.0707-0.3536 0.6364 (  6010 PWs)   bands (ev):

   -13.3250 -13.3171 -13.1752 -13.1221 -13.1105 -13.0868 -13.0702 -13.0381
   -12.8988 -12.8910   0.6462   1.5912   5.4017   6.0099  10.9721  11.6035
    12.5463  12.8662

     occupation numbers 
     1.0000   1.0000   1.0000   1.0000   1.0000   1.0000   1.0000   1.0000
     1.0000   1.0000   1.0000   1.0000   1.0000   1.0000   0.0000   0.0000
     0.0000   0.0000

          k =-0.7071 0.2828 0.0000 (  6012 PWs)   bands (ev):

   -13.3214 -13.3214 -13.1554 -13.1554 -13.0911 -13.0911 -13.0550 -13.0550
   -12.8943 -12.8943   1.1109   1.1110   5.6546   5.6546  11.0458  11.0458
    12.9206  12.9206

     occupation numbers 
     1.0000   1.0000   1.0000   1.0000   1.0000   1.0000   1.0000   1.0000
     1.0000   1.0000   1.0000   1.0000   1.0000   1.0000   0.0000   0.0000
     0.0000   0.0000

     the Fermi energy is     8.2991 ev

!    total energy              =    -241.29892675 Ry
     Harris-Foulkes estimate   =    -241.29892674 Ry
     estimated scf accuracy    <       0.00000005 Ry

     The total energy is the sum of the following terms:

     one-electron contribution =    -109.44860343 Ry
     hartree contribution      =      65.33933485 Ry
     xc contribution           =     -29.40810564 Ry
     ewald contribution        =    -167.78134157 Ry
     smearing contrib. (-TS)   =      -0.00021097 Ry

     convergence has been achieved in   5 iterations

     Writing output data file Sn.save
 
     init_run     :      0.54s CPU      0.67s WALL (       1 calls)
     electrons    :      8.98s CPU     10.00s WALL (       1 calls)

     Called by init_run:
     wfcinit      :      0.40s CPU      0.46s WALL (       1 calls)
     potinit      :      0.01s CPU      0.01s WALL (       1 calls)

     Called by electrons:
     c_bands      :      7.91s CPU      8.88s WALL (       6 calls)
     sum_band     :      1.02s CPU      1.04s WALL (       6 calls)
     v_of_rho     :      0.04s CPU      0.05s WALL (       6 calls)
     v_h          :      0.00s CPU      0.00s WALL (       6 calls)
     v_xc         :      0.04s CPU      0.04s WALL (       6 calls)
     mix_rho      :      0.00s CPU      0.00s WALL (       6 calls)

     Called by c_bands:
     init_us_2    :      0.07s CPU      0.07s WALL (     611 calls)
     cegterg      :      7.54s CPU      8.48s WALL (     282 calls)

     Called by sum_band:

     Called by *egterg:
     h_psi        :      6.56s CPU      7.47s WALL (    1181 calls)
     g_psi        :      0.03s CPU      0.03s WALL (     852 calls)
     cdiaghg      :      0.68s CPU      0.70s WALL (    1087 calls)
     cegterg:over :      0.23s CPU      0.25s WALL (     852 calls)
     cegterg:upda :      0.09s CPU      0.09s WALL (     852 calls)
     cegterg:last :      0.05s CPU      0.05s WALL (     359 calls)

     Called by h_psi:
     h_psi:vloc   :      6.31s CPU      7.18s WALL (    1181 calls)
     h_psi:vnl    :      0.24s CPU      0.27s WALL (    1181 calls)
     add_vuspsi   :      0.08s CPU      0.09s WALL (    1181 calls)

     General routines
     calbec       :      0.15s CPU      0.18s WALL (    1181 calls)
     fft          :      0.03s CPU      0.03s WALL (      67 calls)
     fftw         :      6.70s CPU      7.53s WALL (   38086 calls)
     davcio       :      0.00s CPU      0.03s WALL (      47 calls)
 
     Parallel routines
     fft_scatter  :      2.82s CPU      3.17s WALL (   38153 calls)
 
     PWSCF        :     9.62s CPU        10.88s WALL

 
   This run was terminated on:   0:53:35  21Feb2020            

=------------------------------------------------------------------------------=
   JOB DONE.
=------------------------------------------------------------------------------=
