
     Program PWSCF v.5.4.0 starts on 21Feb2020 at  0:53:25 

     This program is part of the open-source Quantum ESPRESSO suite
     for quantum simulation of materials; please cite
         "P. Giannozzi et al., J. Phys.:Condens. Matter 21 395502 (2009);
          URL http://www.quantum-espresso.org", 
     in publications or presentations arising from this work. More details at
     http://www.quantum-espresso.org/quote

     Parallel version (MPI & OpenMP), running on      16 processor cores
     Number of MPI processes:                16
     Threads/MPI process:                     1
     R & G space division:  proc/nbgrp/npool/nimage =      16
     Waiting for input...
     Reading input from standard input
Warning: card &IONS ignored
Warning: card / ignored
Warning: card &CELL ignored
Warning: card / ignored

     Current dimensions of program PWSCF are:
     Max number of different atomic species (ntypx) = 10
     Max number of k-points (npk) =  40000
     Max angular momentum in pseudopotentials (lmaxx) =  3

     Subspace diagonalization in iterative solution of the eigenvalue problem:
     a serial algorithm will be used

 
     Parallelization info
     --------------------
     sticks:   dense  smooth     PW     G-vecs:    dense   smooth      PW
     Min         109     109     31                 3006     3006     473
     Max         111     111     32                 3009     3009     477
     Sum        1759    1759    511                48119    48119    7583
 

     Title: 
     Sn                                                                         


     bravais-lattice index     =            0
     lattice parameter (alat)  =       8.8993  a.u.
     unit-cell volume          =     498.3785 (a.u.)^3
     number of atoms/cell      =            2
     number of atomic types    =            1
     number of electrons       =        28.00
     number of Kohn-Sham states=           18
     kinetic-energy cutoff     =      80.0000  Ry
     charge density cutoff     =     320.0000  Ry
     convergence threshold     =      1.0E-06
     mixing beta               =       0.7000
     number of iterations used =            8  plain     mixing
     Exchange-correlation      = PBE ( 1  4  3  4 0 0)

     celldm(1)=   8.899346  celldm(2)=   0.000000  celldm(3)=   0.000000
     celldm(4)=   0.000000  celldm(5)=   0.000000  celldm(6)=   0.000000

     crystal axes: (cart. coord. in units of alat)
               a(1) = (   0.000000   0.707107   0.707107 )  
               a(2) = (   0.707107   0.000000   0.707107 )  
               a(3) = (   0.707107   0.707107   0.000000 )  

     reciprocal axes: (cart. coord. in units 2 pi/alat)
               b(1) = ( -0.707107  0.707107  0.707107 )  
               b(2) = (  0.707107 -0.707107  0.707107 )  
               b(3) = (  0.707107  0.707107 -0.707107 )  


     PseudoPot. # 1 for Sn read from file:
     ../PseudopotentialDatabase/Sn_ONCV_PBE-1.1.upf
     MD5 check sum: 7fc728ef37b8342e916bba54f6049344
     Pseudo is Norm-conserving, Zval = 14.0
     Generated using ONCVPSP code by D. R. Hamann
     Using radial grid of  602 points,  6 beta functions with: 
                l(1) =   0
                l(2) =   0
                l(3) =   1
                l(4) =   1
                l(5) =   2
                l(6) =   2

     atomic species   valence    mass     pseudopotential
        Sn            14.00   118.71000     Sn( 1.00)

     24 Sym. Ops. (no inversion) found
          (note: 24 additional sym.ops. were found but ignored
           their fractional translations are incommensurate with FFT grid)

                                    s                        frac. trans.

      isym =  1     identity                                     

 cryst.   s( 1) = (     1          0          0      )
                  (     0          1          0      )
                  (     0          0          1      )

 cart.    s( 1) = (  1.0000000  0.0000000  0.0000000 )
                  (  0.0000000  1.0000000  0.0000000 )
                  (  0.0000000  0.0000000  1.0000000 )


      isym =  2     180 deg rotation - cart. axis [0,0,1]        

 cryst.   s( 2) = (     0          1         -1      )
                  (     1          0         -1      )
                  (     0          0         -1      )

 cart.    s( 2) = ( -1.0000000  0.0000000  0.0000000 )
                  (  0.0000000 -1.0000000  0.0000000 )
                  (  0.0000000  0.0000000  1.0000000 )


      isym =  3     180 deg rotation - cart. axis [0,1,0]        

 cryst.   s( 3) = (     0         -1          1      )
                  (     0         -1          0      )
                  (     1         -1          0      )

 cart.    s( 3) = ( -1.0000000  0.0000000  0.0000000 )
                  (  0.0000000  1.0000000  0.0000000 )
                  (  0.0000000  0.0000000 -1.0000000 )


      isym =  4     180 deg rotation - cart. axis [1,0,0]        

 cryst.   s( 4) = (    -1          0          0      )
                  (    -1          0          1      )
                  (    -1          1          0      )

 cart.    s( 4) = (  1.0000000  0.0000000  0.0000000 )
                  (  0.0000000 -1.0000000  0.0000000 )
                  (  0.0000000  0.0000000 -1.0000000 )


      isym =  5     120 deg rotation - cart. axis [-1,-1,-1]     

 cryst.   s( 5) = (     0          0          1      )
                  (     1          0          0      )
                  (     0          1          0      )

 cart.    s( 5) = (  0.0000000  1.0000000  0.0000000 )
                  (  0.0000000  0.0000000  1.0000000 )
                  (  1.0000000  0.0000000  0.0000000 )


      isym =  6     120 deg rotation - cart. axis [-1,1,1]       

 cryst.   s( 6) = (     1         -1          0      )
                  (     0         -1          1      )
                  (     0         -1          0      )

 cart.    s( 6) = (  0.0000000 -1.0000000  0.0000000 )
                  (  0.0000000  0.0000000  1.0000000 )
                  ( -1.0000000  0.0000000  0.0000000 )


      isym =  7     120 deg rotation - cart. axis [1,1,-1]       

 cryst.   s( 7) = (    -1          1          0      )
                  (    -1          0          0      )
                  (    -1          0          1      )

 cart.    s( 7) = (  0.0000000  1.0000000  0.0000000 )
                  (  0.0000000  0.0000000 -1.0000000 )
                  ( -1.0000000  0.0000000  0.0000000 )


      isym =  8     120 deg rotation - cart. axis [1,-1,1]       

 cryst.   s( 8) = (     0          0         -1      )
                  (     0          1         -1      )
                  (     1          0         -1      )

 cart.    s( 8) = (  0.0000000 -1.0000000  0.0000000 )
                  (  0.0000000  0.0000000 -1.0000000 )
                  (  1.0000000  0.0000000  0.0000000 )


      isym =  9     120 deg rotation - cart. axis [1,1,1]        

 cryst.   s( 9) = (     0          1          0      )
                  (     0          0          1      )
                  (     1          0          0      )

 cart.    s( 9) = (  0.0000000  0.0000000  1.0000000 )
                  (  1.0000000  0.0000000  0.0000000 )
                  (  0.0000000  1.0000000  0.0000000 )


      isym = 10     120 deg rotation - cart. axis [-1,1,-1]      

 cryst.   s(10) = (    -1          0          1      )
                  (    -1          1          0      )
                  (    -1          0          0      )

 cart.    s(10) = (  0.0000000  0.0000000  1.0000000 )
                  ( -1.0000000  0.0000000  0.0000000 )
                  (  0.0000000 -1.0000000  0.0000000 )


      isym = 11     120 deg rotation - cart. axis [1,-1,-1]      

 cryst.   s(11) = (     1          0         -1      )
                  (     0          0         -1      )
                  (     0          1         -1      )

 cart.    s(11) = (  0.0000000  0.0000000 -1.0000000 )
                  ( -1.0000000  0.0000000  0.0000000 )
                  (  0.0000000  1.0000000  0.0000000 )


      isym = 12     120 deg rotation - cart. axis [-1,-1,1]      

 cryst.   s(12) = (     0         -1          0      )
                  (     1         -1          0      )
                  (     0         -1          1      )

 cart.    s(12) = (  0.0000000  0.0000000 -1.0000000 )
                  (  1.0000000  0.0000000  0.0000000 )
                  (  0.0000000 -1.0000000  0.0000000 )


      isym = 13     inv. 180 deg rotation - cart. axis [1,1,0]   

 cryst.   s(13) = (     1          0         -1      )
                  (     0          1         -1      )
                  (     0          0         -1      )

 cart.    s(13) = (  0.0000000 -1.0000000  0.0000000 )
                  ( -1.0000000  0.0000000  0.0000000 )
                  (  0.0000000  0.0000000  1.0000000 )


      isym = 14     inv. 180 deg rotation - cart. axis [1,-1,0]  

 cryst.   s(14) = (     0          1          0      )
                  (     1          0          0      )
                  (     0          0          1      )

 cart.    s(14) = (  0.0000000  1.0000000  0.0000000 )
                  (  1.0000000  0.0000000  0.0000000 )
                  (  0.0000000  0.0000000  1.0000000 )


      isym = 15     inv.  90 deg rotation - cart. axis [0,0,-1]  

 cryst.   s(15) = (     0         -1          0      )
                  (     0         -1          1      )
                  (     1         -1          0      )

 cart.    s(15) = (  0.0000000 -1.0000000  0.0000000 )
                  (  1.0000000  0.0000000  0.0000000 )
                  (  0.0000000  0.0000000 -1.0000000 )


      isym = 16     inv.  90 deg rotation - cart. axis [0,0,1]   

 cryst.   s(16) = (    -1          0          1      )
                  (    -1          0          0      )
                  (    -1          1          0      )

 cart.    s(16) = (  0.0000000  1.0000000  0.0000000 )
                  ( -1.0000000  0.0000000  0.0000000 )
                  (  0.0000000  0.0000000 -1.0000000 )


      isym = 17     inv. 180 deg rotation - cart. axis [1,0,1]   

 cryst.   s(17) = (     1         -1          0      )
                  (     0         -1          0      )
                  (     0         -1          1      )

 cart.    s(17) = (  0.0000000  0.0000000 -1.0000000 )
                  (  0.0000000  1.0000000  0.0000000 )
                  ( -1.0000000  0.0000000  0.0000000 )


      isym = 18     inv. 180 deg rotation - cart. axis [-1,0,1]  

 cryst.   s(18) = (     0          0          1      )
                  (     0          1          0      )
                  (     1          0          0      )

 cart.    s(18) = (  0.0000000  0.0000000  1.0000000 )
                  (  0.0000000  1.0000000  0.0000000 )
                  (  1.0000000  0.0000000  0.0000000 )


      isym = 19     inv.  90 deg rotation - cart. axis [0,1,0]   

 cryst.   s(19) = (     0          0         -1      )
                  (     1          0         -1      )
                  (     0          1         -1      )

 cart.    s(19) = (  0.0000000  0.0000000 -1.0000000 )
                  (  0.0000000 -1.0000000  0.0000000 )
                  (  1.0000000  0.0000000  0.0000000 )


      isym = 20     inv.  90 deg rotation - cart. axis [0,-1,0]  

 cryst.   s(20) = (    -1          1          0      )
                  (    -1          0          1      )
                  (    -1          0          0      )

 cart.    s(20) = (  0.0000000  0.0000000  1.0000000 )
                  (  0.0000000 -1.0000000  0.0000000 )
                  ( -1.0000000  0.0000000  0.0000000 )


      isym = 21     inv. 180 deg rotation - cart. axis [0,1,1]   

 cryst.   s(21) = (    -1          0          0      )
                  (    -1          1          0      )
                  (    -1          0          1      )

 cart.    s(21) = (  1.0000000  0.0000000  0.0000000 )
                  (  0.0000000  0.0000000 -1.0000000 )
                  (  0.0000000 -1.0000000  0.0000000 )


      isym = 22     inv. 180 deg rotation - cart. axis [0,1,-1]  

 cryst.   s(22) = (     1          0          0      )
                  (     0          0          1      )
                  (     0          1          0      )

 cart.    s(22) = (  1.0000000  0.0000000  0.0000000 )
                  (  0.0000000  0.0000000  1.0000000 )
                  (  0.0000000  1.0000000  0.0000000 )


      isym = 23     inv.  90 deg rotation - cart. axis [-1,0,0]  

 cryst.   s(23) = (     0          1         -1      )
                  (     0          0         -1      )
                  (     1          0         -1      )

 cart.    s(23) = ( -1.0000000  0.0000000  0.0000000 )
                  (  0.0000000  0.0000000 -1.0000000 )
                  (  0.0000000  1.0000000  0.0000000 )


      isym = 24     inv.  90 deg rotation - cart. axis [1,0,0]   

 cryst.   s(24) = (     0         -1          1      )
                  (     1         -1          0      )
                  (     0         -1          0      )

 cart.    s(24) = ( -1.0000000  0.0000000  0.0000000 )
                  (  0.0000000  0.0000000  1.0000000 )
                  (  0.0000000 -1.0000000  0.0000000 )


   Cartesian axes

     site n.     atom                  positions (alat units)
         1           Sn  tau(   1) = (   0.0000000   0.0000000   0.0000000  )
         2           Sn  tau(   2) = (   0.3535534   0.3535534   0.3535534  )

   Crystallographic axes

     site n.     atom                  positions (cryst. coord.)
         1           Sn  tau(   1) = (  0.0000000  0.0000000  0.0000000  )
         2           Sn  tau(   2) = (  0.2500000  0.2500000  0.2500000  )

     number of k points=   455  gaussian smearing, width (Ry)=  0.0100
                       cart. coord. in units 2pi/alat
        k(    1) = (   0.0000000   0.0000000   0.0000000), wk =   0.0001280
        k(    2) = (   0.0282843   0.0282843  -0.0282843), wk =   0.0010240
        k(    3) = (   0.0565685   0.0565685  -0.0565685), wk =   0.0010240
        k(    4) = (   0.0848528   0.0848528  -0.0848528), wk =   0.0010240
        k(    5) = (   0.1131371   0.1131371  -0.1131371), wk =   0.0010240
        k(    6) = (   0.1414214   0.1414214  -0.1414214), wk =   0.0010240
        k(    7) = (   0.1697056   0.1697056  -0.1697056), wk =   0.0010240
        k(    8) = (   0.1979899   0.1979899  -0.1979899), wk =   0.0010240
        k(    9) = (   0.2262742   0.2262742  -0.2262742), wk =   0.0010240
        k(   10) = (   0.2545584   0.2545584  -0.2545584), wk =   0.0010240
        k(   11) = (   0.2828427   0.2828427  -0.2828427), wk =   0.0010240
        k(   12) = (   0.3111270   0.3111270  -0.3111270), wk =   0.0010240
        k(   13) = (   0.3394113   0.3394113  -0.3394113), wk =   0.0010240
        k(   14) = (   0.0565685   0.0000000   0.0000000), wk =   0.0007680
        k(   15) = (   0.0848528   0.0282843  -0.0282843), wk =   0.0030720
        k(   16) = (   0.1131371   0.0565685  -0.0565685), wk =   0.0030720
        k(   17) = (   0.1414214   0.0848528  -0.0848528), wk =   0.0030720
        k(   18) = (   0.1697056   0.1131371  -0.1131371), wk =   0.0030720
        k(   19) = (   0.1979899   0.1414214  -0.1414214), wk =   0.0030720
        k(   20) = (   0.2262742   0.1697056  -0.1697056), wk =   0.0030720
        k(   21) = (   0.2545584   0.1979899  -0.1979899), wk =   0.0030720
        k(   22) = (   0.2828427   0.2262742  -0.2262742), wk =   0.0030720
        k(   23) = (   0.3111270   0.2545584  -0.2545584), wk =   0.0030720
        k(   24) = (   0.3394113   0.2828427  -0.2828427), wk =   0.0030720
        k(   25) = (   0.3676955   0.3111270  -0.3111270), wk =   0.0030720
        k(   26) = (  -0.3111270  -0.3676955   0.3676955), wk =   0.0030720
        k(   27) = (  -0.2828427  -0.3394113   0.3394113), wk =   0.0030720
        k(   28) = (  -0.2545584  -0.3111270   0.3111270), wk =   0.0030720
        k(   29) = (  -0.2262742  -0.2828427   0.2828427), wk =   0.0030720
        k(   30) = (  -0.1979899  -0.2545584   0.2545584), wk =   0.0030720
        k(   31) = (  -0.1697056  -0.2262742   0.2262742), wk =   0.0030720
        k(   32) = (  -0.1414214  -0.1979899   0.1979899), wk =   0.0030720
        k(   33) = (  -0.1131371  -0.1697056   0.1697056), wk =   0.0030720
        k(   34) = (  -0.0848528  -0.1414214   0.1414214), wk =   0.0030720
        k(   35) = (  -0.0565685  -0.1131371   0.1131371), wk =   0.0030720
        k(   36) = (  -0.0282843  -0.0848528   0.0848528), wk =   0.0030720
        k(   37) = (  -0.0000000  -0.0565685   0.0565685), wk =   0.0015360
        k(   38) = (   0.1131371   0.0000000   0.0000000), wk =   0.0007680
        k(   39) = (   0.1414214   0.0282843  -0.0282843), wk =   0.0030720
        k(   40) = (   0.1697056   0.0565685  -0.0565685), wk =   0.0030720
        k(   41) = (   0.1979899   0.0848528  -0.0848528), wk =   0.0030720
        k(   42) = (   0.2262742   0.1131371  -0.1131371), wk =   0.0030720
        k(   43) = (   0.2545584   0.1414214  -0.1414214), wk =   0.0030720
        k(   44) = (   0.2828427   0.1697056  -0.1697056), wk =   0.0030720
        k(   45) = (   0.3111270   0.1979899  -0.1979899), wk =   0.0030720
        k(   46) = (   0.3394113   0.2262742  -0.2262742), wk =   0.0030720
        k(   47) = (   0.3676955   0.2545584  -0.2545584), wk =   0.0030720
        k(   48) = (   0.3959798   0.2828427  -0.2828427), wk =   0.0030720
        k(   49) = (  -0.2828427  -0.3959798   0.3959798), wk =   0.0030720
        k(   50) = (  -0.2545584  -0.3676955   0.3676955), wk =   0.0030720
        k(   51) = (  -0.2262742  -0.3394113   0.3394113), wk =   0.0030720
        k(   52) = (  -0.1979899  -0.3111270   0.3111270), wk =   0.0030720
        k(   53) = (  -0.1697056  -0.2828427   0.2828427), wk =   0.0030720
        k(   54) = (  -0.1414214  -0.2545584   0.2545584), wk =   0.0030720
        k(   55) = (  -0.1131371  -0.2262742   0.2262742), wk =   0.0030720
        k(   56) = (  -0.0848528  -0.1979899   0.1979899), wk =   0.0030720
        k(   57) = (  -0.0565685  -0.1697056   0.1697056), wk =   0.0030720
        k(   58) = (  -0.0282843  -0.1414214   0.1414214), wk =   0.0030720
        k(   59) = (   0.0000000  -0.1131371   0.1131371), wk =   0.0015360
        k(   60) = (   0.1697056   0.0000000   0.0000000), wk =   0.0007680
        k(   61) = (   0.1979899   0.0282843  -0.0282843), wk =   0.0030720
        k(   62) = (   0.2262742   0.0565685  -0.0565685), wk =   0.0030720
        k(   63) = (   0.2545584   0.0848528  -0.0848528), wk =   0.0030720
        k(   64) = (   0.2828427   0.1131371  -0.1131371), wk =   0.0030720
        k(   65) = (   0.3111270   0.1414214  -0.1414214), wk =   0.0030720
        k(   66) = (   0.3394113   0.1697056  -0.1697056), wk =   0.0030720
        k(   67) = (   0.3676955   0.1979899  -0.1979899), wk =   0.0030720
        k(   68) = (   0.3959798   0.2262742  -0.2262742), wk =   0.0030720
        k(   69) = (   0.4242641   0.2545584  -0.2545584), wk =   0.0030720
        k(   70) = (  -0.2545584  -0.4242641   0.4242641), wk =   0.0030720
        k(   71) = (  -0.2262742  -0.3959798   0.3959798), wk =   0.0030720
        k(   72) = (  -0.1979899  -0.3676955   0.3676955), wk =   0.0030720
        k(   73) = (  -0.1697056  -0.3394113   0.3394113), wk =   0.0030720
        k(   74) = (  -0.1414214  -0.3111270   0.3111270), wk =   0.0030720
        k(   75) = (  -0.1131371  -0.2828427   0.2828427), wk =   0.0030720
        k(   76) = (  -0.0848528  -0.2545584   0.2545584), wk =   0.0030720
        k(   77) = (  -0.0565685  -0.2262742   0.2262742), wk =   0.0030720
        k(   78) = (  -0.0282843  -0.1979899   0.1979899), wk =   0.0030720
        k(   79) = (   0.0000000  -0.1697056   0.1697056), wk =   0.0015360
        k(   80) = (   0.2262742   0.0000000   0.0000000), wk =   0.0007680
        k(   81) = (   0.2545584   0.0282843  -0.0282843), wk =   0.0030720
        k(   82) = (   0.2828427   0.0565685  -0.0565685), wk =   0.0030720
        k(   83) = (   0.3111270   0.0848528  -0.0848528), wk =   0.0030720
        k(   84) = (   0.3394113   0.1131371  -0.1131371), wk =   0.0030720
        k(   85) = (   0.3676955   0.1414214  -0.1414214), wk =   0.0030720
        k(   86) = (   0.3959798   0.1697056  -0.1697056), wk =   0.0030720
        k(   87) = (   0.4242641   0.1979899  -0.1979899), wk =   0.0030720
        k(   88) = (   0.4525483   0.2262742  -0.2262742), wk =   0.0030720
        k(   89) = (  -0.2262742  -0.4525483   0.4525483), wk =   0.0030720
        k(   90) = (  -0.1979899  -0.4242641   0.4242641), wk =   0.0030720
        k(   91) = (  -0.1697056  -0.3959798   0.3959798), wk =   0.0030720
        k(   92) = (  -0.1414214  -0.3676955   0.3676955), wk =   0.0030720
        k(   93) = (  -0.1131371  -0.3394113   0.3394113), wk =   0.0030720
        k(   94) = (  -0.0848528  -0.3111270   0.3111270), wk =   0.0030720
        k(   95) = (  -0.0565685  -0.2828427   0.2828427), wk =   0.0030720
        k(   96) = (  -0.0282843  -0.2545584   0.2545584), wk =   0.0030720
        k(   97) = (  -0.0000000  -0.2262742   0.2262742), wk =   0.0015360
        k(   98) = (   0.2828427   0.0000000   0.0000000), wk =   0.0007680
        k(   99) = (   0.3111270   0.0282843  -0.0282843), wk =   0.0030720
        k(  100) = (   0.3394113   0.0565685  -0.0565685), wk =   0.0030720
        k(  101) = (   0.3676955   0.0848528  -0.0848528), wk =   0.0030720
        k(  102) = (   0.3959798   0.1131371  -0.1131371), wk =   0.0030720
        k(  103) = (   0.4242641   0.1414214  -0.1414214), wk =   0.0030720
        k(  104) = (   0.4525483   0.1697056  -0.1697056), wk =   0.0030720
        k(  105) = (   0.4808326   0.1979899  -0.1979899), wk =   0.0030720
        k(  106) = (  -0.1979899  -0.4808326   0.4808326), wk =   0.0030720
        k(  107) = (  -0.1697056  -0.4525483   0.4525483), wk =   0.0030720
        k(  108) = (  -0.1414214  -0.4242641   0.4242641), wk =   0.0030720
        k(  109) = (  -0.1131371  -0.3959798   0.3959798), wk =   0.0030720
        k(  110) = (  -0.0848528  -0.3676955   0.3676955), wk =   0.0030720
        k(  111) = (  -0.0565685  -0.3394113   0.3394113), wk =   0.0030720
        k(  112) = (  -0.0282843  -0.3111270   0.3111270), wk =   0.0030720
        k(  113) = (   0.0000000  -0.2828427   0.2828427), wk =   0.0015360
        k(  114) = (   0.3394113   0.0000000   0.0000000), wk =   0.0007680
        k(  115) = (   0.3676955   0.0282843  -0.0282843), wk =   0.0030720
        k(  116) = (   0.3959798   0.0565685  -0.0565685), wk =   0.0030720
        k(  117) = (   0.4242641   0.0848528  -0.0848528), wk =   0.0030720
        k(  118) = (   0.4525483   0.1131371  -0.1131371), wk =   0.0030720
        k(  119) = (   0.4808326   0.1414214  -0.1414214), wk =   0.0030720
        k(  120) = (   0.5091169   0.1697056  -0.1697056), wk =   0.0030720
        k(  121) = (  -0.1697056  -0.5091169   0.5091169), wk =   0.0030720
        k(  122) = (  -0.1414214  -0.4808326   0.4808326), wk =   0.0030720
        k(  123) = (  -0.1131371  -0.4525483   0.4525483), wk =   0.0030720
        k(  124) = (  -0.0848528  -0.4242641   0.4242641), wk =   0.0030720
        k(  125) = (  -0.0565685  -0.3959798   0.3959798), wk =   0.0030720
        k(  126) = (  -0.0282843  -0.3676955   0.3676955), wk =   0.0030720
        k(  127) = (   0.0000000  -0.3394113   0.3394113), wk =   0.0015360
        k(  128) = (   0.3959798   0.0000000   0.0000000), wk =   0.0007680
        k(  129) = (   0.4242641   0.0282843  -0.0282843), wk =   0.0030720
        k(  130) = (   0.4525483   0.0565685  -0.0565685), wk =   0.0030720
        k(  131) = (   0.4808326   0.0848528  -0.0848528), wk =   0.0030720
        k(  132) = (   0.5091169   0.1131371  -0.1131371), wk =   0.0030720
        k(  133) = (   0.5374012   0.1414214  -0.1414214), wk =   0.0030720
        k(  134) = (  -0.1414214  -0.5374012   0.5374012), wk =   0.0030720
        k(  135) = (  -0.1131371  -0.5091169   0.5091169), wk =   0.0030720
        k(  136) = (  -0.0848528  -0.4808326   0.4808326), wk =   0.0030720
        k(  137) = (  -0.0565685  -0.4525483   0.4525483), wk =   0.0030720
        k(  138) = (  -0.0282843  -0.4242641   0.4242641), wk =   0.0030720
        k(  139) = (   0.0000000  -0.3959798   0.3959798), wk =   0.0015360
        k(  140) = (   0.4525483   0.0000000   0.0000000), wk =   0.0007680
        k(  141) = (   0.4808326   0.0282843  -0.0282843), wk =   0.0030720
        k(  142) = (   0.5091169   0.0565685  -0.0565685), wk =   0.0030720
        k(  143) = (   0.5374012   0.0848528  -0.0848528), wk =   0.0030720
        k(  144) = (   0.5656854   0.1131371  -0.1131371), wk =   0.0030720
        k(  145) = (  -0.1131371  -0.5656854   0.5656854), wk =   0.0030720
        k(  146) = (  -0.0848528  -0.5374012   0.5374012), wk =   0.0030720
        k(  147) = (  -0.0565685  -0.5091169   0.5091169), wk =   0.0030720
        k(  148) = (  -0.0282843  -0.4808326   0.4808326), wk =   0.0030720
        k(  149) = (   0.0000000  -0.4525483   0.4525483), wk =   0.0015360
        k(  150) = (   0.5091169   0.0000000   0.0000000), wk =   0.0007680
        k(  151) = (   0.5374012   0.0282843  -0.0282843), wk =   0.0030720
        k(  152) = (   0.5656854   0.0565685  -0.0565685), wk =   0.0030720
        k(  153) = (   0.5939697   0.0848528  -0.0848528), wk =   0.0030720
        k(  154) = (  -0.0848528  -0.5939697   0.5939697), wk =   0.0030720
        k(  155) = (  -0.0565685  -0.5656854   0.5656854), wk =   0.0030720
        k(  156) = (  -0.0282843  -0.5374012   0.5374012), wk =   0.0030720
        k(  157) = (   0.0000000  -0.5091169   0.5091169), wk =   0.0015360
        k(  158) = (   0.5656854   0.0000000   0.0000000), wk =   0.0007680
        k(  159) = (   0.5939697   0.0282843  -0.0282843), wk =   0.0030720
        k(  160) = (   0.6222540   0.0565685  -0.0565685), wk =   0.0030720
        k(  161) = (  -0.0565685  -0.6222540   0.6222540), wk =   0.0030720
        k(  162) = (  -0.0282843  -0.5939697   0.5939697), wk =   0.0030720
        k(  163) = (   0.0000000  -0.5656854   0.5656854), wk =   0.0015360
        k(  164) = (   0.6222540   0.0000000   0.0000000), wk =   0.0007680
        k(  165) = (   0.6505382   0.0282843  -0.0282843), wk =   0.0030720
        k(  166) = (  -0.0282843  -0.6505382   0.6505382), wk =   0.0030720
        k(  167) = (   0.0000000  -0.6222540   0.6222540), wk =   0.0015360
        k(  168) = (   0.6788225   0.0000000   0.0000000), wk =   0.0007680
        k(  169) = (   0.0000000  -0.6788225   0.6788225), wk =   0.0015360
        k(  170) = (   0.1131371   0.0565685   0.0000000), wk =   0.0030720
        k(  171) = (   0.1414214   0.0848528  -0.0282843), wk =   0.0061440
        k(  172) = (   0.1697056   0.1131371  -0.0565685), wk =   0.0061440
        k(  173) = (   0.1979899   0.1414214  -0.0848528), wk =   0.0061440
        k(  174) = (   0.2262742   0.1697056  -0.1131371), wk =   0.0061440
        k(  175) = (   0.2545584   0.1979899  -0.1414214), wk =   0.0061440
        k(  176) = (   0.2828427   0.2262742  -0.1697056), wk =   0.0061440
        k(  177) = (   0.3111270   0.2545584  -0.1979899), wk =   0.0061440
        k(  178) = (   0.3394113   0.2828427  -0.2262742), wk =   0.0061440
        k(  179) = (   0.3676955   0.3111270  -0.2545584), wk =   0.0061440
        k(  180) = (  -0.3111270  -0.3676955   0.4242641), wk =   0.0061440
        k(  181) = (   0.1697056   0.0565685   0.0000000), wk =   0.0030720
        k(  182) = (   0.1979899   0.0848528  -0.0282843), wk =   0.0061440
        k(  183) = (   0.2262742   0.1131371  -0.0565685), wk =   0.0061440
        k(  184) = (   0.2545584   0.1414214  -0.0848528), wk =   0.0061440
        k(  185) = (   0.2828427   0.1697056  -0.1131371), wk =   0.0061440
        k(  186) = (   0.3111270   0.1979899  -0.1414214), wk =   0.0061440
        k(  187) = (   0.3394113   0.2262742  -0.1697056), wk =   0.0061440
        k(  188) = (   0.3676955   0.2545584  -0.1979899), wk =   0.0061440
        k(  189) = (   0.3959798   0.2828427  -0.2262742), wk =   0.0061440
        k(  190) = (  -0.2828427  -0.3959798   0.4525483), wk =   0.0061440
        k(  191) = (  -0.2545584  -0.3676955   0.4242641), wk =   0.0061440
        k(  192) = (  -0.2262742  -0.3394113   0.3959798), wk =   0.0061440
        k(  193) = (  -0.1979899  -0.3111270   0.3676955), wk =   0.0061440
        k(  194) = (  -0.1697056  -0.2828427   0.3394113), wk =   0.0061440
        k(  195) = (  -0.1414214  -0.2545584   0.3111270), wk =   0.0061440
        k(  196) = (  -0.1131371  -0.2262742   0.2828427), wk =   0.0061440
        k(  197) = (  -0.0848528  -0.1979899   0.2545584), wk =   0.0061440
        k(  198) = (  -0.0565685  -0.1697056   0.2262742), wk =   0.0061440
        k(  199) = (  -0.0282843  -0.1414214   0.1979899), wk =   0.0061440
        k(  200) = (   0.0000000  -0.1131371   0.1697056), wk =   0.0030720
        k(  201) = (   0.2262742   0.0565685   0.0000000), wk =   0.0030720
        k(  202) = (   0.2545584   0.0848528  -0.0282843), wk =   0.0061440
        k(  203) = (   0.2828427   0.1131371  -0.0565685), wk =   0.0061440
        k(  204) = (   0.3111270   0.1414214  -0.0848528), wk =   0.0061440
        k(  205) = (   0.3394113   0.1697056  -0.1131371), wk =   0.0061440
        k(  206) = (   0.3676955   0.1979899  -0.1414214), wk =   0.0061440
        k(  207) = (   0.3959798   0.2262742  -0.1697056), wk =   0.0061440
        k(  208) = (   0.4242641   0.2545584  -0.1979899), wk =   0.0061440
        k(  209) = (  -0.2545584  -0.4242641   0.4808326), wk =   0.0061440
        k(  210) = (  -0.2262742  -0.3959798   0.4525483), wk =   0.0061440
        k(  211) = (  -0.1979899  -0.3676955   0.4242641), wk =   0.0061440
        k(  212) = (  -0.1697056  -0.3394113   0.3959798), wk =   0.0061440
        k(  213) = (  -0.1414214  -0.3111270   0.3676955), wk =   0.0061440
        k(  214) = (  -0.1131371  -0.2828427   0.3394113), wk =   0.0061440
        k(  215) = (  -0.0848528  -0.2545584   0.3111270), wk =   0.0061440
        k(  216) = (  -0.0565685  -0.2262742   0.2828427), wk =   0.0061440
        k(  217) = (  -0.0282843  -0.1979899   0.2545584), wk =   0.0061440
        k(  218) = (   0.0000000  -0.1697056   0.2262742), wk =   0.0030720
        k(  219) = (   0.2828427   0.0565685   0.0000000), wk =   0.0030720
        k(  220) = (   0.3111270   0.0848528  -0.0282843), wk =   0.0061440
        k(  221) = (   0.3394113   0.1131371  -0.0565685), wk =   0.0061440
        k(  222) = (   0.3676955   0.1414214  -0.0848528), wk =   0.0061440
        k(  223) = (   0.3959798   0.1697056  -0.1131371), wk =   0.0061440
        k(  224) = (   0.4242641   0.1979899  -0.1414214), wk =   0.0061440
        k(  225) = (   0.4525483   0.2262742  -0.1697056), wk =   0.0061440
        k(  226) = (  -0.2262742  -0.4525483   0.5091169), wk =   0.0061440
        k(  227) = (  -0.1979899  -0.4242641   0.4808326), wk =   0.0061440
        k(  228) = (  -0.1697056  -0.3959798   0.4525483), wk =   0.0061440
        k(  229) = (  -0.1414214  -0.3676955   0.4242641), wk =   0.0061440
        k(  230) = (  -0.1131371  -0.3394113   0.3959798), wk =   0.0061440
        k(  231) = (  -0.0848528  -0.3111270   0.3676955), wk =   0.0061440
        k(  232) = (  -0.0565685  -0.2828427   0.3394113), wk =   0.0061440
        k(  233) = (  -0.0282843  -0.2545584   0.3111270), wk =   0.0061440
        k(  234) = (  -0.0000000  -0.2262742   0.2828427), wk =   0.0030720
        k(  235) = (   0.3394113   0.0565685   0.0000000), wk =   0.0030720
        k(  236) = (   0.3676955   0.0848528  -0.0282843), wk =   0.0061440
        k(  237) = (   0.3959798   0.1131371  -0.0565685), wk =   0.0061440
        k(  238) = (   0.4242641   0.1414214  -0.0848528), wk =   0.0061440
        k(  239) = (   0.4525483   0.1697056  -0.1131371), wk =   0.0061440
        k(  240) = (   0.4808326   0.1979899  -0.1414214), wk =   0.0061440
        k(  241) = (  -0.1979899  -0.4808326   0.5374012), wk =   0.0061440
        k(  242) = (  -0.1697056  -0.4525483   0.5091169), wk =   0.0061440
        k(  243) = (  -0.1414214  -0.4242641   0.4808326), wk =   0.0061440
        k(  244) = (  -0.1131371  -0.3959798   0.4525483), wk =   0.0061440
        k(  245) = (  -0.0848528  -0.3676955   0.4242641), wk =   0.0061440
        k(  246) = (  -0.0565685  -0.3394113   0.3959798), wk =   0.0061440
        k(  247) = (  -0.0282843  -0.3111270   0.3676955), wk =   0.0061440
        k(  248) = (   0.0000000  -0.2828427   0.3394113), wk =   0.0030720
        k(  249) = (   0.3959798   0.0565685   0.0000000), wk =   0.0030720
        k(  250) = (   0.4242641   0.0848528  -0.0282843), wk =   0.0061440
        k(  251) = (   0.4525483   0.1131371  -0.0565685), wk =   0.0061440
        k(  252) = (   0.4808326   0.1414214  -0.0848528), wk =   0.0061440
        k(  253) = (   0.5091169   0.1697056  -0.1131371), wk =   0.0061440
        k(  254) = (  -0.1697056  -0.5091169   0.5656854), wk =   0.0061440
        k(  255) = (  -0.1414214  -0.4808326   0.5374012), wk =   0.0061440
        k(  256) = (  -0.1131371  -0.4525483   0.5091169), wk =   0.0061440
        k(  257) = (  -0.0848528  -0.4242641   0.4808326), wk =   0.0061440
        k(  258) = (  -0.0565685  -0.3959798   0.4525483), wk =   0.0061440
        k(  259) = (  -0.0282843  -0.3676955   0.4242641), wk =   0.0061440
        k(  260) = (   0.0000000  -0.3394113   0.3959798), wk =   0.0030720
        k(  261) = (   0.4525483   0.0565685   0.0000000), wk =   0.0030720
        k(  262) = (   0.4808326   0.0848528  -0.0282843), wk =   0.0061440
        k(  263) = (   0.5091169   0.1131371  -0.0565685), wk =   0.0061440
        k(  264) = (   0.5374012   0.1414214  -0.0848528), wk =   0.0061440
        k(  265) = (  -0.1414214  -0.5374012   0.5939697), wk =   0.0061440
        k(  266) = (  -0.1131371  -0.5091169   0.5656854), wk =   0.0061440
        k(  267) = (  -0.0848528  -0.4808326   0.5374012), wk =   0.0061440
        k(  268) = (  -0.0565685  -0.4525483   0.5091169), wk =   0.0061440
        k(  269) = (  -0.0282843  -0.4242641   0.4808326), wk =   0.0061440
        k(  270) = (   0.0000000  -0.3959798   0.4525483), wk =   0.0030720
        k(  271) = (   0.5091169   0.0565685  -0.0000000), wk =   0.0030720
        k(  272) = (   0.5374012   0.0848528  -0.0282843), wk =   0.0061440
        k(  273) = (   0.5656854   0.1131371  -0.0565685), wk =   0.0061440
        k(  274) = (  -0.1131371  -0.5656854   0.6222540), wk =   0.0061440
        k(  275) = (  -0.0848528  -0.5374012   0.5939697), wk =   0.0061440
        k(  276) = (  -0.0565685  -0.5091169   0.5656854), wk =   0.0061440
        k(  277) = (  -0.0282843  -0.4808326   0.5374012), wk =   0.0061440
        k(  278) = (   0.0000000  -0.4525483   0.5091169), wk =   0.0030720
        k(  279) = (   0.5656854   0.0565685   0.0000000), wk =   0.0030720
        k(  280) = (   0.5939697   0.0848528  -0.0282843), wk =   0.0061440
        k(  281) = (  -0.0848528  -0.5939697   0.6505382), wk =   0.0061440
        k(  282) = (  -0.0565685  -0.5656854   0.6222540), wk =   0.0061440
        k(  283) = (  -0.0282843  -0.5374012   0.5939697), wk =   0.0061440
        k(  284) = (   0.0000000  -0.5091169   0.5656854), wk =   0.0030720
        k(  285) = (   0.6222540   0.0565685   0.0000000), wk =   0.0030720
        k(  286) = (  -0.0565685  -0.6222540   0.6788225), wk =   0.0061440
        k(  287) = (  -0.0282843  -0.5939697   0.6505382), wk =   0.0061440
        k(  288) = (  -0.0000000  -0.5656854   0.6222540), wk =   0.0030720
        k(  289) = (  -0.0282843  -0.6505382   0.7071068), wk =   0.0030720
        k(  290) = (   0.0000000  -0.6222540   0.6788225), wk =   0.0030720
        k(  291) = (   0.2262742   0.1131371   0.0000000), wk =   0.0030720
        k(  292) = (   0.2545584   0.1414214  -0.0282843), wk =   0.0061440
        k(  293) = (   0.2828427   0.1697056  -0.0565685), wk =   0.0061440
        k(  294) = (   0.3111270   0.1979899  -0.0848528), wk =   0.0061440
        k(  295) = (   0.3394113   0.2262742  -0.1131371), wk =   0.0061440
        k(  296) = (   0.3676955   0.2545584  -0.1414214), wk =   0.0061440
        k(  297) = (   0.3959798   0.2828427  -0.1697056), wk =   0.0061440
        k(  298) = (  -0.2828427  -0.3959798   0.5091169), wk =   0.0061440
        k(  299) = (  -0.2545584  -0.3676955   0.4808326), wk =   0.0061440
        k(  300) = (   0.2828427   0.1131371   0.0000000), wk =   0.0030720
        k(  301) = (   0.3111270   0.1414214  -0.0282843), wk =   0.0061440
        k(  302) = (   0.3394113   0.1697056  -0.0565685), wk =   0.0061440
        k(  303) = (   0.3676955   0.1979899  -0.0848528), wk =   0.0061440
        k(  304) = (   0.3959798   0.2262742  -0.1131371), wk =   0.0061440
        k(  305) = (   0.4242641   0.2545584  -0.1414214), wk =   0.0061440
        k(  306) = (  -0.2545584  -0.4242641   0.5374012), wk =   0.0061440
        k(  307) = (  -0.2262742  -0.3959798   0.5091169), wk =   0.0061440
        k(  308) = (  -0.1979899  -0.3676955   0.4808326), wk =   0.0061440
        k(  309) = (  -0.1697056  -0.3394113   0.4525483), wk =   0.0061440
        k(  310) = (  -0.1414214  -0.3111270   0.4242641), wk =   0.0061440
        k(  311) = (  -0.1131371  -0.2828427   0.3959798), wk =   0.0061440
        k(  312) = (  -0.0848528  -0.2545584   0.3676955), wk =   0.0061440
        k(  313) = (  -0.0565685  -0.2262742   0.3394113), wk =   0.0061440
        k(  314) = (  -0.0282843  -0.1979899   0.3111270), wk =   0.0061440
        k(  315) = (   0.0000000  -0.1697056   0.2828427), wk =   0.0030720
        k(  316) = (   0.3394113   0.1131371   0.0000000), wk =   0.0030720
        k(  317) = (   0.3676955   0.1414214  -0.0282843), wk =   0.0061440
        k(  318) = (   0.3959798   0.1697056  -0.0565685), wk =   0.0061440
        k(  319) = (   0.4242641   0.1979899  -0.0848528), wk =   0.0061440
        k(  320) = (   0.4525483   0.2262742  -0.1131371), wk =   0.0061440
        k(  321) = (  -0.2262742  -0.4525483   0.5656854), wk =   0.0061440
        k(  322) = (  -0.1979899  -0.4242641   0.5374012), wk =   0.0061440
        k(  323) = (  -0.1697056  -0.3959798   0.5091169), wk =   0.0061440
        k(  324) = (  -0.1414214  -0.3676955   0.4808326), wk =   0.0061440
        k(  325) = (  -0.1131371  -0.3394113   0.4525483), wk =   0.0061440
        k(  326) = (  -0.0848528  -0.3111270   0.4242641), wk =   0.0061440
        k(  327) = (  -0.0565685  -0.2828427   0.3959798), wk =   0.0061440
        k(  328) = (  -0.0282843  -0.2545584   0.3676955), wk =   0.0061440
        k(  329) = (  -0.0000000  -0.2262742   0.3394113), wk =   0.0030720
        k(  330) = (   0.3959798   0.1131371   0.0000000), wk =   0.0030720
        k(  331) = (   0.4242641   0.1414214  -0.0282843), wk =   0.0061440
        k(  332) = (   0.4525483   0.1697056  -0.0565685), wk =   0.0061440
        k(  333) = (   0.4808326   0.1979899  -0.0848528), wk =   0.0061440
        k(  334) = (  -0.1979899  -0.4808326   0.5939697), wk =   0.0061440
        k(  335) = (  -0.1697056  -0.4525483   0.5656854), wk =   0.0061440
        k(  336) = (  -0.1414214  -0.4242641   0.5374012), wk =   0.0061440
        k(  337) = (  -0.1131371  -0.3959798   0.5091169), wk =   0.0061440
        k(  338) = (  -0.0848528  -0.3676955   0.4808326), wk =   0.0061440
        k(  339) = (  -0.0565685  -0.3394113   0.4525483), wk =   0.0061440
        k(  340) = (  -0.0282843  -0.3111270   0.4242641), wk =   0.0061440
        k(  341) = (   0.0000000  -0.2828427   0.3959798), wk =   0.0030720
        k(  342) = (   0.4525483   0.1131371   0.0000000), wk =   0.0030720
        k(  343) = (   0.4808326   0.1414214  -0.0282843), wk =   0.0061440
        k(  344) = (   0.5091169   0.1697056  -0.0565685), wk =   0.0061440
        k(  345) = (  -0.1697056  -0.5091169   0.6222540), wk =   0.0061440
        k(  346) = (  -0.1414214  -0.4808326   0.5939697), wk =   0.0061440
        k(  347) = (  -0.1131371  -0.4525483   0.5656854), wk =   0.0061440
        k(  348) = (  -0.0848528  -0.4242641   0.5374012), wk =   0.0061440
        k(  349) = (  -0.0565685  -0.3959798   0.5091169), wk =   0.0061440
        k(  350) = (  -0.0282843  -0.3676955   0.4808326), wk =   0.0061440
        k(  351) = (   0.0000000  -0.3394113   0.4525483), wk =   0.0030720
        k(  352) = (   0.5091169   0.1131371   0.0000000), wk =   0.0030720
        k(  353) = (   0.5374012   0.1414214  -0.0282843), wk =   0.0061440
        k(  354) = (  -0.1414214  -0.5374012   0.6505382), wk =   0.0061440
        k(  355) = (  -0.1131371  -0.5091169   0.6222540), wk =   0.0061440
        k(  356) = (  -0.0848528  -0.4808326   0.5939697), wk =   0.0061440
        k(  357) = (  -0.0565685  -0.4525483   0.5656854), wk =   0.0061440
        k(  358) = (  -0.0282843  -0.4242641   0.5374012), wk =   0.0061440
        k(  359) = (  -0.0000000  -0.3959798   0.5091169), wk =   0.0030720
        k(  360) = (   0.5656854   0.1131371   0.0000000), wk =   0.0030720
        k(  361) = (  -0.1131371  -0.5656854   0.6788225), wk =   0.0061440
        k(  362) = (  -0.0848528  -0.5374012   0.6505382), wk =   0.0061440
        k(  363) = (  -0.0565685  -0.5091169   0.6222540), wk =   0.0061440
        k(  364) = (  -0.0282843  -0.4808326   0.5939697), wk =   0.0061440
        k(  365) = (   0.0000000  -0.4525483   0.5656854), wk =   0.0030720
        k(  366) = (  -0.0848528  -0.5939697   0.7071068), wk =   0.0030720
        k(  367) = (  -0.0565685  -0.5656854   0.6788225), wk =   0.0061440
        k(  368) = (  -0.0282843  -0.5374012   0.6505382), wk =   0.0061440
        k(  369) = (   0.0000000  -0.5091169   0.6222540), wk =   0.0030720
        k(  370) = (  -0.0282843  -0.5939697   0.7071068), wk =   0.0030720
        k(  371) = (  -0.0000000  -0.5656854   0.6788225), wk =   0.0030720
        k(  372) = (   0.3394113   0.1697056   0.0000000), wk =   0.0030720
        k(  373) = (   0.3676955   0.1979899  -0.0282843), wk =   0.0061440
        k(  374) = (   0.3959798   0.2262742  -0.0565685), wk =   0.0061440
        k(  375) = (   0.4242641   0.2545584  -0.0848528), wk =   0.0061440
        k(  376) = (  -0.2545584  -0.4242641   0.5939697), wk =   0.0061440
        k(  377) = (  -0.2262742  -0.3959798   0.5656854), wk =   0.0061440
        k(  378) = (  -0.1979899  -0.3676955   0.5374012), wk =   0.0061440
        k(  379) = (   0.3959798   0.1697056  -0.0000000), wk =   0.0030720
        k(  380) = (   0.4242641   0.1979899  -0.0282843), wk =   0.0061440
        k(  381) = (   0.4525483   0.2262742  -0.0565685), wk =   0.0061440
        k(  382) = (  -0.2262742  -0.4525483   0.6222540), wk =   0.0061440
        k(  383) = (  -0.1979899  -0.4242641   0.5939697), wk =   0.0061440
        k(  384) = (  -0.1697056  -0.3959798   0.5656854), wk =   0.0061440
        k(  385) = (  -0.1414214  -0.3676955   0.5374012), wk =   0.0061440
        k(  386) = (  -0.1131371  -0.3394113   0.5091169), wk =   0.0061440
        k(  387) = (  -0.0848528  -0.3111270   0.4808326), wk =   0.0061440
        k(  388) = (  -0.0565685  -0.2828427   0.4525483), wk =   0.0061440
        k(  389) = (  -0.0282843  -0.2545584   0.4242641), wk =   0.0061440
        k(  390) = (  -0.0000000  -0.2262742   0.3959798), wk =   0.0030720
        k(  391) = (   0.4525483   0.1697056   0.0000000), wk =   0.0030720
        k(  392) = (   0.4808326   0.1979899  -0.0282843), wk =   0.0061440
        k(  393) = (  -0.1979899  -0.4808326   0.6505382), wk =   0.0061440
        k(  394) = (  -0.1697056  -0.4525483   0.6222540), wk =   0.0061440
        k(  395) = (  -0.1414214  -0.4242641   0.5939697), wk =   0.0061440
        k(  396) = (  -0.1131371  -0.3959798   0.5656854), wk =   0.0061440
        k(  397) = (  -0.0848528  -0.3676955   0.5374012), wk =   0.0061440
        k(  398) = (  -0.0565685  -0.3394113   0.5091169), wk =   0.0061440
        k(  399) = (  -0.0282843  -0.3111270   0.4808326), wk =   0.0061440
        k(  400) = (   0.0000000  -0.2828427   0.4525483), wk =   0.0030720
        k(  401) = (   0.5091169   0.1697056   0.0000000), wk =   0.0030720
        k(  402) = (  -0.1697056  -0.5091169   0.6788225), wk =   0.0061440
        k(  403) = (  -0.1414214  -0.4808326   0.6505382), wk =   0.0061440
        k(  404) = (  -0.1131371  -0.4525483   0.6222540), wk =   0.0061440
        k(  405) = (  -0.0848528  -0.4242641   0.5939697), wk =   0.0061440
        k(  406) = (  -0.0565685  -0.3959798   0.5656854), wk =   0.0061440
        k(  407) = (  -0.0282843  -0.3676955   0.5374012), wk =   0.0061440
        k(  408) = (  -0.0000000  -0.3394113   0.5091169), wk =   0.0030720
        k(  409) = (  -0.1414214  -0.5374012   0.7071068), wk =   0.0030720
        k(  410) = (  -0.1131371  -0.5091169   0.6788225), wk =   0.0061440
        k(  411) = (  -0.0848528  -0.4808326   0.6505382), wk =   0.0061440
        k(  412) = (  -0.0565685  -0.4525483   0.6222540), wk =   0.0061440
        k(  413) = (  -0.0282843  -0.4242641   0.5939697), wk =   0.0061440
        k(  414) = (   0.0000000  -0.3959798   0.5656854), wk =   0.0030720
        k(  415) = (  -0.0848528  -0.5374012   0.7071068), wk =   0.0030720
        k(  416) = (  -0.0565685  -0.5091169   0.6788225), wk =   0.0061440
        k(  417) = (  -0.0282843  -0.4808326   0.6505382), wk =   0.0061440
        k(  418) = (   0.0000000  -0.4525483   0.6222540), wk =   0.0030720
        k(  419) = (  -0.0282843  -0.5374012   0.7071068), wk =   0.0030720
        k(  420) = (   0.0000000  -0.5091169   0.6788225), wk =   0.0030720
        k(  421) = (   0.4525483   0.2262742   0.0000000), wk =   0.0030720
        k(  422) = (  -0.2262742  -0.4525483   0.6788225), wk =   0.0061440
        k(  423) = (  -0.1979899  -0.4242641   0.6505382), wk =   0.0061440
        k(  424) = (  -0.1697056  -0.3959798   0.6222540), wk =   0.0061440
        k(  425) = (  -0.1414214  -0.3676955   0.5939697), wk =   0.0061440
        k(  426) = (  -0.1979899  -0.4808326   0.7071068), wk =   0.0030720
        k(  427) = (  -0.1697056  -0.4525483   0.6788225), wk =   0.0061440
        k(  428) = (  -0.1414214  -0.4242641   0.6505382), wk =   0.0061440
        k(  429) = (  -0.1131371  -0.3959798   0.6222540), wk =   0.0061440
        k(  430) = (  -0.0848528  -0.3676955   0.5939697), wk =   0.0061440
        k(  431) = (  -0.0565685  -0.3394113   0.5656854), wk =   0.0061440
        k(  432) = (  -0.0282843  -0.3111270   0.5374012), wk =   0.0061440
        k(  433) = (   0.0000000  -0.2828427   0.5091169), wk =   0.0030720
        k(  434) = (  -0.1414214  -0.4808326   0.7071068), wk =   0.0030720
        k(  435) = (  -0.1131371  -0.4525483   0.6788225), wk =   0.0061440
        k(  436) = (  -0.0848528  -0.4242641   0.6505382), wk =   0.0061440
        k(  437) = (  -0.0565685  -0.3959798   0.6222540), wk =   0.0061440
        k(  438) = (  -0.0282843  -0.3676955   0.5939697), wk =   0.0061440
        k(  439) = (   0.0000000  -0.3394113   0.5656854), wk =   0.0030720
        k(  440) = (  -0.0848528  -0.4808326   0.7071068), wk =   0.0030720
        k(  441) = (  -0.0565685  -0.4525483   0.6788225), wk =   0.0061440
        k(  442) = (  -0.0282843  -0.4242641   0.6505382), wk =   0.0061440
        k(  443) = (  -0.0000000  -0.3959798   0.6222540), wk =   0.0030720
        k(  444) = (  -0.0282843  -0.4808326   0.7071068), wk =   0.0030720
        k(  445) = (   0.0000000  -0.4525483   0.6788225), wk =   0.0030720
        k(  446) = (  -0.1414214  -0.4242641   0.7071068), wk =   0.0030720
        k(  447) = (  -0.1131371  -0.3959798   0.6788225), wk =   0.0061440
        k(  448) = (  -0.0848528  -0.3676955   0.6505382), wk =   0.0061440
        k(  449) = (  -0.0848528  -0.4242641   0.7071068), wk =   0.0030720
        k(  450) = (  -0.0565685  -0.3959798   0.6788225), wk =   0.0061440
        k(  451) = (  -0.0282843  -0.3676955   0.6505382), wk =   0.0061440
        k(  452) = (  -0.0000000  -0.3394113   0.6222540), wk =   0.0030720
        k(  453) = (  -0.0282843  -0.4242641   0.7071068), wk =   0.0030720
        k(  454) = (  -0.0000000  -0.3959798   0.6788225), wk =   0.0030720
        k(  455) = (  -0.0282843  -0.3676955   0.7071068), wk =   0.0030720

                       cryst. coord.
        k(    1) = (   0.0000000   0.0000000   0.0000000), wk =   0.0001280
        k(    2) = (   0.0000000   0.0000000   0.0400000), wk =   0.0010240
        k(    3) = (   0.0000000   0.0000000   0.0800000), wk =   0.0010240
        k(    4) = (   0.0000000   0.0000000   0.1200000), wk =   0.0010240
        k(    5) = (   0.0000000   0.0000000   0.1600000), wk =   0.0010240
        k(    6) = (   0.0000000   0.0000000   0.2000000), wk =   0.0010240
        k(    7) = (   0.0000000   0.0000000   0.2400000), wk =   0.0010240
        k(    8) = (   0.0000000   0.0000000   0.2800000), wk =   0.0010240
        k(    9) = (   0.0000000   0.0000000   0.3200000), wk =   0.0010240
        k(   10) = (   0.0000000   0.0000000   0.3600000), wk =   0.0010240
        k(   11) = (   0.0000000   0.0000000   0.4000000), wk =   0.0010240
        k(   12) = (   0.0000000   0.0000000   0.4400000), wk =   0.0010240
        k(   13) = (   0.0000000   0.0000000   0.4800000), wk =   0.0010240
        k(   14) = (   0.0000000   0.0400000   0.0400000), wk =   0.0007680
        k(   15) = (   0.0000000   0.0400000   0.0800000), wk =   0.0030720
        k(   16) = (   0.0000000   0.0400000   0.1200000), wk =   0.0030720
        k(   17) = (   0.0000000   0.0400000   0.1600000), wk =   0.0030720
        k(   18) = (   0.0000000   0.0400000   0.2000000), wk =   0.0030720
        k(   19) = (   0.0000000   0.0400000   0.2400000), wk =   0.0030720
        k(   20) = (   0.0000000   0.0400000   0.2800000), wk =   0.0030720
        k(   21) = (   0.0000000   0.0400000   0.3200000), wk =   0.0030720
        k(   22) = (   0.0000000   0.0400000   0.3600000), wk =   0.0030720
        k(   23) = (   0.0000000   0.0400000   0.4000000), wk =   0.0030720
        k(   24) = (   0.0000000   0.0400000   0.4400000), wk =   0.0030720
        k(   25) = (   0.0000000   0.0400000   0.4800000), wk =   0.0030720
        k(   26) = (   0.0000000   0.0400000  -0.4800000), wk =   0.0030720
        k(   27) = (   0.0000000   0.0400000  -0.4400000), wk =   0.0030720
        k(   28) = (   0.0000000   0.0400000  -0.4000000), wk =   0.0030720
        k(   29) = (   0.0000000   0.0400000  -0.3600000), wk =   0.0030720
        k(   30) = (   0.0000000   0.0400000  -0.3200000), wk =   0.0030720
        k(   31) = (   0.0000000   0.0400000  -0.2800000), wk =   0.0030720
        k(   32) = (   0.0000000   0.0400000  -0.2400000), wk =   0.0030720
        k(   33) = (   0.0000000   0.0400000  -0.2000000), wk =   0.0030720
        k(   34) = (   0.0000000   0.0400000  -0.1600000), wk =   0.0030720
        k(   35) = (   0.0000000   0.0400000  -0.1200000), wk =   0.0030720
        k(   36) = (   0.0000000   0.0400000  -0.0800000), wk =   0.0030720
        k(   37) = (   0.0000000   0.0400000  -0.0400000), wk =   0.0015360
        k(   38) = (   0.0000000   0.0800000   0.0800000), wk =   0.0007680
        k(   39) = (   0.0000000   0.0800000   0.1200000), wk =   0.0030720
        k(   40) = (   0.0000000   0.0800000   0.1600000), wk =   0.0030720
        k(   41) = (   0.0000000   0.0800000   0.2000000), wk =   0.0030720
        k(   42) = (   0.0000000   0.0800000   0.2400000), wk =   0.0030720
        k(   43) = (   0.0000000   0.0800000   0.2800000), wk =   0.0030720
        k(   44) = (   0.0000000   0.0800000   0.3200000), wk =   0.0030720
        k(   45) = (   0.0000000   0.0800000   0.3600000), wk =   0.0030720
        k(   46) = (   0.0000000   0.0800000   0.4000000), wk =   0.0030720
        k(   47) = (   0.0000000   0.0800000   0.4400000), wk =   0.0030720
        k(   48) = (   0.0000000   0.0800000   0.4800000), wk =   0.0030720
        k(   49) = (   0.0000000   0.0800000  -0.4800000), wk =   0.0030720
        k(   50) = (   0.0000000   0.0800000  -0.4400000), wk =   0.0030720
        k(   51) = (   0.0000000   0.0800000  -0.4000000), wk =   0.0030720
        k(   52) = (   0.0000000   0.0800000  -0.3600000), wk =   0.0030720
        k(   53) = (   0.0000000   0.0800000  -0.3200000), wk =   0.0030720
        k(   54) = (   0.0000000   0.0800000  -0.2800000), wk =   0.0030720
        k(   55) = (   0.0000000   0.0800000  -0.2400000), wk =   0.0030720
        k(   56) = (   0.0000000   0.0800000  -0.2000000), wk =   0.0030720
        k(   57) = (   0.0000000   0.0800000  -0.1600000), wk =   0.0030720
        k(   58) = (   0.0000000   0.0800000  -0.1200000), wk =   0.0030720
        k(   59) = (   0.0000000   0.0800000  -0.0800000), wk =   0.0015360
        k(   60) = (   0.0000000   0.1200000   0.1200000), wk =   0.0007680
        k(   61) = (   0.0000000   0.1200000   0.1600000), wk =   0.0030720
        k(   62) = (   0.0000000   0.1200000   0.2000000), wk =   0.0030720
        k(   63) = (   0.0000000   0.1200000   0.2400000), wk =   0.0030720
        k(   64) = (   0.0000000   0.1200000   0.2800000), wk =   0.0030720
        k(   65) = (   0.0000000   0.1200000   0.3200000), wk =   0.0030720
        k(   66) = (   0.0000000   0.1200000   0.3600000), wk =   0.0030720
        k(   67) = (   0.0000000   0.1200000   0.4000000), wk =   0.0030720
        k(   68) = (   0.0000000   0.1200000   0.4400000), wk =   0.0030720
        k(   69) = (   0.0000000   0.1200000   0.4800000), wk =   0.0030720
        k(   70) = (   0.0000000   0.1200000  -0.4800000), wk =   0.0030720
        k(   71) = (   0.0000000   0.1200000  -0.4400000), wk =   0.0030720
        k(   72) = (   0.0000000   0.1200000  -0.4000000), wk =   0.0030720
        k(   73) = (   0.0000000   0.1200000  -0.3600000), wk =   0.0030720
        k(   74) = (   0.0000000   0.1200000  -0.3200000), wk =   0.0030720
        k(   75) = (   0.0000000   0.1200000  -0.2800000), wk =   0.0030720
        k(   76) = (   0.0000000   0.1200000  -0.2400000), wk =   0.0030720
        k(   77) = (   0.0000000   0.1200000  -0.2000000), wk =   0.0030720
        k(   78) = (   0.0000000   0.1200000  -0.1600000), wk =   0.0030720
        k(   79) = (   0.0000000   0.1200000  -0.1200000), wk =   0.0015360
        k(   80) = (   0.0000000   0.1600000   0.1600000), wk =   0.0007680
        k(   81) = (   0.0000000   0.1600000   0.2000000), wk =   0.0030720
        k(   82) = (   0.0000000   0.1600000   0.2400000), wk =   0.0030720
        k(   83) = (   0.0000000   0.1600000   0.2800000), wk =   0.0030720
        k(   84) = (   0.0000000   0.1600000   0.3200000), wk =   0.0030720
        k(   85) = (   0.0000000   0.1600000   0.3600000), wk =   0.0030720
        k(   86) = (   0.0000000   0.1600000   0.4000000), wk =   0.0030720
        k(   87) = (   0.0000000   0.1600000   0.4400000), wk =   0.0030720
        k(   88) = (   0.0000000   0.1600000   0.4800000), wk =   0.0030720
        k(   89) = (   0.0000000   0.1600000  -0.4800000), wk =   0.0030720
        k(   90) = (   0.0000000   0.1600000  -0.4400000), wk =   0.0030720
        k(   91) = (   0.0000000   0.1600000  -0.4000000), wk =   0.0030720
        k(   92) = (   0.0000000   0.1600000  -0.3600000), wk =   0.0030720
        k(   93) = (   0.0000000   0.1600000  -0.3200000), wk =   0.0030720
        k(   94) = (   0.0000000   0.1600000  -0.2800000), wk =   0.0030720
        k(   95) = (   0.0000000   0.1600000  -0.2400000), wk =   0.0030720
        k(   96) = (   0.0000000   0.1600000  -0.2000000), wk =   0.0030720
        k(   97) = (   0.0000000   0.1600000  -0.1600000), wk =   0.0015360
        k(   98) = (   0.0000000   0.2000000   0.2000000), wk =   0.0007680
        k(   99) = (   0.0000000   0.2000000   0.2400000), wk =   0.0030720
        k(  100) = (   0.0000000   0.2000000   0.2800000), wk =   0.0030720
        k(  101) = (   0.0000000   0.2000000   0.3200000), wk =   0.0030720
        k(  102) = (   0.0000000   0.2000000   0.3600000), wk =   0.0030720
        k(  103) = (   0.0000000   0.2000000   0.4000000), wk =   0.0030720
        k(  104) = (   0.0000000   0.2000000   0.4400000), wk =   0.0030720
        k(  105) = (   0.0000000   0.2000000   0.4800000), wk =   0.0030720
        k(  106) = (   0.0000000   0.2000000  -0.4800000), wk =   0.0030720
        k(  107) = (   0.0000000   0.2000000  -0.4400000), wk =   0.0030720
        k(  108) = (   0.0000000   0.2000000  -0.4000000), wk =   0.0030720
        k(  109) = (   0.0000000   0.2000000  -0.3600000), wk =   0.0030720
        k(  110) = (   0.0000000   0.2000000  -0.3200000), wk =   0.0030720
        k(  111) = (   0.0000000   0.2000000  -0.2800000), wk =   0.0030720
        k(  112) = (   0.0000000   0.2000000  -0.2400000), wk =   0.0030720
        k(  113) = (   0.0000000   0.2000000  -0.2000000), wk =   0.0015360
        k(  114) = (   0.0000000   0.2400000   0.2400000), wk =   0.0007680
        k(  115) = (   0.0000000   0.2400000   0.2800000), wk =   0.0030720
        k(  116) = (   0.0000000   0.2400000   0.3200000), wk =   0.0030720
        k(  117) = (   0.0000000   0.2400000   0.3600000), wk =   0.0030720
        k(  118) = (   0.0000000   0.2400000   0.4000000), wk =   0.0030720
        k(  119) = (   0.0000000   0.2400000   0.4400000), wk =   0.0030720
        k(  120) = (   0.0000000   0.2400000   0.4800000), wk =   0.0030720
        k(  121) = (   0.0000000   0.2400000  -0.4800000), wk =   0.0030720
        k(  122) = (   0.0000000   0.2400000  -0.4400000), wk =   0.0030720
        k(  123) = (   0.0000000   0.2400000  -0.4000000), wk =   0.0030720
        k(  124) = (   0.0000000   0.2400000  -0.3600000), wk =   0.0030720
        k(  125) = (   0.0000000   0.2400000  -0.3200000), wk =   0.0030720
        k(  126) = (   0.0000000   0.2400000  -0.2800000), wk =   0.0030720
        k(  127) = (   0.0000000   0.2400000  -0.2400000), wk =   0.0015360
        k(  128) = (   0.0000000   0.2800000   0.2800000), wk =   0.0007680
        k(  129) = (   0.0000000   0.2800000   0.3200000), wk =   0.0030720
        k(  130) = (   0.0000000   0.2800000   0.3600000), wk =   0.0030720
        k(  131) = (   0.0000000   0.2800000   0.4000000), wk =   0.0030720
        k(  132) = (   0.0000000   0.2800000   0.4400000), wk =   0.0030720
        k(  133) = (   0.0000000   0.2800000   0.4800000), wk =   0.0030720
        k(  134) = (   0.0000000   0.2800000  -0.4800000), wk =   0.0030720
        k(  135) = (   0.0000000   0.2800000  -0.4400000), wk =   0.0030720
        k(  136) = (   0.0000000   0.2800000  -0.4000000), wk =   0.0030720
        k(  137) = (   0.0000000   0.2800000  -0.3600000), wk =   0.0030720
        k(  138) = (   0.0000000   0.2800000  -0.3200000), wk =   0.0030720
        k(  139) = (   0.0000000   0.2800000  -0.2800000), wk =   0.0015360
        k(  140) = (   0.0000000   0.3200000   0.3200000), wk =   0.0007680
        k(  141) = (   0.0000000   0.3200000   0.3600000), wk =   0.0030720
        k(  142) = (   0.0000000   0.3200000   0.4000000), wk =   0.0030720
        k(  143) = (   0.0000000   0.3200000   0.4400000), wk =   0.0030720
        k(  144) = (   0.0000000   0.3200000   0.4800000), wk =   0.0030720
        k(  145) = (   0.0000000   0.3200000  -0.4800000), wk =   0.0030720
        k(  146) = (   0.0000000   0.3200000  -0.4400000), wk =   0.0030720
        k(  147) = (   0.0000000   0.3200000  -0.4000000), wk =   0.0030720
        k(  148) = (   0.0000000   0.3200000  -0.3600000), wk =   0.0030720
        k(  149) = (   0.0000000   0.3200000  -0.3200000), wk =   0.0015360
        k(  150) = (   0.0000000   0.3600000   0.3600000), wk =   0.0007680
        k(  151) = (   0.0000000   0.3600000   0.4000000), wk =   0.0030720
        k(  152) = (   0.0000000   0.3600000   0.4400000), wk =   0.0030720
        k(  153) = (   0.0000000   0.3600000   0.4800000), wk =   0.0030720
        k(  154) = (   0.0000000   0.3600000  -0.4800000), wk =   0.0030720
        k(  155) = (   0.0000000   0.3600000  -0.4400000), wk =   0.0030720
        k(  156) = (   0.0000000   0.3600000  -0.4000000), wk =   0.0030720
        k(  157) = (   0.0000000   0.3600000  -0.3600000), wk =   0.0015360
        k(  158) = (   0.0000000   0.4000000   0.4000000), wk =   0.0007680
        k(  159) = (   0.0000000   0.4000000   0.4400000), wk =   0.0030720
        k(  160) = (   0.0000000   0.4000000   0.4800000), wk =   0.0030720
        k(  161) = (   0.0000000   0.4000000  -0.4800000), wk =   0.0030720
        k(  162) = (   0.0000000   0.4000000  -0.4400000), wk =   0.0030720
        k(  163) = (   0.0000000   0.4000000  -0.4000000), wk =   0.0015360
        k(  164) = (   0.0000000   0.4400000   0.4400000), wk =   0.0007680
        k(  165) = (   0.0000000   0.4400000   0.4800000), wk =   0.0030720
        k(  166) = (   0.0000000   0.4400000  -0.4800000), wk =   0.0030720
        k(  167) = (   0.0000000   0.4400000  -0.4400000), wk =   0.0015360
        k(  168) = (   0.0000000   0.4800000   0.4800000), wk =   0.0007680
        k(  169) = (   0.0000000   0.4800000  -0.4800000), wk =   0.0015360
        k(  170) = (   0.0400000   0.0800000   0.1200000), wk =   0.0030720
        k(  171) = (   0.0400000   0.0800000   0.1600000), wk =   0.0061440
        k(  172) = (   0.0400000   0.0800000   0.2000000), wk =   0.0061440
        k(  173) = (   0.0400000   0.0800000   0.2400000), wk =   0.0061440
        k(  174) = (   0.0400000   0.0800000   0.2800000), wk =   0.0061440
        k(  175) = (   0.0400000   0.0800000   0.3200000), wk =   0.0061440
        k(  176) = (   0.0400000   0.0800000   0.3600000), wk =   0.0061440
        k(  177) = (   0.0400000   0.0800000   0.4000000), wk =   0.0061440
        k(  178) = (   0.0400000   0.0800000   0.4400000), wk =   0.0061440
        k(  179) = (   0.0400000   0.0800000   0.4800000), wk =   0.0061440
        k(  180) = (   0.0400000   0.0800000  -0.4800000), wk =   0.0061440
        k(  181) = (   0.0400000   0.1200000   0.1600000), wk =   0.0030720
        k(  182) = (   0.0400000   0.1200000   0.2000000), wk =   0.0061440
        k(  183) = (   0.0400000   0.1200000   0.2400000), wk =   0.0061440
        k(  184) = (   0.0400000   0.1200000   0.2800000), wk =   0.0061440
        k(  185) = (   0.0400000   0.1200000   0.3200000), wk =   0.0061440
        k(  186) = (   0.0400000   0.1200000   0.3600000), wk =   0.0061440
        k(  187) = (   0.0400000   0.1200000   0.4000000), wk =   0.0061440
        k(  188) = (   0.0400000   0.1200000   0.4400000), wk =   0.0061440
        k(  189) = (   0.0400000   0.1200000   0.4800000), wk =   0.0061440
        k(  190) = (   0.0400000   0.1200000  -0.4800000), wk =   0.0061440
        k(  191) = (   0.0400000   0.1200000  -0.4400000), wk =   0.0061440
        k(  192) = (   0.0400000   0.1200000  -0.4000000), wk =   0.0061440
        k(  193) = (   0.0400000   0.1200000  -0.3600000), wk =   0.0061440
        k(  194) = (   0.0400000   0.1200000  -0.3200000), wk =   0.0061440
        k(  195) = (   0.0400000   0.1200000  -0.2800000), wk =   0.0061440
        k(  196) = (   0.0400000   0.1200000  -0.2400000), wk =   0.0061440
        k(  197) = (   0.0400000   0.1200000  -0.2000000), wk =   0.0061440
        k(  198) = (   0.0400000   0.1200000  -0.1600000), wk =   0.0061440
        k(  199) = (   0.0400000   0.1200000  -0.1200000), wk =   0.0061440
        k(  200) = (   0.0400000   0.1200000  -0.0800000), wk =   0.0030720
        k(  201) = (   0.0400000   0.1600000   0.2000000), wk =   0.0030720
        k(  202) = (   0.0400000   0.1600000   0.2400000), wk =   0.0061440
        k(  203) = (   0.0400000   0.1600000   0.2800000), wk =   0.0061440
        k(  204) = (   0.0400000   0.1600000   0.3200000), wk =   0.0061440
        k(  205) = (   0.0400000   0.1600000   0.3600000), wk =   0.0061440
        k(  206) = (   0.0400000   0.1600000   0.4000000), wk =   0.0061440
        k(  207) = (   0.0400000   0.1600000   0.4400000), wk =   0.0061440
        k(  208) = (   0.0400000   0.1600000   0.4800000), wk =   0.0061440
        k(  209) = (   0.0400000   0.1600000  -0.4800000), wk =   0.0061440
        k(  210) = (   0.0400000   0.1600000  -0.4400000), wk =   0.0061440
        k(  211) = (   0.0400000   0.1600000  -0.4000000), wk =   0.0061440
        k(  212) = (   0.0400000   0.1600000  -0.3600000), wk =   0.0061440
        k(  213) = (   0.0400000   0.1600000  -0.3200000), wk =   0.0061440
        k(  214) = (   0.0400000   0.1600000  -0.2800000), wk =   0.0061440
        k(  215) = (   0.0400000   0.1600000  -0.2400000), wk =   0.0061440
        k(  216) = (   0.0400000   0.1600000  -0.2000000), wk =   0.0061440
        k(  217) = (   0.0400000   0.1600000  -0.1600000), wk =   0.0061440
        k(  218) = (   0.0400000   0.1600000  -0.1200000), wk =   0.0030720
        k(  219) = (   0.0400000   0.2000000   0.2400000), wk =   0.0030720
        k(  220) = (   0.0400000   0.2000000   0.2800000), wk =   0.0061440
        k(  221) = (   0.0400000   0.2000000   0.3200000), wk =   0.0061440
        k(  222) = (   0.0400000   0.2000000   0.3600000), wk =   0.0061440
        k(  223) = (   0.0400000   0.2000000   0.4000000), wk =   0.0061440
        k(  224) = (   0.0400000   0.2000000   0.4400000), wk =   0.0061440
        k(  225) = (   0.0400000   0.2000000   0.4800000), wk =   0.0061440
        k(  226) = (   0.0400000   0.2000000  -0.4800000), wk =   0.0061440
        k(  227) = (   0.0400000   0.2000000  -0.4400000), wk =   0.0061440
        k(  228) = (   0.0400000   0.2000000  -0.4000000), wk =   0.0061440
        k(  229) = (   0.0400000   0.2000000  -0.3600000), wk =   0.0061440
        k(  230) = (   0.0400000   0.2000000  -0.3200000), wk =   0.0061440
        k(  231) = (   0.0400000   0.2000000  -0.2800000), wk =   0.0061440
        k(  232) = (   0.0400000   0.2000000  -0.2400000), wk =   0.0061440
        k(  233) = (   0.0400000   0.2000000  -0.2000000), wk =   0.0061440
        k(  234) = (   0.0400000   0.2000000  -0.1600000), wk =   0.0030720
        k(  235) = (   0.0400000   0.2400000   0.2800000), wk =   0.0030720
        k(  236) = (   0.0400000   0.2400000   0.3200000), wk =   0.0061440
        k(  237) = (   0.0400000   0.2400000   0.3600000), wk =   0.0061440
        k(  238) = (   0.0400000   0.2400000   0.4000000), wk =   0.0061440
        k(  239) = (   0.0400000   0.2400000   0.4400000), wk =   0.0061440
        k(  240) = (   0.0400000   0.2400000   0.4800000), wk =   0.0061440
        k(  241) = (   0.0400000   0.2400000  -0.4800000), wk =   0.0061440
        k(  242) = (   0.0400000   0.2400000  -0.4400000), wk =   0.0061440
        k(  243) = (   0.0400000   0.2400000  -0.4000000), wk =   0.0061440
        k(  244) = (   0.0400000   0.2400000  -0.3600000), wk =   0.0061440
        k(  245) = (   0.0400000   0.2400000  -0.3200000), wk =   0.0061440
        k(  246) = (   0.0400000   0.2400000  -0.2800000), wk =   0.0061440
        k(  247) = (   0.0400000   0.2400000  -0.2400000), wk =   0.0061440
        k(  248) = (   0.0400000   0.2400000  -0.2000000), wk =   0.0030720
        k(  249) = (   0.0400000   0.2800000   0.3200000), wk =   0.0030720
        k(  250) = (   0.0400000   0.2800000   0.3600000), wk =   0.0061440
        k(  251) = (   0.0400000   0.2800000   0.4000000), wk =   0.0061440
        k(  252) = (   0.0400000   0.2800000   0.4400000), wk =   0.0061440
        k(  253) = (   0.0400000   0.2800000   0.4800000), wk =   0.0061440
        k(  254) = (   0.0400000   0.2800000  -0.4800000), wk =   0.0061440
        k(  255) = (   0.0400000   0.2800000  -0.4400000), wk =   0.0061440
        k(  256) = (   0.0400000   0.2800000  -0.4000000), wk =   0.0061440
        k(  257) = (   0.0400000   0.2800000  -0.3600000), wk =   0.0061440
        k(  258) = (   0.0400000   0.2800000  -0.3200000), wk =   0.0061440
        k(  259) = (   0.0400000   0.2800000  -0.2800000), wk =   0.0061440
        k(  260) = (   0.0400000   0.2800000  -0.2400000), wk =   0.0030720
        k(  261) = (   0.0400000   0.3200000   0.3600000), wk =   0.0030720
        k(  262) = (   0.0400000   0.3200000   0.4000000), wk =   0.0061440
        k(  263) = (   0.0400000   0.3200000   0.4400000), wk =   0.0061440
        k(  264) = (   0.0400000   0.3200000   0.4800000), wk =   0.0061440
        k(  265) = (   0.0400000   0.3200000  -0.4800000), wk =   0.0061440
        k(  266) = (   0.0400000   0.3200000  -0.4400000), wk =   0.0061440
        k(  267) = (   0.0400000   0.3200000  -0.4000000), wk =   0.0061440
        k(  268) = (   0.0400000   0.3200000  -0.3600000), wk =   0.0061440
        k(  269) = (   0.0400000   0.3200000  -0.3200000), wk =   0.0061440
        k(  270) = (   0.0400000   0.3200000  -0.2800000), wk =   0.0030720
        k(  271) = (   0.0400000   0.3600000   0.4000000), wk =   0.0030720
        k(  272) = (   0.0400000   0.3600000   0.4400000), wk =   0.0061440
        k(  273) = (   0.0400000   0.3600000   0.4800000), wk =   0.0061440
        k(  274) = (   0.0400000   0.3600000  -0.4800000), wk =   0.0061440
        k(  275) = (   0.0400000   0.3600000  -0.4400000), wk =   0.0061440
        k(  276) = (   0.0400000   0.3600000  -0.4000000), wk =   0.0061440
        k(  277) = (   0.0400000   0.3600000  -0.3600000), wk =   0.0061440
        k(  278) = (   0.0400000   0.3600000  -0.3200000), wk =   0.0030720
        k(  279) = (   0.0400000   0.4000000   0.4400000), wk =   0.0030720
        k(  280) = (   0.0400000   0.4000000   0.4800000), wk =   0.0061440
        k(  281) = (   0.0400000   0.4000000  -0.4800000), wk =   0.0061440
        k(  282) = (   0.0400000   0.4000000  -0.4400000), wk =   0.0061440
        k(  283) = (   0.0400000   0.4000000  -0.4000000), wk =   0.0061440
        k(  284) = (   0.0400000   0.4000000  -0.3600000), wk =   0.0030720
        k(  285) = (   0.0400000   0.4400000   0.4800000), wk =   0.0030720
        k(  286) = (   0.0400000   0.4400000  -0.4800000), wk =   0.0061440
        k(  287) = (   0.0400000   0.4400000  -0.4400000), wk =   0.0061440
        k(  288) = (   0.0400000   0.4400000  -0.4000000), wk =   0.0030720
        k(  289) = (   0.0400000   0.4800000  -0.4800000), wk =   0.0030720
        k(  290) = (   0.0400000   0.4800000  -0.4400000), wk =   0.0030720
        k(  291) = (   0.0800000   0.1600000   0.2400000), wk =   0.0030720
        k(  292) = (   0.0800000   0.1600000   0.2800000), wk =   0.0061440
        k(  293) = (   0.0800000   0.1600000   0.3200000), wk =   0.0061440
        k(  294) = (   0.0800000   0.1600000   0.3600000), wk =   0.0061440
        k(  295) = (   0.0800000   0.1600000   0.4000000), wk =   0.0061440
        k(  296) = (   0.0800000   0.1600000   0.4400000), wk =   0.0061440
        k(  297) = (   0.0800000   0.1600000   0.4800000), wk =   0.0061440
        k(  298) = (   0.0800000   0.1600000  -0.4800000), wk =   0.0061440
        k(  299) = (   0.0800000   0.1600000  -0.4400000), wk =   0.0061440
        k(  300) = (   0.0800000   0.2000000   0.2800000), wk =   0.0030720
        k(  301) = (   0.0800000   0.2000000   0.3200000), wk =   0.0061440
        k(  302) = (   0.0800000   0.2000000   0.3600000), wk =   0.0061440
        k(  303) = (   0.0800000   0.2000000   0.4000000), wk =   0.0061440
        k(  304) = (   0.0800000   0.2000000   0.4400000), wk =   0.0061440
        k(  305) = (   0.0800000   0.2000000   0.4800000), wk =   0.0061440
        k(  306) = (   0.0800000   0.2000000  -0.4800000), wk =   0.0061440
        k(  307) = (   0.0800000   0.2000000  -0.4400000), wk =   0.0061440
        k(  308) = (   0.0800000   0.2000000  -0.4000000), wk =   0.0061440
        k(  309) = (   0.0800000   0.2000000  -0.3600000), wk =   0.0061440
        k(  310) = (   0.0800000   0.2000000  -0.3200000), wk =   0.0061440
        k(  311) = (   0.0800000   0.2000000  -0.2800000), wk =   0.0061440
        k(  312) = (   0.0800000   0.2000000  -0.2400000), wk =   0.0061440
        k(  313) = (   0.0800000   0.2000000  -0.2000000), wk =   0.0061440
        k(  314) = (   0.0800000   0.2000000  -0.1600000), wk =   0.0061440
        k(  315) = (   0.0800000   0.2000000  -0.1200000), wk =   0.0030720
        k(  316) = (   0.0800000   0.2400000   0.3200000), wk =   0.0030720
        k(  317) = (   0.0800000   0.2400000   0.3600000), wk =   0.0061440
        k(  318) = (   0.0800000   0.2400000   0.4000000), wk =   0.0061440
        k(  319) = (   0.0800000   0.2400000   0.4400000), wk =   0.0061440
        k(  320) = (   0.0800000   0.2400000   0.4800000), wk =   0.0061440
        k(  321) = (   0.0800000   0.2400000  -0.4800000), wk =   0.0061440
        k(  322) = (   0.0800000   0.2400000  -0.4400000), wk =   0.0061440
        k(  323) = (   0.0800000   0.2400000  -0.4000000), wk =   0.0061440
        k(  324) = (   0.0800000   0.2400000  -0.3600000), wk =   0.0061440
        k(  325) = (   0.0800000   0.2400000  -0.3200000), wk =   0.0061440
        k(  326) = (   0.0800000   0.2400000  -0.2800000), wk =   0.0061440
        k(  327) = (   0.0800000   0.2400000  -0.2400000), wk =   0.0061440
        k(  328) = (   0.0800000   0.2400000  -0.2000000), wk =   0.0061440
        k(  329) = (   0.0800000   0.2400000  -0.1600000), wk =   0.0030720
        k(  330) = (   0.0800000   0.2800000   0.3600000), wk =   0.0030720
        k(  331) = (   0.0800000   0.2800000   0.4000000), wk =   0.0061440
        k(  332) = (   0.0800000   0.2800000   0.4400000), wk =   0.0061440
        k(  333) = (   0.0800000   0.2800000   0.4800000), wk =   0.0061440
        k(  334) = (   0.0800000   0.2800000  -0.4800000), wk =   0.0061440
        k(  335) = (   0.0800000   0.2800000  -0.4400000), wk =   0.0061440
        k(  336) = (   0.0800000   0.2800000  -0.4000000), wk =   0.0061440
        k(  337) = (   0.0800000   0.2800000  -0.3600000), wk =   0.0061440
        k(  338) = (   0.0800000   0.2800000  -0.3200000), wk =   0.0061440
        k(  339) = (   0.0800000   0.2800000  -0.2800000), wk =   0.0061440
        k(  340) = (   0.0800000   0.2800000  -0.2400000), wk =   0.0061440
        k(  341) = (   0.0800000   0.2800000  -0.2000000), wk =   0.0030720
        k(  342) = (   0.0800000   0.3200000   0.4000000), wk =   0.0030720
        k(  343) = (   0.0800000   0.3200000   0.4400000), wk =   0.0061440
        k(  344) = (   0.0800000   0.3200000   0.4800000), wk =   0.0061440
        k(  345) = (   0.0800000   0.3200000  -0.4800000), wk =   0.0061440
        k(  346) = (   0.0800000   0.3200000  -0.4400000), wk =   0.0061440
        k(  347) = (   0.0800000   0.3200000  -0.4000000), wk =   0.0061440
        k(  348) = (   0.0800000   0.3200000  -0.3600000), wk =   0.0061440
        k(  349) = (   0.0800000   0.3200000  -0.3200000), wk =   0.0061440
        k(  350) = (   0.0800000   0.3200000  -0.2800000), wk =   0.0061440
        k(  351) = (   0.0800000   0.3200000  -0.2400000), wk =   0.0030720
        k(  352) = (   0.0800000   0.3600000   0.4400000), wk =   0.0030720
        k(  353) = (   0.0800000   0.3600000   0.4800000), wk =   0.0061440
        k(  354) = (   0.0800000   0.3600000  -0.4800000), wk =   0.0061440
        k(  355) = (   0.0800000   0.3600000  -0.4400000), wk =   0.0061440
        k(  356) = (   0.0800000   0.3600000  -0.4000000), wk =   0.0061440
        k(  357) = (   0.0800000   0.3600000  -0.3600000), wk =   0.0061440
        k(  358) = (   0.0800000   0.3600000  -0.3200000), wk =   0.0061440
        k(  359) = (   0.0800000   0.3600000  -0.2800000), wk =   0.0030720
        k(  360) = (   0.0800000   0.4000000   0.4800000), wk =   0.0030720
        k(  361) = (   0.0800000   0.4000000  -0.4800000), wk =   0.0061440
        k(  362) = (   0.0800000   0.4000000  -0.4400000), wk =   0.0061440
        k(  363) = (   0.0800000   0.4000000  -0.4000000), wk =   0.0061440
        k(  364) = (   0.0800000   0.4000000  -0.3600000), wk =   0.0061440
        k(  365) = (   0.0800000   0.4000000  -0.3200000), wk =   0.0030720
        k(  366) = (   0.0800000   0.4400000  -0.4800000), wk =   0.0030720
        k(  367) = (   0.0800000   0.4400000  -0.4400000), wk =   0.0061440
        k(  368) = (   0.0800000   0.4400000  -0.4000000), wk =   0.0061440
        k(  369) = (   0.0800000   0.4400000  -0.3600000), wk =   0.0030720
        k(  370) = (   0.0800000   0.4800000  -0.4400000), wk =   0.0030720
        k(  371) = (   0.0800000   0.4800000  -0.4000000), wk =   0.0030720
        k(  372) = (   0.1200000   0.2400000   0.3600000), wk =   0.0030720
        k(  373) = (   0.1200000   0.2400000   0.4000000), wk =   0.0061440
        k(  374) = (   0.1200000   0.2400000   0.4400000), wk =   0.0061440
        k(  375) = (   0.1200000   0.2400000   0.4800000), wk =   0.0061440
        k(  376) = (   0.1200000   0.2400000  -0.4800000), wk =   0.0061440
        k(  377) = (   0.1200000   0.2400000  -0.4400000), wk =   0.0061440
        k(  378) = (   0.1200000   0.2400000  -0.4000000), wk =   0.0061440
        k(  379) = (   0.1200000   0.2800000   0.4000000), wk =   0.0030720
        k(  380) = (   0.1200000   0.2800000   0.4400000), wk =   0.0061440
        k(  381) = (   0.1200000   0.2800000   0.4800000), wk =   0.0061440
        k(  382) = (   0.1200000   0.2800000  -0.4800000), wk =   0.0061440
        k(  383) = (   0.1200000   0.2800000  -0.4400000), wk =   0.0061440
        k(  384) = (   0.1200000   0.2800000  -0.4000000), wk =   0.0061440
        k(  385) = (   0.1200000   0.2800000  -0.3600000), wk =   0.0061440
        k(  386) = (   0.1200000   0.2800000  -0.3200000), wk =   0.0061440
        k(  387) = (   0.1200000   0.2800000  -0.2800000), wk =   0.0061440
        k(  388) = (   0.1200000   0.2800000  -0.2400000), wk =   0.0061440
        k(  389) = (   0.1200000   0.2800000  -0.2000000), wk =   0.0061440
        k(  390) = (   0.1200000   0.2800000  -0.1600000), wk =   0.0030720
        k(  391) = (   0.1200000   0.3200000   0.4400000), wk =   0.0030720
        k(  392) = (   0.1200000   0.3200000   0.4800000), wk =   0.0061440
        k(  393) = (   0.1200000   0.3200000  -0.4800000), wk =   0.0061440
        k(  394) = (   0.1200000   0.3200000  -0.4400000), wk =   0.0061440
        k(  395) = (   0.1200000   0.3200000  -0.4000000), wk =   0.0061440
        k(  396) = (   0.1200000   0.3200000  -0.3600000), wk =   0.0061440
        k(  397) = (   0.1200000   0.3200000  -0.3200000), wk =   0.0061440
        k(  398) = (   0.1200000   0.3200000  -0.2800000), wk =   0.0061440
        k(  399) = (   0.1200000   0.3200000  -0.2400000), wk =   0.0061440
        k(  400) = (   0.1200000   0.3200000  -0.2000000), wk =   0.0030720
        k(  401) = (   0.1200000   0.3600000   0.4800000), wk =   0.0030720
        k(  402) = (   0.1200000   0.3600000  -0.4800000), wk =   0.0061440
        k(  403) = (   0.1200000   0.3600000  -0.4400000), wk =   0.0061440
        k(  404) = (   0.1200000   0.3600000  -0.4000000), wk =   0.0061440
        k(  405) = (   0.1200000   0.3600000  -0.3600000), wk =   0.0061440
        k(  406) = (   0.1200000   0.3600000  -0.3200000), wk =   0.0061440
        k(  407) = (   0.1200000   0.3600000  -0.2800000), wk =   0.0061440
        k(  408) = (   0.1200000   0.3600000  -0.2400000), wk =   0.0030720
        k(  409) = (   0.1200000   0.4000000  -0.4800000), wk =   0.0030720
        k(  410) = (   0.1200000   0.4000000  -0.4400000), wk =   0.0061440
        k(  411) = (   0.1200000   0.4000000  -0.4000000), wk =   0.0061440
        k(  412) = (   0.1200000   0.4000000  -0.3600000), wk =   0.0061440
        k(  413) = (   0.1200000   0.4000000  -0.3200000), wk =   0.0061440
        k(  414) = (   0.1200000   0.4000000  -0.2800000), wk =   0.0030720
[...]
    13.4900  14.3786

     occupation numbers 
     1.0000   1.0000   1.0000   1.0000   1.0000   1.0000   1.0000   1.0000
     1.0000   1.0000   1.0000   1.0000   1.0000   1.0000   0.0000   0.0000
     0.0000   0.0000

          k =-0.0283-0.4808 0.6505 (  6005 PWs)   bands (ev):

   -13.3218 -13.3146 -13.1789 -13.1472 -13.0976 -13.0792 -13.0628 -13.0337
   -12.8999 -12.8927   0.8575   1.3528   5.5327   5.9982  10.1065  10.9646
    13.3763  13.8384

     occupation numbers 
     1.0000   1.0000   1.0000   1.0000   1.0000   1.0000   1.0000   1.0000
     1.0000   1.0000   1.0000   1.0000   1.0000   1.0000   0.0000   0.0000
     0.0000   0.0000

          k = 0.0000-0.4525 0.6223 (  6007 PWs)   bands (ev):

   -13.3242 -13.3143 -13.1784 -13.1351 -13.0986 -13.0805 -13.0730 -13.0339
   -12.9001 -12.8903   0.8166   1.4018   5.4091   6.0739  10.1655  11.4990
    13.2691  13.2817

     occupation numbers 
     1.0000   1.0000   1.0000   1.0000   1.0000   1.0000   1.0000   1.0000
     1.0000   1.0000   1.0000   1.0000   1.0000   1.0000   0.0000   0.0000
     0.0000   0.0000

          k =-0.0283-0.5374 0.7071 (  6014 PWs)   bands (ev):

   -13.3154 -13.3150 -13.1833 -13.1669 -13.0947 -13.0790 -13.0455 -13.0299
   -12.8995 -12.8991   0.8985   1.2900   5.8325   5.8967   9.9723  10.0448
    14.0818  14.5143

     occupation numbers 
     1.0000   1.0000   1.0000   1.0000   1.0000   1.0000   1.0000   1.0000
     1.0000   1.0000   1.0000   1.0000   1.0000   1.0000   0.0000   0.0000
     0.0000   0.0000

          k = 0.0000-0.5091 0.6788 (  6016 PWs)   bands (ev):

   -13.3189 -13.3151 -13.1759 -13.1632 -13.0896 -13.0854 -13.0486 -13.0366
   -12.8993 -12.8956   1.0233   1.1724   5.6843   5.9155  10.0488  10.4544
    13.9474  13.9713

     occupation numbers 
     1.0000   1.0000   1.0000   1.0000   1.0000   1.0000   1.0000   1.0000
     1.0000   1.0000   1.0000   1.0000   1.0000   1.0000   0.0000   0.0000
     0.0000   0.0000

          k = 0.4525 0.2263 0.0000 (  6028 PWs)   bands (ev):

   -13.3107 -13.3064 -13.2207 -13.1528 -13.1174 -13.0845 -13.0231 -12.9998
   -12.9091 -12.9074  -0.3446   2.8175   5.8248   6.7177  10.5348  10.6197
    12.1183  13.6571

     occupation numbers 
     1.0000   1.0000   1.0000   1.0000   1.0000   1.0000   1.0000   1.0000
     1.0000   1.0000   1.0000   1.0000   1.0000   1.0000   0.0000   0.0000
     0.0000   0.0000

          k =-0.2263-0.4525 0.6788 (  6030 PWs)   bands (ev):

   -13.3152 -13.3084 -13.2107 -13.1465 -13.1121 -13.0888 -13.0309 -13.0096
   -12.9070 -12.9018  -0.1518   2.5363   5.6685   6.6010  10.5309  10.9492
    12.0809  13.8346

     occupation numbers 
     1.0000   1.0000   1.0000   1.0000   1.0000   1.0000   1.0000   1.0000
     1.0000   1.0000   1.0000   1.0000   1.0000   1.0000   0.0000   0.0000
     0.0000   0.0000

          k =-0.1980-0.4243 0.6505 (  6027 PWs)   bands (ev):

   -13.3190 -13.3097 -13.2020 -13.1402 -13.1092 -13.0905 -13.0397 -13.0173
   -12.9055 -12.8971   0.0384   2.2743   5.5554   6.5015  10.5109  11.2286
    12.1838  13.8697

     occupation numbers 
     1.0000   1.0000   1.0000   1.0000   1.0000   1.0000   1.0000   1.0000
     1.0000   1.0000   1.0000   1.0000   1.0000   1.0000   0.0000   0.0000
     0.0000   0.0000

          k =-0.1697-0.3960 0.6223 (  6014 PWs)   bands (ev):

   -13.3217 -13.3106 -13.1955 -13.1343 -13.1087 -13.0902 -13.0481 -13.0223
   -12.9045 -12.8939   0.2033   2.0587   5.4826   6.4296  10.4966  11.3600
    12.4924  13.7245

     occupation numbers 
     1.0000   1.0000   1.0000   1.0000   1.0000   1.0000   1.0000   1.0000
     1.0000   1.0000   1.0000   1.0000   1.0000   1.0000   0.0000   0.0000
     0.0000   0.0000

          k =-0.1414-0.3677 0.5940 (  6012 PWs)   bands (ev):

   -13.3231 -13.3110 -13.1921 -13.1306 -13.1088 -13.0896 -13.0534 -13.0247
   -12.9040 -12.8923   0.3051   1.9307   5.4471   6.3921  10.4894  11.3944
    12.9295  13.3834

     occupation numbers 
     1.0000   1.0000   1.0000   1.0000   1.0000   1.0000   1.0000   1.0000
     1.0000   1.0000   1.0000   1.0000   1.0000   1.0000   0.0000   0.0000
     0.0000   0.0000

          k =-0.1980-0.4808 0.7071 (  6032 PWs)   bands (ev):

   -13.3144 -13.3100 -13.2111 -13.1401 -13.1030 -13.1017 -13.0360 -13.0065
   -12.9053 -12.9024  -0.0619   2.4282   5.7172   6.4175  10.5308  10.6575
    12.2260  14.1782

     occupation numbers 
     1.0000   1.0000   1.0000   1.0000   1.0000   1.0000   1.0000   1.0000
     1.0000   1.0000   1.0000   1.0000   1.0000   1.0000   0.0000   0.0000
     0.0000   0.0000

          k =-0.1697-0.4525 0.6788 (  6032 PWs)   bands (ev):

   -13.3183 -13.3118 -13.2005 -13.1336 -13.1073 -13.0965 -13.0445 -13.0165
   -12.9033 -12.8976   0.1330   2.1758   5.5877   6.3097  10.5972  10.9927
    12.1495  14.2061

     occupation numbers 
     1.0000   1.0000   1.0000   1.0000   1.0000   1.0000   1.0000   1.0000
     1.0000   1.0000   1.0000   1.0000   1.0000   1.0000   0.0000   0.0000
     0.0000   0.0000

          k =-0.1414-0.4243 0.6505 (  6023 PWs)   bands (ev):

   -13.3215 -13.3129 -13.1915 -13.1275 -13.1089 -13.0938 -13.0531 -13.0242
   -12.9020 -12.8938   0.3134   1.9539   5.4890   6.2348  10.6076  11.3602
    12.1784  13.9581

     occupation numbers 
     1.0000   1.0000   1.0000   1.0000   1.0000   1.0000   1.0000   1.0000
     1.0000   1.0000   1.0000   1.0000   1.0000   1.0000   0.0000   0.0000
     0.0000   0.0000

          k =-0.1131-0.3960 0.6223 (  6013 PWs)   bands (ev):

   -13.3236 -13.3135 -13.1856 -13.1236 -13.1065 -13.0946 -13.0598 -13.0290
   -12.9013 -12.8915   0.4441   1.7999   5.4213   6.2012  10.6268  11.5509
    12.4406  13.5155

     occupation numbers 
     1.0000   1.0000   1.0000   1.0000   1.0000   1.0000   1.0000   1.0000
     1.0000   1.0000   1.0000   1.0000   1.0000   1.0000   0.0000   0.0000
     0.0000   0.0000

          k =-0.0849-0.3677 0.5940 (  6010 PWs)   bands (ev):

   -13.3243 -13.3136 -13.1837 -13.1228 -13.1026 -13.0973 -13.0624 -13.0305
   -12.9011 -12.8907   0.4753   1.7642   5.3868   6.2115  10.6543  11.5800
    12.8250  13.0828

     occupation numbers 
     1.0000   1.0000   1.0000   1.0000   1.0000   1.0000   1.0000   1.0000
     1.0000   1.0000   1.0000   1.0000   1.0000   1.0000   0.0000   0.0000
     0.0000   0.0000

          k =-0.0566-0.3394 0.5657 (  6009 PWs)   bands (ev):

   -13.3237 -13.3132 -13.1860 -13.1257 -13.1028 -13.0967 -13.0592 -13.0289
   -12.9015 -12.8915   0.3908   1.8628   5.3895   6.2634  10.6849  11.5424
    12.4835  13.4523

     occupation numbers 
     1.0000   1.0000   1.0000   1.0000   1.0000   1.0000   1.0000   1.0000
     1.0000   1.0000   1.0000   1.0000   1.0000   1.0000   0.0000   0.0000
     0.0000   0.0000

          k =-0.0283-0.3111 0.5374 (  6023 PWs)   bands (ev):

   -13.3218 -13.3123 -13.1918 -13.1322 -13.1017 -13.0978 -13.0509 -13.0249
   -12.9024 -12.8939   0.2312   2.0532   5.4344   6.3516  10.7087  11.4080
    12.1469  13.8701

     occupation numbers 
     1.0000   1.0000   1.0000   1.0000   1.0000   1.0000   1.0000   1.0000
     1.0000   1.0000   1.0000   1.0000   1.0000   1.0000   0.0000   0.0000
     0.0000   0.0000

          k = 0.0000-0.2828 0.5091 (  6028 PWs)   bands (ev):

   -13.3188 -13.3108 -13.2005 -13.1396 -13.1052 -13.0948 -13.0405 -13.0185
   -12.9041 -12.8975   0.0418   2.2874   5.5263   6.4680  10.6949  11.1402
    12.0400  14.0110

     occupation numbers 
     1.0000   1.0000   1.0000   1.0000   1.0000   1.0000   1.0000   1.0000
     1.0000   1.0000   1.0000   1.0000   1.0000   1.0000   0.0000   0.0000
     0.0000   0.0000

          k =-0.1414-0.4808 0.7071 (  6028 PWs)   bands (ev):

   -13.3170 -13.3133 -13.1998 -13.1262 -13.1214 -13.0856 -13.0502 -13.0155
   -12.9017 -12.8987   0.2457   2.0416   5.6586   6.1601  10.4773  10.6544
    12.5119  14.4419

     occupation numbers 
     1.0000   1.0000   1.0000   1.0000   1.0000   1.0000   1.0000   1.0000
     1.0000   1.0000   1.0000   1.0000   1.0000   1.0000   0.0000   0.0000
     0.0000   0.0000

          k =-0.1131-0.4525 0.6788 (  6015 PWs)   bands (ev):

   -13.3202 -13.3149 -13.1887 -13.1249 -13.1192 -13.0817 -13.0589 -13.0257
   -12.8999 -12.8949   0.4378   1.8188   5.5552   6.0671  10.5803  11.0195
    12.4095  14.1291

     occupation numbers 
     1.0000   1.0000   1.0000   1.0000   1.0000   1.0000   1.0000   1.0000
     1.0000   1.0000   1.0000   1.0000   1.0000   1.0000   0.0000   0.0000
     0.0000   0.0000

          k =-0.0849-0.4243 0.6505 (  6017 PWs)   bands (ev):

   -13.3229 -13.3155 -13.1803 -13.1253 -13.1127 -13.0817 -13.0664 -13.0329
   -12.8991 -12.8918   0.5947   1.6448   5.4634   6.0300  10.6173  11.4820
    12.3572  13.6263

     occupation numbers 
     1.0000   1.0000   1.0000   1.0000   1.0000   1.0000   1.0000   1.0000
     1.0000   1.0000   1.0000   1.0000   1.0000   1.0000   0.0000   0.0000
     0.0000   0.0000

          k =-0.0566-0.3960 0.6223 (  6013 PWs)   bands (ev):

   -13.3245 -13.3156 -13.1766 -13.1221 -13.1091 -13.0853 -13.0706 -13.0357
   -12.8989 -12.8902   0.6558   1.5798   5.3934   6.0485  10.6618  11.8277
    12.4633  13.0946

     occupation numbers 
     1.0000   1.0000   1.0000   1.0000   1.0000   1.0000   1.0000   1.0000
     1.0000   1.0000   1.0000   1.0000   1.0000   1.0000   0.0000   0.0000
     0.0000   0.0000

          k =-0.0283-0.3677 0.5940 (  6012 PWs)   bands (ev):

   -13.3248 -13.3151 -13.1781 -13.1172 -13.1117 -13.0880 -13.0700 -13.0345
   -12.8994 -12.8900   0.5817   1.6618   5.3586   6.1145  10.7102  11.8879
    12.4952  12.9780

     occupation numbers 
     1.0000   1.0000   1.0000   1.0000   1.0000   1.0000   1.0000   1.0000
     1.0000   1.0000   1.0000   1.0000   1.0000   1.0000   0.0000   0.0000
     0.0000   0.0000

          k = 0.0000-0.3394 0.5657 (  6015 PWs)   bands (ev):

   -13.3239 -13.3141 -13.1835 -13.1232 -13.1069 -13.0930 -13.0622 -13.0306
   -12.9005 -12.8913   0.4213   1.8393   5.3699   6.2187  10.7438  11.7178
    12.2090  13.4681

     occupation numbers 
     1.0000   1.0000   1.0000   1.0000   1.0000   1.0000   1.0000   1.0000
     1.0000   1.0000   1.0000   1.0000   1.0000   1.0000   0.0000   0.0000
     0.0000   0.0000

          k =-0.0849-0.4808 0.7071 (  6012 PWs)   bands (ev):

   -13.3185 -13.3160 -13.1868 -13.1393 -13.1114 -13.0697 -13.0652 -13.0268
   -12.8986 -12.8964   0.5753   1.6600   5.6514   5.9523  10.4599  10.5928
    12.9124  14.2629

     occupation numbers 
     1.0000   1.0000   1.0000   1.0000   1.0000   1.0000   1.0000   1.0000
     1.0000   1.0000   1.0000   1.0000   1.0000   1.0000   0.0000   0.0000
     0.0000   0.0000

          k =-0.0566-0.4525 0.6788 (  6013 PWs)   bands (ev):

   -13.3212 -13.3171 -13.1757 -13.1411 -13.1048 -13.0741 -13.0670 -13.0366
   -12.8975 -12.8934   0.7559   1.4701   5.5655   5.8882  10.5588  11.0095
    12.8025  13.7330

     occupation numbers 
     1.0000   1.0000   1.0000   1.0000   1.0000   1.0000   1.0000   1.0000
     1.0000   1.0000   1.0000   1.0000   1.0000   1.0000   0.0000   0.0000
     0.0000   0.0000

          k =-0.0283-0.4243 0.6505 (  6016 PWs)   bands (ev):

   -13.3235 -13.3170 -13.1706 -13.1365 -13.1009 -13.0807 -13.0701 -13.0406
   -12.8974 -12.8910   0.8429   1.3835   5.4632   5.9126  10.6100  11.5218
    12.7176  13.1670

     occupation numbers 
     1.0000   1.0000   1.0000   1.0000   1.0000   1.0000   1.0000   1.0000
     1.0000   1.0000   1.0000   1.0000   1.0000   1.0000   0.0000   0.0000
     0.0000   0.0000

          k =-0.0000-0.3960 0.6223 (  6012 PWs)   bands (ev):

   -13.3248 -13.3164 -13.1724 -13.1261 -13.1054 -13.0785 -13.0782 -13.0388
   -12.8980 -12.8898   0.7555   1.4779   5.3866   5.9940  10.6665  11.9640
    12.6470  12.7284

     occupation numbers 
     1.0000   1.0000   1.0000   1.0000   1.0000   1.0000   1.0000   1.0000
     1.0000   1.0000   1.0000   1.0000   1.0000   1.0000   0.0000   0.0000
     0.0000   0.0000

          k =-0.0283-0.4808 0.7071 (  6014 PWs)   bands (ev):

   -13.3188 -13.3179 -13.1723 -13.1563 -13.0961 -13.0806 -13.0543 -13.0398
   -12.8965 -12.8958   0.9233   1.2861   5.6973   5.7976  10.4774  10.5254
    13.3707  13.8438

     occupation numbers 
     1.0000   1.0000   1.0000   1.0000   1.0000   1.0000   1.0000   1.0000
     1.0000   1.0000   1.0000   1.0000   1.0000   1.0000   0.0000   0.0000
     0.0000   0.0000

          k = 0.0000-0.4525 0.6788 (  6016 PWs)   bands (ev):

   -13.3214 -13.3179 -13.1663 -13.1517 -13.0924 -13.0863 -13.0579 -13.0447
   -12.8965 -12.8930   1.0106   1.2054   5.5851   5.8118  10.5507  11.0013
    13.2608  13.2612

     occupation numbers 
     1.0000   1.0000   1.0000   1.0000   1.0000   1.0000   1.0000   1.0000
     1.0000   1.0000   1.0000   1.0000   1.0000   1.0000   0.0000   0.0000
     0.0000   0.0000

          k =-0.1414-0.4243 0.7071 (  6022 PWs)   bands (ev):

   -13.3209 -13.3143 -13.1895 -13.1263 -13.1126 -13.0905 -13.0543 -13.0259
   -12.9004 -12.8946   0.3282   1.9475   5.4925   6.1743  10.9311  11.0793
    12.0777  14.0190

     occupation numbers 
     1.0000   1.0000   1.0000   1.0000   1.0000   1.0000   1.0000   1.0000
     1.0000   1.0000   1.0000   1.0000   1.0000   1.0000   0.0000   0.0000
     0.0000   0.0000

          k =-0.1131-0.3960 0.6788 (  6013 PWs)   bands (ev):

   -13.3230 -13.3157 -13.1805 -13.1203 -13.1155 -13.0863 -13.0637 -13.0330
   -12.8989 -12.8920   0.5080   1.7446   5.4334   6.0725  10.9675  11.4204
    12.1264  13.5433

     occupation numbers 
     1.0000   1.0000   1.0000   1.0000   1.0000   1.0000   1.0000   1.0000
     1.0000   1.0000   1.0000   1.0000   1.0000   1.0000   0.0000   0.0000
     0.0000   0.0000

          k =-0.0849-0.3677 0.6505 (  6014 PWs)   bands (ev):

   -13.3242 -13.3163 -13.1753 -13.1212 -13.1110 -13.0859 -13.0691 -13.0370
   -12.8982 -12.8905   0.6292   1.6114   5.4059   6.0178  10.9724  11.5890
    12.4188  13.0199

     occupation numbers 
     1.0000   1.0000   1.0000   1.0000   1.0000   1.0000   1.0000   1.0000
     1.0000   1.0000   1.0000   1.0000   1.0000   1.0000   0.0000   0.0000
     0.0000   0.0000

          k =-0.0849-0.4243 0.7071 (  6010 PWs)   bands (ev):

   -13.3217 -13.3174 -13.1767 -13.1300 -13.1123 -13.0757 -13.0686 -13.0359
   -12.8971 -12.8931   0.6320   1.6099   5.5143   5.9263  11.0358  11.0485
    12.3108  13.6346

     occupation numbers 
     1.0000   1.0000   1.0000   1.0000   1.0000   1.0000   1.0000   1.0000
     1.0000   1.0000   1.0000   1.0000   1.0000   1.0000   0.0000   0.0000
     0.0000   0.0000

          k =-0.0566-0.3960 0.6788 (  6002 PWs)   bands (ev):

   -13.3231 -13.3185 -13.1679 -13.1331 -13.1058 -13.0781 -13.0715 -13.0430
   -12.8959 -12.8915   0.7900   1.4452   5.4822   5.8498  11.0724  11.5035
    12.2750  13.0741

     occupation numbers 
     1.0000   1.0000   1.0000   1.0000   1.0000   1.0000   1.0000   1.0000
     1.0000   1.0000   1.0000   1.0000   1.0000   1.0000   0.0000   0.0000
     0.0000   0.0000

          k =-0.0283-0.3677 0.6505 (  6013 PWs)   bands (ev):

   -13.3240 -13.3185 -13.1660 -13.1310 -13.1044 -13.0810 -13.0727 -13.0442
   -12.8960 -12.8906   0.8200   1.4154   5.4464   5.8588  11.1052  11.7684
    12.3710  12.6491

     occupation numbers 
     1.0000   1.0000   1.0000   1.0000   1.0000   1.0000   1.0000   1.0000
     1.0000   1.0000   1.0000   1.0000   1.0000   1.0000   0.0000   0.0000
     0.0000   0.0000

          k =-0.0000-0.3394 0.6223 (  6009 PWs)   bands (ev):

   -13.3239 -13.3175 -13.1712 -13.1245 -13.1108 -13.0788 -13.0740 -13.0400
   -12.8969 -12.8908   0.6932   1.5484   5.4229   5.9408  11.1103  11.6578
    12.1730  13.0051

     occupation numbers 
     1.0000   1.0000   1.0000   1.0000   1.0000   1.0000   1.0000   1.0000
     1.0000   1.0000   1.0000   1.0000   1.0000   1.0000   0.0000   0.0000
     0.0000   0.0000

          k =-0.0283-0.4243 0.7071 (  6007 PWs)   bands (ev):

   -13.3213 -13.3198 -13.1624 -13.1467 -13.0978 -13.0832 -13.0613 -13.0479
   -12.8946 -12.8931   0.9493   1.2764   5.5938   5.7315  11.0432  11.0504
    12.6965  13.1579

     occupation numbers 
     1.0000   1.0000   1.0000   1.0000   1.0000   1.0000   1.0000   1.0000
     1.0000   1.0000   1.0000   1.0000   1.0000   1.0000   0.0000   0.0000
     0.0000   0.0000

          k =-0.0000-0.3960 0.6788 (  6014 PWs)   bands (ev):

   -13.3228 -13.3199 -13.1589 -13.1433 -13.0961 -13.0871 -13.0637 -13.0503
   -12.8945 -12.8917   0.9943   1.2353   5.5338   5.7391  11.0901  11.5402
    12.6151  12.6275

     occupation numbers 
     1.0000   1.0000   1.0000   1.0000   1.0000   1.0000   1.0000   1.0000
     1.0000   1.0000   1.0000   1.0000   1.0000   1.0000   0.0000   0.0000
     0.0000   0.0000

          k =-0.0283-0.3677 0.7071 (  6017 PWs)   bands (ev):

   -13.3227 -13.3205 -13.1571 -13.1414 -13.0984 -13.0861 -13.0648 -13.0516
   -12.8939 -12.8917   0.9736   1.2594   5.5369   5.7108  11.4155  11.5818
    12.2675  12.5656

     occupation numbers 
     1.0000   1.0000   1.0000   1.0000   1.0000   1.0000   1.0000   1.0000
     1.0000   1.0000   1.0000   1.0000   1.0000   1.0000   0.0000   0.0000
     0.0000   0.0000

     the Fermi energy is     8.3515 ev

!    total energy              =    -241.29904375 Ry
     Harris-Foulkes estimate   =    -241.29904374 Ry
     estimated scf accuracy    <       0.00000005 Ry

     The total energy is the sum of the following terms:

     one-electron contribution =    -109.45013747 Ry
     hartree contribution      =      65.34064104 Ry
     xc contribution           =     -29.40809546 Ry
     ewald contribution        =    -167.78134157 Ry
     smearing contrib. (-TS)   =      -0.00011030 Ry

     convergence has been achieved in   5 iterations

     Writing output data file Sn.save
 
     init_run     :      6.19s CPU      7.24s WALL (       1 calls)
     electrons    :    142.49s CPU    160.12s WALL (       1 calls)

     Called by init_run:
     wfcinit      :      5.98s CPU      6.94s WALL (       1 calls)
     potinit      :      0.02s CPU      0.03s WALL (       1 calls)

     Called by electrons:
     c_bands      :    127.21s CPU    144.40s WALL (       6 calls)
     sum_band     :     15.20s CPU     15.55s WALL (       6 calls)
     v_of_rho     :      0.06s CPU      0.08s WALL (       6 calls)
     v_h          :      0.00s CPU      0.00s WALL (       6 calls)
     v_xc         :      0.06s CPU      0.07s WALL (       6 calls)
     mix_rho      :      0.01s CPU      0.01s WALL (       6 calls)

     Called by c_bands:
     init_us_2    :      1.06s CPU      1.20s WALL (    5915 calls)
     cegterg      :    120.47s CPU    137.20s WALL (    2730 calls)

     Called by sum_band:

     Called by *egterg:
     h_psi        :    102.68s CPU    118.83s WALL (   11358 calls)
     g_psi        :      0.25s CPU      0.25s WALL (    8173 calls)
     cdiaghg      :     12.26s CPU     12.44s WALL (   10448 calls)
     cegterg:over :      4.12s CPU      4.35s WALL (    8173 calls)
     cegterg:upda :      1.40s CPU      1.42s WALL (    8173 calls)
     cegterg:last :      0.83s CPU      0.84s WALL (    3464 calls)

     Called by h_psi:
     h_psi:vloc   :     97.99s CPU    113.55s WALL (   11358 calls)
     h_psi:vnl    :      4.40s CPU      4.94s WALL (   11358 calls)
     add_vuspsi   :      1.21s CPU      1.34s WALL (   11358 calls)

     General routines
     calbec       :      3.09s CPU      3.51s WALL (   11358 calls)
     fft          :      0.05s CPU      0.08s WALL (      67 calls)
     fftw         :    105.09s CPU    120.15s WALL (  368084 calls)
     davcio       :      0.02s CPU      0.27s WALL (     455 calls)
 
     Parallel routines
     fft_scatter  :     57.05s CPU     64.95s WALL (  368151 calls)
 
     PWSCF        :  2m29.09s CPU     2m48.25s WALL

 
   This run was terminated on:   0:56:13  21Feb2020            

=------------------------------------------------------------------------------=
   JOB DONE.
=------------------------------------------------------------------------------=
