
     Program PWSCF v.5.4.0 starts on 17Mar2020 at 13:59:52 

     This program is part of the open-source Quantum ESPRESSO suite
     for quantum simulation of materials; please cite
         "P. Giannozzi et al., J. Phys.:Condens. Matter 21 395502 (2009);
          URL http://www.quantum-espresso.org", 
     in publications or presentations arising from this work. More details at
     http://www.quantum-espresso.org/quote

     Parallel version (MPI & OpenMP), running on      16 processor cores
     Number of MPI processes:                16
     Threads/MPI process:                     1
     R & G space division:  proc/nbgrp/npool/nimage =      16
     Waiting for input...
     Reading input from standard input
Warning: card &IONS ignored
Warning: card / ignored
Warning: card &CELL ignored
Warning: card / ignored

     Current dimensions of program PWSCF are:
     Max number of different atomic species (ntypx) = 10
     Max number of k-points (npk) =  40000
     Max angular momentum in pseudopotentials (lmaxx) =  3
               file Sn.pbe-dn-kjpaw_psl.0.2.UPF: wavefunction(s)  5P 4D renormalized
     Message from routine setup:
     At least one non s.o. pseudo

     Subspace diagonalization in iterative solution of the eigenvalue problem:
     a serial algorithm will be used

 
     Parallelization info
     --------------------
     sticks:   dense  smooth     PW     G-vecs:    dense   smooth      PW
     Min         150     150     42                 4876     4876     735
     Max         151     151     43                 4879     4879     740
     Sum        2407    2407    673                78031    78031   11791
 

     Title: 
     Sn                                                                         


     bravais-lattice index     =            0
     lattice parameter (alat)  =       8.9127  a.u.
     unit-cell volume          =     500.6268 (a.u.)^3
     number of atoms/cell      =            2
     number of atomic types    =            1
     number of electrons       =        28.00
     number of Kohn-Sham states=           36
     kinetic-energy cutoff     =     110.0000  Ry
     charge density cutoff     =     440.0000  Ry
     convergence threshold     =      1.0E-06
     mixing beta               =       0.7000
     number of iterations used =            8  plain     mixing
     Exchange-correlation      =  SLA  PW   PBX  PBC ( 1  4  3  4 0 0)
     Non magnetic calculation with spin-orbit


     celldm(1)=   8.912709  celldm(2)=   0.000000  celldm(3)=   0.000000
     celldm(4)=   0.000000  celldm(5)=   0.000000  celldm(6)=   0.000000

     crystal axes: (cart. coord. in units of alat)
               a(1) = (   0.000000   0.707107   0.707107 )  
               a(2) = (   0.707107   0.000000   0.707107 )  
               a(3) = (   0.707107   0.707107   0.000000 )  

     reciprocal axes: (cart. coord. in units 2 pi/alat)
               b(1) = ( -0.707107  0.707107  0.707107 )  
               b(2) = (  0.707107 -0.707107  0.707107 )  
               b(3) = (  0.707107  0.707107 -0.707107 )  


     PseudoPot. # 1 for Sn read from file:
     ../PseudopotentialDatabase/Sn.pbe-dn-kjpaw_psl.0.2.UPF
     MD5 check sum: b79c227927c2421b8b427190f2e58519
     Pseudo is Projector augmented-wave + core cor, Zval = 14.0
     Generated using "atomic" code by A. Dal Corso  v.5.0.2 svn rev. 9415
     Shape of augmentation charge: BESSEL
     Using radial grid of 1243 points,  6 beta functions with: 
                l(1) =   0
                l(2) =   0
                l(3) =   1
                l(4) =   1
                l(5) =   2
                l(6) =   2
     Q(r) pseudized with 0 coefficients 


     atomic species   valence    mass     pseudopotential
        Sn            14.00   118.71000     Sn( 1.00)

     48 Sym. Ops., with inversion, found (24 have fractional translation)


                                    s                        frac. trans.

      isym =  1     identity                                     

 cryst.   s( 1) = (     1          0          0      )
                  (     0          1          0      )
                  (     0          0          1      )

 cart.    s( 1) = (  1.0000000  0.0000000  0.0000000 )
                  (  0.0000000  1.0000000  0.0000000 )
                  (  0.0000000  0.0000000  1.0000000 )


      isym =  2     180 deg rotation - cart. axis [0,0,1]        

 cryst.   s( 2) = (     0          1         -1      )
                  (     1          0         -1      )
                  (     0          0         -1      )

 cart.    s( 2) = ( -1.0000000  0.0000000  0.0000000 )
                  (  0.0000000 -1.0000000  0.0000000 )
                  (  0.0000000  0.0000000  1.0000000 )


      isym =  3     180 deg rotation - cart. axis [0,1,0]        

 cryst.   s( 3) = (     0         -1          1      )
                  (     0         -1          0      )
                  (     1         -1          0      )

 cart.    s( 3) = ( -1.0000000  0.0000000  0.0000000 )
                  (  0.0000000  1.0000000  0.0000000 )
                  (  0.0000000  0.0000000 -1.0000000 )


      isym =  4     180 deg rotation - cart. axis [1,0,0]        

 cryst.   s( 4) = (    -1          0          0      )
                  (    -1          0          1      )
                  (    -1          1          0      )

 cart.    s( 4) = (  1.0000000  0.0000000  0.0000000 )
                  (  0.0000000 -1.0000000  0.0000000 )
                  (  0.0000000  0.0000000 -1.0000000 )


      isym =  5     180 deg rotation - cart. axis [1,1,0]        

 cryst.   s( 5) = (    -1          0          1      )    f =( -0.2500000 )
                  (     0         -1          1      )       ( -0.2500000 )
                  (     0          0          1      )       ( -0.2500000 )

 cart.    s( 5) = (  0.0000000  1.0000000  0.0000000 )    f =( -0.3535534 )
                  (  1.0000000  0.0000000  0.0000000 )       ( -0.3535534 )
                  (  0.0000000  0.0000000 -1.0000000 )       ( -0.3535534 )


      isym =  6     180 deg rotation - cart. axis [1,-1,0]       

 cryst.   s( 6) = (     0         -1          0      )    f =( -0.2500000 )
                  (    -1          0          0      )       ( -0.2500000 )
                  (     0          0         -1      )       ( -0.2500000 )

 cart.    s( 6) = (  0.0000000 -1.0000000  0.0000000 )    f =( -0.3535534 )
                  ( -1.0000000  0.0000000  0.0000000 )       ( -0.3535534 )
                  (  0.0000000  0.0000000 -1.0000000 )       ( -0.3535534 )


      isym =  7      90 deg rotation - cart. axis [0,0,-1]       

 cryst.   s( 7) = (     0          1          0      )    f =( -0.2500000 )
                  (     0          1         -1      )       ( -0.2500000 )
                  (    -1          1          0      )       ( -0.2500000 )

 cart.    s( 7) = (  0.0000000  1.0000000  0.0000000 )    f =( -0.3535534 )
                  ( -1.0000000  0.0000000  0.0000000 )       ( -0.3535534 )
                  (  0.0000000  0.0000000  1.0000000 )       ( -0.3535534 )


      isym =  8      90 deg rotation - cart. axis [0,0,1]        

 cryst.   s( 8) = (     1          0         -1      )    f =( -0.2500000 )
                  (     1          0          0      )       ( -0.2500000 )
                  (     1         -1          0      )       ( -0.2500000 )

 cart.    s( 8) = (  0.0000000 -1.0000000  0.0000000 )    f =( -0.3535534 )
                  (  1.0000000  0.0000000  0.0000000 )       ( -0.3535534 )
                  (  0.0000000  0.0000000  1.0000000 )       ( -0.3535534 )


      isym =  9     180 deg rotation - cart. axis [1,0,1]        

 cryst.   s( 9) = (    -1          1          0      )    f =( -0.2500000 )
                  (     0          1          0      )       ( -0.2500000 )
                  (     0          1         -1      )       ( -0.2500000 )

 cart.    s( 9) = (  0.0000000  0.0000000  1.0000000 )    f =( -0.3535534 )
                  (  0.0000000 -1.0000000  0.0000000 )       ( -0.3535534 )
                  (  1.0000000  0.0000000  0.0000000 )       ( -0.3535534 )


      isym = 10     180 deg rotation - cart. axis [-1,0,1]       

 cryst.   s(10) = (     0          0         -1      )    f =( -0.2500000 )
                  (     0         -1          0      )       ( -0.2500000 )
                  (    -1          0          0      )       ( -0.2500000 )

 cart.    s(10) = (  0.0000000  0.0000000 -1.0000000 )    f =( -0.3535534 )
                  (  0.0000000 -1.0000000  0.0000000 )       ( -0.3535534 )
                  ( -1.0000000  0.0000000  0.0000000 )       ( -0.3535534 )


      isym = 11      90 deg rotation - cart. axis [0,1,0]        

 cryst.   s(11) = (     0          0          1      )    f =( -0.2500000 )
                  (    -1          0          1      )       ( -0.2500000 )
                  (     0         -1          1      )       ( -0.2500000 )

 cart.    s(11) = (  0.0000000  0.0000000  1.0000000 )    f =( -0.3535534 )
                  (  0.0000000  1.0000000  0.0000000 )       ( -0.3535534 )
                  ( -1.0000000  0.0000000  0.0000000 )       ( -0.3535534 )


      isym = 12      90 deg rotation - cart. axis [0,-1,0]       

 cryst.   s(12) = (     1         -1          0      )    f =( -0.2500000 )
                  (     1          0         -1      )       ( -0.2500000 )
                  (     1          0          0      )       ( -0.2500000 )

 cart.    s(12) = (  0.0000000  0.0000000 -1.0000000 )    f =( -0.3535534 )
                  (  0.0000000  1.0000000  0.0000000 )       ( -0.3535534 )
                  (  1.0000000  0.0000000  0.0000000 )       ( -0.3535534 )


      isym = 13     180 deg rotation - cart. axis [0,1,1]        

 cryst.   s(13) = (     1          0          0      )    f =( -0.2500000 )
                  (     1         -1          0      )       ( -0.2500000 )
                  (     1          0         -1      )       ( -0.2500000 )

 cart.    s(13) = ( -1.0000000  0.0000000  0.0000000 )    f =( -0.3535534 )
                  (  0.0000000  0.0000000  1.0000000 )       ( -0.3535534 )
                  (  0.0000000  1.0000000  0.0000000 )       ( -0.3535534 )


      isym = 14     180 deg rotation - cart. axis [0,1,-1]       

 cryst.   s(14) = (    -1          0          0      )    f =( -0.2500000 )
                  (     0          0         -1      )       ( -0.2500000 )
                  (     0         -1          0      )       ( -0.2500000 )

 cart.    s(14) = ( -1.0000000  0.0000000  0.0000000 )    f =( -0.3535534 )
                  (  0.0000000  0.0000000 -1.0000000 )       ( -0.3535534 )
                  (  0.0000000 -1.0000000  0.0000000 )       ( -0.3535534 )


      isym = 15      90 deg rotation - cart. axis [-1,0,0]       

 cryst.   s(15) = (     0         -1          1      )    f =( -0.2500000 )
                  (     0          0          1      )       ( -0.2500000 )
                  (    -1          0          1      )       ( -0.2500000 )

 cart.    s(15) = (  1.0000000  0.0000000  0.0000000 )    f =( -0.3535534 )
                  (  0.0000000  0.0000000  1.0000000 )       ( -0.3535534 )
                  (  0.0000000 -1.0000000  0.0000000 )       ( -0.3535534 )


      isym = 16      90 deg rotation - cart. axis [1,0,0]        

 cryst.   s(16) = (     0          1         -1      )    f =( -0.2500000 )
                  (    -1          1          0      )       ( -0.2500000 )
                  (     0          1          0      )       ( -0.2500000 )

 cart.    s(16) = (  1.0000000  0.0000000  0.0000000 )    f =( -0.3535534 )
                  (  0.0000000  0.0000000 -1.0000000 )       ( -0.3535534 )
                  (  0.0000000  1.0000000  0.0000000 )       ( -0.3535534 )


      isym = 17     120 deg rotation - cart. axis [-1,-1,-1]     

 cryst.   s(17) = (     0          0          1      )
                  (     1          0          0      )
                  (     0          1          0      )

 cart.    s(17) = (  0.0000000  1.0000000  0.0000000 )
                  (  0.0000000  0.0000000  1.0000000 )
                  (  1.0000000  0.0000000  0.0000000 )


      isym = 18     120 deg rotation - cart. axis [-1,1,1]       

 cryst.   s(18) = (     1         -1          0      )
                  (     0         -1          1      )
                  (     0         -1          0      )

 cart.    s(18) = (  0.0000000 -1.0000000  0.0000000 )
                  (  0.0000000  0.0000000  1.0000000 )
                  ( -1.0000000  0.0000000  0.0000000 )


      isym = 19     120 deg rotation - cart. axis [1,1,-1]       

 cryst.   s(19) = (    -1          1          0      )
                  (    -1          0          0      )
                  (    -1          0          1      )

 cart.    s(19) = (  0.0000000  1.0000000  0.0000000 )
                  (  0.0000000  0.0000000 -1.0000000 )
                  ( -1.0000000  0.0000000  0.0000000 )


      isym = 20     120 deg rotation - cart. axis [1,-1,1]       

 cryst.   s(20) = (     0          0         -1      )
                  (     0          1         -1      )
                  (     1          0         -1      )

 cart.    s(20) = (  0.0000000 -1.0000000  0.0000000 )
                  (  0.0000000  0.0000000 -1.0000000 )
                  (  1.0000000  0.0000000  0.0000000 )


      isym = 21     120 deg rotation - cart. axis [1,1,1]        

 cryst.   s(21) = (     0          1          0      )
                  (     0          0          1      )
                  (     1          0          0      )

 cart.    s(21) = (  0.0000000  0.0000000  1.0000000 )
                  (  1.0000000  0.0000000  0.0000000 )
                  (  0.0000000  1.0000000  0.0000000 )


      isym = 22     120 deg rotation - cart. axis [-1,1,-1]      

 cryst.   s(22) = (    -1          0          1      )
                  (    -1          1          0      )
                  (    -1          0          0      )

 cart.    s(22) = (  0.0000000  0.0000000  1.0000000 )
                  ( -1.0000000  0.0000000  0.0000000 )
                  (  0.0000000 -1.0000000  0.0000000 )


      isym = 23     120 deg rotation - cart. axis [1,-1,-1]      

 cryst.   s(23) = (     1          0         -1      )
                  (     0          0         -1      )
                  (     0          1         -1      )

 cart.    s(23) = (  0.0000000  0.0000000 -1.0000000 )
                  ( -1.0000000  0.0000000  0.0000000 )
                  (  0.0000000  1.0000000  0.0000000 )


      isym = 24     120 deg rotation - cart. axis [-1,-1,1]      

 cryst.   s(24) = (     0         -1          0      )
                  (     1         -1          0      )
                  (     0         -1          1      )

 cart.    s(24) = (  0.0000000  0.0000000 -1.0000000 )
                  (  1.0000000  0.0000000  0.0000000 )
                  (  0.0000000 -1.0000000  0.0000000 )


      isym = 25     inversion                                    

 cryst.   s(25) = (    -1          0          0      )    f =( -0.2500000 )
                  (     0         -1          0      )       ( -0.2500000 )
                  (     0          0         -1      )       ( -0.2500000 )

 cart.    s(25) = ( -1.0000000  0.0000000  0.0000000 )    f =( -0.3535534 )
                  (  0.0000000 -1.0000000  0.0000000 )       ( -0.3535534 )
                  (  0.0000000  0.0000000 -1.0000000 )       ( -0.3535534 )


      isym = 26     inv. 180 deg rotation - cart. axis [0,0,1]   

 cryst.   s(26) = (     0         -1          1      )    f =( -0.2500000 )
                  (    -1          0          1      )       ( -0.2500000 )
                  (     0          0          1      )       ( -0.2500000 )

 cart.    s(26) = (  1.0000000  0.0000000  0.0000000 )    f =( -0.3535534 )
                  (  0.0000000  1.0000000  0.0000000 )       ( -0.3535534 )
                  (  0.0000000  0.0000000 -1.0000000 )       ( -0.3535534 )


      isym = 27     inv. 180 deg rotation - cart. axis [0,1,0]   

 cryst.   s(27) = (     0          1         -1      )    f =( -0.2500000 )
                  (     0          1          0      )       ( -0.2500000 )
                  (    -1          1          0      )       ( -0.2500000 )

 cart.    s(27) = (  1.0000000  0.0000000  0.0000000 )    f =( -0.3535534 )
                  (  0.0000000 -1.0000000  0.0000000 )       ( -0.3535534 )
                  (  0.0000000  0.0000000  1.0000000 )       ( -0.3535534 )


      isym = 28     inv. 180 deg rotation - cart. axis [1,0,0]   

 cryst.   s(28) = (     1          0          0      )    f =( -0.2500000 )
                  (     1          0         -1      )       ( -0.2500000 )
                  (     1         -1          0      )       ( -0.2500000 )

 cart.    s(28) = ( -1.0000000  0.0000000  0.0000000 )    f =( -0.3535534 )
                  (  0.0000000  1.0000000  0.0000000 )       ( -0.3535534 )
                  (  0.0000000  0.0000000  1.0000000 )       ( -0.3535534 )


      isym = 29     inv. 180 deg rotation - cart. axis [1,1,0]   

 cryst.   s(29) = (     1          0         -1      )
                  (     0          1         -1      )
                  (     0          0         -1      )

 cart.    s(29) = (  0.0000000 -1.0000000  0.0000000 )
                  ( -1.0000000  0.0000000  0.0000000 )
                  (  0.0000000  0.0000000  1.0000000 )


      isym = 30     inv. 180 deg rotation - cart. axis [1,-1,0]  

 cryst.   s(30) = (     0          1          0      )
                  (     1          0          0      )
                  (     0          0          1      )

 cart.    s(30) = (  0.0000000  1.0000000  0.0000000 )
                  (  1.0000000  0.0000000  0.0000000 )
                  (  0.0000000  0.0000000  1.0000000 )


      isym = 31     inv.  90 deg rotation - cart. axis [0,0,-1]  

 cryst.   s(31) = (     0         -1          0      )
                  (     0         -1          1      )
                  (     1         -1          0      )

 cart.    s(31) = (  0.0000000 -1.0000000  0.0000000 )
                  (  1.0000000  0.0000000  0.0000000 )
                  (  0.0000000  0.0000000 -1.0000000 )


      isym = 32     inv.  90 deg rotation - cart. axis [0,0,1]   

 cryst.   s(32) = (    -1          0          1      )
                  (    -1          0          0      )
                  (    -1          1          0      )

 cart.    s(32) = (  0.0000000  1.0000000  0.0000000 )
                  ( -1.0000000  0.0000000  0.0000000 )
                  (  0.0000000  0.0000000 -1.0000000 )


      isym = 33     inv. 180 deg rotation - cart. axis [1,0,1]   

 cryst.   s(33) = (     1         -1          0      )
                  (     0         -1          0      )
                  (     0         -1          1      )

 cart.    s(33) = (  0.0000000  0.0000000 -1.0000000 )
                  (  0.0000000  1.0000000  0.0000000 )
                  ( -1.0000000  0.0000000  0.0000000 )


      isym = 34     inv. 180 deg rotation - cart. axis [-1,0,1]  

 cryst.   s(34) = (     0          0          1      )
                  (     0          1          0      )
                  (     1          0          0      )

 cart.    s(34) = (  0.0000000  0.0000000  1.0000000 )
                  (  0.0000000  1.0000000  0.0000000 )
                  (  1.0000000  0.0000000  0.0000000 )


      isym = 35     inv.  90 deg rotation - cart. axis [0,1,0]   

 cryst.   s(35) = (     0          0         -1      )
                  (     1          0         -1      )
                  (     0          1         -1      )

 cart.    s(35) = (  0.0000000  0.0000000 -1.0000000 )
                  (  0.0000000 -1.0000000  0.0000000 )
                  (  1.0000000  0.0000000  0.0000000 )


      isym = 36     inv.  90 deg rotation - cart. axis [0,-1,0]  

 cryst.   s(36) = (    -1          1          0      )
                  (    -1          0          1      )
                  (    -1          0          0      )

 cart.    s(36) = (  0.0000000  0.0000000  1.0000000 )
                  (  0.0000000 -1.0000000  0.0000000 )
                  ( -1.0000000  0.0000000  0.0000000 )


      isym = 37     inv. 180 deg rotation - cart. axis [0,1,1]   

 cryst.   s(37) = (    -1          0          0      )
                  (    -1          1          0      )
                  (    -1          0          1      )

 cart.    s(37) = (  1.0000000  0.0000000  0.0000000 )
                  (  0.0000000  0.0000000 -1.0000000 )
                  (  0.0000000 -1.0000000  0.0000000 )


      isym = 38     inv. 180 deg rotation - cart. axis [0,1,-1]  

 cryst.   s(38) = (     1          0          0      )
                  (     0          0          1      )
                  (     0          1          0      )

 cart.    s(38) = (  1.0000000  0.0000000  0.0000000 )
                  (  0.0000000  0.0000000  1.0000000 )
                  (  0.0000000  1.0000000  0.0000000 )


      isym = 39     inv.  90 deg rotation - cart. axis [-1,0,0]  

 cryst.   s(39) = (     0          1         -1      )
                  (     0          0         -1      )
                  (     1          0         -1      )

 cart.    s(39) = ( -1.0000000  0.0000000  0.0000000 )
                  (  0.0000000  0.0000000 -1.0000000 )
                  (  0.0000000  1.0000000  0.0000000 )


      isym = 40     inv.  90 deg rotation - cart. axis [1,0,0]   

 cryst.   s(40) = (     0         -1          1      )
                  (     1         -1          0      )
                  (     0         -1          0      )

 cart.    s(40) = ( -1.0000000  0.0000000  0.0000000 )
                  (  0.0000000  0.0000000  1.0000000 )
                  (  0.0000000 -1.0000000  0.0000000 )


      isym = 41     inv. 120 deg rotation - cart. axis [-1,-1,-1]

 cryst.   s(41) = (     0          0         -1      )    f =( -0.2500000 )
                  (    -1          0          0      )       ( -0.2500000 )
                  (     0         -1          0      )       ( -0.2500000 )

 cart.    s(41) = (  0.0000000 -1.0000000  0.0000000 )    f =( -0.3535534 )
                  (  0.0000000  0.0000000 -1.0000000 )       ( -0.3535534 )
                  ( -1.0000000  0.0000000  0.0000000 )       ( -0.3535534 )


      isym = 42     inv. 120 deg rotation - cart. axis [-1,1,1]  

 cryst.   s(42) = (    -1          1          0      )    f =( -0.2500000 )
                  (     0          1         -1      )       ( -0.2500000 )
                  (     0          1          0      )       ( -0.2500000 )

 cart.    s(42) = (  0.0000000  1.0000000  0.0000000 )    f =( -0.3535534 )
                  (  0.0000000  0.0000000 -1.0000000 )       ( -0.3535534 )
                  (  1.0000000  0.0000000  0.0000000 )       ( -0.3535534 )


      isym = 43     inv. 120 deg rotation - cart. axis [1,1,-1]  

 cryst.   s(43) = (     1         -1          0      )    f =( -0.2500000 )
                  (     1          0          0      )       ( -0.2500000 )
                  (     1          0         -1      )       ( -0.2500000 )

 cart.    s(43) = (  0.0000000 -1.0000000  0.0000000 )    f =( -0.3535534 )
                  (  0.0000000  0.0000000  1.0000000 )       ( -0.3535534 )
                  (  1.0000000  0.0000000  0.0000000 )       ( -0.3535534 )


      isym = 44     inv. 120 deg rotation - cart. axis [1,-1,1]  

 cryst.   s(44) = (     0          0          1      )    f =( -0.2500000 )
                  (     0         -1          1      )       ( -0.2500000 )
                  (    -1          0          1      )       ( -0.2500000 )

 cart.    s(44) = (  0.0000000  1.0000000  0.0000000 )    f =( -0.3535534 )
                  (  0.0000000  0.0000000  1.0000000 )       ( -0.3535534 )
                  ( -1.0000000  0.0000000  0.0000000 )       ( -0.3535534 )


      isym = 45     inv. 120 deg rotation - cart. axis [1,1,1]   

 cryst.   s(45) = (     0         -1          0      )    f =( -0.2500000 )
                  (     0          0         -1      )       ( -0.2500000 )
                  (    -1          0          0      )       ( -0.2500000 )

 cart.    s(45) = (  0.0000000  0.0000000 -1.0000000 )    f =( -0.3535534 )
                  ( -1.0000000  0.0000000  0.0000000 )       ( -0.3535534 )
                  (  0.0000000 -1.0000000  0.0000000 )       ( -0.3535534 )


      isym = 46     inv. 120 deg rotation - cart. axis [-1,1,-1] 

 cryst.   s(46) = (     1          0         -1      )    f =( -0.2500000 )
                  (     1         -1          0      )       ( -0.2500000 )
                  (     1          0          0      )       ( -0.2500000 )

 cart.    s(46) = (  0.0000000  0.0000000 -1.0000000 )    f =( -0.3535534 )
                  (  1.0000000  0.0000000  0.0000000 )       ( -0.3535534 )
                  (  0.0000000  1.0000000  0.0000000 )       ( -0.3535534 )


      isym = 47     inv. 120 deg rotation - cart. axis [1,-1,-1] 

 cryst.   s(47) = (    -1          0          1      )    f =( -0.2500000 )
                  (     0          0          1      )       ( -0.2500000 )
                  (     0         -1          1      )       ( -0.2500000 )

 cart.    s(47) = (  0.0000000  0.0000000  1.0000000 )    f =( -0.3535534 )
                  (  1.0000000  0.0000000  0.0000000 )       ( -0.3535534 )
                  (  0.0000000 -1.0000000  0.0000000 )       ( -0.3535534 )


      isym = 48     inv. 120 deg rotation - cart. axis [-1,-1,1] 

 cryst.   s(48) = (     0          1          0      )    f =( -0.2500000 )
                  (    -1          1          0      )       ( -0.2500000 )
                  (     0          1         -1      )       ( -0.2500000 )

 cart.    s(48) = (  0.0000000  0.0000000  1.0000000 )    f =( -0.3535534 )
                  ( -1.0000000  0.0000000  0.0000000 )       ( -0.3535534 )
                  (  0.0000000  1.0000000  0.0000000 )       ( -0.3535534 )


   Cartesian axes

     site n.     atom                  positions (alat units)
         1           Sn  tau(   1) = (   0.0000000   0.0000000   0.0000000  )
         2           Sn  tau(   2) = (   0.3535534   0.3535534   0.3535534  )

   Crystallographic axes

     site n.     atom                  positions (cryst. coord.)
         1           Sn  tau(   1) = (  0.0000000  0.0000000  0.0000000  )
         2           Sn  tau(   2) = (  0.2500000  0.2500000  0.2500000  )

     number of k points=   145  gaussian smearing, width (Ry)=  0.0001
                       cart. coord. in units 2pi/alat
        k(    1) = (   0.0000000   0.0000000   0.0000000), wk =   0.0002441
        k(    2) = (   0.0441942   0.0441942  -0.0441942), wk =   0.0019531
        k(    3) = (   0.0883883   0.0883883  -0.0883883), wk =   0.0019531
        k(    4) = (   0.1325825   0.1325825  -0.1325825), wk =   0.0019531
        k(    5) = (   0.1767767   0.1767767  -0.1767767), wk =   0.0019531
        k(    6) = (   0.2209709   0.2209709  -0.2209709), wk =   0.0019531
        k(    7) = (   0.2651650   0.2651650  -0.2651650), wk =   0.0019531
        k(    8) = (   0.3093592   0.3093592  -0.3093592), wk =   0.0019531
        k(    9) = (  -0.3535534  -0.3535534   0.3535534), wk =   0.0009766
        k(   10) = (   0.0883883   0.0000000   0.0000000), wk =   0.0014648
        k(   11) = (   0.1325825   0.0441942  -0.0441942), wk =   0.0058594
        k(   12) = (   0.1767767   0.0883883  -0.0883883), wk =   0.0058594
        k(   13) = (   0.2209709   0.1325825  -0.1325825), wk =   0.0058594
        k(   14) = (   0.2651650   0.1767767  -0.1767767), wk =   0.0058594
        k(   15) = (   0.3093592   0.2209709  -0.2209709), wk =   0.0058594
        k(   16) = (   0.3535534   0.2651650  -0.2651650), wk =   0.0058594
        k(   17) = (  -0.3093592  -0.3977476   0.3977476), wk =   0.0058594
        k(   18) = (  -0.2651650  -0.3535534   0.3535534), wk =   0.0058594
        k(   19) = (  -0.2209709  -0.3093592   0.3093592), wk =   0.0058594
        k(   20) = (  -0.1767767  -0.2651650   0.2651650), wk =   0.0058594
        k(   21) = (  -0.1325825  -0.2209709   0.2209709), wk =   0.0058594
        k(   22) = (  -0.0883883  -0.1767767   0.1767767), wk =   0.0058594
        k(   23) = (  -0.0441942  -0.1325825   0.1325825), wk =   0.0058594
        k(   24) = (   0.0000000  -0.0883883   0.0883883), wk =   0.0029297
        k(   25) = (   0.1767767   0.0000000   0.0000000), wk =   0.0014648
        k(   26) = (   0.2209709   0.0441942  -0.0441942), wk =   0.0058594
        k(   27) = (   0.2651650   0.0883883  -0.0883883), wk =   0.0058594
        k(   28) = (   0.3093592   0.1325825  -0.1325825), wk =   0.0058594
        k(   29) = (   0.3535534   0.1767767  -0.1767767), wk =   0.0058594
        k(   30) = (   0.3977476   0.2209709  -0.2209709), wk =   0.0058594
        k(   31) = (  -0.2651650  -0.4419417   0.4419417), wk =   0.0058594
        k(   32) = (  -0.2209709  -0.3977476   0.3977476), wk =   0.0058594
        k(   33) = (  -0.1767767  -0.3535534   0.3535534), wk =   0.0058594
        k(   34) = (  -0.1325825  -0.3093592   0.3093592), wk =   0.0058594
        k(   35) = (  -0.0883883  -0.2651650   0.2651650), wk =   0.0058594
        k(   36) = (  -0.0441942  -0.2209709   0.2209709), wk =   0.0058594
        k(   37) = (   0.0000000  -0.1767767   0.1767767), wk =   0.0029297
        k(   38) = (   0.2651650   0.0000000   0.0000000), wk =   0.0014648
        k(   39) = (   0.3093592   0.0441942  -0.0441942), wk =   0.0058594
        k(   40) = (   0.3535534   0.0883883  -0.0883883), wk =   0.0058594
        k(   41) = (   0.3977476   0.1325825  -0.1325825), wk =   0.0058594
        k(   42) = (   0.4419417   0.1767767  -0.1767767), wk =   0.0058594
        k(   43) = (  -0.2209709  -0.4861359   0.4861359), wk =   0.0058594
        k(   44) = (  -0.1767767  -0.4419417   0.4419417), wk =   0.0058594
        k(   45) = (  -0.1325825  -0.3977476   0.3977476), wk =   0.0058594
        k(   46) = (  -0.0883883  -0.3535534   0.3535534), wk =   0.0058594
        k(   47) = (  -0.0441942  -0.3093592   0.3093592), wk =   0.0058594
        k(   48) = (   0.0000000  -0.2651650   0.2651650), wk =   0.0029297
        k(   49) = (   0.3535534   0.0000000   0.0000000), wk =   0.0014648
        k(   50) = (   0.3977476   0.0441942  -0.0441942), wk =   0.0058594
        k(   51) = (   0.4419417   0.0883883  -0.0883883), wk =   0.0058594
        k(   52) = (   0.4861359   0.1325825  -0.1325825), wk =   0.0058594
        k(   53) = (  -0.1767767  -0.5303301   0.5303301), wk =   0.0058594
        k(   54) = (  -0.1325825  -0.4861359   0.4861359), wk =   0.0058594
        k(   55) = (  -0.0883883  -0.4419417   0.4419417), wk =   0.0058594
        k(   56) = (  -0.0441942  -0.3977476   0.3977476), wk =   0.0058594
        k(   57) = (   0.0000000  -0.3535534   0.3535534), wk =   0.0029297
        k(   58) = (   0.4419417   0.0000000   0.0000000), wk =   0.0014648
        k(   59) = (   0.4861359   0.0441942  -0.0441942), wk =   0.0058594
        k(   60) = (   0.5303301   0.0883883  -0.0883883), wk =   0.0058594
        k(   61) = (  -0.1325825  -0.5745243   0.5745243), wk =   0.0058594
        k(   62) = (  -0.0883883  -0.5303301   0.5303301), wk =   0.0058594
        k(   63) = (  -0.0441942  -0.4861359   0.4861359), wk =   0.0058594
        k(   64) = (   0.0000000  -0.4419417   0.4419417), wk =   0.0029297
        k(   65) = (   0.5303301   0.0000000   0.0000000), wk =   0.0014648
        k(   66) = (   0.5745243   0.0441942  -0.0441942), wk =   0.0058594
        k(   67) = (  -0.0883883  -0.6187184   0.6187184), wk =   0.0058594
        k(   68) = (  -0.0441942  -0.5745243   0.5745243), wk =   0.0058594
        k(   69) = (   0.0000000  -0.5303301   0.5303301), wk =   0.0029297
        k(   70) = (   0.6187184   0.0000000   0.0000000), wk =   0.0014648
        k(   71) = (  -0.0441942  -0.6629126   0.6629126), wk =   0.0058594
        k(   72) = (   0.0000000  -0.6187184   0.6187184), wk =   0.0029297
        k(   73) = (  -0.7071068   0.0000000   0.0000000), wk =   0.0007324
        k(   74) = (   0.1767767   0.0883883   0.0000000), wk =   0.0058594
        k(   75) = (   0.2209709   0.1325825  -0.0441942), wk =   0.0117188
        k(   76) = (   0.2651650   0.1767767  -0.0883883), wk =   0.0117188
        k(   77) = (   0.3093592   0.2209709  -0.1325825), wk =   0.0117188
        k(   78) = (   0.3535534   0.2651650  -0.1767767), wk =   0.0117188
        k(   79) = (  -0.3093592  -0.3977476   0.4861359), wk =   0.0117188
        k(   80) = (  -0.2651650  -0.3535534   0.4419417), wk =   0.0058594
        k(   81) = (   0.2651650   0.0883883   0.0000000), wk =   0.0058594
        k(   82) = (   0.3093592   0.1325825  -0.0441942), wk =   0.0117188
        k(   83) = (   0.3535534   0.1767767  -0.0883883), wk =   0.0117188
        k(   84) = (   0.3977476   0.2209709  -0.1325825), wk =   0.0117188
        k(   85) = (  -0.2651650  -0.4419417   0.5303301), wk =   0.0117188
        k(   86) = (  -0.2209709  -0.3977476   0.4861359), wk =   0.0117188
        k(   87) = (  -0.1767767  -0.3535534   0.4419417), wk =   0.0117188
        k(   88) = (  -0.1325825  -0.3093592   0.3977476), wk =   0.0117188
        k(   89) = (  -0.0883883  -0.2651650   0.3535534), wk =   0.0117188
        k(   90) = (  -0.0441942  -0.2209709   0.3093592), wk =   0.0117188
        k(   91) = (   0.0000000  -0.1767767   0.2651650), wk =   0.0058594
        k(   92) = (   0.3535534   0.0883883   0.0000000), wk =   0.0058594
        k(   93) = (   0.3977476   0.1325825  -0.0441942), wk =   0.0117188
        k(   94) = (   0.4419417   0.1767767  -0.0883883), wk =   0.0117188
        k(   95) = (  -0.2209709  -0.4861359   0.5745243), wk =   0.0117188
        k(   96) = (  -0.1767767  -0.4419417   0.5303301), wk =   0.0117188
        k(   97) = (  -0.1325825  -0.3977476   0.4861359), wk =   0.0117188
        k(   98) = (  -0.0883883  -0.3535534   0.4419417), wk =   0.0117188
        k(   99) = (  -0.0441942  -0.3093592   0.3977476), wk =   0.0117188
        k(  100) = (   0.0000000  -0.2651650   0.3535534), wk =   0.0058594
        k(  101) = (   0.4419417   0.0883883   0.0000000), wk =   0.0058594
        k(  102) = (   0.4861359   0.1325825  -0.0441942), wk =   0.0117188
        k(  103) = (  -0.1767767  -0.5303301   0.6187184), wk =   0.0117188
        k(  104) = (  -0.1325825  -0.4861359   0.5745243), wk =   0.0117188
        k(  105) = (  -0.0883883  -0.4419417   0.5303301), wk =   0.0117188
        k(  106) = (  -0.0441942  -0.3977476   0.4861359), wk =   0.0117188
        k(  107) = (   0.0000000  -0.3535534   0.4419417), wk =   0.0058594
        k(  108) = (   0.5303301   0.0883883   0.0000000), wk =   0.0058594
        k(  109) = (  -0.1325825  -0.5745243   0.6629126), wk =   0.0117188
        k(  110) = (  -0.0883883  -0.5303301   0.6187184), wk =   0.0117188
        k(  111) = (  -0.0441942  -0.4861359   0.5745243), wk =   0.0117188
        k(  112) = (   0.0000000  -0.4419417   0.5303301), wk =   0.0058594
        k(  113) = (  -0.0883883  -0.6187184   0.7071068), wk =   0.0058594
        k(  114) = (  -0.0441942  -0.5745243   0.6629126), wk =   0.0117188
        k(  115) = (  -0.0000000  -0.5303301   0.6187184), wk =   0.0058594
        k(  116) = (  -0.7071068   0.0883883   0.0000000), wk =   0.0029297
        k(  117) = (   0.3535534   0.1767767   0.0000000), wk =   0.0058594
        k(  118) = (   0.3977476   0.2209709  -0.0441942), wk =   0.0117188
        k(  119) = (  -0.2651650  -0.4419417   0.6187184), wk =   0.0117188
        k(  120) = (  -0.2209709  -0.3977476   0.5745243), wk =   0.0117188
        k(  121) = (  -0.1767767  -0.3535534   0.5303301), wk =   0.0058594
        k(  122) = (   0.4419417   0.1767767   0.0000000), wk =   0.0058594
        k(  123) = (  -0.2209709  -0.4861359   0.6629126), wk =   0.0117188
        k(  124) = (  -0.1767767  -0.4419417   0.6187184), wk =   0.0117188
        k(  125) = (  -0.1325825  -0.3977476   0.5745243), wk =   0.0117188
        k(  126) = (  -0.0883883  -0.3535534   0.5303301), wk =   0.0117188
        k(  127) = (  -0.0441942  -0.3093592   0.4861359), wk =   0.0117188
        k(  128) = (   0.0000000  -0.2651650   0.4419417), wk =   0.0058594
        k(  129) = (  -0.1767767  -0.5303301   0.7071068), wk =   0.0058594
        k(  130) = (  -0.1325825  -0.4861359   0.6629126), wk =   0.0117188
        k(  131) = (  -0.0883883  -0.4419417   0.6187184), wk =   0.0117188
        k(  132) = (  -0.0441942  -0.3977476   0.5745243), wk =   0.0117188
        k(  133) = (   0.0000000  -0.3535534   0.5303301), wk =   0.0058594
        k(  134) = (  -0.0883883  -0.5303301   0.7071068), wk =   0.0058594
        k(  135) = (  -0.0441942  -0.4861359   0.6629126), wk =   0.0117188
        k(  136) = (   0.0000000  -0.4419417   0.6187184), wk =   0.0058594
        k(  137) = (  -0.7071068   0.1767767   0.0000000), wk =   0.0029297
        k(  138) = (  -0.1767767  -0.4419417   0.7071068), wk =   0.0058594
        k(  139) = (  -0.1325825  -0.3977476   0.6629126), wk =   0.0117188
        k(  140) = (  -0.0883883  -0.3535534   0.6187184), wk =   0.0058594
        k(  141) = (  -0.0883883  -0.4419417   0.7071068), wk =   0.0058594
        k(  142) = (  -0.0441942  -0.3977476   0.6629126), wk =   0.0117188
        k(  143) = (  -0.0000000  -0.3535534   0.6187184), wk =   0.0058594
        k(  144) = (  -0.7071068   0.2651650   0.0000000), wk =   0.0029297
        k(  145) = (  -0.7071068   0.3535534   0.0000000), wk =   0.0014648

                       cryst. coord.
        k(    1) = (   0.0000000   0.0000000   0.0000000), wk =   0.0002441
        k(    2) = (   0.0000000   0.0000000   0.0625000), wk =   0.0019531
        k(    3) = (   0.0000000   0.0000000   0.1250000), wk =   0.0019531
        k(    4) = (   0.0000000   0.0000000   0.1875000), wk =   0.0019531
        k(    5) = (   0.0000000   0.0000000   0.2500000), wk =   0.0019531
        k(    6) = (   0.0000000   0.0000000   0.3125000), wk =   0.0019531
        k(    7) = (   0.0000000   0.0000000   0.3750000), wk =   0.0019531
        k(    8) = (   0.0000000   0.0000000   0.4375000), wk =   0.0019531
        k(    9) = (   0.0000000   0.0000000  -0.5000000), wk =   0.0009766
        k(   10) = (   0.0000000   0.0625000   0.0625000), wk =   0.0014648
        k(   11) = (   0.0000000   0.0625000   0.1250000), wk =   0.0058594
        k(   12) = (   0.0000000   0.0625000   0.1875000), wk =   0.0058594
        k(   13) = (   0.0000000   0.0625000   0.2500000), wk =   0.0058594
        k(   14) = (   0.0000000   0.0625000   0.3125000), wk =   0.0058594
        k(   15) = (   0.0000000   0.0625000   0.3750000), wk =   0.0058594
        k(   16) = (   0.0000000   0.0625000   0.4375000), wk =   0.0058594
        k(   17) = (   0.0000000   0.0625000  -0.5000000), wk =   0.0058594
        k(   18) = (   0.0000000   0.0625000  -0.4375000), wk =   0.0058594
        k(   19) = (   0.0000000   0.0625000  -0.3750000), wk =   0.0058594
        k(   20) = (   0.0000000   0.0625000  -0.3125000), wk =   0.0058594
        k(   21) = (   0.0000000   0.0625000  -0.2500000), wk =   0.0058594
        k(   22) = (   0.0000000   0.0625000  -0.1875000), wk =   0.0058594
        k(   23) = (   0.0000000   0.0625000  -0.1250000), wk =   0.0058594
        k(   24) = (   0.0000000   0.0625000  -0.0625000), wk =   0.0029297
        k(   25) = (   0.0000000   0.1250000   0.1250000), wk =   0.0014648
        k(   26) = (   0.0000000   0.1250000   0.1875000), wk =   0.0058594
        k(   27) = (   0.0000000   0.1250000   0.2500000), wk =   0.0058594
        k(   28) = (   0.0000000   0.1250000   0.3125000), wk =   0.0058594
        k(   29) = (   0.0000000   0.1250000   0.3750000), wk =   0.0058594
        k(   30) = (   0.0000000   0.1250000   0.4375000), wk =   0.0058594
        k(   31) = (   0.0000000   0.1250000  -0.5000000), wk =   0.0058594
        k(   32) = (   0.0000000   0.1250000  -0.4375000), wk =   0.0058594
        k(   33) = (   0.0000000   0.1250000  -0.3750000), wk =   0.0058594
        k(   34) = (   0.0000000   0.1250000  -0.3125000), wk =   0.0058594
        k(   35) = (   0.0000000   0.1250000  -0.2500000), wk =   0.0058594
        k(   36) = (   0.0000000   0.1250000  -0.1875000), wk =   0.0058594
        k(   37) = (   0.0000000   0.1250000  -0.1250000), wk =   0.0029297
        k(   38) = (   0.0000000   0.1875000   0.1875000), wk =   0.0014648
        k(   39) = (   0.0000000   0.1875000   0.2500000), wk =   0.0058594
        k(   40) = (   0.0000000   0.1875000   0.3125000), wk =   0.0058594
        k(   41) = (   0.0000000   0.1875000   0.3750000), wk =   0.0058594
        k(   42) = (   0.0000000   0.1875000   0.4375000), wk =   0.0058594
        k(   43) = (   0.0000000   0.1875000  -0.5000000), wk =   0.0058594
        k(   44) = (   0.0000000   0.1875000  -0.4375000), wk =   0.0058594
        k(   45) = (   0.0000000   0.1875000  -0.3750000), wk =   0.0058594
        k(   46) = (   0.0000000   0.1875000  -0.3125000), wk =   0.0058594
        k(   47) = (   0.0000000   0.1875000  -0.2500000), wk =   0.0058594
        k(   48) = (   0.0000000   0.1875000  -0.1875000), wk =   0.0029297
        k(   49) = (   0.0000000   0.2500000   0.2500000), wk =   0.0014648
        k(   50) = (   0.0000000   0.2500000   0.3125000), wk =   0.0058594
        k(   51) = (   0.0000000   0.2500000   0.3750000), wk =   0.0058594
        k(   52) = (   0.0000000   0.2500000   0.4375000), wk =   0.0058594
        k(   53) = (   0.0000000   0.2500000  -0.5000000), wk =   0.0058594
        k(   54) = (   0.0000000   0.2500000  -0.4375000), wk =   0.0058594
        k(   55) = (   0.0000000   0.2500000  -0.3750000), wk =   0.0058594
        k(   56) = (   0.0000000   0.2500000  -0.3125000), wk =   0.0058594
        k(   57) = (   0.0000000   0.2500000  -0.2500000), wk =   0.0029297
        k(   58) = (   0.0000000   0.3125000   0.3125000), wk =   0.0014648
        k(   59) = (   0.0000000   0.3125000   0.3750000), wk =   0.0058594
        k(   60) = (   0.0000000   0.3125000   0.4375000), wk =   0.0058594
        k(   61) = (   0.0000000   0.3125000  -0.5000000), wk =   0.0058594
        k(   62) = (   0.0000000   0.3125000  -0.4375000), wk =   0.0058594
        k(   63) = (   0.0000000   0.3125000  -0.3750000), wk =   0.0058594
        k(   64) = (   0.0000000   0.3125000  -0.3125000), wk =   0.0029297
        k(   65) = (   0.0000000   0.3750000   0.3750000), wk =   0.0014648
        k(   66) = (   0.0000000   0.3750000   0.4375000), wk =   0.0058594
        k(   67) = (   0.0000000   0.3750000  -0.5000000), wk =   0.0058594
        k(   68) = (   0.0000000   0.3750000  -0.4375000), wk =   0.0058594
        k(   69) = (   0.0000000   0.3750000  -0.3750000), wk =   0.0029297
        k(   70) = (   0.0000000   0.4375000   0.4375000), wk =   0.0014648
        k(   71) = (   0.0000000   0.4375000  -0.5000000), wk =   0.0058594
        k(   72) = (   0.0000000   0.4375000  -0.4375000), wk =   0.0029297
        k(   73) = (   0.0000000  -0.5000000  -0.5000000), wk =   0.0007324
        k(   74) = (   0.0625000   0.1250000   0.1875000), wk =   0.0058594
        k(   75) = (   0.0625000   0.1250000   0.2500000), wk =   0.0117188
        k(   76) = (   0.0625000   0.1250000   0.3125000), wk =   0.0117188
        k(   77) = (   0.0625000   0.1250000   0.3750000), wk =   0.0117188
        k(   78) = (   0.0625000   0.1250000   0.4375000), wk =   0.0117188
        k(   79) = (   0.0625000   0.1250000  -0.5000000), wk =   0.0117188
        k(   80) = (   0.0625000   0.1250000  -0.4375000), wk =   0.0058594
        k(   81) = (   0.0625000   0.1875000   0.2500000), wk =   0.0058594
        k(   82) = (   0.0625000   0.1875000   0.3125000), wk =   0.0117188
        k(   83) = (   0.0625000   0.1875000   0.3750000), wk =   0.0117188
        k(   84) = (   0.0625000   0.1875000   0.4375000), wk =   0.0117188
        k(   85) = (   0.0625000   0.1875000  -0.5000000), wk =   0.0117188
        k(   86) = (   0.0625000   0.1875000  -0.4375000), wk =   0.0117188
        k(   87) = (   0.0625000   0.1875000  -0.3750000), wk =   0.0117188
        k(   88) = (   0.0625000   0.1875000  -0.3125000), wk =   0.0117188
        k(   89) = (   0.0625000   0.1875000  -0.2500000), wk =   0.0117188
        k(   90) = (   0.0625000   0.1875000  -0.1875000), wk =   0.0117188
        k(   91) = (   0.0625000   0.1875000  -0.1250000), wk =   0.0058594
        k(   92) = (   0.0625000   0.2500000   0.3125000), wk =   0.0058594
        k(   93) = (   0.0625000   0.2500000   0.3750000), wk =   0.0117188
        k(   94) = (   0.0625000   0.2500000   0.4375000), wk =   0.0117188
        k(   95) = (   0.0625000   0.2500000  -0.5000000), wk =   0.0117188
        k(   96) = (   0.0625000   0.2500000  -0.4375000), wk =   0.0117188
        k(   97) = (   0.0625000   0.2500000  -0.3750000), wk =   0.0117188
        k(   98) = (   0.0625000   0.2500000  -0.3125000), wk =   0.0117188
        k(   99) = (   0.0625000   0.2500000  -0.2500000), wk =   0.0117188
        k(  100) = (   0.0625000   0.2500000  -0.1875000), wk =   0.0058594
        k(  101) = (   0.0625000   0.3125000   0.3750000), wk =   0.0058594
        k(  102) = (   0.0625000   0.3125000   0.4375000), wk =   0.0117188
        k(  103) = (   0.0625000   0.3125000  -0.5000000), wk =   0.0117188
        k(  104) = (   0.0625000   0.3125000  -0.4375000), wk =   0.0117188
        k(  105) = (   0.0625000   0.3125000  -0.3750000), wk =   0.0117188
        k(  106) = (   0.0625000   0.3125000  -0.3125000), wk =   0.0117188
        k(  107) = (   0.0625000   0.3125000  -0.2500000), wk =   0.0058594
        k(  108) = (   0.0625000   0.3750000   0.4375000), wk =   0.0058594
        k(  109) = (   0.0625000   0.3750000  -0.5000000), wk =   0.0117188
        k(  110) = (   0.0625000   0.3750000  -0.4375000), wk =   0.0117188
        k(  111) = (   0.0625000   0.3750000  -0.3750000), wk =   0.0117188
        k(  112) = (   0.0625000   0.3750000  -0.3125000), wk =   0.0058594
        k(  113) = (   0.0625000   0.4375000  -0.5000000), wk =   0.0058594
        k(  114) = (   0.0625000   0.4375000  -0.4375000), wk =   0.0117188
        k(  115) = (   0.0625000   0.4375000  -0.3750000), wk =   0.0058594
        k(  116) = (   0.0625000  -0.5000000  -0.4375000), wk =   0.0029297
        k(  117) = (   0.1250000   0.2500000   0.3750000), wk =   0.0058594
        k(  118) = (   0.1250000   0.2500000   0.4375000), wk =   0.0117188
        k(  119) = (   0.1250000   0.2500000  -0.5000000), wk =   0.0117188
        k(  120) = (   0.1250000   0.2500000  -0.4375000), wk =   0.0117188
        k(  121) = (   0.1250000   0.2500000  -0.3750000), wk =   0.0058594
        k(  122) = (   0.1250000   0.3125000   0.4375000), wk =   0.0058594
        k(  123) = (   0.1250000   0.3125000  -0.5000000), wk =   0.0117188
        k(  124) = (   0.1250000   0.3125000  -0.4375000), wk =   0.0117188
        k(  125) = (   0.1250000   0.3125000  -0.3750000), wk =   0.0117188
        k(  126) = (   0.1250000   0.3125000  -0.3125000), wk =   0.0117188
        k(  127) = (   0.1250000   0.3125000  -0.2500000), wk =   0.0117188
        k(  128) = (   0.1250000   0.3125000  -0.1875000), wk =   0.0058594
        k(  129) = (   0.1250000   0.3750000  -0.5000000), wk =   0.0058594
        k(  130) = (   0.1250000   0.3750000  -0.4375000), wk =   0.0117188
        k(  131) = (   0.1250000   0.3750000  -0.3750000), wk =   0.0117188
        k(  132) = (   0.1250000   0.3750000  -0.3125000), wk =   0.0117188
        k(  133) = (   0.1250000   0.3750000  -0.2500000), wk =   0.0058594
        k(  134) = (   0.1250000   0.4375000  -0.4375000), wk =   0.0058594
        k(  135) = (   0.1250000   0.4375000  -0.3750000), wk =   0.0117188
        k(  136) = (   0.1250000   0.4375000  -0.3125000), wk =   0.0058594
        k(  137) = (   0.1250000  -0.5000000  -0.3750000), wk =   0.0029297
        k(  138) = (   0.1875000   0.3750000  -0.4375000), wk =   0.0058594
        k(  139) = (   0.1875000   0.3750000  -0.3750000), wk =   0.0117188
        k(  140) = (   0.1875000   0.3750000  -0.3125000), wk =   0.0058594
        k(  141) = (   0.1875000   0.4375000  -0.3750000), wk =   0.0058594
        k(  142) = (   0.1875000   0.4375000  -0.3125000), wk =   0.0117188
        k(  143) = (   0.1875000   0.4375000  -0.2500000), wk =   0.0058594
        k(  144) = (   0.1875000  -0.5000000  -0.3125000), wk =   0.0029297
        k(  145) = (   0.2500000  -0.5000000  -0.2500000), wk =   0.0014648

     Dense  grid:    78031 G-vectors     FFT dimensions: (  60,  60,  60)

     Largest allocated arrays     est. size (Mb)     dimensions
        Kohn-Sham Wavefunctions         0.68 Mb     (    1232,   36)
        NL pseudopotentials             0.34 Mb     (     616,   36)
        Each V/rho on FFT grid          0.22 Mb     (   14400)
        Each G-vector array             0.04 Mb     (    4878)
        G-vector shells                 0.00 Mb     (     580)
     Largest temporary arrays     est. size (Mb)     dimensions
        Auxiliary wavefunctions         2.71 Mb     (    1232,  144)
        Each subspace H/S matrix        0.32 Mb     (     144,  144)
        Each <psi_i|beta_j> matrix      0.04 Mb     (      36,   2,   36)
        Arrays for rho mixing           1.76 Mb     (   14400,    8)

     Check: negative/imaginary core charge=   -0.000013    0.000000

     Initial potential from superposition of free atoms

     starting charge   27.99723, renormalised to   28.00000
     Starting wfc are   36 randomized atomic wfcs
     Checking if some PAW data can be deallocated... 

     total cpu time spent up to now is        7.6 secs

     Self-consistent Calculation

     iteration #  1     ecut=   110.00 Ry     beta=0.70
     Davidson diagonalization with overlap
     ethr =  1.00E-02,  avg # of iterations =  4.0

     Threshold (ethr) on eigenvalues was too large:
     Diagonalizing with lowered threshold

     Davidson diagonalization with overlap
     ethr =  4.83E-05,  avg # of iterations =  4.2

     total cpu time spent up to now is       65.2 secs

     total energy              =    -884.12495320 Ry
     Harris-Foulkes estimate   =    -884.12849653 Ry
     estimated scf accuracy    <       0.02321353 Ry

     iteration #  2     ecut=   110.00 Ry     beta=0.70
     Davidson diagonalization with overlap
     ethr =  8.29E-05,  avg # of iterations =  1.0

     total cpu time spent up to now is       83.2 secs

     total energy              =    -884.12525715 Ry
     Harris-Foulkes estimate   =    -884.12540922 Ry
     estimated scf accuracy    <       0.00140236 Ry

     iteration #  3     ecut=   110.00 Ry     beta=0.70
     Davidson diagonalization with overlap
     ethr =  5.01E-06,  avg # of iterations =  2.7

     total cpu time spent up to now is      105.1 secs

     total energy              =    -884.12542754 Ry
     Harris-Foulkes estimate   =    -884.12544266 Ry
     estimated scf accuracy    <       0.00002860 Ry

     iteration #  4     ecut=   110.00 Ry     beta=0.70
     Davidson diagonalization with overlap
     ethr =  1.02E-07,  avg # of iterations =  4.0

     total cpu time spent up to now is      134.3 secs

     total energy              =    -884.12547864 Ry
     Harris-Foulkes estimate   =    -884.12547906 Ry
     estimated scf accuracy    <       0.00000460 Ry

     iteration #  5     ecut=   110.00 Ry     beta=0.70
     Davidson diagonalization with overlap
     ethr =  1.64E-08,  avg # of iterations =  2.0

     total cpu time spent up to now is      157.9 secs

     End of self-consistent calculation

          k = 0.0000 0.0000 0.0000 (  9721 PWs)   bands (ev):

   -14.0302 -14.0302 -14.0302 -14.0302 -14.0302 -14.0302 -13.9802 -13.9802
   -13.9802 -13.9802 -13.7339 -13.7339 -13.7339 -13.7339 -13.7339 -13.7339
   -13.7317 -13.7317 -13.7317 -13.7317  -2.5545  -2.5545   6.3303   6.3303
     7.6176   7.6176   7.6176   7.6176   7.6176   7.6176   9.6829   9.6829
     9.6829   9.6829   9.6829   9.6829

     occupation numbers 
     1.0000   1.0000   1.0000   1.0000   1.0000   1.0000   1.0000   1.0000
     1.0000   1.0000   1.0000   1.0000   1.0000   1.0000   1.0000   1.0000
     1.0000   1.0000   1.0000   1.0000   1.0000   1.0000   1.0000   1.0000
     0.0000   0.0000   0.0000   0.0000   0.0000   0.0000   0.0000   0.0000
     0.0000   0.0000   0.0000   0.0000

          k = 0.0442 0.0442-0.0442 (  9751 PWs)   bands (ev):

   -14.0327 -14.0327 -14.0327 -14.0327 -14.0293 -14.0293 -13.9768 -13.9768
   -13.9768 -13.9768 -13.7434 -13.7434 -13.7434 -13.7434 -13.7349 -13.7349
   -13.7228 -13.7228 -13.7228 -13.7228  -2.5197  -2.5197   5.9362   5.9362
     7.5451   7.5451   7.5451   7.5451   7.7987   7.7987   9.7779   9.7779
     9.7779   9.7779   9.8134   9.8134

     occupation numbers 
     1.0000   1.0000   1.0000   1.0000   1.0000   1.0000   1.0000   1.0000
     1.0000   1.0000   1.0000   1.0000   1.0000   1.0000   1.0000   1.0000
     1.0000   1.0000   1.0000   1.0000   1.0000   1.0000   1.0000   1.0000
     0.0284   0.0284   0.0284   0.0284   0.0000   0.0000   0.0000   0.0000
     0.0000   0.0000   0.0000   0.0000

          k = 0.0884 0.0884-0.0884 (  9706 PWs)   bands (ev):

   -14.0385 -14.0385 -14.0385 -14.0385 -14.0270 -14.0270 -13.9685 -13.9685
   -13.9685 -13.9685 -13.7538 -13.7538 -13.7538 -13.7538 -13.7376 -13.7376
   -13.7139 -13.7139 -13.7139 -13.7139  -2.4164  -2.4164   5.1758   5.1758
     7.3675   7.3675   7.3675   7.3675   7.9280   7.9280  10.0124  10.0124
    10.0124  10.0124  10.2482  10.2482

     occupation numbers 
     1.0000   1.0000   1.0000   1.0000   1.0000   1.0000   1.0000   1.0000
     1.0000   1.0000   1.0000   1.0000   1.0000   1.0000   1.0000   1.0000
     1.0000   1.0000   1.0000   1.0000   1.0000   1.0000   1.0000   1.0000
     1.0000   1.0000   1.0000   1.0000   0.0000   0.0000   0.0000   0.0000
     0.0000   0.0000   0.0000   0.0000

          k = 0.1326 0.1326-0.1326 (  9726 PWs)   bands (ev):

   -14.0448 -14.0448 -14.0448 -14.0448 -14.0234 -14.0234 -13.9586 -13.9586
   -13.9586 -13.9586 -13.7635 -13.7635 -13.7635 -13.7635 -13.7419 -13.7419
   -13.7064 -13.7064 -13.7064 -13.7064  -2.2474  -2.2474   4.3461   4.3461
     7.1526   7.1526   7.1526   7.1526   7.8650   7.8650  10.2881  10.2881
    10.2881  10.2881  10.9305  10.9305

     occupation numbers 
     1.0000   1.0000   1.0000   1.0000   1.0000   1.0000   1.0000   1.0000
     1.0000   1.0000   1.0000   1.0000   1.0000   1.0000   1.0000   1.0000
     1.0000   1.0000   1.0000   1.0000   1.0000   1.0000   1.0000   1.0000
     1.0000   1.0000   1.0000   1.0000   0.0000   0.0000   0.0000   0.0000
     0.0000   0.0000   0.0000   0.0000

          k = 0.1768 0.1768-0.1768 (  9729 PWs)   bands (ev):

   -14.0502 -14.0502 -14.0502 -14.0502 -14.0191 -14.0191 -13.9492 -13.9492
   -13.9492 -13.9492 -13.7718 -13.7718 -13.7718 -13.7718 -13.7469 -13.7469
   -13.7005 -13.7005 -13.7005 -13.7005  -2.0191  -2.0191   3.5346   3.5346
     6.9458   6.9458   6.9458   6.9458   7.7254   7.7254  10.5188  10.5188
    10.5188  10.5188  11.7407  11.7407

     occupation numbers 
     1.0000   1.0000   1.0000   1.0000   1.0000   1.0000   1.0000   1.0000
     1.0000   1.0000   1.0000   1.0000   1.0000   1.0000   1.0000   1.0000
     1.0000   1.0000   1.0000   1.0000   1.0000   1.0000   1.0000   1.0000
     1.0000   1.0000   1.0000   1.0000   0.0000   0.0000   0.0000   0.0000
     0.0000   0.0000   0.0000   0.0000

          k = 0.2210 0.2210-0.2210 (  9765 PWs)   bands (ev):

   -14.0544 -14.0544 -14.0544 -14.0544 -14.0146 -14.0146 -13.9416 -13.9416
   -13.9416 -13.9416 -13.7781 -13.7781 -13.7781 -13.7781 -13.7521 -13.7521
   -13.6961 -13.6961 -13.6961 -13.6961  -1.7444  -1.7444   2.7866   2.7866
     6.7710   6.7710   6.7710   6.7710   7.5836   7.5836  10.6584  10.6584
    10.6584  10.6584  12.6062  12.6064

     occupation numbers 
     1.0000   1.0000   1.0000   1.0000   1.0000   1.0000   1.0000   1.0000
     1.0000   1.0000   1.0000   1.0000   1.0000   1.0000   1.0000   1.0000
     1.0000   1.0000   1.0000   1.0000   1.0000   1.0000   1.0000   1.0000
     1.0000   1.0000   1.0000   1.0000   0.0000   0.0000   0.0000   0.0000
     0.0000   0.0000   0.0000   0.0000

          k = 0.2652 0.2652-0.2652 (  9747 PWs)   bands (ev):

   -14.0571 -14.0571 -14.0571 -14.0571 -14.0107 -14.0107 -13.9362 -13.9362
   -13.9362 -13.9362 -13.7823 -13.7823 -13.7823 -13.7823 -13.7566 -13.7566
   -13.6931 -13.6931 -13.6931 -13.6931  -1.4515  -1.4515   2.1467   2.1467
     6.6402   6.6402   6.6402   6.6402   7.4709   7.4709  10.7151  10.7151
    10.7151  10.7151  13.2795  13.2795

     occupation numbers 
     1.0000   1.0000   1.0000   1.0000   1.0000   1.0000   1.0000   1.0000
     1.0000   1.0000   1.0000   1.0000   1.0000   1.0000   1.0000   1.0000
     1.0000   1.0000   1.0000   1.0000   1.0000   1.0000   1.0000   1.0000
     1.0000   1.0000   1.0000   1.0000   1.0000   1.0000   0.0000   0.0000
     0.0000   0.0000   0.0000   0.0000

          k = 0.3094 0.3094-0.3094 (  9765 PWs)   bands (ev):

   -14.0587 -14.0587 -14.0587 -14.0587 -14.0081 -14.0081 -13.9331 -13.9331
   -13.9331 -13.9331 -13.7846 -13.7846 -13.7846 -13.7846 -13.7597 -13.7597
   -13.6915 -13.6915 -13.6915 -13.6915  -1.2003  -1.2003   1.6843   1.6843
     6.5598   6.5598   6.5598   6.5598   7.4000   7.4000  10.7272  10.7272
    10.7273  10.7273  13.3135  13.3135

     occupation numbers 
     1.0000   1.0000   1.0000   1.0000   1.0000   1.0000   1.0000   1.0000
     1.0000   1.0000   1.0000   1.0000   1.0000   1.0000   1.0000   1.0000
     1.0000   1.0000   1.0000   1.0000   1.0000   1.0000   1.0000   1.0000
     1.0000   1.0000   1.0000   1.0000   1.0000   1.0000   0.0000   0.0000
     0.0000   0.0000   0.0000   0.0000

          k =-0.3536-0.3536 0.3536 (  9756 PWs)   bands (ev):

   -14.0592 -14.0592 -14.0592 -14.0592 -14.0071 -14.0071 -13.9321 -13.9321
   -13.9321 -13.9321 -13.7853 -13.7853 -13.7853 -13.7853 -13.7608 -13.7608
   -13.6909 -13.6909 -13.6909 -13.6909  -1.0941  -1.0941   1.5072   1.5072
     6.5327   6.5327   6.5327   6.5327   7.3759   7.3759  10.7274  10.7274
    10.7274  10.7274  13.2892  13.2893

     occupation numbers 
     1.0000   1.0000   1.0000   1.0000   1.0000   1.0000   1.0000   1.0000
     1.0000   1.0000   1.0000   1.0000   1.0000   1.0000   1.0000   1.0000
     1.0000   1.0000   1.0000   1.0000   1.0000   1.0000   1.0000   1.0000
     1.0000   1.0000   1.0000   1.0000   1.0000   1.0000   0.0000   0.0000
     0.0000   0.0000   0.0000   0.0000

          k = 0.0884 0.0000 0.0000 (  9733 PWs)   bands (ev):

   -14.0322 -14.0322 -14.0320 -14.0320 -14.0320 -14.0320 -13.9778 -13.9778
   -13.9733 -13.9733 -13.7527 -13.7527 -13.7340 -13.7340 -13.7314 -13.7314
   -13.7314 -13.7314 -13.7185 -13.7185  -2.5081  -2.5081   5.8562   5.8562
     7.4121   7.4121   7.4121   7.4121   8.0726   8.0726   9.5390   9.5390
     9.9481   9.9481   9.9481   9.9481

     occupation numbers 
     1.0000   1.0000   1.0000   1.0000   1.0000   1.0000   1.0000   1.0000
     1.0000   1.0000   1.0000   1.0000   1.0000   1.0000   1.0000   1.0000
     1.0000   1.0000   1.0000   1.0000   1.0000   1.0000   1.0000   1.0000
     1.0000   1.0000   1.0000   1.0000   0.0000   0.0000   0.0000   0.0000
     0.0000   0.0000   0.0000   0.0000

          k = 0.1326 0.0442-0.0442 (  9726 PWs)   bands (ev):

   -14.0383 -14.0383 -14.0357 -14.0357 -14.0298 -14.0298 -13.9726 -13.9726
   -13.9648 -13.9648 -13.7639 -13.7639 -13.7435 -13.7435 -13.7315 -13.7315
   -13.7223 -13.7223 -13.7117 -13.7117  -2.4275  -2.4275   5.2923   5.2923
     7.2040   7.2040   7.2353   7.2353   8.3252   8.3252   9.5385   9.5385
    10.2316  10.2316  10.3061  10.3061

     occupation numbers 
     1.0000   1.0000   1.0000   1.0000   1.0000   1.0000   1.0000   1.0000
     1.0000   1.0000   1.0000   1.0000   1.0000   1.0000   1.0000   1.0000
     1.0000   1.0000   1.0000   1.0000   1.0000   1.0000   1.0000   1.0000
     1.0000   1.0000   1.0000   1.0000   0.0000   0.0000   0.0000   0.0000
     0.0000   0.0000   0.0000   0.0000

          k = 0.1768 0.0884-0.0884 (  9727 PWs)   bands (ev):

   -14.0455 -14.0455 -14.0415 -14.0415 -14.0257 -14.0257 -13.9640 -13.9640
   -13.9544 -13.9544 -13.7745 -13.7745 -13.7535 -13.7535 -13.7354 -13.7354
   -13.7136 -13.7136 -13.7042 -13.7042  -2.2799  -2.2799   4.5387   4.5387
     6.9816   6.9816   7.0178   7.0178   8.3436   8.3436   9.7655   9.7655
    10.5377  10.5377  10.8600  10.8600

     occupation numbers 
     1.0000   1.0000   1.0000   1.0000   1.0000   1.0000   1.0000   1.0000
     1.0000   1.0000   1.0000   1.0000   1.0000   1.0000   1.0000   1.0000
     1.0000   1.0000   1.0000   1.0000   1.0000   1.0000   1.0000   1.0000
     1.0000   1.0000   1.0000   1.0000   0.0000   0.0000   0.0000   0.0000
     0.0000   0.0000   0.0000   0.0000

          k = 0.2210 0.1326-0.1326 (  9739 PWs)   bands (ev):

   -14.0520 -14.0520 -14.0472 -14.0472 -14.0204 -14.0204 -13.9547 -13.9547
   -13.9443 -13.9443 -13.7834 -13.7834 -13.7628 -13.7628 -13.7414 -13.7414
   -13.7063 -13.7063 -13.6975 -13.6975  -2.0704  -2.0704   3.7505   3.7505
     6.7772   6.7772   6.7812   6.7812   8.2290   8.2290  10.0776  10.0776
    10.7854  10.7854  11.5070  11.5070

     occupation numbers 
     1.0000   1.0000   1.0000   1.0000   1.0000   1.0000   1.0000   1.0000
     1.0000   1.0000   1.0000   1.0000   1.0000   1.0000   1.0000   1.0000
     1.0000   1.0000   1.0000   1.0000   1.0000   1.0000   1.0000   1.0000
     1.0000   1.0000   1.0000   1.0000   0.0000   0.0000   0.0000   0.0000
     0.0000   0.0000   0.0000   0.0000

          k = 0.2652 0.1768-0.1768 (  9751 PWs)   bands (ev):

   -14.0573 -14.0573 -14.0520 -14.0520 -14.0144 -14.0144 -13.9462 -13.9462
   -13.9362 -13.9362 -13.7896 -13.7896 -13.7708 -13.7708 -13.7484 -13.7484
   -13.7004 -13.7004 -13.6922 -13.6922  -1.8090  -1.8090   2.9969   2.9969
     6.5518   6.5518   6.6220   6.6220   8.0838   8.0838  10.3380  10.3380
    10.9235  10.9235  12.1875  12.1875

     occupation numbers 
     1.0000   1.0000   1.0000   1.0000   1.0000   1.0000   1.0000   1.0000
     1.0000   1.0000   1.0000   1.0000   1.0000   1.0000   1.0000   1.0000
     1.0000   1.0000   1.0000   1.0000   1.0000   1.0000   1.0000   1.0000
     1.0000   1.0000   1.0000   1.0000   0.0000   0.0000   0.0000   0.0000
     0.0000   0.0000   0.0000   0.0000

          k = 0.3094 0.2210-0.2210 (  9755 PWs)   bands (ev):

   -14.0610 -14.0610 -14.0557 -14.0557 -14.0087 -14.0087 -13.9391 -13.9391
   -13.9309 -13.9309 -13.7926 -13.7926 -13.7775 -13.7775 -13.7555 -13.7555
   -13.6958 -13.6958 -13.6885 -13.6885  -1.5173  -1.5173   2.3266   2.3266
     6.3633   6.3633   6.5137   6.5137   7.9542   7.9542  10.4971  10.4971
    10.9549  10.9549  12.8595  12.8595

     occupation numbers 
     1.0000   1.0000   1.0000   1.0000   1.0000   1.0000   1.0000   1.0000
     1.0000   1.0000   1.0000   1.0000   1.0000   1.0000   1.0000   1.0000
     1.0000   1.0000   1.0000   1.0000   1.0000   1.0000   1.0000   1.0000
     1.0000   1.0000   1.0000   1.0000   0.0000   0.0000   0.0000   0.0000
     0.0000   0.0000   0.0000   0.0000

          k = 0.3536 0.2652-0.2652 (  9759 PWs)   bands (ev):

   -14.0630 -14.0630 -14.0583 -14.0583 -14.0042 -14.0042 -13.9337 -13.9337
   -13.9287 -13.9287 -13.7923 -13.7923 -13.7829 -13.7829 -13.7615 -13.7615
   -13.6924 -13.6924 -13.6865 -13.6865  -1.2420  -1.2420   1.8008   1.8008
     6.2228   6.2228   6.4607   6.4607   7.8598   7.8598  10.5841  10.5841
    10.9213  10.9213  13.3009  13.3009

     occupation numbers 
     1.0000   1.0000   1.0000   1.0000   1.0000   1.0000   1.0000   1.0000
     1.0000   1.0000   1.0000   1.0000   1.0000   1.0000   1.0000   1.0000
     1.0000   1.0000   1.0000   1.0000   1.0000   1.0000   1.0000   1.0000
     1.0000   1.0000   1.0000   1.0000   0.0000   0.0000   0.0000   0.0000
     0.0000   0.0000   0.0000   0.0000

          k =-0.3094-0.3977 0.3977 (  9771 PWs)   bands (ev):

   -14.0636 -14.0636 -14.0599 -14.0599 -14.0018 -14.0018 -13.9300 -13.9300
   -13.9293 -13.9293 -13.7894 -13.7894 -13.7871 -13.7871 -13.7654 -13.7654
   -13.6901 -13.6901 -13.6863 -13.6863  -1.0744  -1.0744   1.5180   1.5180
     6.1360   6.1360   6.4644   6.4644   7.8088   7.8088  10.6450  10.6451
    10.8634  10.8634  13.3995  13.3995

     occupation numbers 
     1.0000   1.0000   1.0000   1.0000   1.0000   1.0000   1.0000   1.0000
     1.0000   1.0000   1.0000   1.0000   1.0000   1.0000   1.0000   1.0000
     1.0000   1.0000   1.0000   1.0000   1.0000   1.0000   1.0000   1.0000
     1.0000   1.0000   1.0000   1.0000   0.0000   0.0000   0.0000   0.0000
     0.0000   0.0000   0.0000   0.0000

          k =-0.2652-0.3536 0.3536 (  9775 PWs)   bands (ev):

   -14.0628 -14.0628 -14.0605 -14.0605 -14.0019 -14.0019 -13.9319 -13.9319
   -13.9283 -13.9283 -13.7898 -13.7898 -13.7854 -13.7854 -13.7659 -13.7659
   -13.6890 -13.6890 -13.6876 -13.6876  -1.1113  -1.1113   1.5783   1.5783
     6.1067   6.1067   6.5239   6.5239   7.8044   7.8044  10.7050  10.7050
    10.8010  10.8010  13.4120  13.4120

     occupation numbers 
     1.0000   1.0000   1.0000   1.0000   1.0000   1.0000   1.0000   1.0000
     1.0000   1.0000   1.0000   1.0000   1.0000   1.0000   1.0000   1.0000
     1.0000   1.0000   1.0000   1.0000   1.0000   1.0000   1.0000   1.0000
     1.0000   1.0000   1.0000   1.0000   0.0000   0.0000   0.0000   0.0000
     0.0000   0.0000   0.0000   0.0000

          k =-0.2210-0.3094 0.3094 (  9748 PWs)   bands (ev):

   -14.0606 -14.0606 -14.0600 -14.0600 -14.0045 -14.0045 -13.9361 -13.9361
   -13.9290 -13.9290 -13.7905 -13.7905 -13.7814 -13.7814 -13.7623 -13.7623
   -13.6906 -13.6906 -13.6891 -13.6891  -1.3279  -1.3279   1.9559   1.9559
     6.1372   6.1372   6.6360   6.6360   7.8461   7.8461  10.7304  10.7304
    10.7609  10.7609  13.2909  13.2909

     occupation numbers 
     1.0000   1.0000   1.0000   1.0000   1.0000   1.0000   1.0000   1.0000
     1.0000   1.0000   1.0000   1.0000   1.0000   1.0000   1.0000   1.0000
     1.0000   1.0000   1.0000   1.0000   1.0000   1.0000   1.0000   1.0000
     1.0000   1.0000   1.0000   1.0000   0.0000   0.0000   0.0000   0.0000
     0.0000   0.0000   0.0000   0.0000

          k =-0.1768-0.2652 0.2652 (  9754 PWs)   bands (ev):

   -14.0582 -14.0582 -14.0570 -14.0570 -14.0092 -14.0092 -13.9417 -13.9417
   -13.9327 -13.9327 -13.7884 -13.7884 -13.7773 -13.7773 -13.7555 -13.7555
   -13.6951 -13.6951 -13.6907 -13.6907  -1.6164  -1.6164   2.5386   2.5386
     6.2290   6.2290   6.7950   6.7950   7.9293   7.9293  10.6271  10.6271
    10.7787  10.7787  12.7117  12.7117

     occupation numbers 
     1.0000   1.0000   1.0000   1.0000   1.0000   1.0000   1.0000   1.0000
     1.0000   1.0000   1.0000   1.0000   1.0000   1.0000   1.0000   1.0000
     1.0000   1.0000   1.0000   1.0000   1.0000   1.0000   1.0000   1.0000
     1.0000   1.0000   1.0000   1.0000   0.0000   0.0000   0.0000   0.0000
     0.0000   0.0000   0.0000   0.0000

          k =-0.1326-0.2210 0.2210 (  9740 PWs)   bands (ev):

   -14.0549 -14.0549 -14.0521 -14.0521 -14.0150 -14.0150 -13.9489 -13.9489
   -13.9396 -13.9396 -13.7833 -13.7833 -13.7720 -13.7720 -13.7474 -13.7474
   -13.7012 -13.7012 -13.6939 -13.6939  -1.9014  -1.9014   3.2413   3.2413
     6.3824   6.3824   6.9911   6.9911   8.0419   8.0419  10.4597  10.4597
    10.6911  10.6911  11.9799  11.9799

     occupation numbers 
     1.0000   1.0000   1.0000   1.0000   1.0000   1.0000   1.0000   1.0000
     1.0000   1.0000   1.0000   1.0000   1.0000   1.0000   1.0000   1.0000
     1.0000   1.0000   1.0000   1.0000   1.0000   1.0000   1.0000   1.0000
     1.0000   1.0000   1.0000   1.0000   0.0000   0.0000   0.0000   0.0000
     0.0000   0.0000   0.0000   0.0000

          k =-0.0884-0.1768 0.1768 (  9737 PWs)   bands (ev):

   -14.0501 -14.0501 -14.0461 -14.0461 -14.0209 -14.0209 -13.9573 -13.9573
   -13.9490 -13.9490 -13.7755 -13.7755 -13.7651 -13.7651 -13.7393 -13.7393
   -13.7088 -13.7088 -13.6988 -13.6988  -2.1470  -2.1470   4.0090   4.0090
     6.5973   6.5973   7.2066   7.2066   8.1547   8.1547  10.2238  10.2238
    10.4361  10.4361  11.3231  11.3231

     occupation numbers 
     1.0000   1.0000   1.0000   1.0000   1.0000   1.0000   1.0000   1.0000
     1.0000   1.0000   1.0000   1.0000   1.0000   1.0000   1.0000   1.0000
     1.0000   1.0000   1.0000   1.0000   1.0000   1.0000   1.0000   1.0000
     1.0000   1.0000   1.0000   1.0000   0.0000   0.0000   0.0000   0.0000
     0.0000   0.0000   0.0000   0.0000

          k =-0.0442-0.1326 0.1326 (  9718 PWs)   bands (ev):

   -14.0440 -14.0440 -14.0394 -14.0394 -14.0259 -14.0259 -13.9662 -13.9662
   -13.9597 -13.9597 -13.7656 -13.7656 -13.7568 -13.7568 -13.7324 -13.7324
   -13.7177 -13.7177 -13.7054 -13.7054  -2.3366  -2.3366   4.7881   4.7881
     6.8729   6.8729   7.4089   7.4089   8.1981   8.1981   9.9695   9.9695
    10.0801  10.0801  10.7492  10.7492

     occupation numbers 
     1.0000   1.0000   1.0000   1.0000   1.0000   1.0000   1.0000   1.0000
     1.0000   1.0000   1.0000   1.0000   1.0000   1.0000   1.0000   1.0000
     1.0000   1.0000   1.0000   1.0000   1.0000   1.0000   1.0000   1.0000
     1.0000   1.0000   1.0000   1.0000   0.0000   0.0000   0.0000   0.0000
     0.0000   0.0000   0.0000   0.0000

          k = 0.0000-0.0884 0.0884 (  9731 PWs)   bands (ev):

   -14.0376 -14.0376 -14.0339 -14.0339 -14.0291 -14.0291 -13.9736 -13.9736
   -13.9698 -13.9698 -13.7546 -13.7546 -13.7479 -13.7479 -13.7288 -13.7288
   -13.7258 -13.7258 -13.7135 -13.7135  -2.4621  -2.4621   5.4911   5.4911
     7.2081   7.2081   7.5424   7.5424   8.0586   8.0586   9.7904   9.7904
     9.8316   9.8316  10.2254  10.2254

     occupation numbers 
     1.0000   1.0000   1.0000   1.0000   1.0000   1.0000   1.0000   1.0000
     1.0000   1.0000   1.0000   1.0000   1.0000   1.0000   1.0000   1.0000
     1.0000   1.0000   1.0000   1.0000   1.0000   1.0000   1.0000   1.0000
     1.0000   1.0000   0.7955   0.7955   0.0000   0.0000   0.0000   0.0000
     0.0000   0.0000   0.0000   0.0000

          k = 0.1768 0.0000 0.0000 (  9725 PWs)   bands (ev):

   -14.0371 -14.0371 -14.0371 -14.0371 -14.0352 -14.0352 -13.9705 -13.9705
   -13.9561 -13.9561 -13.7773 -13.7773 -13.7409 -13.7409 -13.7244 -13.7244
   -13.7244 -13.7244 -13.7105 -13.7105  -2.3694  -2.3694   5.0425   5.0425
     6.9814   6.9814   6.9814   6.9814   8.7941   8.7941   9.2196   9.2196
    10.5561  10.5561  10.5561  10.5561

     occupation numbers 
     1.0000   1.0000   1.0000   1.0000   1.0000   1.0000   1.0000   1.0000
     1.0000   1.0000   1.0000   1.0000   1.0000   1.0000   1.0000   1.0000
     1.0000   1.0000   1.0000   1.0000   1.0000   1.0000   1.0000   1.0000
     1.0000   1.0000   1.0000   1.0000   0.0000   0.0000   0.0000   0.0000
     0.0000   0.0000   0.0000   0.0000

          k = 0.2210 0.0442-0.0442 (  9719 PWs)   bands (ev):

   -14.0446 -14.0446 -14.0414 -14.0414 -14.0310 -14.0310 -13.9639 -13.9639
   -13.9450 -13.9450 -13.7901 -13.7901 -13.7488 -13.7488 -13.7246 -13.7246
   -13.7173 -13.7173 -13.7052 -13.7052  -2.2437  -2.2437   4.4993   4.4993
     6.7381   6.7381   6.7540   6.7540   8.9773   8.9773   9.2145   9.2145
    10.9031  10.9031  10.9858  10.9858

     occupation numbers 
     1.0000   1.0000   1.0000   1.0000   1.0000   1.0000   1.0000   1.0000
     1.0000   1.0000   1.0000   1.0000   1.0000   1.0000   1.0000   1.0000
     1.0000   1.0000   1.0000   1.0000   1.0000   1.0000   1.0000   1.0000
     1.0000   1.0000   1.0000   1.0000   0.0000   0.0000   0.0000   0.0000
     0.0000   0.0000   0.0000   0.0000

          k = 0.2652 0.0884-0.0884 (  9734 PWs)   bands (ev):

   -14.0529 -14.0529 -14.0467 -14.0467 -14.0239 -14.0239 -13.9551 -13.9551
   -13.9339 -13.9339 -13.8010 -13.8010 -13.7585 -13.7585 -13.7313 -13.7313
   -13.7093 -13.7093 -13.6971 -13.6971  -2.0540  -2.0540   3.8234   3.8234
     6.4576   6.4576   6.5547   6.5547   8.9042   8.9042   9.5078   9.5078
    11.1926  11.1926  11.4231  11.4231

     occupation numbers 
     1.0000   1.0000   1.0000   1.0000   1.0000   1.0000   1.0000   1.0000
     1.0000   1.0000   1.0000   1.0000   1.0000   1.0000   1.0000   1.0000
     1.0000   1.0000   1.0000   1.0000   1.0000   1.0000   1.0000   1.0000
     1.0000   1.0000   1.0000   1.0000   0.0000   0.0000   0.0000   0.0000
     0.0000   0.0000   0.0000   0.0000

          k = 0.3094 0.1326-0.1326 (  9747 PWs)   bands (ev):

   -14.0602 -14.0602 -14.0517 -14.0517 -14.0153 -14.0153 -13.9460 -13.9460
   -13.9249 -13.9249 -13.8089 -13.8089 -13.7680 -13.7680 -13.7408 -13.7408
   -13.7022 -13.7022 -13.6894 -13.6894  -1.8082  -1.8082   3.1216   3.1216
     6.1743   6.1743   6.4012   6.4012   8.7625   8.7625   9.8915   9.8915
    11.3615  11.3615  11.7480  11.7480

     occupation numbers 
     1.0000   1.0000   1.0000   1.0000   1.0000   1.0000   1.0000   1.0000
     1.0000   1.0000   1.0000   1.0000   1.0000   1.0000   1.0000   1.0000
     1.0000   1.0000   1.0000   1.0000   1.0000   1.0000   1.0000   1.0000
     1.0000   1.0000   1.0000   1.0000   0.0000   0.0000   0.0000   0.0000
     0.0000   0.0000   0.0000   0.0000

          k = 0.3536 0.1768-0.1768 (  9738 PWs)   bands (ev):

   -14.0661 -14.0661 -14.0560 -14.0560 -14.0062 -14.0062 -13.9375 -13.9375
   -13.9191 -13.9191 -13.8125 -13.8125 -13.7769 -13.7769 -13.7514 -13.7514
   -13.6962 -13.6962 -13.6833 -13.6833  -1.5225  -1.5225   2.4608   2.4608
     5.9230   5.9230   6.3030   6.3030   8.6193   8.6193  10.2168  10.2168
    11.3981  11.3981  12.1091  12.1091

     occupation numbers 
     1.0000   1.0000   1.0000   1.0000   1.0000   1.0000   1.0000   1.0000
     1.0000   1.0000   1.0000   1.0000   1.0000   1.0000   1.0000   1.0000
     1.0000   1.0000   1.0000   1.0000   1.0000   1.0000   1.0000   1.0000
     1.0000   1.0000   1.0000   1.0000   0.0000   0.0000   0.0000   0.0000
     0.0000   0.0000   0.0000   0.0000

          k = 0.3977 0.2210-0.2210 (  9754 PWs)   bands (ev):

   -14.0700 -14.0700 -14.0593 -14.0593 -13.9979 -13.9979 -13.9301 -13.9301
   -13.9176 -13.9176 -13.8114 -13.8114 -13.7850 -13.7850 -13.7616 -13.7616
   -13.6915 -13.6915 -13.6791 -13.6791  -1.2326  -1.2326   1.9028   1.9028
     5.7217   5.7217   6.2645   6.2645   8.5028   8.5028  10.4169  10.4169
    11.3422  11.3422  12.6290  12.6290

     occupation numbers 
     1.0000   1.0000   1.0000   1.0000   1.0000   1.0000   1.0000   1.0000
     1.0000   1.0000   1.0000   1.0000   1.0000   1.0000   1.0000   1.0000
     1.0000   1.0000   1.0000   1.0000   1.0000   1.0000   1.0000   1.0000
     1.0000   1.0000   1.0000   1.0000   0.0000   0.0000   0.0000   0.0000
     0.0000   0.0000   0.0000   0.0000

          k =-0.2652-0.4419 0.4419 (  9767 PWs)   bands (ev):

   -14.0720 -14.0720 -14.0617 -14.0617 -13.9918 -13.9918 -13.9240 -13.9240
   -13.9199 -13.9199 -13.8057 -13.8057 -13.7921 -13.7921 -13.7700 -13.7700
   -13.6879 -13.6879 -13.6772 -13.6772  -1.0145  -1.0145   1.5376   1.5376
     5.5796   5.5796   6.2866   6.2866   8.4259   8.4259  10.5369  10.5369
    11.2424  11.2424  13.2001  13.2001

     occupation numbers 
     1.0000   1.0000   1.0000   1.0000   1.0000   1.0000   1.0000   1.0000
     1.0000   1.0000   1.0000   1.0000   1.0000   1.0000   1.0000   1.0000
     1.0000   1.0000   1.0000   1.0000   1.0000   1.0000   1.0000   1.0000
     1.0000   1.0000   1.0000   1.0000   0.0000   0.0000   0.0000   0.0000
     0.0000   0.0000   0.0000   0.0000

          k =-0.2210-0.3977 0.3977 (  9760 PWs)   bands (ev):

   -14.0719 -14.0719 -14.0632 -14.0632 -13.9892 -13.9892 -13.9249 -13.9249
   -13.9198 -13.9198 -13.7977 -13.7977 -13.7964 -13.7964 -13.7756 -13.7756
   -13.6856 -13.6856 -13.6778 -13.6778  -0.9791  -0.9791   1.4824   1.4824
     5.5026   5.5026   6.3676   6.3676   8.3933   8.3933  10.6370  10.6370
    11.1267  11.1268  13.5083  13.5083

     occupation numbers 
     1.0000   1.0000   1.0000   1.0000   1.0000   1.0000   1.0000   1.0000
     1.0000   1.0000   1.0000   1.0000   1.0000   1.0000   1.0000   1.0000
     1.0000   1.0000   1.0000   1.0000   1.0000   1.0000   1.0000   1.0000
     1.0000   1.0000   1.0000   1.0000   0.0000   0.0000   0.0000   0.0000
     0.0000   0.0000   0.0000   0.0000

          k =-0.1768-0.3536 0.3536 (  9755 PWs)   bands (ev):

   -14.0697 -14.0697 -14.0635 -14.0635 -13.9908 -13.9908 -13.9313 -13.9313
   -13.9185 -13.9185 -13.8008 -13.8008 -13.7857 -13.7857 -13.7770 -13.7770
   -13.6847 -13.6847 -13.6809 -13.6809  -1.1509  -1.1509   1.7617   1.7617
     5.4962   5.4962   6.5030   6.5030   8.4038   8.4038  10.7388  10.7388
    10.9982  10.9982  13.2490  13.2490

     occupation numbers 
     1.0000   1.0000   1.0000   1.0000   1.0000   1.0000   1.0000   1.0000
     1.0000   1.0000   1.0000   1.0000   1.0000   1.0000   1.0000   1.0000
     1.0000   1.0000   1.0000   1.0000   1.0000   1.0000   1.0000   1.0000
     1.0000   1.0000   1.0000   1.0000   0.0000   0.0000   0.0000   0.0000
     0.0000   0.0000   0.0000   0.0000

          k =-0.1326-0.3094 0.3094 (  9761 PWs)   bands (ev):

   -14.0655 -14.0655 -14.0625 -14.0625 -13.9963 -13.9963 -13.9381 -13.9381
   -13.9209 -13.9209 -13.8004 -13.8004 -13.7807 -13.7807 -13.7683 -13.7683
   -13.6865 -13.6865 -13.6854 -13.6854  -1.4287  -1.4287   2.2684   2.2684
     5.5669   5.5669   6.6845   6.6845   8.4503   8.4503  10.8196  10.8196
    10.8384  10.8384  12.5941  12.5941

     occupation numbers 
     1.0000   1.0000   1.0000   1.0000   1.0000   1.0000   1.0000   1.0000
     1.0000   1.0000   1.0000   1.0000   1.0000   1.0000   1.0000   1.0000
     1.0000   1.0000   1.0000   1.0000   1.0000   1.0000   1.0000   1.0000
     1.0000   1.0000   1.0000   1.0000   0.0000   0.0000   0.0000   0.0000
     0.0000   0.0000   0.0000   0.0000

          k =-0.0884-0.2652 0.2652 (  9750 PWs)   bands (ev):

   -14.0599 -14.0599 -14.0595 -14.0595 -14.0044 -14.0044 -13.9452 -13.9452
   -13.9273 -13.9273 -13.7958 -13.7958 -13.7773 -13.7773 -13.7550 -13.7550
   -13.6944 -13.6944 -13.6878 -13.6878  -1.7208  -1.7208   2.8963   2.8963
     5.7240   5.7240   6.8984   6.8984   8.5140   8.5140  10.6238  10.6238
    10.7873  10.7873  11.9831  11.9831

     occupation numbers 
     1.0000   1.0000   1.0000   1.0000   1.0000   1.0000   1.0000   1.0000
     1.0000   1.0000   1.0000   1.0000   1.0000   1.0000   1.0000   1.0000
     1.0000   1.0000   1.0000   1.0000   1.0000   1.0000   1.0000   1.0000
     1.0000   1.0000   1.0000   1.0000   0.0000   0.0000   0.0000   0.0000
     0.0000   0.0000   0.0000   0.0000

          k =-0.0442-0.2210 0.2210 (  9740 PWs)   bands (ev):

   -14.0558 -14.0558 -14.0523 -14.0523 -14.0134 -14.0134 -13.9526 -13.9526
   -13.9370 -13.9370 -13.7878 -13.7878 -13.7719 -13.7719 -13.7422 -13.7422
   -13.7042 -13.7042 -13.6920 -13.6920  -1.9815  -1.9815   3.5722   3.5722
     5.9824   5.9824   7.1209   7.1209   8.5505   8.5505  10.3608  10.3608
    10.5283  10.5283  11.5974  11.5974

     occupation numbers 
     1.0000   1.0000   1.0000   1.0000   1.0000   1.0000   1.0000   1.0000
     1.0000   1.0000   1.0000   1.0000   1.0000   1.0000   1.0000   1.0000
     1.0000   1.0000   1.0000   1.0000   1.0000   1.0000   1.0000   1.0000
     1.0000   1.0000   1.0000   1.0000   0.0000   0.0000   0.0000   0.0000
     0.0000   0.0000   0.0000   0.0000

          k = 0.0000-0.1768 0.1768 (  9729 PWs)   bands (ev):

   -14.0502 -14.0502 -14.0448 -14.0448 -14.0212 -14.0212 -13.9600 -13.9600
   -13.9484 -13.9484 -13.7773 -13.7773 -13.7647 -13.7647 -13.7323 -13.7323
   -13.7144 -13.7144 -13.6979 -13.6979  -2.1900  -2.1900   4.2280   4.2280
     6.3630   6.3630   7.3110   7.3110   8.4694   8.4694  10.1105  10.1105
[...]

     occupation numbers 
     1.0000   1.0000   1.0000   1.0000   1.0000   1.0000   1.0000   1.0000
     1.0000   1.0000   1.0000   1.0000   1.0000   1.0000   1.0000   1.0000
     1.0000   1.0000   1.0000   1.0000   1.0000   1.0000   1.0000   1.0000
     1.0000   1.0000   1.0000   1.0000   0.0000   0.0000   0.0000   0.0000
     0.0000   0.0000   0.0000   0.0000

          k =-0.1326-0.3977 0.5745 (  9753 PWs)   bands (ev):

   -14.0859 -14.0859 -14.0733 -14.0733 -13.9599 -13.9599 -13.8984 -13.8984
   -13.8782 -13.8782 -13.8566 -13.8566 -13.8213 -13.8213 -13.7907 -13.7907
   -13.6740 -13.6740 -13.6615 -13.6615  -0.5087  -0.5087   1.1412   1.1412
     4.6657   4.6657   5.6273   5.6273   9.4774   9.4774  10.7225  10.7225
    12.0035  12.0035  12.6871  12.6871

     occupation numbers 
     1.0000   1.0000   1.0000   1.0000   1.0000   1.0000   1.0000   1.0000
     1.0000   1.0000   1.0000   1.0000   1.0000   1.0000   1.0000   1.0000
     1.0000   1.0000   1.0000   1.0000   1.0000   1.0000   1.0000   1.0000
     1.0000   1.0000   1.0000   1.0000   0.0000   0.0000   0.0000   0.0000
     0.0000   0.0000   0.0000   0.0000

          k =-0.0884-0.3536 0.5303 (  9751 PWs)   bands (ev):

   -14.0859 -14.0859 -14.0733 -14.0733 -13.9594 -13.9594 -13.9014 -13.9014
   -13.8796 -13.8796 -13.8524 -13.8524 -13.8207 -13.8207 -13.7918 -13.7918
   -13.6738 -13.6738 -13.6618 -13.6618  -0.5632  -0.5632   1.2104   1.2104
     4.6326   4.6326   5.6964   5.6964   9.5224   9.5224  10.7148  10.7148
    12.0670  12.0670  12.6482  12.6482

     occupation numbers 
     1.0000   1.0000   1.0000   1.0000   1.0000   1.0000   1.0000   1.0000
     1.0000   1.0000   1.0000   1.0000   1.0000   1.0000   1.0000   1.0000
     1.0000   1.0000   1.0000   1.0000   1.0000   1.0000   1.0000   1.0000
     1.0000   1.0000   1.0000   1.0000   0.0000   0.0000   0.0000   0.0000
     0.0000   0.0000   0.0000   0.0000

          k =-0.0442-0.3094 0.4861 (  9758 PWs)   bands (ev):

   -14.0825 -14.0825 -14.0722 -14.0722 -13.9664 -13.9664 -13.9118 -13.9118
   -13.8819 -13.8819 -13.8499 -13.8499 -13.8077 -13.8077 -13.7875 -13.7875
   -13.6750 -13.6750 -13.6660 -13.6660  -0.8067  -0.8067   1.5297   1.5297
     4.7039   4.7039   5.8390   5.8390   9.5740   9.5740  10.5982  10.5982
    11.4901  11.4901  12.8736  12.8736

     occupation numbers 
     1.0000   1.0000   1.0000   1.0000   1.0000   1.0000   1.0000   1.0000
     1.0000   1.0000   1.0000   1.0000   1.0000   1.0000   1.0000   1.0000
     1.0000   1.0000   1.0000   1.0000   1.0000   1.0000   1.0000   1.0000
     1.0000   1.0000   1.0000   1.0000   0.0000   0.0000   0.0000   0.0000
     0.0000   0.0000   0.0000   0.0000

          k = 0.0000-0.2652 0.4419 (  9772 PWs)   bands (ev):

   -14.0764 -14.0764 -14.0699 -14.0699 -13.9792 -13.9792 -13.9225 -13.9225
   -13.8894 -13.8894 -13.8438 -13.8438 -13.7926 -13.7926 -13.7773 -13.7773
   -13.6776 -13.6776 -13.6735 -13.6735  -1.1046  -1.1046   1.9489   1.9489
     4.8989   4.8989   6.0296   6.0296   9.5732   9.5732  10.2431  10.2431
    11.3142  11.3142  12.6476  12.6476

     occupation numbers 
     1.0000   1.0000   1.0000   1.0000   1.0000   1.0000   1.0000   1.0000
     1.0000   1.0000   1.0000   1.0000   1.0000   1.0000   1.0000   1.0000
     1.0000   1.0000   1.0000   1.0000   1.0000   1.0000   1.0000   1.0000
     1.0000   1.0000   1.0000   1.0000   0.0000   0.0000   0.0000   0.0000
     0.0000   0.0000   0.0000   0.0000

          k =-0.1768-0.5303 0.7071 (  9774 PWs)   bands (ev):

   -14.0747 -14.0747 -14.0728 -14.0728 -13.9826 -13.9826 -13.9029 -13.9029
   -13.8849 -13.8849 -13.8586 -13.8586 -13.8089 -13.8089 -13.7665 -13.7665
   -13.6750 -13.6750 -13.6739 -13.6739  -0.8133  -0.8133   1.5674   1.5674
     5.0694   5.0694   5.5002   5.5002   9.2207   9.2207   9.5756   9.5756
    12.0005  12.0005  13.6082  13.6082

     occupation numbers 
     1.0000   1.0000   1.0000   1.0000   1.0000   1.0000   1.0000   1.0000
     1.0000   1.0000   1.0000   1.0000   1.0000   1.0000   1.0000   1.0000
     1.0000   1.0000   1.0000   1.0000   1.0000   1.0000   1.0000   1.0000
     1.0000   1.0000   1.0000   1.0000   0.0000   0.0000   0.0000   0.0000
     0.0000   0.0000   0.0000   0.0000

          k =-0.1326-0.4861 0.6629 (  9762 PWs)   bands (ev):

   -14.0814 -14.0814 -14.0751 -14.0751 -13.9652 -13.9652 -13.8929 -13.8929
   -13.8896 -13.8896 -13.8524 -13.8524 -13.8212 -13.8212 -13.7837 -13.7837
   -13.6721 -13.6721 -13.6660 -13.6660  -0.5097  -0.5097   1.1834   1.1834
     4.8396   4.8396   5.3786   5.3786   9.3864   9.3864  10.0512  10.0512
    11.8259  11.8259  13.5617  13.5617

     occupation numbers 
     1.0000   1.0000   1.0000   1.0000   1.0000   1.0000   1.0000   1.0000
     1.0000   1.0000   1.0000   1.0000   1.0000   1.0000   1.0000   1.0000
     1.0000   1.0000   1.0000   1.0000   1.0000   1.0000   1.0000   1.0000
     1.0000   1.0000   1.0000   1.0000   0.0000   0.0000   0.0000   0.0000
     0.0000   0.0000   0.0000   0.0000

          k =-0.0884-0.4419 0.6187 (  9766 PWs)   bands (ev):

   -14.0864 -14.0864 -14.0761 -14.0761 -13.9526 -13.9526 -13.8891 -13.8891
   -13.8813 -13.8813 -13.8545 -13.8545 -13.8325 -13.8325 -13.7954 -13.7954
   -13.6707 -13.6707 -13.6606 -13.6606  -0.2719  -0.2719   0.9079   0.9079
     4.6416   4.6416   5.3691   5.3691   9.4412   9.4412  10.7788  10.7788
    11.7232  11.7232  12.9841  12.9841

     occupation numbers 
     1.0000   1.0000   1.0000   1.0000   1.0000   1.0000   1.0000   1.0000
     1.0000   1.0000   1.0000   1.0000   1.0000   1.0000   1.0000   1.0000
     1.0000   1.0000   1.0000   1.0000   1.0000   1.0000   1.0000   1.0000
     1.0000   1.0000   1.0000   1.0000   0.0000   0.0000   0.0000   0.0000
     0.0000   0.0000   0.0000   0.0000

          k =-0.0442-0.3977 0.5745 (  9751 PWs)   bands (ev):

   -14.0883 -14.0883 -14.0761 -14.0761 -13.9494 -13.9494 -13.8853 -13.8853
   -13.8735 -13.8735 -13.8622 -13.8622 -13.8370 -13.8370 -13.7982 -13.7982
   -13.6706 -13.6706 -13.6587 -13.6587  -0.2740  -0.2740   0.9127   0.9127
     4.5289   4.5289   5.4581   5.4581   9.5179   9.5179  11.2479  11.2479
    11.9391  11.9391  12.2562  12.2562

     occupation numbers 
     1.0000   1.0000   1.0000   1.0000   1.0000   1.0000   1.0000   1.0000
     1.0000   1.0000   1.0000   1.0000   1.0000   1.0000   1.0000   1.0000
     1.0000   1.0000   1.0000   1.0000   1.0000   1.0000   1.0000   1.0000
     1.0000   1.0000   1.0000   1.0000   0.0000   0.0000   0.0000   0.0000
     0.0000   0.0000   0.0000   0.0000

          k = 0.0000-0.3536 0.5303 (  9756 PWs)   bands (ev):

   -14.0869 -14.0869 -14.0749 -14.0749 -13.9547 -13.9547 -13.8972 -13.8972
   -13.8698 -13.8698 -13.8624 -13.8624 -13.8266 -13.8266 -13.7948 -13.7948
   -13.6719 -13.6719 -13.6607 -13.6607  -0.5093  -0.5093   1.1818   1.1818
     4.5413   4.5413   5.6237   5.6237   9.5957   9.5957  11.1061  11.1061
    11.5629  11.5629  12.7398  12.7398

     occupation numbers 
     1.0000   1.0000   1.0000   1.0000   1.0000   1.0000   1.0000   1.0000
     1.0000   1.0000   1.0000   1.0000   1.0000   1.0000   1.0000   1.0000
     1.0000   1.0000   1.0000   1.0000   1.0000   1.0000   1.0000   1.0000
     1.0000   1.0000   1.0000   1.0000   0.0000   0.0000   0.0000   0.0000
     0.0000   0.0000   0.0000   0.0000

          k =-0.0884-0.5303 0.7071 (  9762 PWs)   bands (ev):

   -14.0781 -14.0781 -14.0769 -14.0769 -13.9633 -13.9633 -13.9136 -13.9136
   -13.8799 -13.8799 -13.8321 -13.8321 -13.8318 -13.8318 -13.7846 -13.7846
   -13.6699 -13.6699 -13.6689 -13.6689  -0.2873  -0.2873   0.9160   0.9160
     4.9958   4.9958   5.2100   5.2100   9.1890   9.1890   9.3971   9.3971
    12.6742  12.6742  13.8972  13.8972

     occupation numbers 
     1.0000   1.0000   1.0000   1.0000   1.0000   1.0000   1.0000   1.0000
     1.0000   1.0000   1.0000   1.0000   1.0000   1.0000   1.0000   1.0000
     1.0000   1.0000   1.0000   1.0000   1.0000   1.0000   1.0000   1.0000
     1.0000   1.0000   1.0000   1.0000   0.0000   0.0000   0.0000   0.0000
     0.0000   0.0000   0.0000   0.0000

          k =-0.0442-0.4861 0.6629 (  9755 PWs)   bands (ev):

   -14.0837 -14.0837 -14.0780 -14.0780 -13.9465 -13.9465 -13.9144 -13.9144
   -13.8695 -13.8695 -13.8444 -13.8444 -13.8302 -13.8302 -13.8005 -13.8005
   -13.6686 -13.6686 -13.6629 -13.6629  -0.0038  -0.0038   0.6160   0.6160
     4.7857   4.7857   5.1686   5.1686   9.3340   9.3340   9.9993   9.9993
    12.4917  12.4917  13.2016  13.2016

     occupation numbers 
     1.0000   1.0000   1.0000   1.0000   1.0000   1.0000   1.0000   1.0000
     1.0000   1.0000   1.0000   1.0000   1.0000   1.0000   1.0000   1.0000
     1.0000   1.0000   1.0000   1.0000   1.0000   1.0000   1.0000   1.0000
     1.0000   1.0000   1.0000   1.0000   0.0000   0.0000   0.0000   0.0000
     0.0000   0.0000   0.0000   0.0000

          k = 0.0000-0.4419 0.6187 (  9758 PWs)   bands (ev):

   -14.0876 -14.0876 -14.0776 -14.0776 -13.9436 -13.9436 -13.8984 -13.8984
   -13.8687 -13.8687 -13.8487 -13.8487 -13.8434 -13.8434 -13.8028 -13.8028
   -13.6689 -13.6689 -13.6591 -13.6591  -0.0060  -0.0060   0.6275   0.6275
     4.5927   4.5927   5.2733   5.2733   9.4211   9.4211  10.8179  10.8179
    12.3336  12.3336  12.3445  12.3445

     occupation numbers 
     1.0000   1.0000   1.0000   1.0000   1.0000   1.0000   1.0000   1.0000
     1.0000   1.0000   1.0000   1.0000   1.0000   1.0000   1.0000   1.0000
     1.0000   1.0000   1.0000   1.0000   1.0000   1.0000   1.0000   1.0000
     1.0000   1.0000   1.0000   1.0000   0.0000   0.0000   0.0000   0.0000
     0.0000   0.0000   0.0000   0.0000

          k =-0.7071 0.1768 0.0000 (  9756 PWs)   bands (ev):

   -14.0788 -14.0788 -14.0788 -14.0788 -13.9400 -13.9400 -13.9400 -13.9400
   -13.8558 -13.8558 -13.8558 -13.8558 -13.8069 -13.8069 -13.8069 -13.8069
   -13.6676 -13.6676 -13.6676 -13.6676   0.2933   0.2933   0.2933   0.2933
     5.0415   5.0415   5.0415   5.0415   9.2521   9.2521   9.2521   9.2521
    13.3962  13.3962  13.3962  13.3962

     occupation numbers 
     1.0000   1.0000   1.0000   1.0000   1.0000   1.0000   1.0000   1.0000
     1.0000   1.0000   1.0000   1.0000   1.0000   1.0000   1.0000   1.0000
     1.0000   1.0000   1.0000   1.0000   1.0000   1.0000   1.0000   1.0000
     1.0000   1.0000   1.0000   1.0000   0.0000   0.0000   0.0000   0.0000
     0.0000   0.0000   0.0000   0.0000

          k =-0.1768-0.4419 0.7071 (  9766 PWs)   bands (ev):

   -14.0815 -14.0815 -14.0752 -14.0752 -13.9647 -13.9647 -13.9033 -13.9033
   -13.8712 -13.8712 -13.8666 -13.8666 -13.8129 -13.8129 -13.7862 -13.7862
   -13.6720 -13.6720 -13.6666 -13.6666  -0.6798  -0.6798   1.3946   1.3946
     4.7607   4.7607   5.5364   5.5364   9.9735   9.9735  10.1065  10.1065
    11.2672  11.2672  13.3376  13.3376

     occupation numbers 
     1.0000   1.0000   1.0000   1.0000   1.0000   1.0000   1.0000   1.0000
     1.0000   1.0000   1.0000   1.0000   1.0000   1.0000   1.0000   1.0000
     1.0000   1.0000   1.0000   1.0000   1.0000   1.0000   1.0000   1.0000
     1.0000   1.0000   1.0000   1.0000   0.0000   0.0000   0.0000   0.0000
     0.0000   0.0000   0.0000   0.0000

          k =-0.1326-0.3977 0.6629 (  9762 PWs)   bands (ev):

   -14.0858 -14.0858 -14.0773 -14.0773 -13.9511 -13.9511 -13.8929 -13.8929
   -13.8762 -13.8762 -13.8604 -13.8604 -13.8273 -13.8273 -13.7975 -13.7975
   -13.6696 -13.6696 -13.6615 -13.6615  -0.3965  -0.3965   1.0557   1.0557
     4.6332   4.6332   5.3810   5.3810   9.9991   9.9991  10.5999  10.5999
    11.3785  11.3785  12.8704  12.8704

     occupation numbers 
     1.0000   1.0000   1.0000   1.0000   1.0000   1.0000   1.0000   1.0000
     1.0000   1.0000   1.0000   1.0000   1.0000   1.0000   1.0000   1.0000
     1.0000   1.0000   1.0000   1.0000   1.0000   1.0000   1.0000   1.0000
     1.0000   1.0000   1.0000   1.0000   0.0000   0.0000   0.0000   0.0000
     0.0000   0.0000   0.0000   0.0000

          k =-0.0884-0.3536 0.6187 (  9768 PWs)   bands (ev):

   -14.0874 -14.0874 -14.0779 -14.0779 -13.9457 -13.9457 -13.8892 -13.8892
   -13.8741 -13.8741 -13.8611 -13.8611 -13.8338 -13.8338 -13.8016 -13.8016
   -13.6689 -13.6689 -13.6596 -13.6596  -0.2586  -0.2586   0.8982   0.8982
     4.5928   4.5928   5.3241   5.3241   9.9987   9.9987  10.7253  10.7253
    11.8998  11.8998  12.1916  12.1916

     occupation numbers 
     1.0000   1.0000   1.0000   1.0000   1.0000   1.0000   1.0000   1.0000
     1.0000   1.0000   1.0000   1.0000   1.0000   1.0000   1.0000   1.0000
     1.0000   1.0000   1.0000   1.0000   1.0000   1.0000   1.0000   1.0000
     1.0000   1.0000   1.0000   1.0000   0.0000   0.0000   0.0000   0.0000
     0.0000   0.0000   0.0000   0.0000

          k =-0.0884-0.4419 0.7071 (  9766 PWs)   bands (ev):

   -14.0838 -14.0838 -14.0801 -14.0801 -13.9461 -13.9461 -13.8983 -13.8983
   -13.8815 -13.8815 -13.8431 -13.8431 -13.8353 -13.8353 -13.8010 -13.8010
   -13.6667 -13.6667 -13.6631 -13.6631  -0.2040  -0.2040   0.8458   0.8458
     4.7509   4.7509   5.1425   5.1425  10.0476  10.0476  10.0897  10.0897
    11.6467  11.6467  13.0392  13.0392

     occupation numbers 
     1.0000   1.0000   1.0000   1.0000   1.0000   1.0000   1.0000   1.0000
     1.0000   1.0000   1.0000   1.0000   1.0000   1.0000   1.0000   1.0000
     1.0000   1.0000   1.0000   1.0000   1.0000   1.0000   1.0000   1.0000
     1.0000   1.0000   1.0000   1.0000   0.0000   0.0000   0.0000   0.0000
     0.0000   0.0000   0.0000   0.0000

          k =-0.0442-0.3977 0.6629 (  9749 PWs)   bands (ev):

   -14.0865 -14.0865 -14.0813 -14.0813 -13.9336 -13.9336 -13.9000 -13.9000
   -13.8725 -13.8725 -13.8485 -13.8485 -13.8395 -13.8395 -13.8113 -13.8113
   -13.6653 -13.6653 -13.6601 -13.6601   0.0158   0.0158   0.6166   0.6166
     4.6693   4.6693   5.0622   5.0622  10.1269  10.1269  10.7989  10.7989
    11.5668  11.5668  12.1821  12.1821

     occupation numbers 
     1.0000   1.0000   1.0000   1.0000   1.0000   1.0000   1.0000   1.0000
     1.0000   1.0000   1.0000   1.0000   1.0000   1.0000   1.0000   1.0000
     1.0000   1.0000   1.0000   1.0000   1.0000   1.0000   1.0000   1.0000
     1.0000   1.0000   1.0000   1.0000   0.0000   0.0000   0.0000   0.0000
     0.0000   0.0000   0.0000   0.0000

          k =-0.0000-0.3536 0.6187 (  9753 PWs)   bands (ev):

   -14.0873 -14.0873 -14.0803 -14.0803 -13.9375 -13.9375 -13.8898 -13.8898
   -13.8789 -13.8789 -13.8481 -13.8481 -13.8433 -13.8433 -13.8079 -13.8079
   -13.6663 -13.6663 -13.6595 -13.6595  -0.1061  -0.1061   0.7465   0.7465
     4.6039   4.6039   5.1662   5.1662  10.1770  10.1770  10.9804  10.9804
    11.4561  11.4561  12.0867  12.0867

     occupation numbers 
     1.0000   1.0000   1.0000   1.0000   1.0000   1.0000   1.0000   1.0000
     1.0000   1.0000   1.0000   1.0000   1.0000   1.0000   1.0000   1.0000
     1.0000   1.0000   1.0000   1.0000   1.0000   1.0000   1.0000   1.0000
     1.0000   1.0000   1.0000   1.0000   0.0000   0.0000   0.0000   0.0000
     0.0000   0.0000   0.0000   0.0000

          k =-0.7071 0.2652 0.0000 (  9758 PWs)   bands (ev):

   -14.0832 -14.0832 -14.0832 -14.0832 -13.9237 -13.9237 -13.9237 -13.9237
   -13.8585 -13.8585 -13.8585 -13.8585 -13.8206 -13.8206 -13.8206 -13.8206
   -13.6633 -13.6633 -13.6633 -13.6633   0.3092   0.3092   0.3092   0.3092
     4.8775   4.8775   4.8775   4.8775  10.0584  10.0584  10.0584  10.0584
    12.3157  12.3157  12.3157  12.3157

     occupation numbers 
     1.0000   1.0000   1.0000   1.0000   1.0000   1.0000   1.0000   1.0000
     1.0000   1.0000   1.0000   1.0000   1.0000   1.0000   1.0000   1.0000
     1.0000   1.0000   1.0000   1.0000   1.0000   1.0000   1.0000   1.0000
     1.0000   1.0000   1.0000   1.0000   0.0000   0.0000   0.0000   0.0000
     0.0000   0.0000   0.0000   0.0000

          k =-0.7071 0.3536 0.0000 (  9716 PWs)   bands (ev):

   -14.0849 -14.0849 -14.0849 -14.0849 -13.9154 -13.9154 -13.9154 -13.9154
   -13.8609 -13.8609 -13.8609 -13.8609 -13.8265 -13.8265 -13.8265 -13.8265
   -13.6616 -13.6616 -13.6616 -13.6616   0.3158   0.3158   0.3158   0.3158
     4.8152   4.8152   4.8152   4.8152  10.7234  10.7234  10.7234  10.7234
    11.5542  11.5542  11.5542  11.5542

     occupation numbers 
     1.0000   1.0000   1.0000   1.0000   1.0000   1.0000   1.0000   1.0000
     1.0000   1.0000   1.0000   1.0000   1.0000   1.0000   1.0000   1.0000
     1.0000   1.0000   1.0000   1.0000   1.0000   1.0000   1.0000   1.0000
     1.0000   1.0000   1.0000   1.0000   0.0000   0.0000   0.0000   0.0000
     0.0000   0.0000   0.0000   0.0000

     the Fermi energy is     7.5432 ev

!    total energy              =    -884.12547994 Ry
     Harris-Foulkes estimate   =    -884.12547991 Ry
     estimated scf accuracy    <       0.00000044 Ry

     total all-electron energy =    -24709.381084 Ry

     The total energy is the sum of the following terms:

     one-electron contribution =    -155.39287895 Ry
     hartree contribution      =      78.93565167 Ry
     xc contribution           =     -54.76769190 Ry
     ewald contribution        =    -167.52979533 Ry
     one-center paw contrib.   =    -585.37076527 Ry
     smearing contrib. (-TS)   =      -0.00000015 Ry

     convergence has been achieved in   5 iterations

     Writing output data file Sn.save
 
     init_run     :      6.01s CPU      7.09s WALL (       1 calls)
     electrons    :    129.44s CPU    150.45s WALL (       1 calls)

     Called by init_run:
     wfcinit      :      5.68s CPU      6.65s WALL (       1 calls)
     potinit      :      0.08s CPU      0.10s WALL (       1 calls)

     Called by electrons:
     c_bands      :    112.32s CPU    130.65s WALL (       6 calls)
     sum_band     :     16.63s CPU     19.16s WALL (       6 calls)
     v_of_rho     :      0.05s CPU      0.06s WALL (       6 calls)
     v_h          :      0.00s CPU      0.00s WALL (       6 calls)
     v_xc         :      0.05s CPU      0.06s WALL (       6 calls)
     newd         :      0.09s CPU      0.13s WALL (       6 calls)
     PAW_pot      :      0.38s CPU      0.44s WALL (       6 calls)
     mix_rho      :      0.02s CPU      0.04s WALL (       6 calls)

     Called by c_bands:
     init_us_2    :      0.34s CPU      0.48s WALL (    1885 calls)
     cegterg      :    108.73s CPU    126.72s WALL (     870 calls)

     Called by sum_band:
     sum_band:bec :      0.06s CPU      0.06s WALL (     870 calls)
     addusdens    :      0.11s CPU      0.14s WALL (       6 calls)

     Called by *egterg:
     h_psi        :     89.09s CPU    103.56s WALL (    3604 calls)
     s_psi        :      1.55s CPU      1.58s WALL (    3604 calls)
     g_psi        :      0.47s CPU      0.48s WALL (    2589 calls)
     cdiaghg      :      8.54s CPU      8.66s WALL (    3314 calls)
     cegterg:over :      5.06s CPU      5.10s WALL (    2589 calls)
     cegterg:upda :      3.34s CPU      3.38s WALL (    2589 calls)
     cegterg:last :      1.72s CPU      1.73s WALL (     985 calls)

     Called by h_psi:
     h_psi:vloc   :     85.23s CPU     99.40s WALL (    3604 calls)
     h_psi:vnl    :      3.50s CPU      3.76s WALL (    3604 calls)
     add_vuspsi   :      1.64s CPU      1.70s WALL (    3604 calls)

     General routines
     calbec       :      2.41s CPU      2.66s WALL (    4474 calls)
     fft          :      0.07s CPU      0.08s WALL (     116 calls)
     fftw         :     91.17s CPU    106.33s WALL (  442040 calls)
     davcio       :      0.03s CPU      0.71s WALL (     145 calls)
 
     Parallel routines
     fft_scatter  :     38.64s CPU     44.86s WALL (  442156 calls)

     PAW routines
     PAW_pot      :      0.38s CPU      0.44s WALL (       6 calls)
     PAW_symme    :      0.01s CPU      0.01s WALL (      12 calls)
 
     PWSCF        :  2m16.02s CPU     2m38.97s WALL

 
   This run was terminated on:  14: 2:31  17Mar2020            

=------------------------------------------------------------------------------=
   JOB DONE.
=------------------------------------------------------------------------------=
