
     Program PWSCF v.5.4.0 starts on 15Mar2020 at 19:52:56 

     This program is part of the open-source Quantum ESPRESSO suite
     for quantum simulation of materials; please cite
         "P. Giannozzi et al., J. Phys.:Condens. Matter 21 395502 (2009);
          URL http://www.quantum-espresso.org", 
     in publications or presentations arising from this work. More details at
     http://www.quantum-espresso.org/quote

     Parallel version (MPI & OpenMP), running on      16 processor cores
     Number of MPI processes:                16
     Threads/MPI process:                     1
     R & G space division:  proc/nbgrp/npool/nimage =      16
     Waiting for input...
     Reading input from standard input
Warning: card &IONS ignored
Warning: card / ignored
Warning: card &CELL ignored
Warning: card / ignored

     Current dimensions of program PWSCF are:
     Max number of different atomic species (ntypx) = 10
     Max number of k-points (npk) =  40000
     Max angular momentum in pseudopotentials (lmaxx) =  3
               file Sn.rel-pbe-dn-kjpaw_psl.0.2.UPF: wavefunction(s)  5P 5P 4D 4D renormalized

     Subspace diagonalization in iterative solution of the eigenvalue problem:
     a serial algorithm will be used

 
     Parallelization info
     --------------------
     sticks:   dense  smooth     PW     G-vecs:    dense   smooth      PW
     Min          81      81     23                 1953     1953     312
     Max          82      82     24                 1958     1958     316
     Sum        1303    1303    379                31283    31283    5029
 

     Title: 
     Sn                                                                         


     bravais-lattice index     =            0
     lattice parameter (alat)  =       8.9127  a.u.
     unit-cell volume          =     500.6268 (a.u.)^3
     number of atoms/cell      =            2
     number of atomic types    =            1
     number of electrons       =        28.00
     number of Kohn-Sham states=           36
     kinetic-energy cutoff     =      60.0000  Ry
     charge density cutoff     =     240.0000  Ry
     convergence threshold     =      1.0E-06
     mixing beta               =       0.7000
     number of iterations used =            8  plain     mixing
     Exchange-correlation      =  SLA  PW   PBX  PBC ( 1  4  3  4 0 0)
     Non magnetic calculation with spin-orbit


     celldm(1)=   8.912709  celldm(2)=   0.000000  celldm(3)=   0.000000
     celldm(4)=   0.000000  celldm(5)=   0.000000  celldm(6)=   0.000000

     crystal axes: (cart. coord. in units of alat)
               a(1) = (   0.000000   0.707107   0.707107 )  
               a(2) = (   0.707107   0.000000   0.707107 )  
               a(3) = (   0.707107   0.707107   0.000000 )  

     reciprocal axes: (cart. coord. in units 2 pi/alat)
               b(1) = ( -0.707107  0.707107  0.707107 )  
               b(2) = (  0.707107 -0.707107  0.707107 )  
               b(3) = (  0.707107  0.707107 -0.707107 )  


     PseudoPot. # 1 for Sn read from file:
     ../PseudopotentialDatabase/Sn.rel-pbe-dn-kjpaw_psl.0.2.UPF
     MD5 check sum: 79f626d90b2bb8cc2658247f48f3d9cb
     Pseudo is Projector augmented-wave + core cor, Zval = 14.0
     Generated using "atomic" code by A. Dal Corso  v.5.0.2 svn rev. 9415
     Shape of augmentation charge: BESSEL
     Using radial grid of 1243 points, 10 beta functions with: 
                l(1) =   0
                l(2) =   0
                l(3) =   1
                l(4) =   1
                l(5) =   1
                l(6) =   1
                l(7) =   2
                l(8) =   2
                l(9) =   2
               l(10) =   2
     Q(r) pseudized with 0 coefficients 


     atomic species   valence    mass     pseudopotential
        Sn            14.00   118.71000     Sn( 1.00)

     24 Sym. Ops. (no inversion) found
          (note: 24 additional sym.ops. were found but ignored
           their fractional translations are incommensurate with FFT grid)

                                    s                        frac. trans.

      isym =  1     identity                                     

 cryst.   s( 1) = (     1          0          0      )
                  (     0          1          0      )
                  (     0          0          1      )

 cart.    s( 1) = (  1.0000000  0.0000000  0.0000000 )
                  (  0.0000000  1.0000000  0.0000000 )
                  (  0.0000000  0.0000000  1.0000000 )


      isym =  2     180 deg rotation - cart. axis [0,0,1]        

 cryst.   s( 2) = (     0          1         -1      )
                  (     1          0         -1      )
                  (     0          0         -1      )

 cart.    s( 2) = ( -1.0000000  0.0000000  0.0000000 )
                  (  0.0000000 -1.0000000  0.0000000 )
                  (  0.0000000  0.0000000  1.0000000 )


      isym =  3     180 deg rotation - cart. axis [0,1,0]        

 cryst.   s( 3) = (     0         -1          1      )
                  (     0         -1          0      )
                  (     1         -1          0      )

 cart.    s( 3) = ( -1.0000000  0.0000000  0.0000000 )
                  (  0.0000000  1.0000000  0.0000000 )
                  (  0.0000000  0.0000000 -1.0000000 )


      isym =  4     180 deg rotation - cart. axis [1,0,0]        

 cryst.   s( 4) = (    -1          0          0      )
                  (    -1          0          1      )
                  (    -1          1          0      )

 cart.    s( 4) = (  1.0000000  0.0000000  0.0000000 )
                  (  0.0000000 -1.0000000  0.0000000 )
                  (  0.0000000  0.0000000 -1.0000000 )


      isym =  5     120 deg rotation - cart. axis [-1,-1,-1]     

 cryst.   s( 5) = (     0          0          1      )
                  (     1          0          0      )
                  (     0          1          0      )

 cart.    s( 5) = (  0.0000000  1.0000000  0.0000000 )
                  (  0.0000000  0.0000000  1.0000000 )
                  (  1.0000000  0.0000000  0.0000000 )


      isym =  6     120 deg rotation - cart. axis [-1,1,1]       

 cryst.   s( 6) = (     1         -1          0      )
                  (     0         -1          1      )
                  (     0         -1          0      )

 cart.    s( 6) = (  0.0000000 -1.0000000  0.0000000 )
                  (  0.0000000  0.0000000  1.0000000 )
                  ( -1.0000000  0.0000000  0.0000000 )


      isym =  7     120 deg rotation - cart. axis [1,1,-1]       

 cryst.   s( 7) = (    -1          1          0      )
                  (    -1          0          0      )
                  (    -1          0          1      )

 cart.    s( 7) = (  0.0000000  1.0000000  0.0000000 )
                  (  0.0000000  0.0000000 -1.0000000 )
                  ( -1.0000000  0.0000000  0.0000000 )


      isym =  8     120 deg rotation - cart. axis [1,-1,1]       

 cryst.   s( 8) = (     0          0         -1      )
                  (     0          1         -1      )
                  (     1          0         -1      )

 cart.    s( 8) = (  0.0000000 -1.0000000  0.0000000 )
                  (  0.0000000  0.0000000 -1.0000000 )
                  (  1.0000000  0.0000000  0.0000000 )


      isym =  9     120 deg rotation - cart. axis [1,1,1]        

 cryst.   s( 9) = (     0          1          0      )
                  (     0          0          1      )
                  (     1          0          0      )

 cart.    s( 9) = (  0.0000000  0.0000000  1.0000000 )
                  (  1.0000000  0.0000000  0.0000000 )
                  (  0.0000000  1.0000000  0.0000000 )


      isym = 10     120 deg rotation - cart. axis [-1,1,-1]      

 cryst.   s(10) = (    -1          0          1      )
                  (    -1          1          0      )
                  (    -1          0          0      )

 cart.    s(10) = (  0.0000000  0.0000000  1.0000000 )
                  ( -1.0000000  0.0000000  0.0000000 )
                  (  0.0000000 -1.0000000  0.0000000 )


      isym = 11     120 deg rotation - cart. axis [1,-1,-1]      

 cryst.   s(11) = (     1          0         -1      )
                  (     0          0         -1      )
                  (     0          1         -1      )

 cart.    s(11) = (  0.0000000  0.0000000 -1.0000000 )
                  ( -1.0000000  0.0000000  0.0000000 )
                  (  0.0000000  1.0000000  0.0000000 )


      isym = 12     120 deg rotation - cart. axis [-1,-1,1]      

 cryst.   s(12) = (     0         -1          0      )
                  (     1         -1          0      )
                  (     0         -1          1      )

 cart.    s(12) = (  0.0000000  0.0000000 -1.0000000 )
                  (  1.0000000  0.0000000  0.0000000 )
                  (  0.0000000 -1.0000000  0.0000000 )


      isym = 13     inv. 180 deg rotation - cart. axis [1,1,0]   

 cryst.   s(13) = (     1          0         -1      )
                  (     0          1         -1      )
                  (     0          0         -1      )

 cart.    s(13) = (  0.0000000 -1.0000000  0.0000000 )
                  ( -1.0000000  0.0000000  0.0000000 )
                  (  0.0000000  0.0000000  1.0000000 )


      isym = 14     inv. 180 deg rotation - cart. axis [1,-1,0]  

 cryst.   s(14) = (     0          1          0      )
                  (     1          0          0      )
                  (     0          0          1      )

 cart.    s(14) = (  0.0000000  1.0000000  0.0000000 )
                  (  1.0000000  0.0000000  0.0000000 )
                  (  0.0000000  0.0000000  1.0000000 )


      isym = 15     inv.  90 deg rotation - cart. axis [0,0,-1]  

 cryst.   s(15) = (     0         -1          0      )
                  (     0         -1          1      )
                  (     1         -1          0      )

 cart.    s(15) = (  0.0000000 -1.0000000  0.0000000 )
                  (  1.0000000  0.0000000  0.0000000 )
                  (  0.0000000  0.0000000 -1.0000000 )


      isym = 16     inv.  90 deg rotation - cart. axis [0,0,1]   

 cryst.   s(16) = (    -1          0          1      )
                  (    -1          0          0      )
                  (    -1          1          0      )

 cart.    s(16) = (  0.0000000  1.0000000  0.0000000 )
                  ( -1.0000000  0.0000000  0.0000000 )
                  (  0.0000000  0.0000000 -1.0000000 )


      isym = 17     inv. 180 deg rotation - cart. axis [1,0,1]   

 cryst.   s(17) = (     1         -1          0      )
                  (     0         -1          0      )
                  (     0         -1          1      )

 cart.    s(17) = (  0.0000000  0.0000000 -1.0000000 )
                  (  0.0000000  1.0000000  0.0000000 )
                  ( -1.0000000  0.0000000  0.0000000 )


      isym = 18     inv. 180 deg rotation - cart. axis [-1,0,1]  

 cryst.   s(18) = (     0          0          1      )
                  (     0          1          0      )
                  (     1          0          0      )

 cart.    s(18) = (  0.0000000  0.0000000  1.0000000 )
                  (  0.0000000  1.0000000  0.0000000 )
                  (  1.0000000  0.0000000  0.0000000 )


      isym = 19     inv.  90 deg rotation - cart. axis [0,1,0]   

 cryst.   s(19) = (     0          0         -1      )
                  (     1          0         -1      )
                  (     0          1         -1      )

 cart.    s(19) = (  0.0000000  0.0000000 -1.0000000 )
                  (  0.0000000 -1.0000000  0.0000000 )
                  (  1.0000000  0.0000000  0.0000000 )


      isym = 20     inv.  90 deg rotation - cart. axis [0,-1,0]  

 cryst.   s(20) = (    -1          1          0      )
                  (    -1          0          1      )
                  (    -1          0          0      )

 cart.    s(20) = (  0.0000000  0.0000000  1.0000000 )
                  (  0.0000000 -1.0000000  0.0000000 )
                  ( -1.0000000  0.0000000  0.0000000 )


      isym = 21     inv. 180 deg rotation - cart. axis [0,1,1]   

 cryst.   s(21) = (    -1          0          0      )
                  (    -1          1          0      )
                  (    -1          0          1      )

 cart.    s(21) = (  1.0000000  0.0000000  0.0000000 )
                  (  0.0000000  0.0000000 -1.0000000 )
                  (  0.0000000 -1.0000000  0.0000000 )


      isym = 22     inv. 180 deg rotation - cart. axis [0,1,-1]  

 cryst.   s(22) = (     1          0          0      )
                  (     0          0          1      )
                  (     0          1          0      )

 cart.    s(22) = (  1.0000000  0.0000000  0.0000000 )
                  (  0.0000000  0.0000000  1.0000000 )
                  (  0.0000000  1.0000000  0.0000000 )


      isym = 23     inv.  90 deg rotation - cart. axis [-1,0,0]  

 cryst.   s(23) = (     0          1         -1      )
                  (     0          0         -1      )
                  (     1          0         -1      )

 cart.    s(23) = ( -1.0000000  0.0000000  0.0000000 )
                  (  0.0000000  0.0000000 -1.0000000 )
                  (  0.0000000  1.0000000  0.0000000 )


      isym = 24     inv.  90 deg rotation - cart. axis [1,0,0]   

 cryst.   s(24) = (     0         -1          1      )
                  (     1         -1          0      )
                  (     0         -1          0      )

 cart.    s(24) = ( -1.0000000  0.0000000  0.0000000 )
                  (  0.0000000  0.0000000  1.0000000 )
                  (  0.0000000 -1.0000000  0.0000000 )


   Cartesian axes

     site n.     atom                  positions (alat units)
         1           Sn  tau(   1) = (   0.0000000   0.0000000   0.0000000  )
         2           Sn  tau(   2) = (   0.3535534   0.3535534   0.3535534  )

   Crystallographic axes

     site n.     atom                  positions (cryst. coord.)
         1           Sn  tau(   1) = (  0.0000000  0.0000000  0.0000000  )
         2           Sn  tau(   2) = (  0.2500000  0.2500000  0.2500000  )

     number of k points=   145  gaussian smearing, width (Ry)=  0.0001
                       cart. coord. in units 2pi/alat
        k(    1) = (   0.0000000   0.0000000   0.0000000), wk =   0.0002441
        k(    2) = (   0.0441942   0.0441942  -0.0441942), wk =   0.0019531
        k(    3) = (   0.0883883   0.0883883  -0.0883883), wk =   0.0019531
        k(    4) = (   0.1325825   0.1325825  -0.1325825), wk =   0.0019531
        k(    5) = (   0.1767767   0.1767767  -0.1767767), wk =   0.0019531
        k(    6) = (   0.2209709   0.2209709  -0.2209709), wk =   0.0019531
        k(    7) = (   0.2651650   0.2651650  -0.2651650), wk =   0.0019531
        k(    8) = (   0.3093592   0.3093592  -0.3093592), wk =   0.0019531
        k(    9) = (  -0.3535534  -0.3535534   0.3535534), wk =   0.0009766
        k(   10) = (   0.0883883   0.0000000   0.0000000), wk =   0.0014648
        k(   11) = (   0.1325825   0.0441942  -0.0441942), wk =   0.0058594
        k(   12) = (   0.1767767   0.0883883  -0.0883883), wk =   0.0058594
        k(   13) = (   0.2209709   0.1325825  -0.1325825), wk =   0.0058594
        k(   14) = (   0.2651650   0.1767767  -0.1767767), wk =   0.0058594
        k(   15) = (   0.3093592   0.2209709  -0.2209709), wk =   0.0058594
        k(   16) = (   0.3535534   0.2651650  -0.2651650), wk =   0.0058594
        k(   17) = (  -0.3093592  -0.3977476   0.3977476), wk =   0.0058594
        k(   18) = (  -0.2651650  -0.3535534   0.3535534), wk =   0.0058594
        k(   19) = (  -0.2209709  -0.3093592   0.3093592), wk =   0.0058594
        k(   20) = (  -0.1767767  -0.2651650   0.2651650), wk =   0.0058594
        k(   21) = (  -0.1325825  -0.2209709   0.2209709), wk =   0.0058594
        k(   22) = (  -0.0883883  -0.1767767   0.1767767), wk =   0.0058594
        k(   23) = (  -0.0441942  -0.1325825   0.1325825), wk =   0.0058594
        k(   24) = (   0.0000000  -0.0883883   0.0883883), wk =   0.0029297
        k(   25) = (   0.1767767   0.0000000   0.0000000), wk =   0.0014648
        k(   26) = (   0.2209709   0.0441942  -0.0441942), wk =   0.0058594
        k(   27) = (   0.2651650   0.0883883  -0.0883883), wk =   0.0058594
        k(   28) = (   0.3093592   0.1325825  -0.1325825), wk =   0.0058594
        k(   29) = (   0.3535534   0.1767767  -0.1767767), wk =   0.0058594
        k(   30) = (   0.3977476   0.2209709  -0.2209709), wk =   0.0058594
        k(   31) = (  -0.2651650  -0.4419417   0.4419417), wk =   0.0058594
        k(   32) = (  -0.2209709  -0.3977476   0.3977476), wk =   0.0058594
        k(   33) = (  -0.1767767  -0.3535534   0.3535534), wk =   0.0058594
        k(   34) = (  -0.1325825  -0.3093592   0.3093592), wk =   0.0058594
        k(   35) = (  -0.0883883  -0.2651650   0.2651650), wk =   0.0058594
        k(   36) = (  -0.0441942  -0.2209709   0.2209709), wk =   0.0058594
        k(   37) = (   0.0000000  -0.1767767   0.1767767), wk =   0.0029297
        k(   38) = (   0.2651650   0.0000000   0.0000000), wk =   0.0014648
        k(   39) = (   0.3093592   0.0441942  -0.0441942), wk =   0.0058594
        k(   40) = (   0.3535534   0.0883883  -0.0883883), wk =   0.0058594
        k(   41) = (   0.3977476   0.1325825  -0.1325825), wk =   0.0058594
        k(   42) = (   0.4419417   0.1767767  -0.1767767), wk =   0.0058594
        k(   43) = (  -0.2209709  -0.4861359   0.4861359), wk =   0.0058594
        k(   44) = (  -0.1767767  -0.4419417   0.4419417), wk =   0.0058594
        k(   45) = (  -0.1325825  -0.3977476   0.3977476), wk =   0.0058594
        k(   46) = (  -0.0883883  -0.3535534   0.3535534), wk =   0.0058594
        k(   47) = (  -0.0441942  -0.3093592   0.3093592), wk =   0.0058594
        k(   48) = (   0.0000000  -0.2651650   0.2651650), wk =   0.0029297
        k(   49) = (   0.3535534   0.0000000   0.0000000), wk =   0.0014648
        k(   50) = (   0.3977476   0.0441942  -0.0441942), wk =   0.0058594
        k(   51) = (   0.4419417   0.0883883  -0.0883883), wk =   0.0058594
        k(   52) = (   0.4861359   0.1325825  -0.1325825), wk =   0.0058594
        k(   53) = (  -0.1767767  -0.5303301   0.5303301), wk =   0.0058594
        k(   54) = (  -0.1325825  -0.4861359   0.4861359), wk =   0.0058594
        k(   55) = (  -0.0883883  -0.4419417   0.4419417), wk =   0.0058594
        k(   56) = (  -0.0441942  -0.3977476   0.3977476), wk =   0.0058594
        k(   57) = (   0.0000000  -0.3535534   0.3535534), wk =   0.0029297
        k(   58) = (   0.4419417   0.0000000   0.0000000), wk =   0.0014648
        k(   59) = (   0.4861359   0.0441942  -0.0441942), wk =   0.0058594
        k(   60) = (   0.5303301   0.0883883  -0.0883883), wk =   0.0058594
        k(   61) = (  -0.1325825  -0.5745243   0.5745243), wk =   0.0058594
        k(   62) = (  -0.0883883  -0.5303301   0.5303301), wk =   0.0058594
        k(   63) = (  -0.0441942  -0.4861359   0.4861359), wk =   0.0058594
        k(   64) = (   0.0000000  -0.4419417   0.4419417), wk =   0.0029297
        k(   65) = (   0.5303301   0.0000000   0.0000000), wk =   0.0014648
        k(   66) = (   0.5745243   0.0441942  -0.0441942), wk =   0.0058594
        k(   67) = (  -0.0883883  -0.6187184   0.6187184), wk =   0.0058594
        k(   68) = (  -0.0441942  -0.5745243   0.5745243), wk =   0.0058594
        k(   69) = (   0.0000000  -0.5303301   0.5303301), wk =   0.0029297
        k(   70) = (   0.6187184   0.0000000   0.0000000), wk =   0.0014648
        k(   71) = (  -0.0441942  -0.6629126   0.6629126), wk =   0.0058594
        k(   72) = (   0.0000000  -0.6187184   0.6187184), wk =   0.0029297
        k(   73) = (  -0.7071068   0.0000000   0.0000000), wk =   0.0007324
        k(   74) = (   0.1767767   0.0883883   0.0000000), wk =   0.0058594
        k(   75) = (   0.2209709   0.1325825  -0.0441942), wk =   0.0117188
        k(   76) = (   0.2651650   0.1767767  -0.0883883), wk =   0.0117188
        k(   77) = (   0.3093592   0.2209709  -0.1325825), wk =   0.0117188
        k(   78) = (   0.3535534   0.2651650  -0.1767767), wk =   0.0117188
        k(   79) = (  -0.3093592  -0.3977476   0.4861359), wk =   0.0117188
        k(   80) = (  -0.2651650  -0.3535534   0.4419417), wk =   0.0058594
        k(   81) = (   0.2651650   0.0883883   0.0000000), wk =   0.0058594
        k(   82) = (   0.3093592   0.1325825  -0.0441942), wk =   0.0117188
        k(   83) = (   0.3535534   0.1767767  -0.0883883), wk =   0.0117188
        k(   84) = (   0.3977476   0.2209709  -0.1325825), wk =   0.0117188
        k(   85) = (  -0.2651650  -0.4419417   0.5303301), wk =   0.0117188
        k(   86) = (  -0.2209709  -0.3977476   0.4861359), wk =   0.0117188
        k(   87) = (  -0.1767767  -0.3535534   0.4419417), wk =   0.0117188
        k(   88) = (  -0.1325825  -0.3093592   0.3977476), wk =   0.0117188
        k(   89) = (  -0.0883883  -0.2651650   0.3535534), wk =   0.0117188
        k(   90) = (  -0.0441942  -0.2209709   0.3093592), wk =   0.0117188
        k(   91) = (   0.0000000  -0.1767767   0.2651650), wk =   0.0058594
        k(   92) = (   0.3535534   0.0883883   0.0000000), wk =   0.0058594
        k(   93) = (   0.3977476   0.1325825  -0.0441942), wk =   0.0117188
        k(   94) = (   0.4419417   0.1767767  -0.0883883), wk =   0.0117188
        k(   95) = (  -0.2209709  -0.4861359   0.5745243), wk =   0.0117188
        k(   96) = (  -0.1767767  -0.4419417   0.5303301), wk =   0.0117188
        k(   97) = (  -0.1325825  -0.3977476   0.4861359), wk =   0.0117188
        k(   98) = (  -0.0883883  -0.3535534   0.4419417), wk =   0.0117188
        k(   99) = (  -0.0441942  -0.3093592   0.3977476), wk =   0.0117188
        k(  100) = (   0.0000000  -0.2651650   0.3535534), wk =   0.0058594
        k(  101) = (   0.4419417   0.0883883   0.0000000), wk =   0.0058594
        k(  102) = (   0.4861359   0.1325825  -0.0441942), wk =   0.0117188
        k(  103) = (  -0.1767767  -0.5303301   0.6187184), wk =   0.0117188
        k(  104) = (  -0.1325825  -0.4861359   0.5745243), wk =   0.0117188
        k(  105) = (  -0.0883883  -0.4419417   0.5303301), wk =   0.0117188
        k(  106) = (  -0.0441942  -0.3977476   0.4861359), wk =   0.0117188
        k(  107) = (   0.0000000  -0.3535534   0.4419417), wk =   0.0058594
        k(  108) = (   0.5303301   0.0883883   0.0000000), wk =   0.0058594
        k(  109) = (  -0.1325825  -0.5745243   0.6629126), wk =   0.0117188
        k(  110) = (  -0.0883883  -0.5303301   0.6187184), wk =   0.0117188
        k(  111) = (  -0.0441942  -0.4861359   0.5745243), wk =   0.0117188
        k(  112) = (   0.0000000  -0.4419417   0.5303301), wk =   0.0058594
        k(  113) = (  -0.0883883  -0.6187184   0.7071068), wk =   0.0058594
        k(  114) = (  -0.0441942  -0.5745243   0.6629126), wk =   0.0117188
        k(  115) = (  -0.0000000  -0.5303301   0.6187184), wk =   0.0058594
        k(  116) = (  -0.7071068   0.0883883   0.0000000), wk =   0.0029297
        k(  117) = (   0.3535534   0.1767767   0.0000000), wk =   0.0058594
        k(  118) = (   0.3977476   0.2209709  -0.0441942), wk =   0.0117188
        k(  119) = (  -0.2651650  -0.4419417   0.6187184), wk =   0.0117188
        k(  120) = (  -0.2209709  -0.3977476   0.5745243), wk =   0.0117188
        k(  121) = (  -0.1767767  -0.3535534   0.5303301), wk =   0.0058594
        k(  122) = (   0.4419417   0.1767767   0.0000000), wk =   0.0058594
        k(  123) = (  -0.2209709  -0.4861359   0.6629126), wk =   0.0117188
        k(  124) = (  -0.1767767  -0.4419417   0.6187184), wk =   0.0117188
        k(  125) = (  -0.1325825  -0.3977476   0.5745243), wk =   0.0117188
        k(  126) = (  -0.0883883  -0.3535534   0.5303301), wk =   0.0117188
        k(  127) = (  -0.0441942  -0.3093592   0.4861359), wk =   0.0117188
        k(  128) = (   0.0000000  -0.2651650   0.4419417), wk =   0.0058594
        k(  129) = (  -0.1767767  -0.5303301   0.7071068), wk =   0.0058594
        k(  130) = (  -0.1325825  -0.4861359   0.6629126), wk =   0.0117188
        k(  131) = (  -0.0883883  -0.4419417   0.6187184), wk =   0.0117188
        k(  132) = (  -0.0441942  -0.3977476   0.5745243), wk =   0.0117188
        k(  133) = (   0.0000000  -0.3535534   0.5303301), wk =   0.0058594
        k(  134) = (  -0.0883883  -0.5303301   0.7071068), wk =   0.0058594
        k(  135) = (  -0.0441942  -0.4861359   0.6629126), wk =   0.0117188
        k(  136) = (   0.0000000  -0.4419417   0.6187184), wk =   0.0058594
        k(  137) = (  -0.7071068   0.1767767   0.0000000), wk =   0.0029297
        k(  138) = (  -0.1767767  -0.4419417   0.7071068), wk =   0.0058594
        k(  139) = (  -0.1325825  -0.3977476   0.6629126), wk =   0.0117188
        k(  140) = (  -0.0883883  -0.3535534   0.6187184), wk =   0.0058594
        k(  141) = (  -0.0883883  -0.4419417   0.7071068), wk =   0.0058594
        k(  142) = (  -0.0441942  -0.3977476   0.6629126), wk =   0.0117188
        k(  143) = (  -0.0000000  -0.3535534   0.6187184), wk =   0.0058594
        k(  144) = (  -0.7071068   0.2651650   0.0000000), wk =   0.0029297
        k(  145) = (  -0.7071068   0.3535534   0.0000000), wk =   0.0014648

                       cryst. coord.
        k(    1) = (   0.0000000   0.0000000   0.0000000), wk =   0.0002441
        k(    2) = (   0.0000000   0.0000000   0.0625000), wk =   0.0019531
        k(    3) = (   0.0000000   0.0000000   0.1250000), wk =   0.0019531
        k(    4) = (   0.0000000   0.0000000   0.1875000), wk =   0.0019531
        k(    5) = (   0.0000000   0.0000000   0.2500000), wk =   0.0019531
        k(    6) = (   0.0000000   0.0000000   0.3125000), wk =   0.0019531
        k(    7) = (   0.0000000   0.0000000   0.3750000), wk =   0.0019531
        k(    8) = (   0.0000000   0.0000000   0.4375000), wk =   0.0019531
        k(    9) = (   0.0000000   0.0000000  -0.5000000), wk =   0.0009766
        k(   10) = (   0.0000000   0.0625000   0.0625000), wk =   0.0014648
        k(   11) = (   0.0000000   0.0625000   0.1250000), wk =   0.0058594
        k(   12) = (   0.0000000   0.0625000   0.1875000), wk =   0.0058594
        k(   13) = (   0.0000000   0.0625000   0.2500000), wk =   0.0058594
        k(   14) = (   0.0000000   0.0625000   0.3125000), wk =   0.0058594
        k(   15) = (   0.0000000   0.0625000   0.3750000), wk =   0.0058594
        k(   16) = (   0.0000000   0.0625000   0.4375000), wk =   0.0058594
        k(   17) = (   0.0000000   0.0625000  -0.5000000), wk =   0.0058594
        k(   18) = (   0.0000000   0.0625000  -0.4375000), wk =   0.0058594
        k(   19) = (   0.0000000   0.0625000  -0.3750000), wk =   0.0058594
        k(   20) = (   0.0000000   0.0625000  -0.3125000), wk =   0.0058594
        k(   21) = (   0.0000000   0.0625000  -0.2500000), wk =   0.0058594
        k(   22) = (   0.0000000   0.0625000  -0.1875000), wk =   0.0058594
        k(   23) = (   0.0000000   0.0625000  -0.1250000), wk =   0.0058594
        k(   24) = (   0.0000000   0.0625000  -0.0625000), wk =   0.0029297
        k(   25) = (   0.0000000   0.1250000   0.1250000), wk =   0.0014648
        k(   26) = (   0.0000000   0.1250000   0.1875000), wk =   0.0058594
        k(   27) = (   0.0000000   0.1250000   0.2500000), wk =   0.0058594
        k(   28) = (   0.0000000   0.1250000   0.3125000), wk =   0.0058594
        k(   29) = (   0.0000000   0.1250000   0.3750000), wk =   0.0058594
        k(   30) = (   0.0000000   0.1250000   0.4375000), wk =   0.0058594
        k(   31) = (   0.0000000   0.1250000  -0.5000000), wk =   0.0058594
        k(   32) = (   0.0000000   0.1250000  -0.4375000), wk =   0.0058594
        k(   33) = (   0.0000000   0.1250000  -0.3750000), wk =   0.0058594
        k(   34) = (   0.0000000   0.1250000  -0.3125000), wk =   0.0058594
        k(   35) = (   0.0000000   0.1250000  -0.2500000), wk =   0.0058594
        k(   36) = (   0.0000000   0.1250000  -0.1875000), wk =   0.0058594
        k(   37) = (   0.0000000   0.1250000  -0.1250000), wk =   0.0029297
        k(   38) = (   0.0000000   0.1875000   0.1875000), wk =   0.0014648
        k(   39) = (   0.0000000   0.1875000   0.2500000), wk =   0.0058594
        k(   40) = (   0.0000000   0.1875000   0.3125000), wk =   0.0058594
        k(   41) = (   0.0000000   0.1875000   0.3750000), wk =   0.0058594
        k(   42) = (   0.0000000   0.1875000   0.4375000), wk =   0.0058594
        k(   43) = (   0.0000000   0.1875000  -0.5000000), wk =   0.0058594
        k(   44) = (   0.0000000   0.1875000  -0.4375000), wk =   0.0058594
        k(   45) = (   0.0000000   0.1875000  -0.3750000), wk =   0.0058594
        k(   46) = (   0.0000000   0.1875000  -0.3125000), wk =   0.0058594
        k(   47) = (   0.0000000   0.1875000  -0.2500000), wk =   0.0058594
        k(   48) = (   0.0000000   0.1875000  -0.1875000), wk =   0.0029297
        k(   49) = (   0.0000000   0.2500000   0.2500000), wk =   0.0014648
        k(   50) = (   0.0000000   0.2500000   0.3125000), wk =   0.0058594
        k(   51) = (   0.0000000   0.2500000   0.3750000), wk =   0.0058594
        k(   52) = (   0.0000000   0.2500000   0.4375000), wk =   0.0058594
        k(   53) = (   0.0000000   0.2500000  -0.5000000), wk =   0.0058594
        k(   54) = (   0.0000000   0.2500000  -0.4375000), wk =   0.0058594
        k(   55) = (   0.0000000   0.2500000  -0.3750000), wk =   0.0058594
        k(   56) = (   0.0000000   0.2500000  -0.3125000), wk =   0.0058594
        k(   57) = (   0.0000000   0.2500000  -0.2500000), wk =   0.0029297
        k(   58) = (   0.0000000   0.3125000   0.3125000), wk =   0.0014648
        k(   59) = (   0.0000000   0.3125000   0.3750000), wk =   0.0058594
        k(   60) = (   0.0000000   0.3125000   0.4375000), wk =   0.0058594
        k(   61) = (   0.0000000   0.3125000  -0.5000000), wk =   0.0058594
        k(   62) = (   0.0000000   0.3125000  -0.4375000), wk =   0.0058594
        k(   63) = (   0.0000000   0.3125000  -0.3750000), wk =   0.0058594
        k(   64) = (   0.0000000   0.3125000  -0.3125000), wk =   0.0029297
        k(   65) = (   0.0000000   0.3750000   0.3750000), wk =   0.0014648
        k(   66) = (   0.0000000   0.3750000   0.4375000), wk =   0.0058594
        k(   67) = (   0.0000000   0.3750000  -0.5000000), wk =   0.0058594
        k(   68) = (   0.0000000   0.3750000  -0.4375000), wk =   0.0058594
        k(   69) = (   0.0000000   0.3750000  -0.3750000), wk =   0.0029297
        k(   70) = (   0.0000000   0.4375000   0.4375000), wk =   0.0014648
        k(   71) = (   0.0000000   0.4375000  -0.5000000), wk =   0.0058594
        k(   72) = (   0.0000000   0.4375000  -0.4375000), wk =   0.0029297
        k(   73) = (   0.0000000  -0.5000000  -0.5000000), wk =   0.0007324
        k(   74) = (   0.0625000   0.1250000   0.1875000), wk =   0.0058594
        k(   75) = (   0.0625000   0.1250000   0.2500000), wk =   0.0117188
        k(   76) = (   0.0625000   0.1250000   0.3125000), wk =   0.0117188
        k(   77) = (   0.0625000   0.1250000   0.3750000), wk =   0.0117188
        k(   78) = (   0.0625000   0.1250000   0.4375000), wk =   0.0117188
        k(   79) = (   0.0625000   0.1250000  -0.5000000), wk =   0.0117188
        k(   80) = (   0.0625000   0.1250000  -0.4375000), wk =   0.0058594
        k(   81) = (   0.0625000   0.1875000   0.2500000), wk =   0.0058594
        k(   82) = (   0.0625000   0.1875000   0.3125000), wk =   0.0117188
        k(   83) = (   0.0625000   0.1875000   0.3750000), wk =   0.0117188
        k(   84) = (   0.0625000   0.1875000   0.4375000), wk =   0.0117188
        k(   85) = (   0.0625000   0.1875000  -0.5000000), wk =   0.0117188
        k(   86) = (   0.0625000   0.1875000  -0.4375000), wk =   0.0117188
        k(   87) = (   0.0625000   0.1875000  -0.3750000), wk =   0.0117188
        k(   88) = (   0.0625000   0.1875000  -0.3125000), wk =   0.0117188
        k(   89) = (   0.0625000   0.1875000  -0.2500000), wk =   0.0117188
        k(   90) = (   0.0625000   0.1875000  -0.1875000), wk =   0.0117188
        k(   91) = (   0.0625000   0.1875000  -0.1250000), wk =   0.0058594
        k(   92) = (   0.0625000   0.2500000   0.3125000), wk =   0.0058594
        k(   93) = (   0.0625000   0.2500000   0.3750000), wk =   0.0117188
        k(   94) = (   0.0625000   0.2500000   0.4375000), wk =   0.0117188
        k(   95) = (   0.0625000   0.2500000  -0.5000000), wk =   0.0117188
        k(   96) = (   0.0625000   0.2500000  -0.4375000), wk =   0.0117188
        k(   97) = (   0.0625000   0.2500000  -0.3750000), wk =   0.0117188
        k(   98) = (   0.0625000   0.2500000  -0.3125000), wk =   0.0117188
        k(   99) = (   0.0625000   0.2500000  -0.2500000), wk =   0.0117188
        k(  100) = (   0.0625000   0.2500000  -0.1875000), wk =   0.0058594
        k(  101) = (   0.0625000   0.3125000   0.3750000), wk =   0.0058594
        k(  102) = (   0.0625000   0.3125000   0.4375000), wk =   0.0117188
        k(  103) = (   0.0625000   0.3125000  -0.5000000), wk =   0.0117188
        k(  104) = (   0.0625000   0.3125000  -0.4375000), wk =   0.0117188
        k(  105) = (   0.0625000   0.3125000  -0.3750000), wk =   0.0117188
        k(  106) = (   0.0625000   0.3125000  -0.3125000), wk =   0.0117188
        k(  107) = (   0.0625000   0.3125000  -0.2500000), wk =   0.0058594
        k(  108) = (   0.0625000   0.3750000   0.4375000), wk =   0.0058594
        k(  109) = (   0.0625000   0.3750000  -0.5000000), wk =   0.0117188
        k(  110) = (   0.0625000   0.3750000  -0.4375000), wk =   0.0117188
        k(  111) = (   0.0625000   0.3750000  -0.3750000), wk =   0.0117188
        k(  112) = (   0.0625000   0.3750000  -0.3125000), wk =   0.0058594
        k(  113) = (   0.0625000   0.4375000  -0.5000000), wk =   0.0058594
        k(  114) = (   0.0625000   0.4375000  -0.4375000), wk =   0.0117188
        k(  115) = (   0.0625000   0.4375000  -0.3750000), wk =   0.0058594
        k(  116) = (   0.0625000  -0.5000000  -0.4375000), wk =   0.0029297
        k(  117) = (   0.1250000   0.2500000   0.3750000), wk =   0.0058594
        k(  118) = (   0.1250000   0.2500000   0.4375000), wk =   0.0117188
        k(  119) = (   0.1250000   0.2500000  -0.5000000), wk =   0.0117188
        k(  120) = (   0.1250000   0.2500000  -0.4375000), wk =   0.0117188
        k(  121) = (   0.1250000   0.2500000  -0.3750000), wk =   0.0058594
        k(  122) = (   0.1250000   0.3125000   0.4375000), wk =   0.0058594
        k(  123) = (   0.1250000   0.3125000  -0.5000000), wk =   0.0117188
        k(  124) = (   0.1250000   0.3125000  -0.4375000), wk =   0.0117188
        k(  125) = (   0.1250000   0.3125000  -0.3750000), wk =   0.0117188
        k(  126) = (   0.1250000   0.3125000  -0.3125000), wk =   0.0117188
        k(  127) = (   0.1250000   0.3125000  -0.2500000), wk =   0.0117188
        k(  128) = (   0.1250000   0.3125000  -0.1875000), wk =   0.0058594
        k(  129) = (   0.1250000   0.3750000  -0.5000000), wk =   0.0058594
        k(  130) = (   0.1250000   0.3750000  -0.4375000), wk =   0.0117188
        k(  131) = (   0.1250000   0.3750000  -0.3750000), wk =   0.0117188
        k(  132) = (   0.1250000   0.3750000  -0.3125000), wk =   0.0117188
        k(  133) = (   0.1250000   0.3750000  -0.2500000), wk =   0.0058594
        k(  134) = (   0.1250000   0.4375000  -0.4375000), wk =   0.0058594
        k(  135) = (   0.1250000   0.4375000  -0.3750000), wk =   0.0117188
        k(  136) = (   0.1250000   0.4375000  -0.3125000), wk =   0.0058594
        k(  137) = (   0.1250000  -0.5000000  -0.3750000), wk =   0.0029297
        k(  138) = (   0.1875000   0.3750000  -0.4375000), wk =   0.0058594
        k(  139) = (   0.1875000   0.3750000  -0.3750000), wk =   0.0117188
        k(  140) = (   0.1875000   0.3750000  -0.3125000), wk =   0.0058594
        k(  141) = (   0.1875000   0.4375000  -0.3750000), wk =   0.0058594
        k(  142) = (   0.1875000   0.4375000  -0.3125000), wk =   0.0117188
        k(  143) = (   0.1875000   0.4375000  -0.2500000), wk =   0.0058594
        k(  144) = (   0.1875000  -0.5000000  -0.3125000), wk =   0.0029297
        k(  145) = (   0.2500000  -0.5000000  -0.2500000), wk =   0.0014648

     Dense  grid:    31283 G-vectors     FFT dimensions: (  45,  45,  45)

     Largest allocated arrays     est. size (Mb)     dimensions
        Kohn-Sham Wavefunctions         0.28 Mb     (     518,   36)
        NL pseudopotentials             0.27 Mb     (     259,   68)
        Each V/rho on FFT grid          0.09 Mb     (    6075)
        Each G-vector array             0.01 Mb     (    1958)
        G-vector shells                 0.00 Mb     (     301)
     Largest temporary arrays     est. size (Mb)     dimensions
        Auxiliary wavefunctions         1.14 Mb     (     518,  144)
        Each subspace H/S matrix        0.32 Mb     (     144,  144)
        Each <psi_i|beta_j> matrix      0.07 Mb     (      68,   2,   36)
        Arrays for rho mixing           0.74 Mb     (    6075,    8)

     Check: negative/imaginary core charge=   -0.000035    0.000000

     Initial potential from superposition of free atoms

     starting charge   27.99781, renormalised to   28.00000
     Starting wfc are   36 randomized atomic wfcs
     Checking if some PAW data can be deallocated... 

     total cpu time spent up to now is       13.7 secs

     Self-consistent Calculation

     iteration #  1     ecut=    60.00 Ry     beta=0.70
     Davidson diagonalization with overlap
     ethr =  1.00E-02,  avg # of iterations =  4.0

     Threshold (ethr) on eigenvalues was too large:
     Diagonalizing with lowered threshold

     Davidson diagonalization with overlap
     ethr =  4.55E-05,  avg # of iterations =  4.2

     total cpu time spent up to now is      113.9 secs

     total energy              =    -885.88427979 Ry
     Harris-Foulkes estimate   =    -885.88712369 Ry
     estimated scf accuracy    <       0.01966754 Ry

     iteration #  2     ecut=    60.00 Ry     beta=0.70
     Davidson diagonalization with overlap
     ethr =  7.02E-05,  avg # of iterations =  1.0

     total cpu time spent up to now is      145.1 secs

     total energy              =    -885.88447269 Ry
     Harris-Foulkes estimate   =    -885.88474751 Ry
     estimated scf accuracy    <       0.00145484 Ry

     iteration #  3     ecut=    60.00 Ry     beta=0.70
     Davidson diagonalization with overlap
     ethr =  5.20E-06,  avg # of iterations =  2.5

     total cpu time spent up to now is      183.6 secs

     total energy              =    -885.88468266 Ry
     Harris-Foulkes estimate   =    -885.88475413 Ry
     estimated scf accuracy    <       0.00009390 Ry

     iteration #  4     ecut=    60.00 Ry     beta=0.70
     Davidson diagonalization with overlap
     ethr =  3.35E-07,  avg # of iterations =  3.0

     total cpu time spent up to now is      230.0 secs

     total energy              =    -885.88473007 Ry
     Harris-Foulkes estimate   =    -885.88472943 Ry
     estimated scf accuracy    <       0.00000476 Ry

     iteration #  5     ecut=    60.00 Ry     beta=0.70
     Davidson diagonalization with overlap
     ethr =  1.70E-08,  avg # of iterations =  2.0

     total cpu time spent up to now is      264.4 secs

     End of self-consistent calculation

          k = 0.0000 0.0000 0.0000 (  3839 PWs)   bands (ev):

   -14.5159 -14.5159 -14.5159 -14.5159 -14.4360 -14.4360 -14.4360 -14.4360
   -13.5883 -13.5883 -13.4195 -13.4195 -13.4195 -13.4195 -13.3819 -13.3819
   -13.3819 -13.3819 -13.2802 -13.2802  -2.5355  -2.5355   6.3546   6.3546
     7.1850   7.1850   7.8363   7.8363   7.8363   7.8363   9.3659   9.3659
     9.8408   9.8408   9.8408   9.8408

     occupation numbers 
     1.0000   1.0000   1.0000   1.0000   1.0000   1.0000   1.0000   1.0000
     1.0000   1.0000   1.0000   1.0000   1.0000   1.0000   1.0000   1.0000
     1.0000   1.0000   1.0000   1.0000   1.0000   1.0000   1.0000   1.0000
     1.0000   1.0000   0.0000   0.0000   0.0000   0.0000   0.0000   0.0000
     0.0000   0.0000   0.0000   0.0000

          k = 0.0442 0.0442-0.0442 (  3879 PWs)   bands (ev):

   -14.5163 -14.5163 -14.5151 -14.5151 -14.4367 -14.4367 -14.4355 -14.4354
   -13.5865 -13.5865 -13.4244 -13.4244 -13.4226 -13.4225 -13.3787 -13.3786
   -13.3777 -13.3777 -13.2812 -13.2812  -2.5008  -2.5008   5.9461   5.9461
     7.2315   7.2315   7.7614   7.7614   7.8967   7.8967   9.5238   9.5238
     9.9250   9.9250   9.9380   9.9380

     occupation numbers 
     1.0000   1.0000   1.0000   1.0000   1.0000   1.0000   1.0000   1.0000
     1.0000   1.0000   1.0000   1.0000   1.0000   1.0000   1.0000   1.0000
     1.0000   1.0000   1.0000   1.0000   1.0000   1.0000   1.0000   1.0000
     1.0000   1.0000   0.0000   0.0000   0.0000   0.0000   0.0000   0.0000
     0.0000   0.0000   0.0000   0.0000

          k = 0.0884 0.0884-0.0884 (  3888 PWs)   bands (ev):

   -14.5174 -14.5173 -14.5129 -14.5129 -14.4389 -14.4389 -14.4341 -14.4340
   -13.5813 -13.5813 -13.4354 -13.4354 -13.4296 -13.4294 -13.3712 -13.3711
   -13.3688 -13.3688 -13.2839 -13.2839  -2.3975  -2.3975   5.1833   5.1833
     7.1252   7.1252   7.5796   7.5796   7.9440   7.9440   9.8509   9.8509
    10.1759  10.1759  10.2834  10.2834

     occupation numbers 
     1.0000   1.0000   1.0000   1.0000   1.0000   1.0000   1.0000   1.0000
     1.0000   1.0000   1.0000   1.0000   1.0000   1.0000   1.0000   1.0000
     1.0000   1.0000   1.0000   1.0000   1.0000   1.0000   1.0000   1.0000
     1.0000   1.0000   1.0000   1.0000   0.0000   0.0000   0.0000   0.0000
     0.0000   0.0000   0.0000   0.0000

          k = 0.1326 0.1326-0.1326 (  3900 PWs)   bands (ev):

   -14.5189 -14.5188 -14.5092 -14.5092 -14.4425 -14.4425 -14.4320 -14.4319
   -13.5732 -13.5732 -13.4483 -13.4483 -13.4374 -13.4373 -13.3625 -13.3624
   -13.3591 -13.3591 -13.2882 -13.2882  -2.2286  -2.2286   4.3554   4.3554
     6.9298   6.9298   7.3612   7.3612   7.8666   7.8666  10.1373  10.1373
    10.4512  10.4512  10.9545  10.9545

     occupation numbers 
     1.0000   1.0000   1.0000   1.0000   1.0000   1.0000   1.0000   1.0000
     1.0000   1.0000   1.0000   1.0000   1.0000   1.0000   1.0000   1.0000
     1.0000   1.0000   1.0000   1.0000   1.0000   1.0000   1.0000   1.0000
     1.0000   1.0000   1.0000   1.0000   0.0000   0.0000   0.0000   0.0000
     0.0000   0.0000   0.0000   0.0000

          k = 0.1768 0.1768-0.1768 (  3912 PWs)   bands (ev):

   -14.5205 -14.5204 -14.5044 -14.5044 -14.4471 -14.4471 -14.4297 -14.4296
   -13.5629 -13.5629 -13.4617 -13.4617 -13.4447 -13.4446 -13.3542 -13.3541
   -13.3498 -13.3498 -13.2937 -13.2937  -2.0004  -2.0004   3.5456   3.5456
     6.7297   6.7297   7.1523   7.1523   7.7288   7.7288  10.3686  10.3686
    10.6745  10.6745  11.7653  11.7653

     occupation numbers 
     1.0000   1.0000   1.0000   1.0000   1.0000   1.0000   1.0000   1.0000
     1.0000   1.0000   1.0000   1.0000   1.0000   1.0000   1.0000   1.0000
     1.0000   1.0000   1.0000   1.0000   1.0000   1.0000   1.0000   1.0000
     1.0000   1.0000   1.0000   1.0000   0.0000   0.0000   0.0000   0.0000
     0.0000   0.0000   0.0000   0.0000

          k = 0.2210 0.2210-0.2210 (  3897 PWs)   bands (ev):

   -14.5220 -14.5219 -14.4988 -14.4988 -14.4525 -14.4525 -14.4275 -14.4275
   -13.5511 -13.5511 -13.4749 -13.4749 -13.4509 -13.4508 -13.3470 -13.3469
   -13.3414 -13.3414 -13.3000 -13.3000  -1.7259  -1.7259   2.7990   2.7990
     6.5578   6.5578   6.9763   6.9763   7.5903   7.5903  10.5177  10.5177
    10.8011  10.8011  12.6282  12.6282

     occupation numbers 
     1.0000   1.0000   1.0000   1.0000   1.0000   1.0000   1.0000   1.0000
     1.0000   1.0000   1.0000   1.0000   1.0000   1.0000   1.0000   1.0000
     1.0000   1.0000   1.0000   1.0000   1.0000   1.0000   1.0000   1.0000
     1.0000   1.0000   1.0000   1.0000   0.1250   0.1250   0.0000   0.0000
     0.0000   0.0000   0.0000   0.0000

          k = 0.2652 0.2652-0.2652 (  3903 PWs)   bands (ev):

   -14.5231 -14.5231 -14.4927 -14.4927 -14.4584 -14.4584 -14.4258 -14.4257
   -13.5387 -13.5387 -13.4876 -13.4876 -13.4555 -13.4554 -13.3415 -13.3414
   -13.3339 -13.3339 -13.3068 -13.3068  -1.4331  -1.4331   2.1601   2.1601
     6.4285   6.4285   6.8450   6.8450   7.4798   7.4798  10.5873  10.5873
    10.8446  10.8446  13.2998  13.2998

     occupation numbers 
     1.0000   1.0000   1.0000   1.0000   1.0000   1.0000   1.0000   1.0000
     1.0000   1.0000   1.0000   1.0000   1.0000   1.0000   1.0000   1.0000
     1.0000   1.0000   1.0000   1.0000   1.0000   1.0000   1.0000   1.0000
     1.0000   1.0000   1.0000   1.0000   1.0000   1.0000   0.0000   0.0000
     0.0000   0.0000   0.0000   0.0000

          k = 0.3094 0.3094-0.3094 (  3903 PWs)   bands (ev):

   -14.5239 -14.5238 -14.4872 -14.4872 -14.4637 -14.4637 -14.4246 -14.4246
   -13.5264 -13.5264 -13.4997 -13.4997 -13.4583 -13.4583 -13.3381 -13.3380
   -13.3270 -13.3270 -13.3135 -13.3135  -1.1820  -1.1820   1.6982   1.6982
     6.3489   6.3489   6.7644   6.7644   7.4101   7.4101  10.6089  10.6089
    10.8479  10.8479  13.3389  13.3389

     occupation numbers 
     1.0000   1.0000   1.0000   1.0000   1.0000   1.0000   1.0000   1.0000
     1.0000   1.0000   1.0000   1.0000   1.0000   1.0000   1.0000   1.0000
     1.0000   1.0000   1.0000   1.0000   1.0000   1.0000   1.0000   1.0000
     1.0000   1.0000   1.0000   1.0000   1.0000   1.0000   0.0000   0.0000
     0.0000   0.0000   0.0000   0.0000

          k =-0.3536-0.3536 0.3536 (  3906 PWs)   bands (ev):

   -14.5241 -14.5241 -14.4846 -14.4846 -14.4663 -14.4663 -14.4242 -14.4242
   -13.5177 -13.5177 -13.5082 -13.5082 -13.4593 -13.4593 -13.3369 -13.3369
   -13.3215 -13.3215 -13.3190 -13.3190  -1.0758  -1.0758   1.5213   1.5213
     6.3220   6.3220   6.7372   6.7372   7.3864   7.3864  10.6125  10.6125
    10.8450  10.8450  13.3154  13.3154

     occupation numbers 
     1.0000   1.0000   1.0000   1.0000   1.0000   1.0000   1.0000   1.0000
     1.0000   1.0000   1.0000   1.0000   1.0000   1.0000   1.0000   1.0000
     1.0000   1.0000   1.0000   1.0000   1.0000   1.0000   1.0000   1.0000
     1.0000   1.0000   1.0000   1.0000   1.0000   1.0000   0.0000   0.0000
     0.0000   0.0000   0.0000   0.0000

          k = 0.0884 0.0000 0.0000 (  3883 PWs)   bands (ev):

   -14.5160 -14.5160 -14.5153 -14.5153 -14.4367 -14.4367 -14.4356 -14.4356
   -13.5859 -13.5859 -13.4268 -13.4268 -13.4225 -13.4225 -13.3780 -13.3780
   -13.3763 -13.3763 -13.2814 -13.2814  -2.4891  -2.4891   5.8653   5.8653
     7.1643   7.1643   7.5807   7.5807   8.1539   8.1539   9.4436   9.4436
     9.9368   9.9368  10.0721  10.0721

     occupation numbers 
     1.0000   1.0000   1.0000   1.0000   1.0000   1.0000   1.0000   1.0000
     1.0000   1.0000   1.0000   1.0000   1.0000   1.0000   1.0000   1.0000
     1.0000   1.0000   1.0000   1.0000   1.0000   1.0000   1.0000   1.0000
     1.0000   1.0000   1.0000   1.0000   0.0000   0.0000   0.0000   0.0000
     0.0000   0.0000   0.0000   0.0000

          k = 0.1326 0.0442-0.0442 (  3896 PWs)   bands (ev):

   -14.5168 -14.5167 -14.5136 -14.5136 -14.4383 -14.4383 -14.4346 -14.4345
   -13.5819 -13.5819 -13.4356 -13.4356 -13.4273 -13.4273 -13.3728 -13.3728
   -13.3691 -13.3691 -13.2835 -13.2835  -2.4085  -2.4085   5.2999   5.2999
     7.0254   7.0254   7.3700   7.3700   8.3567   8.3567   9.5132   9.5132
    10.2227  10.2227  10.3748  10.3748

     occupation numbers 
     1.0000   1.0000   1.0000   1.0000   1.0000   1.0000   1.0000   1.0000
     1.0000   1.0000   1.0000   1.0000   1.0000   1.0000   1.0000   1.0000
     1.0000   1.0000   1.0000   1.0000   1.0000   1.0000   1.0000   1.0000
     1.0000   1.0000   1.0000   1.0000   0.0000   0.0000   0.0000   0.0000
     0.0000   0.0000   0.0000   0.0000

          k = 0.1768 0.0884-0.0884 (  3893 PWs)   bands (ev):

   -14.5182 -14.5181 -14.5104 -14.5104 -14.4414 -14.4414 -14.4327 -14.4326
   -13.5748 -13.5748 -13.4473 -13.4473 -13.4343 -13.4342 -13.3663 -13.3663
   -13.3592 -13.3592 -13.2871 -13.2871  -2.2611  -2.2611   4.5477   4.5477
     6.8209   6.8210   7.1519   7.1519   8.3528   8.3528   9.7564   9.7565
    10.5566  10.5566  10.8904  10.8904

     occupation numbers 
     1.0000   1.0000   1.0000   1.0000   1.0000   1.0000   1.0000   1.0000
     1.0000   1.0000   1.0000   1.0000   1.0000   1.0000   1.0000   1.0000
     1.0000   1.0000   1.0000   1.0000   1.0000   1.0000   1.0000   1.0000
     1.0000   1.0000   1.0000   1.0000   0.0000   0.0000   0.0000   0.0000
     0.0000   0.0000   0.0000   0.0000

          k = 0.2210 0.1326-0.1326 (  3920 PWs)   bands (ev):

   -14.5198 -14.5197 -14.5060 -14.5060 -14.4457 -14.4457 -14.4304 -14.4303
   -13.5652 -13.5652 -13.4598 -13.4598 -13.4415 -13.4414 -13.3599 -13.3598
   -13.3492 -13.3491 -13.2918 -13.2918  -2.0517  -2.0517   3.7613   3.7613
     6.6054   6.6054   6.9345   6.9345   8.2366   8.2367  10.0604  10.0604
    10.8121  10.8121  11.5318  11.5318

     occupation numbers 
     1.0000   1.0000   1.0000   1.0000   1.0000   1.0000   1.0000   1.0000
     1.0000   1.0000   1.0000   1.0000   1.0000   1.0000   1.0000   1.0000
     1.0000   1.0000   1.0000   1.0000   1.0000   1.0000   1.0000   1.0000
     1.0000   1.0000   1.0000   1.0000   0.0000   0.0000   0.0000   0.0000
     0.0000   0.0000   0.0000   0.0000

          k = 0.2652 0.1768-0.1768 (  3914 PWs)   bands (ev):

   -14.5214 -14.5213 -14.5006 -14.5006 -14.4510 -14.4509 -14.4280 -14.4279
   -13.5540 -13.5540 -13.4723 -13.4723 -13.4480 -13.4479 -13.3541 -13.3540
   -13.3401 -13.3400 -13.2973 -13.2973  -1.7905  -1.7905   3.0091   3.0091
     6.4109   6.4109   6.7484   6.7484   8.0938   8.0938  10.3131  10.3131
    10.9529  10.9529  12.2107  12.2107

     occupation numbers 
     1.0000   1.0000   1.0000   1.0000   1.0000   1.0000   1.0000   1.0000
     1.0000   1.0000   1.0000   1.0000   1.0000   1.0000   1.0000   1.0000
     1.0000   1.0000   1.0000   1.0000   1.0000   1.0000   1.0000   1.0000
     1.0000   1.0000   1.0000   1.0000   0.0000   0.0000   0.0000   0.0000
     0.0000   0.0000   0.0000   0.0000

          k = 0.3094 0.2210-0.2210 (  3910 PWs)   bands (ev):

   -14.5227 -14.5226 -14.4947 -14.4946 -14.4568 -14.4567 -14.4261 -14.4260
   -13.5419 -13.5419 -13.4843 -13.4843 -13.4532 -13.4531 -13.3494 -13.3494
   -13.3325 -13.3325 -13.3029 -13.3028  -1.4989  -1.4989   2.3398   2.3398
     6.2508   6.2508   6.6138   6.6138   7.9664   7.9664  10.4693  10.4693
    10.9856  10.9856  12.8790  12.8790

     occupation numbers 
     1.0000   1.0000   1.0000   1.0000   1.0000   1.0000   1.0000   1.0000
     1.0000   1.0000   1.0000   1.0000   1.0000   1.0000   1.0000   1.0000
     1.0000   1.0000   1.0000   1.0000   1.0000   1.0000   1.0000   1.0000
     1.0000   1.0000   1.0000   1.0000   0.0000   0.0000   0.0000   0.0000
     0.0000   0.0000   0.0000   0.0000

          k = 0.3536 0.2652-0.2652 (  3909 PWs)   bands (ev):

   -14.5236 -14.5236 -14.4889 -14.4888 -14.4625 -14.4623 -14.4246 -14.4246
   -13.5300 -13.5300 -13.4957 -13.4957 -13.4568 -13.4567 -13.3462 -13.3461
   -13.3268 -13.3268 -13.3077 -13.3077  -1.2237  -1.2237   1.8146   1.8146
     6.1325   6.1325   6.5395   6.5395   7.8733   7.8733  10.5533  10.5533
    10.9554  10.9554  13.3204  13.3204

     occupation numbers 
     1.0000   1.0000   1.0000   1.0000   1.0000   1.0000   1.0000   1.0000
     1.0000   1.0000   1.0000   1.0000   1.0000   1.0000   1.0000   1.0000
     1.0000   1.0000   1.0000   1.0000   1.0000   1.0000   1.0000   1.0000
     1.0000   1.0000   1.0000   1.0000   0.0000   0.0000   0.0000   0.0000
     0.0000   0.0000   0.0000   0.0000

          k =-0.3094-0.3977 0.3977 (  3918 PWs)   bands (ev):

   -14.5240 -14.5240 -14.4849 -14.4847 -14.4665 -14.4663 -14.4239 -14.4239
   -13.5201 -13.5201 -13.5052 -13.5052 -13.4584 -13.4584 -13.3447 -13.3447
   -13.3235 -13.3235 -13.3107 -13.3107  -1.0561  -1.0561   1.5322   1.5322
     6.0620   6.0620   6.5273   6.5273   7.8231   7.8231  10.6047  10.6047
    10.9076  10.9076  13.4217  13.4217

     occupation numbers 
     1.0000   1.0000   1.0000   1.0000   1.0000   1.0000   1.0000   1.0000
     1.0000   1.0000   1.0000   1.0000   1.0000   1.0000   1.0000   1.0000
     1.0000   1.0000   1.0000   1.0000   1.0000   1.0000   1.0000   1.0000
     1.0000   1.0000   1.0000   1.0000   0.0000   0.0000   0.0000   0.0000
     0.0000   0.0000   0.0000   0.0000

          k =-0.2652-0.3536 0.3536 (  3919 PWs)   bands (ev):

   -14.5240 -14.5240 -14.4858 -14.4856 -14.4657 -14.4654 -14.4241 -14.4240
   -13.5229 -13.5229 -13.5025 -13.5025 -13.4581 -13.4580 -13.3452 -13.3452
   -13.3239 -13.3239 -13.3102 -13.3101  -1.0931  -1.0931   1.5924   1.5924
     6.0439   6.0439   6.5752   6.5752   7.8189   7.8189  10.6379  10.6379
    10.8720  10.8720  13.4337  13.4337

     occupation numbers 
     1.0000   1.0000   1.0000   1.0000   1.0000   1.0000   1.0000   1.0000
     1.0000   1.0000   1.0000   1.0000   1.0000   1.0000   1.0000   1.0000
     1.0000   1.0000   1.0000   1.0000   1.0000   1.0000   1.0000   1.0000
     1.0000   1.0000   1.0000   1.0000   0.0000   0.0000   0.0000   0.0000
     0.0000   0.0000   0.0000   0.0000

          k =-0.2210-0.3094 0.3094 (  3913 PWs)   bands (ev):

   -14.5234 -14.5234 -14.4906 -14.4905 -14.4608 -14.4607 -14.4250 -14.4249
   -13.5340 -13.5339 -13.4920 -13.4920 -13.4557 -13.4556 -13.3476 -13.3476
   -13.3279 -13.3278 -13.3064 -13.3064  -1.3096  -1.3096   1.9696   1.9696
     6.0818   6.0818   6.6790   6.6790   7.8600   7.8601  10.6317  10.6317
    10.8630  10.8630  13.3089  13.3089

     occupation numbers 
     1.0000   1.0000   1.0000   1.0000   1.0000   1.0000   1.0000   1.0000
     1.0000   1.0000   1.0000   1.0000   1.0000   1.0000   1.0000   1.0000
     1.0000   1.0000   1.0000   1.0000   1.0000   1.0000   1.0000   1.0000
     1.0000   1.0000   1.0000   1.0000   0.0000   0.0000   0.0000   0.0000
     0.0000   0.0000   0.0000   0.0000

          k =-0.1768-0.2652 0.2652 (  3918 PWs)   bands (ev):

   -14.5224 -14.5223 -14.4966 -14.4965 -14.4550 -14.4549 -14.4266 -14.4265
   -13.5460 -13.5460 -13.4804 -13.4804 -13.4515 -13.4514 -13.3516 -13.3516
   -13.3340 -13.3340 -13.3012 -13.3012  -1.5979  -1.5979   2.5516   2.5516
     6.1778   6.1778   6.8322   6.8322   7.9419   7.9419  10.5572  10.5572
    10.8521  10.8521  12.7321  12.7321

     occupation numbers 
     1.0000   1.0000   1.0000   1.0000   1.0000   1.0000   1.0000   1.0000
     1.0000   1.0000   1.0000   1.0000   1.0000   1.0000   1.0000   1.0000
     1.0000   1.0000   1.0000   1.0000   1.0000   1.0000   1.0000   1.0000
     1.0000   1.0000   1.0000   1.0000   0.0000   0.0000   0.0000   0.0000
     0.0000   0.0000   0.0000   0.0000

          k =-0.1326-0.2210 0.2210 (  3918 PWs)   bands (ev):

   -14.5210 -14.5209 -14.5023 -14.5023 -14.4494 -14.4493 -14.4286 -14.4285
   -13.5579 -13.5579 -13.4682 -13.4682 -13.4458 -13.4456 -13.3569 -13.3568
   -13.3420 -13.3419 -13.2956 -13.2956  -1.8828  -1.8828   3.2530   3.2530
     6.3323   6.3323   7.0244   7.0244   8.0524   8.0524  10.4004  10.4004
    10.7569  10.7569  12.0035  12.0035

     occupation numbers 
     1.0000   1.0000   1.0000   1.0000   1.0000   1.0000   1.0000   1.0000
     1.0000   1.0000   1.0000   1.0000   1.0000   1.0000   1.0000   1.0000
     1.0000   1.0000   1.0000   1.0000   1.0000   1.0000   1.0000   1.0000
     1.0000   1.0000   1.0000   1.0000   0.0000   0.0000   0.0000   0.0000
     0.0000   0.0000   0.0000   0.0000

          k =-0.0884-0.1768 0.1768 (  3922 PWs)   bands (ev):

   -14.5194 -14.5193 -14.5074 -14.5074 -14.4444 -14.4444 -14.4310 -14.4309
   -13.5686 -13.5686 -13.4557 -13.4556 -13.4390 -13.4389 -13.3630 -13.3629
   -13.3514 -13.3514 -13.2902 -13.2902  -2.1283  -2.1283   4.0192   4.0192
     6.5438   6.5438   7.2384   7.2384   8.1631   8.1631  10.1680  10.1680
    10.5048  10.5048  11.3470  11.3470

     occupation numbers 
     1.0000   1.0000   1.0000   1.0000   1.0000   1.0000   1.0000   1.0000
     1.0000   1.0000   1.0000   1.0000   1.0000   1.0000   1.0000   1.0000
     1.0000   1.0000   1.0000   1.0000   1.0000   1.0000   1.0000   1.0000
     1.0000   1.0000   1.0000   1.0000   0.0000   0.0000   0.0000   0.0000
     0.0000   0.0000   0.0000   0.0000

          k =-0.0442-0.1326 0.1326 (  3902 PWs)   bands (ev):

   -14.5179 -14.5178 -14.5114 -14.5114 -14.4405 -14.4405 -14.4331 -14.4331
   -13.5775 -13.5775 -13.4432 -13.4431 -13.4319 -13.4318 -13.3695 -13.3694
   -13.3617 -13.3616 -13.2858 -13.2858  -2.3177  -2.3177   4.7966   4.7966
     6.8056   6.8057   7.4443   7.4443   8.2121   8.2122   9.9016   9.9017
    10.1608  10.1608  10.7774  10.7774

     occupation numbers 
     1.0000   1.0000   1.0000   1.0000   1.0000   1.0000   1.0000   1.0000
     1.0000   1.0000   1.0000   1.0000   1.0000   1.0000   1.0000   1.0000
     1.0000   1.0000   1.0000   1.0000   1.0000   1.0000   1.0000   1.0000
     1.0000   1.0000   1.0000   1.0000   0.0000   0.0000   0.0000   0.0000
     0.0000   0.0000   0.0000   0.0000

          k = 0.0000-0.0884 0.0884 (  3893 PWs)   bands (ev):

   -14.5168 -14.5167 -14.5140 -14.5140 -14.4379 -14.4379 -14.4348 -14.4347
   -13.5836 -13.5836 -13.4318 -13.4317 -13.4259 -13.4258 -13.3753 -13.3752
   -13.3714 -13.3714 -13.2827 -13.2827  -2.4431  -2.4431   5.4986   5.4986
     7.0864   7.0864   7.6067   7.6067   8.1058   8.1058   9.6592   9.6592
     9.9448   9.9448  10.2755  10.2755

     occupation numbers 
     1.0000   1.0000   1.0000   1.0000   1.0000   1.0000   1.0000   1.0000
     1.0000   1.0000   1.0000   1.0000   1.0000   1.0000   1.0000   1.0000
     1.0000   1.0000   1.0000   1.0000   1.0000   1.0000   1.0000   1.0000
     1.0000   1.0000   0.0000   0.0000   0.0000   0.0000   0.0000   0.0000
     0.0000   0.0000   0.0000   0.0000

          k = 0.1768 0.0000 0.0000 (  3903 PWs)   bands (ev):

   -14.5162 -14.5162 -14.5136 -14.5136 -14.4385 -14.4385 -14.4346 -14.4346
   -13.5790 -13.5790 -13.4416 -13.4416 -13.4290 -13.4290 -13.3685 -13.3685
   -13.3669 -13.3669 -13.2846 -13.2846  -2.3505  -2.3505   5.0505   5.0505
     6.8351   6.8351   7.0915   7.0915   8.8214   8.8214   9.2097   9.2097
    10.5232  10.5232  10.6293  10.6293

     occupation numbers 
     1.0000   1.0000   1.0000   1.0000   1.0000   1.0000   1.0000   1.0000
     1.0000   1.0000   1.0000   1.0000   1.0000   1.0000   1.0000   1.0000
     1.0000   1.0000   1.0000   1.0000   1.0000   1.0000   1.0000   1.0000
     1.0000   1.0000   1.0000   1.0000   0.0000   0.0000   0.0000   0.0000
     0.0000   0.0000   0.0000   0.0000

          k = 0.2210 0.0442-0.0442 (  3908 PWs)   bands (ev):

   -14.5171 -14.5170 -14.5113 -14.5113 -14.4407 -14.4407 -14.4333 -14.4333
   -13.5730 -13.5730 -13.4509 -13.4509 -13.4336 -13.4336 -13.3651 -13.3651
   -13.3587 -13.3587 -13.2872 -13.2872  -2.2249  -2.2249   4.5086   4.5086
     6.6157   6.6158   6.8500   6.8500   8.9688   8.9689   9.2387   9.2388
    10.8951  10.8951  11.0255  11.0255

     occupation numbers 
     1.0000   1.0000   1.0000   1.0000   1.0000   1.0000   1.0000   1.0000
     1.0000   1.0000   1.0000   1.0000   1.0000   1.0000   1.0000   1.0000
     1.0000   1.0000   1.0000   1.0000   1.0000   1.0000   1.0000   1.0000
     1.0000   1.0000   1.0000   1.0000   0.0000   0.0000   0.0000   0.0000
     0.0000   0.0000   0.0000   0.0000

          k = 0.2652 0.0884-0.0884 (  3934 PWs)   bands (ev):

   -14.5187 -14.5186 -14.5074 -14.5074 -14.4446 -14.4446 -14.4311 -14.4310
   -13.5645 -13.5645 -13.4618 -13.4618 -13.4392 -13.4391 -13.3626 -13.3626
   -13.3485 -13.3484 -13.2907 -13.2907  -2.0353  -2.0353   3.8343   3.8343
     6.3660   6.3661   6.6281   6.6282   8.8967   8.8967   9.5260   9.5261
    11.1919  11.1919  11.4524  11.4524

     occupation numbers 
     1.0000   1.0000   1.0000   1.0000   1.0000   1.0000   1.0000   1.0000
     1.0000   1.0000   1.0000   1.0000   1.0000   1.0000   1.0000   1.0000
     1.0000   1.0000   1.0000   1.0000   1.0000   1.0000   1.0000   1.0000
     1.0000   1.0000   1.0000   1.0000   0.0000   0.0000   0.0000   0.0000
     0.0000   0.0000   0.0000   0.0000

          k = 0.3094 0.1326-0.1326 (  3920 PWs)   bands (ev):

   -14.5204 -14.5203 -14.5024 -14.5024 -14.4496 -14.4495 -14.4286 -14.4285
   -13.5542 -13.5541 -13.4728 -13.4727 -13.4448 -13.4447 -13.3605 -13.3605
   -13.3390 -13.3389 -13.2945 -13.2945  -1.7896  -1.7896   3.1339   3.1339
     6.1115   6.1115   6.4511   6.4511   8.7624   8.7625   9.8973   9.8973
    11.3638  11.3638  11.7752  11.7752

     occupation numbers 
     1.0000   1.0000   1.0000   1.0000   1.0000   1.0000   1.0000   1.0000
     1.0000   1.0000   1.0000   1.0000   1.0000   1.0000   1.0000   1.0000
     1.0000   1.0000   1.0000   1.0000   1.0000   1.0000   1.0000   1.0000
     1.0000   1.0000   1.0000   1.0000   0.0000   0.0000   0.0000   0.0000
     0.0000   0.0000   0.0000   0.0000

          k = 0.3536 0.1768-0.1768 (  3924 PWs)   bands (ev):

   -14.5219 -14.5218 -14.4968 -14.4967 -14.4552 -14.4551 -14.4263 -14.4262
   -13.5430 -13.5430 -13.4831 -13.4831 -13.4498 -13.4497 -13.3590 -13.3590
   -13.3315 -13.3314 -13.2978 -13.2978  -1.5041  -1.5041   2.4741   2.4741
     5.8789   5.8789   6.3372   6.3372   8.6236   8.6237  10.2159  10.2159
    11.4019  11.4019  12.1350  12.1351

     occupation numbers 
     1.0000   1.0000   1.0000   1.0000   1.0000   1.0000   1.0000   1.0000
     1.0000   1.0000   1.0000   1.0000   1.0000   1.0000   1.0000   1.0000
     1.0000   1.0000   1.0000   1.0000   1.0000   1.0000   1.0000   1.0000
     1.0000   1.0000   1.0000   1.0000   0.0000   0.0000   0.0000   0.0000
     0.0000   0.0000   0.0000   0.0000

          k = 0.3977 0.2210-0.2210 (  3921 PWs)   bands (ev):

   -14.5230 -14.5230 -14.4910 -14.4908 -14.4611 -14.4609 -14.4245 -14.4244
   -13.5322 -13.5322 -13.4925 -13.4924 -13.4537 -13.4537 -13.3583 -13.3583
   -13.3266 -13.3265 -13.2998 -13.2998  -1.2143  -1.2143   1.9169   1.9169
     5.6889   5.6889   6.2889   6.2889   8.5097   8.5097  10.4145  10.4145
    11.3476  11.3476  12.6505  12.6506

     occupation numbers 
     1.0000   1.0000   1.0000   1.0000   1.0000   1.0000   1.0000   1.0000
     1.0000   1.0000   1.0000   1.0000   1.0000   1.0000   1.0000   1.0000
     1.0000   1.0000   1.0000   1.0000   1.0000   1.0000   1.0000   1.0000
     1.0000   1.0000   1.0000   1.0000   0.0000   0.0000   0.0000   0.0000
     0.0000   0.0000   0.0000   0.0000

          k =-0.2652-0.4419 0.4419 (  3936 PWs)   bands (ev):

   -14.5237 -14.5237 -14.4861 -14.4857 -14.4662 -14.4658 -14.4233 -14.4233
   -13.5234 -13.5234 -13.5001 -13.5000 -13.4560 -13.4559 -13.3582 -13.3582
   -13.3241 -13.3241 -13.3006 -13.3006  -0.9963  -0.9963   1.5521   1.5521
     5.5537   5.5537   6.3045   6.3045   8.4341   8.4341  10.5342  10.5342
    11.2500  11.2500  13.2167  13.2167

     occupation numbers 
     1.0000   1.0000   1.0000   1.0000   1.0000   1.0000   1.0000   1.0000
     1.0000   1.0000   1.0000   1.0000   1.0000   1.0000   1.0000   1.0000
     1.0000   1.0000   1.0000   1.0000   1.0000   1.0000   1.0000   1.0000
     1.0000   1.0000   1.0000   1.0000   0.0000   0.0000   0.0000   0.0000
     0.0000   0.0000   0.0000   0.0000

          k =-0.2210-0.3977 0.3977 (  3927 PWs)   bands (ev):

   -14.5239 -14.5239 -14.4848 -14.4843 -14.4677 -14.4672 -14.4230 -14.4230
   -13.5218 -13.5218 -13.5015 -13.5015 -13.4561 -13.4560 -13.3588 -13.3587
   -13.3233 -13.3233 -13.3008 -13.3008  -0.9610  -0.9610   1.4970   1.4970
     5.4810   5.4810   6.3810   6.3810   8.4019   8.4019  10.6311  10.6311
    11.1386  11.1387  13.5220  13.5221

     occupation numbers 
     1.0000   1.0000   1.0000   1.0000   1.0000   1.0000   1.0000   1.0000
     1.0000   1.0000   1.0000   1.0000   1.0000   1.0000   1.0000   1.0000
     1.0000   1.0000   1.0000   1.0000   1.0000   1.0000   1.0000   1.0000
     1.0000   1.0000   1.0000   1.0000   0.0000   0.0000   0.0000   0.0000
     0.0000   0.0000   0.0000   0.0000

          k =-0.1768-0.3536 0.3536 (  3927 PWs)   bands (ev):

   -14.5236 -14.5236 -14.4883 -14.4879 -14.4641 -14.4637 -14.4236 -14.4235
   -13.5292 -13.5291 -13.4953 -13.4953 -13.4540 -13.4540 -13.3598 -13.3597
   -13.3240 -13.3240 -13.3006 -13.3005  -1.1327  -1.1327   1.7760   1.7760
     5.4771   5.4771   6.5129   6.5130   8.4121   8.4121  10.7201  10.7201
    11.0230  11.0230  13.2634  13.2634

     occupation numbers 
     1.0000   1.0000   1.0000   1.0000   1.0000   1.0000   1.0000   1.0000
     1.0000   1.0000   1.0000   1.0000   1.0000   1.0000   1.0000   1.0000
     1.0000   1.0000   1.0000   1.0000   1.0000   1.0000   1.0000   1.0000
     1.0000   1.0000   1.0000   1.0000   0.0000   0.0000   0.0000   0.0000
     0.0000   0.0000   0.0000   0.0000

          k =-0.1326-0.3094 0.3094 (  3917 PWs)   bands (ev):

   -14.5228 -14.5228 -14.4937 -14.4935 -14.4586 -14.4584 -14.4249 -14.4249
   -13.5396 -13.5396 -13.4865 -13.4865 -13.4502 -13.4501 -13.3612 -13.3612
   -13.3271 -13.3270 -13.2992 -13.2992  -1.4104  -1.4104   2.2821   2.2821
     5.5486   5.5487   6.6918   6.6918   8.4571   8.4571  10.7395  10.7395
    10.9249  10.9249  12.6145  12.6146

     occupation numbers 
     1.0000   1.0000   1.0000   1.0000   1.0000   1.0000   1.0000   1.0000
     1.0000   1.0000   1.0000   1.0000   1.0000   1.0000   1.0000   1.0000
     1.0000   1.0000   1.0000   1.0000   1.0000   1.0000   1.0000   1.0000
     1.0000   1.0000   1.0000   1.0000   0.0000   0.0000   0.0000   0.0000
     0.0000   0.0000   0.0000   0.0000

          k =-0.0884-0.2652 0.2652 (  3913 PWs)   bands (ev):

   -14.5217 -14.5216 -14.4993 -14.4992 -14.4529 -14.4528 -14.4269 -14.4268
   -13.5508 -13.5507 -13.4766 -13.4766 -13.4453 -13.4453 -13.3631 -13.3630
   -13.3330 -13.3330 -13.2964 -13.2964  -1.7023  -1.7023   2.9091   2.9091
     5.7050   5.7050   6.9038   6.9038   8.5181   8.5181  10.5816  10.5816
    10.8388  10.8388  12.0075  12.0075

     occupation numbers 
     1.0000   1.0000   1.0000   1.0000   1.0000   1.0000   1.0000   1.0000
     1.0000   1.0000   1.0000   1.0000   1.0000   1.0000   1.0000   1.0000
     1.0000   1.0000   1.0000   1.0000   1.0000   1.0000   1.0000   1.0000
     1.0000   1.0000   1.0000   1.0000   0.0000   0.0000   0.0000   0.0000
     0.0000   0.0000   0.0000   0.0000

          k =-0.0442-0.2210 0.2210 (  3925 PWs)   bands (ev):

   -14.5203 -14.5202 -14.5044 -14.5044 -14.4477 -14.4476 -14.4292 -14.4291
   -13.5614 -13.5614 -13.4657 -13.4656 -13.4402 -13.4401 -13.3653 -13.3652
   -13.3415 -13.3415 -13.2927 -13.2927  -1.9628  -1.9628   3.5838   3.5838
     5.9601   5.9601   7.1256   7.1256   8.5512   8.5513  10.3318  10.3318
    10.5745  10.5745  11.6211  11.6211

     occupation numbers 
     1.0000   1.0000   1.0000   1.0000   1.0000   1.0000   1.0000   1.0000
     1.0000   1.0000   1.0000   1.0000   1.0000   1.0000   1.0000   1.0000
     1.0000   1.0000   1.0000   1.0000   1.0000   1.0000   1.0000   1.0000
     1.0000   1.0000   1.0000   1.0000   0.0000   0.0000   0.0000   0.0000
     0.0000   0.0000   0.0000   0.0000

          k = 0.0000-0.1768 0.1768 (  3905 PWs)   bands (ev):

   -14.5189 -14.5188 -14.5086 -14.5085 -14.4434 -14.4434 -14.4314 -14.4313
   -13.5706 -13.5706 -13.4542 -13.4541 -13.4355 -13.4354 -13.3676 -13.3675
   -13.3516 -13.3515 -13.2889 -13.2889  -2.1712  -2.1712   4.2380   4.2380
     6.3313   6.3313   7.3189   7.3189   8.4717   8.4717  10.0745  10.0745
    10.2713  10.2713  11.2770  11.2770

     occupation numbers 
     1.0000   1.0000   1.0000   1.0000   1.0000   1.0000   1.0000   1.0000
     1.0000   1.0000   1.0000   1.0000   1.0000   1.0000   1.0000   1.0000
     1.0000   1.0000   1.0000   1.0000   1.0000   1.0000   1.0000   1.0000
     1.0000   1.0000   1.0000   1.0000   0.0000   0.0000   0.0000   0.0000
     0.0000   0.0000   0.0000   0.0000

          k = 0.2652 0.0000 0.0000 (  3931 PWs)   bands (ev):

   -14.5162 -14.5162 -14.5112 -14.5112 -14.4410 -14.4410 -14.4335 -14.4335
   -13.5682 -13.5682 -13.4575 -13.4575 -13.4362 -13.4362 -13.3610 -13.3610
   -13.3564 -13.3564 -13.2884 -13.2884  -2.1208  -2.1208   4.1971   4.1971
     6.4240   6.4240   6.5963   6.5963   8.8849   8.8849   9.3696   9.3696
    11.2987  11.2987  11.3360  11.3360

     occupation numbers 
     1.0000   1.0000   1.0000   1.0000   1.0000   1.0000   1.0000   1.0000
     1.0000   1.0000   1.0000   1.0000   1.0000   1.0000   1.0000   1.0000
     1.0000   1.0000   1.0000   1.0000   1.0000   1.0000   1.0000   1.0000
     1.0000   1.0000   1.0000   1.0000   0.0000   0.0000   0.0000   0.0000
     0.0000   0.0000   0.0000   0.0000

          k = 0.3094 0.0442-0.0442 (  3938 PWs)   bands (ev):

   -14.5171 -14.5170 -14.5086 -14.5086 -14.4435 -14.4435 -14.4322 -14.4322
   -13.5608 -13.5608 -13.4662 -13.4662 -13.4399 -13.4398 -13.3615 -13.3615
   -13.3477 -13.3476 -13.2904 -13.2904  -1.9514  -1.9514   3.6935   3.6935
     6.1924   6.1924   6.3708   6.3708   8.8659   8.8659   9.4750   9.4750
    11.6317  11.6317  11.6841  11.6841

     occupation numbers 
     1.0000   1.0000   1.0000   1.0000   1.0000   1.0000   1.0000   1.0000
     1.0000   1.0000   1.0000   1.0000   1.0000   1.0000   1.0000   1.0000
     1.0000   1.0000   1.0000   1.0000   1.0000   1.0000   1.0000   1.0000
     1.0000   1.0000   1.0000   1.0000   0.0000   0.0000   0.0000   0.0000
     0.0000   0.0000   0.0000   0.0000

          k = 0.3536 0.0884-0.0884 (  3927 PWs)   bands (ev):

   -14.5187 -14.5187 -14.5043 -14.5043 -14.4478 -14.4477 -14.4299 -14.4298
   -13.5516 -13.5516 -13.4754 -13.4754 -13.4436 -13.4436 -13.3636 -13.3636
   -13.3383 -13.3383 -13.2925 -13.2925  -1.7228  -1.7228   3.1030   3.1030
     5.9016   5.9017   6.1917   6.1917   8.9534   8.9535   9.6223   9.6224
    11.7158  11.7158  11.9080  11.9080

     occupation numbers 
     1.0000   1.0000   1.0000   1.0000   1.0000   1.0000   1.0000   1.0000
     1.0000   1.0000   1.0000   1.0000   1.0000   1.0000   1.0000   1.0000
     1.0000   1.0000   1.0000   1.0000   1.0000   1.0000   1.0000   1.0000
     1.0000   1.0000   1.0000   1.0000   0.0000   0.0000   0.0000   0.0000
     0.0000   0.0000   0.0000   0.0000

          k = 0.3977 0.1326-0.1326 (  3922 PWs)   bands (ev):

   -14.5204 -14.5204 -14.4992 -14.4991 -14.4531 -14.4529 -14.4272 -14.4272
   -13.5417 -13.5417 -13.4840 -13.4839 -13.4471 -13.4471 -13.3663 -13.3663
   -13.3308 -13.3308 -13.2938 -13.2938  -1.4470  -1.4470   2.5022   2.5023
     5.5982   5.5982   6.0819   6.0819   8.9262   8.9263   9.9977   9.9977
    11.7233  11.7233  11.9901  11.9901

     occupation numbers 
     1.0000   1.0000   1.0000   1.0000   1.0000   1.0000   1.0000   1.0000
     1.0000   1.0000   1.0000   1.0000   1.0000   1.0000   1.0000   1.0000
     1.0000   1.0000   1.0000   1.0000   1.0000   1.0000   1.0000   1.0000
     1.0000   1.0000   1.0000   1.0000   0.0000   0.0000   0.0000   0.0000
     0.0000   0.0000   0.0000   0.0000

          k = 0.4419 0.1768-0.1768 (  3925 PWs)   bands (ev):

   -14.5219 -14.5218 -14.4938 -14.4936 -14.4588 -14.4585 -14.4249 -14.4249
   -13.5324 -13.5323 -13.4910 -13.4909 -13.4502 -13.4501 -13.3693 -13.3692
   -13.3262 -13.3262 -13.2938 -13.2937  -1.1507  -1.1507   1.9551   1.9551
     5.3322   5.3322   6.0397   6.0397   8.8515   8.8515  10.4090  10.4090
    11.8469  11.8469  11.9982  11.9983

     occupation numbers 
     1.0000   1.0000   1.0000   1.0000   1.0000   1.0000   1.0000   1.0000
     1.0000   1.0000   1.0000   1.0000   1.0000   1.0000   1.0000   1.0000
     1.0000   1.0000   1.0000   1.0000   1.0000   1.0000   1.0000   1.0000
     1.0000   1.0000   1.0000   1.0000   0.0000   0.0000   0.0000   0.0000
     0.0000   0.0000   0.0000   0.0000

          k =-0.2210-0.4861 0.4861 (  3935 PWs)   bands (ev):

   -14.5229 -14.5229 -14.4887 -14.4882 -14.4643 -14.4638 -14.4231 -14.4231
   -13.5254 -13.5254 -13.4957 -13.4956 -13.4523 -13.4522 -13.3718 -13.3717
   -13.3240 -13.3240 -13.2929 -13.2928  -0.8942  -0.8942   1.5432   1.5432
     5.1283   5.1284   6.0632   6.0632   8.7941   8.7942  10.6677  10.6677
    11.7928  11.7928  12.4072  12.4072

     occupation numbers 
     1.0000   1.0000   1.0000   1.0000   1.0000   1.0000   1.0000   1.0000
     1.0000   1.0000   1.0000   1.0000   1.0000   1.0000   1.0000   1.0000
     1.0000   1.0000   1.0000   1.0000   1.0000   1.0000   1.0000   1.0000
     1.0000   1.0000   1.0000   1.0000   0.0000   0.0000   0.0000   0.0000
     0.0000   0.0000   0.0000   0.0000

          k =-0.1768-0.4419 0.4419 (  3943 PWs)   bands (ev):

   -14.5235 -14.5235 -14.4854 -14.4847 -14.4681 -14.4673 -14.4222 -14.4222
   -13.5231 -13.5230 -13.4973 -13.4972 -13.4526 -13.4525 -13.3734 -13.3733
   -13.3232 -13.3232 -13.2923 -13.2923  -0.7892  -0.7892   1.3887   1.3887
     4.9995   4.9995   6.1495   6.1495   8.7722   8.7722  10.8050  10.8050
    11.6431  11.6431  13.0312  13.0312

     occupation numbers 
     1.0000   1.0000   1.0000   1.0000   1.0000   1.0000   1.0000   1.0000
     1.0000   1.0000   1.0000   1.0000   1.0000   1.0000   1.0000   1.0000
     1.0000   1.0000   1.0000   1.0000   1.0000   1.0000   1.0000   1.0000
     1.0000   1.0000   1.0000   1.0000   0.0000   0.0000   0.0000   0.0000
     0.0000   0.0000   0.0000   0.0000

          k =-0.1326-0.3977 0.3977 (  3931 PWs)   bands (ev):

   -14.5236 -14.5236 -14.4863 -14.4856 -14.4672 -14.4665 -14.4222 -14.4222
   -13.5261 -13.5261 -13.4955 -13.4955 -13.4509 -13.4509 -13.3737 -13.3736
   -13.3230 -13.3230 -13.2929 -13.2929  -0.9085  -0.9084   1.5658   1.5658
     4.9561   4.9561   6.2931   6.2931   8.7850   8.7850  10.9138  10.9138
    11.4633  11.4633  13.1343  13.1344

     occupation numbers 
     1.0000   1.0000   1.0000   1.0000   1.0000   1.0000   1.0000   1.0000
     1.0000   1.0000   1.0000   1.0000   1.0000   1.0000   1.0000   1.0000
     1.0000   1.0000   1.0000   1.0000   1.0000   1.0000   1.0000   1.0000
     1.0000   1.0000   1.0000   1.0000   0.0000   0.0000   0.0000   0.0000
     0.0000   0.0000   0.0000   0.0000

          k =-0.0884-0.3536 0.3536 (  3927 PWs)   bands (ev):

   -14.5232 -14.5232 -14.4905 -14.4901 -14.4628 -14.4624 -14.4231 -14.4231
   -13.5333 -13.5332 -13.4910 -13.4909 -13.4479 -13.4479 -13.3727 -13.3727
   -13.3237 -13.3237 -13.2943 -13.2942  -1.1699  -1.1699   1.9842   1.9842
     5.0108   5.0108   6.4844   6.4844   8.8187   8.8187  11.0144  11.0144
    11.2478  11.2478  12.4729  12.4729

     occupation numbers 
     1.0000   1.0000   1.0000   1.0000   1.0000   1.0000   1.0000   1.0000
     1.0000   1.0000   1.0000   1.0000   1.0000   1.0000   1.0000   1.0000
     1.0000   1.0000   1.0000   1.0000   1.0000   1.0000   1.0000   1.0000
     1.0000   1.0000   1.0000   1.0000   0.0000   0.0000   0.0000   0.0000
     0.0000   0.0000   0.0000   0.0000

          k =-0.0442-0.3094 0.3094 (  3924 PWs)   bands (ev):

   -14.5224 -14.5223 -14.4955 -14.4953 -14.4574 -14.4572 -14.4248 -14.4247
   -13.5426 -13.5425 -13.4842 -13.4842 -13.4447 -13.4447 -13.3706 -13.3706
   -13.3266 -13.3266 -13.2953 -13.2952  -1.4653  -1.4653   2.5156   2.5156
     5.1818   5.1818   6.7074   6.7074   8.8400   8.8401  10.9315  10.9315
    11.0791  11.0792  11.8672  11.8672

     occupation numbers 
     1.0000   1.0000   1.0000   1.0000   1.0000   1.0000   1.0000   1.0000
     1.0000   1.0000   1.0000   1.0000   1.0000   1.0000   1.0000   1.0000
     1.0000   1.0000   1.0000   1.0000   1.0000   1.0000   1.0000   1.0000
     1.0000   1.0000   1.0000   1.0000   0.0000   0.0000   0.0000   0.0000
     0.0000   0.0000   0.0000   0.0000

          k = 0.0000-0.2652 0.2652 (  3917 PWs)   bands (ev):

   -14.5213 -14.5213 -14.5004 -14.5003 -14.4522 -14.4521 -14.4270 -14.4269
   -13.5524 -13.5524 -13.4756 -13.4755 -13.4420 -13.4420 -13.3680 -13.3680
   -13.3327 -13.3327 -13.2947 -13.2946  -1.7379  -1.7379   3.0700   3.0700
     5.4930   5.4930   6.9351   6.9351   8.7805   8.7806  10.6263  10.6263
    10.8197  10.8197  11.6729  11.6730

     occupation numbers 
     1.0000   1.0000   1.0000   1.0000   1.0000   1.0000   1.0000   1.0000
     1.0000   1.0000   1.0000   1.0000   1.0000   1.0000   1.0000   1.0000
     1.0000   1.0000   1.0000   1.0000   1.0000   1.0000   1.0000   1.0000
     1.0000   1.0000   1.0000   1.0000   0.0000   0.0000   0.0000   0.0000
     0.0000   0.0000   0.0000   0.0000

          k = 0.3536 0.0000 0.0000 (  3928 PWs)   bands (ev):

   -14.5159 -14.5159 -14.5087 -14.5087 -14.4435 -14.4435 -14.4328 -14.4328
   -13.5546 -13.5546 -13.4725 -13.4725 -13.4421 -13.4421 -13.3618 -13.3618
   -13.3433 -13.3433 -13.2910 -13.2910  -1.8019  -1.8019   3.3499   3.3499
     6.0408   6.0408   6.1599   6.1599   8.6053   8.6053   9.5371   9.5371
    12.0988  12.0989  12.1304  12.1305

     occupation numbers 
     1.0000   1.0000   1.0000   1.0000   1.0000   1.0000   1.0000   1.0000
     1.0000   1.0000   1.0000   1.0000   1.0000   1.0000   1.0000   1.0000
     1.0000   1.0000   1.0000   1.0000   1.0000   1.0000   1.0000   1.0000
     1.0000   1.0000   1.0000   1.0000   0.0000   0.0000   0.0000   0.0000
     0.0000   0.0000   0.0000   0.0000

          k = 0.3977 0.0442-0.0442 (  3943 PWs)   bands (ev):

   -14.5166 -14.5165 -14.5062 -14.5062 -14.4458 -14.4458 -14.4317 -14.4316
   -13.5467 -13.5467 -13.4798 -13.4798 -13.4444 -13.4443 -13.3659 -13.3659
   -13.3357 -13.3357 -13.2919 -13.2919  -1.5908  -1.5908   2.8845   2.8845
     5.8184   5.8184   5.9718   5.9718   8.6266   8.6266   9.5051   9.5051
    12.2525  12.2525  12.4583  12.4583

     occupation numbers 
     1.0000   1.0000   1.0000   1.0000   1.0000   1.0000   1.0000   1.0000
     1.0000   1.0000   1.0000   1.0000   1.0000   1.0000   1.0000   1.0000
     1.0000   1.0000   1.0000   1.0000   1.0000   1.0000   1.0000   1.0000
     1.0000   1.0000   1.0000   1.0000   0.0000   0.0000   0.0000   0.0000
     0.0000   0.0000   0.0000   0.0000

          k = 0.4419 0.0884-0.0884 (  3940 PWs)   bands (ev):

   -14.5182 -14.5182 -14.5020 -14.5019 -14.4502 -14.4500 -14.4292 -14.4292
   -13.5381 -13.5381 -13.4866 -13.4866 -13.4460 -13.4459 -13.3718 -13.3717
   -13.3287 -13.3287 -13.2919 -13.2919  -1.3274  -1.3274   2.3725   2.3726
     5.4999   5.5000   5.8517   5.8517   8.7680   8.7680   9.6397   9.6397
    12.1302  12.1302  12.6217  12.6217

     occupation numbers 
     1.0000   1.0000   1.0000   1.0000   1.0000   1.0000   1.0000   1.0000
     1.0000   1.0000   1.0000   1.0000   1.0000   1.0000   1.0000   1.0000
     1.0000   1.0000   1.0000   1.0000   1.0000   1.0000   1.0000   1.0000
     1.0000   1.0000   1.0000   1.0000   0.0000   0.0000   0.0000   0.0000
     0.0000   0.0000   0.0000   0.0000

          k = 0.4861 0.1326-0.1326 (  3936 PWs)   bands (ev):

   -14.5200 -14.5200 -14.4972 -14.4970 -14.4554 -14.4552 -14.4264 -14.4264
   -13.5305 -13.5305 -13.4915 -13.4914 -13.4471 -13.4470 -13.3782 -13.3781
   -13.3244 -13.3244 -13.2905 -13.2905  -1.0309  -1.0309   1.8731   1.8731
     5.1693   5.1694   5.8043   5.8043   8.8103   8.8103  10.0940  10.0940
    12.0092  12.0092  12.6148  12.6148

     occupation numbers 
     1.0000   1.0000   1.0000   1.0000   1.0000   1.0000   1.0000   1.0000
     1.0000   1.0000   1.0000   1.0000   1.0000   1.0000   1.0000   1.0000
     1.0000   1.0000   1.0000   1.0000   1.0000   1.0000   1.0000   1.0000
     1.0000   1.0000   1.0000   1.0000   0.0000   0.0000   0.0000   0.0000
     0.0000   0.0000   0.0000   0.0000

          k =-0.1768-0.5303 0.5303 (  3931 PWs)   bands (ev):

   -14.5215 -14.5215 -14.4924 -14.4920 -14.4609 -14.4604 -14.4240 -14.4240
   -13.5257 -13.5257 -13.4933 -13.4933 -13.4478 -13.4477 -13.3837 -13.3836
   -13.3228 -13.3228 -13.2882 -13.2882  -0.7474  -0.7474   1.4540   1.4540
     4.8907   4.8907   5.8245   5.8245   8.8070   8.8070  10.7053  10.7053
    11.9939  11.9939  12.4970  12.4970

     occupation numbers 
     1.0000   1.0000   1.0000   1.0000   1.0000   1.0000   1.0000   1.0000
[...]

     occupation numbers 
     1.0000   1.0000   1.0000   1.0000   1.0000   1.0000   1.0000   1.0000
     1.0000   1.0000   1.0000   1.0000   1.0000   1.0000   1.0000   1.0000
     1.0000   1.0000   1.0000   1.0000   1.0000   1.0000   1.0000   1.0000
     1.0000   1.0000   1.0000   1.0000   0.0000   0.0000   0.0000   0.0000
     0.0000   0.0000   0.0000   0.0000

          k =-0.1326-0.3977 0.5745 (  3932 PWs)   bands (ev):

   -14.5225 -14.5225 -14.4883 -14.4875 -14.4661 -14.4652 -14.4218 -14.4218
   -13.5251 -13.5251 -13.4907 -13.4906 -13.4459 -13.4457 -13.3923 -13.3921
   -13.3233 -13.3232 -13.2839 -13.2839  -0.4911  -0.4911   1.1573   1.1573
     4.6573   4.6574   5.6340   5.6340   9.4714   9.4714  10.7325  10.7325
    11.9988  11.9988  12.7081  12.7081

     occupation numbers 
     1.0000   1.0000   1.0000   1.0000   1.0000   1.0000   1.0000   1.0000
     1.0000   1.0000   1.0000   1.0000   1.0000   1.0000   1.0000   1.0000
     1.0000   1.0000   1.0000   1.0000   1.0000   1.0000   1.0000   1.0000
     1.0000   1.0000   1.0000   1.0000   0.0000   0.0000   0.0000   0.0000
     0.0000   0.0000   0.0000   0.0000

          k =-0.0884-0.3536 0.5303 (  3929 PWs)   bands (ev):

   -14.5228 -14.5227 -14.4878 -14.4869 -14.4668 -14.4659 -14.4216 -14.4215
   -13.5256 -13.5255 -13.4907 -13.4906 -13.4456 -13.4454 -13.3919 -13.3917
   -13.3234 -13.3233 -13.2842 -13.2841  -0.5455  -0.5455   1.2265   1.2265
     4.6250   4.6250   5.7023   5.7023   9.5144   9.5144  10.7276  10.7276
    12.0553  12.0553  12.6746  12.6746

     occupation numbers 
     1.0000   1.0000   1.0000   1.0000   1.0000   1.0000   1.0000   1.0000
     1.0000   1.0000   1.0000   1.0000   1.0000   1.0000   1.0000   1.0000
     1.0000   1.0000   1.0000   1.0000   1.0000   1.0000   1.0000   1.0000
     1.0000   1.0000   1.0000   1.0000   0.0000   0.0000   0.0000   0.0000
     0.0000   0.0000   0.0000   0.0000

          k =-0.0442-0.3094 0.4861 (  3932 PWs)   bands (ev):

   -14.5226 -14.5225 -14.4898 -14.4891 -14.4644 -14.4637 -14.4223 -14.4222
   -13.5278 -13.5278 -13.4913 -13.4912 -13.4452 -13.4451 -13.3874 -13.3872
   -13.3237 -13.3236 -13.2864 -13.2864  -0.7888  -0.7888   1.5454   1.5454
     4.6962   4.6963   5.8441   5.8441   9.5608   9.5608  10.6143  10.6143
    11.5008  11.5009  12.8781  12.8782

     occupation numbers 
     1.0000   1.0000   1.0000   1.0000   1.0000   1.0000   1.0000   1.0000
     1.0000   1.0000   1.0000   1.0000   1.0000   1.0000   1.0000   1.0000
     1.0000   1.0000   1.0000   1.0000   1.0000   1.0000   1.0000   1.0000
     1.0000   1.0000   1.0000   1.0000   0.0000   0.0000   0.0000   0.0000
     0.0000   0.0000   0.0000   0.0000

          k = 0.0000-0.2652 0.4419 (  3924 PWs)   bands (ev):

   -14.5221 -14.5220 -14.4932 -14.4928 -14.4603 -14.4599 -14.4237 -14.4237
   -13.5326 -13.5325 -13.4901 -13.4900 -13.4453 -13.4452 -13.3801 -13.3800
   -13.3247 -13.3246 -13.2898 -13.2898  -1.0865  -1.0865   1.9639   1.9639
     4.8899   4.8900   6.0341   6.0341   9.5502   9.5503  10.2702  10.2703
    11.3289  11.3289  12.6512  12.6512

     occupation numbers 
     1.0000   1.0000   1.0000   1.0000   1.0000   1.0000   1.0000   1.0000
     1.0000   1.0000   1.0000   1.0000   1.0000   1.0000   1.0000   1.0000
     1.0000   1.0000   1.0000   1.0000   1.0000   1.0000   1.0000   1.0000
     1.0000   1.0000   1.0000   1.0000   0.0000   0.0000   0.0000   0.0000
     0.0000   0.0000   0.0000   0.0000

          k =-0.1768-0.5303 0.7071 (  3944 PWs)   bands (ev):

   -14.5192 -14.5191 -14.4978 -14.4975 -14.4552 -14.4548 -14.4266 -14.4265
   -13.5271 -13.5270 -13.4928 -13.4927 -13.4439 -13.4438 -13.3881 -13.3880
   -13.3218 -13.3217 -13.2879 -13.2878  -0.7955  -0.7955   1.5829   1.5829
     5.0542   5.0542   5.5108   5.5109   9.2096   9.2097   9.6017   9.6018
    12.0085  12.0085  13.5993  13.5994

     occupation numbers 
     1.0000   1.0000   1.0000   1.0000   1.0000   1.0000   1.0000   1.0000
     1.0000   1.0000   1.0000   1.0000   1.0000   1.0000   1.0000   1.0000
     1.0000   1.0000   1.0000   1.0000   1.0000   1.0000   1.0000   1.0000
     1.0000   1.0000   1.0000   1.0000   0.0000   0.0000   0.0000   0.0000
     0.0000   0.0000   0.0000   0.0000

          k =-0.1326-0.4861 0.6629 (  3942 PWs)   bands (ev):

   -14.5203 -14.5202 -14.4946 -14.4941 -14.4591 -14.4586 -14.4245 -14.4244
   -13.5252 -13.5251 -13.4914 -13.4912 -13.4417 -13.4415 -13.3970 -13.3968
   -13.3215 -13.3214 -13.2843 -13.2843  -0.4922  -0.4921   1.1995   1.1995
     4.8270   4.8270   5.3889   5.3889   9.3803   9.3804  10.0662  10.0662
    11.8373  11.8373  13.5565  13.5565

     occupation numbers 
     1.0000   1.0000   1.0000   1.0000   1.0000   1.0000   1.0000   1.0000
     1.0000   1.0000   1.0000   1.0000   1.0000   1.0000   1.0000   1.0000
     1.0000   1.0000   1.0000   1.0000   1.0000   1.0000   1.0000   1.0000
     1.0000   1.0000   1.0000   1.0000   0.0000   0.0000   0.0000   0.0000
     0.0000   0.0000   0.0000   0.0000

          k =-0.0884-0.4419 0.6187 (  3940 PWs)   bands (ev):

   -14.5213 -14.5212 -14.4916 -14.4908 -14.4628 -14.4621 -14.4227 -14.4226
   -13.5253 -13.5252 -13.4887 -13.4886 -13.4400 -13.4397 -13.4031 -13.4028
   -13.3222 -13.3221 -13.2816 -13.2815  -0.2547  -0.2546   0.9245   0.9246
     4.6322   4.6323   5.3775   5.3775   9.4389   9.4389  10.7787  10.7787
    11.7402  11.7402  12.9904  12.9904

     occupation numbers 
     1.0000   1.0000   1.0000   1.0000   1.0000   1.0000   1.0000   1.0000
     1.0000   1.0000   1.0000   1.0000   1.0000   1.0000   1.0000   1.0000
     1.0000   1.0000   1.0000   1.0000   1.0000   1.0000   1.0000   1.0000
     1.0000   1.0000   1.0000   1.0000   0.0000   0.0000   0.0000   0.0000
     0.0000   0.0000   0.0000   0.0000

          k =-0.0442-0.3977 0.5745 (  3934 PWs)   bands (ev):

   -14.5221 -14.5220 -14.4893 -14.4884 -14.4655 -14.4646 -14.4217 -14.4216
   -13.5258 -13.5258 -13.4878 -13.4876 -13.4402 -13.4399 -13.4034 -13.4031
   -13.3230 -13.3229 -13.2809 -13.2808  -0.2567  -0.2567   0.9294   0.9295
     4.5215   4.5215   5.4649   5.4649   9.5145   9.5146  11.2381  11.2381
    11.9465  11.9466  12.2851  12.2851

     occupation numbers 
     1.0000   1.0000   1.0000   1.0000   1.0000   1.0000   1.0000   1.0000
     1.0000   1.0000   1.0000   1.0000   1.0000   1.0000   1.0000   1.0000
     1.0000   1.0000   1.0000   1.0000   1.0000   1.0000   1.0000   1.0000
     1.0000   1.0000   1.0000   1.0000   0.0000   0.0000   0.0000   0.0000
     0.0000   0.0000   0.0000   0.0000

          k = 0.0000-0.3536 0.5303 (  3935 PWs)   bands (ev):

   -14.5225 -14.5224 -14.4886 -14.4877 -14.4661 -14.4652 -14.4215 -14.4214
   -13.5264 -13.5263 -13.4893 -13.4892 -13.4424 -13.4422 -13.3974 -13.3972
   -13.3233 -13.3232 -13.2826 -13.2825  -0.4917  -0.4917   1.1980   1.1981
     4.5345   4.5345   5.6293   5.6293   9.5881   9.5881  11.1053  11.1053
    11.5793  11.5793  12.7510  12.7511

     occupation numbers 
     1.0000   1.0000   1.0000   1.0000   1.0000   1.0000   1.0000   1.0000
     1.0000   1.0000   1.0000   1.0000   1.0000   1.0000   1.0000   1.0000
     1.0000   1.0000   1.0000   1.0000   1.0000   1.0000   1.0000   1.0000
     1.0000   1.0000   1.0000   1.0000   0.0000   0.0000   0.0000   0.0000
     0.0000   0.0000   0.0000   0.0000

          k =-0.0884-0.5303 0.7071 (  3938 PWs)   bands (ev):

   -14.5184 -14.5183 -14.4978 -14.4974 -14.4553 -14.4548 -14.4268 -14.4267
   -13.5230 -13.5229 -13.4935 -13.4934 -13.4366 -13.4363 -13.4042 -13.4040
   -13.3181 -13.3180 -13.2852 -13.2852  -0.2700  -0.2700   0.9324   0.9325
     4.9728   4.9728   5.2296   5.2297   9.1745   9.1747   9.4291   9.4293
    12.6744  12.6744  13.8915  13.8915

     occupation numbers 
     1.0000   1.0000   1.0000   1.0000   1.0000   1.0000   1.0000   1.0000
     1.0000   1.0000   1.0000   1.0000   1.0000   1.0000   1.0000   1.0000
     1.0000   1.0000   1.0000   1.0000   1.0000   1.0000   1.0000   1.0000
     1.0000   1.0000   1.0000   1.0000   0.0000   0.0000   0.0000   0.0000
     0.0000   0.0000   0.0000   0.0000

          k =-0.0442-0.4861 0.6629 (  3942 PWs)   bands (ev):

   -14.5197 -14.5196 -14.4950 -14.4944 -14.4590 -14.4583 -14.4246 -14.4244
   -13.5242 -13.5242 -13.4898 -13.4897 -13.4332 -13.4326 -13.4118 -13.4112
   -13.3199 -13.3198 -13.2818 -13.2818   0.0129   0.0130   0.6332   0.6333
     4.7703   4.7704   5.1826   5.1827   9.3312   9.3313  10.0132  10.0133
    12.4932  12.4933  13.2093  13.2093

     occupation numbers 
     1.0000   1.0000   1.0000   1.0000   1.0000   1.0000   1.0000   1.0000
     1.0000   1.0000   1.0000   1.0000   1.0000   1.0000   1.0000   1.0000
     1.0000   1.0000   1.0000   1.0000   1.0000   1.0000   1.0000   1.0000
     1.0000   1.0000   1.0000   1.0000   0.0000   0.0000   0.0000   0.0000
     0.0000   0.0000   0.0000   0.0000

          k = 0.0000-0.4419 0.6187 (  3930 PWs)   bands (ev):

   -14.5211 -14.5209 -14.4920 -14.4912 -14.4626 -14.4618 -14.4227 -14.4226
   -13.5254 -13.5254 -13.4873 -13.4872 -13.4348 -13.4341 -13.4116 -13.4110
   -13.3218 -13.3217 -13.2801 -13.2801   0.0107   0.0107   0.6448   0.6448
     4.5834   4.5834   5.2822   5.2822   9.4203   9.4203  10.8175  10.8175
    12.3037  12.3038  12.3991  12.3992

     occupation numbers 
     1.0000   1.0000   1.0000   1.0000   1.0000   1.0000   1.0000   1.0000
     1.0000   1.0000   1.0000   1.0000   1.0000   1.0000   1.0000   1.0000
     1.0000   1.0000   1.0000   1.0000   1.0000   1.0000   1.0000   1.0000
     1.0000   1.0000   1.0000   1.0000   0.0000   0.0000   0.0000   0.0000
     0.0000   0.0000   0.0000   0.0000

          k =-0.7071 0.1768 0.0000 (  3940 PWs)   bands (ev):

   -14.5180 -14.5179 -14.4980 -14.4976 -14.4552 -14.4546 -14.4270 -14.4268
   -13.5222 -13.5222 -13.4932 -13.4931 -13.4280 -13.4270 -13.4167 -13.4157
   -13.3167 -13.3166 -13.2842 -13.2842   0.2944   0.2949   0.3256   0.3261
     4.9707   4.9708   5.1093   5.1094   9.1912   9.1914   9.3315   9.3317
    13.3154  13.3155  13.4744  13.4745

     occupation numbers 
     1.0000   1.0000   1.0000   1.0000   1.0000   1.0000   1.0000   1.0000
     1.0000   1.0000   1.0000   1.0000   1.0000   1.0000   1.0000   1.0000
     1.0000   1.0000   1.0000   1.0000   1.0000   1.0000   1.0000   1.0000
     1.0000   1.0000   1.0000   1.0000   0.0000   0.0000   0.0000   0.0000
     0.0000   0.0000   0.0000   0.0000

          k =-0.1768-0.4419 0.7071 (  3933 PWs)   bands (ev):

   -14.5215 -14.5214 -14.4923 -14.4917 -14.4617 -14.4611 -14.4232 -14.4231
   -13.5269 -13.5269 -13.4906 -13.4905 -13.4437 -13.4435 -13.3923 -13.3921
   -13.3233 -13.3232 -13.2846 -13.2846  -0.6621  -0.6621   1.4105   1.4105
     4.7506   4.7506   5.5447   5.5447   9.8996   9.8998  10.1818  10.1820
    11.2851  11.2852  13.3328  13.3328

     occupation numbers 
     1.0000   1.0000   1.0000   1.0000   1.0000   1.0000   1.0000   1.0000
     1.0000   1.0000   1.0000   1.0000   1.0000   1.0000   1.0000   1.0000
     1.0000   1.0000   1.0000   1.0000   1.0000   1.0000   1.0000   1.0000
     1.0000   1.0000   1.0000   1.0000   0.0000   0.0000   0.0000   0.0000
     0.0000   0.0000   0.0000   0.0000

          k =-0.1326-0.3977 0.6629 (  3936 PWs)   bands (ev):

   -14.5219 -14.5218 -14.4903 -14.4895 -14.4644 -14.4635 -14.4221 -14.4220
   -13.5261 -13.5260 -13.4883 -13.4882 -13.4416 -13.4414 -13.4002 -13.3999
   -13.3234 -13.3232 -13.2816 -13.2815  -0.3791  -0.3790   1.0721   1.0722
     4.6234   4.6235   5.3904   5.3904   9.9712   9.9713  10.6255  10.6256
    11.3945  11.3945  12.8778  12.8778

     occupation numbers 
     1.0000   1.0000   1.0000   1.0000   1.0000   1.0000   1.0000   1.0000
     1.0000   1.0000   1.0000   1.0000   1.0000   1.0000   1.0000   1.0000
     1.0000   1.0000   1.0000   1.0000   1.0000   1.0000   1.0000   1.0000
     1.0000   1.0000   1.0000   1.0000   0.0000   0.0000   0.0000   0.0000
     0.0000   0.0000   0.0000   0.0000

          k =-0.0884-0.3536 0.6187 (  3932 PWs)   bands (ev):

   -14.5221 -14.5220 -14.4895 -14.4886 -14.4654 -14.4645 -14.4217 -14.4215
   -13.5260 -13.5259 -13.4871 -13.4870 -13.4407 -13.4404 -13.4034 -13.4030
   -13.3235 -13.3233 -13.2804 -13.2804  -0.2414  -0.2414   0.9150   0.9150
     4.5830   4.5830   5.3339   5.3340   9.9763   9.9763  10.7468  10.7469
    11.8899  11.8899  12.2266  12.2266

     occupation numbers 
     1.0000   1.0000   1.0000   1.0000   1.0000   1.0000   1.0000   1.0000
     1.0000   1.0000   1.0000   1.0000   1.0000   1.0000   1.0000   1.0000
     1.0000   1.0000   1.0000   1.0000   1.0000   1.0000   1.0000   1.0000
     1.0000   1.0000   1.0000   1.0000   0.0000   0.0000   0.0000   0.0000
     0.0000   0.0000   0.0000   0.0000

          k =-0.0884-0.4419 0.7071 (  3941 PWs)   bands (ev):

   -14.5208 -14.5207 -14.4929 -14.4922 -14.4616 -14.4608 -14.4232 -14.4230
   -13.5255 -13.5255 -13.4880 -13.4879 -13.4375 -13.4372 -13.4068 -13.4064
   -13.3222 -13.3220 -13.2808 -13.2808  -0.1869  -0.1868   0.8626   0.8627
     4.7338   4.7338   5.1593   5.1593   9.9615   9.9617  10.1777  10.1779
    11.6614  11.6614  13.0447  13.0447

     occupation numbers 
     1.0000   1.0000   1.0000   1.0000   1.0000   1.0000   1.0000   1.0000
     1.0000   1.0000   1.0000   1.0000   1.0000   1.0000   1.0000   1.0000
     1.0000   1.0000   1.0000   1.0000   1.0000   1.0000   1.0000   1.0000
     1.0000   1.0000   1.0000   1.0000   0.0000   0.0000   0.0000   0.0000
     0.0000   0.0000   0.0000   0.0000

          k =-0.0442-0.3977 0.6629 (  3933 PWs)   bands (ev):

   -14.5214 -14.5212 -14.4913 -14.4904 -14.4636 -14.4627 -14.4222 -14.4220
   -13.5262 -13.5261 -13.4855 -13.4853 -13.4348 -13.4342 -13.4126 -13.4120
   -13.3230 -13.3229 -13.2789 -13.2788   0.0323   0.0324   0.6341   0.6341
     4.6520   4.6520   5.0801   5.0802  10.1027  10.1028  10.8119  10.8119
    11.5874  11.5874  12.1986  12.1986

     occupation numbers 
     1.0000   1.0000   1.0000   1.0000   1.0000   1.0000   1.0000   1.0000
     1.0000   1.0000   1.0000   1.0000   1.0000   1.0000   1.0000   1.0000
     1.0000   1.0000   1.0000   1.0000   1.0000   1.0000   1.0000   1.0000
     1.0000   1.0000   1.0000   1.0000   0.0000   0.0000   0.0000   0.0000
     0.0000   0.0000   0.0000   0.0000

          k =-0.0000-0.3536 0.6187 (  3928 PWs)   bands (ev):

   -14.5217 -14.5216 -14.4903 -14.4894 -14.4647 -14.4637 -14.4218 -14.4216
   -13.5264 -13.5263 -13.4856 -13.4855 -13.4370 -13.4365 -13.4095 -13.4091
   -13.3234 -13.3233 -13.2791 -13.2790  -0.0892  -0.0892   0.7636   0.7637
     4.5915   4.5915   5.1793   5.1793  10.1501  10.1501  10.9942  10.9943
    11.4745  11.4745  12.1072  12.1072

     occupation numbers 
     1.0000   1.0000   1.0000   1.0000   1.0000   1.0000   1.0000   1.0000
     1.0000   1.0000   1.0000   1.0000   1.0000   1.0000   1.0000   1.0000
     1.0000   1.0000   1.0000   1.0000   1.0000   1.0000   1.0000   1.0000
     1.0000   1.0000   1.0000   1.0000   0.0000   0.0000   0.0000   0.0000
     0.0000   0.0000   0.0000   0.0000

          k =-0.7071 0.2652 0.0000 (  3936 PWs)   bands (ev):

   -14.5205 -14.5204 -14.4933 -14.4925 -14.4613 -14.4605 -14.4232 -14.4230
   -13.5255 -13.5255 -13.4867 -13.4865 -13.4307 -13.4297 -13.4172 -13.4162
   -13.3217 -13.3216 -13.2795 -13.2794   0.3052   0.3057   0.3467   0.3472
     4.7950   4.7951   4.9601   4.9602   9.9609   9.9612  10.1589  10.1591
    12.2749  12.2750  12.3781  12.3782

     occupation numbers 
     1.0000   1.0000   1.0000   1.0000   1.0000   1.0000   1.0000   1.0000
     1.0000   1.0000   1.0000   1.0000   1.0000   1.0000   1.0000   1.0000
     1.0000   1.0000   1.0000   1.0000   1.0000   1.0000   1.0000   1.0000
     1.0000   1.0000   1.0000   1.0000   0.0000   0.0000   0.0000   0.0000
     0.0000   0.0000   0.0000   0.0000

          k =-0.7071 0.3536 0.0000 (  3972 PWs)   bands (ev):

   -14.5214 -14.5212 -14.4913 -14.4903 -14.4639 -14.4629 -14.4219 -14.4217
   -13.5266 -13.5266 -13.4841 -13.4839 -13.4317 -13.4307 -13.4176 -13.4167
   -13.3234 -13.3233 -13.2778 -13.2778   0.3101   0.3105   0.3553   0.3558
     4.7292   4.7293   4.9023   4.9024  10.5525  10.5527  10.8773  10.8775
    11.5635  11.5636  11.5888  11.5889

     occupation numbers 
     1.0000   1.0000   1.0000   1.0000   1.0000   1.0000   1.0000   1.0000
     1.0000   1.0000   1.0000   1.0000   1.0000   1.0000   1.0000   1.0000
     1.0000   1.0000   1.0000   1.0000   1.0000   1.0000   1.0000   1.0000
     1.0000   1.0000   1.0000   1.0000   0.0000   0.0000   0.0000   0.0000
     0.0000   0.0000   0.0000   0.0000

     the Fermi energy is     7.5892 ev

!    total energy              =    -885.88473103 Ry
     Harris-Foulkes estimate   =    -885.88473074 Ry
     estimated scf accuracy    <       0.00000028 Ry

     total all-electron energy =    -24716.584546 Ry

     The total energy is the sum of the following terms:

     one-electron contribution =    -155.28762444 Ry
     hartree contribution      =      78.93659140 Ry
     xc contribution           =     -54.74350557 Ry
     ewald contribution        =    -167.52979538 Ry
     one-center paw contrib.   =    -587.26039698 Ry
     smearing contrib. (-TS)   =      -0.00000006 Ry

     convergence has been achieved in   5 iterations

     Writing output data file Sn.save
 
     init_run     :     11.98s CPU     12.45s WALL (       1 calls)
     electrons    :    245.00s CPU    250.78s WALL (       1 calls)

     Called by init_run:
     wfcinit      :     11.32s CPU     11.58s WALL (       1 calls)
     potinit      :      0.22s CPU      0.26s WALL (       1 calls)

     Called by electrons:
     c_bands      :    209.53s CPU    214.59s WALL (       6 calls)
     sum_band     :     34.06s CPU     34.64s WALL (       6 calls)
     v_of_rho     :      0.05s CPU      0.06s WALL (       6 calls)
     v_h          :      0.01s CPU      0.01s WALL (       6 calls)
     v_xc         :      0.05s CPU      0.05s WALL (       6 calls)
     newd         :      0.41s CPU      0.44s WALL (       6 calls)
     PAW_pot      :      1.17s CPU      1.25s WALL (       6 calls)
     mix_rho      :      0.02s CPU      0.04s WALL (       6 calls)

     Called by c_bands:
     init_us_2    :      0.34s CPU      0.46s WALL (    1885 calls)
     cegterg      :    202.10s CPU    206.87s WALL (     870 calls)

     Called by sum_band:
     sum_band:bec :      2.81s CPU      2.88s WALL (     870 calls)
     addusdens    :      0.25s CPU      0.30s WALL (       6 calls)

     Called by *egterg:
     h_psi        :    174.75s CPU    177.31s WALL (    3445 calls)
     s_psi        :      4.20s CPU      4.23s WALL (    3445 calls)
     g_psi        :      0.40s CPU      0.41s WALL (    2430 calls)
     cdiaghg      :     14.47s CPU     14.68s WALL (    3155 calls)
     cegterg:over :      7.66s CPU      7.69s WALL (    2430 calls)
     cegterg:upda :      3.62s CPU      3.64s WALL (    2430 calls)
     cegterg:last :      2.64s CPU      2.65s WALL (    1014 calls)

     Called by h_psi:
     h_psi:vloc   :    164.03s CPU    166.50s WALL (    3445 calls)
     h_psi:vnl    :     10.43s CPU     10.50s WALL (    3445 calls)
     add_vuspsi   :      4.56s CPU      4.59s WALL (    3445 calls)

     General routines
     calbec       :      7.61s CPU      7.67s WALL (    4315 calls)
     fft          :      0.09s CPU      0.13s WALL (     116 calls)
     fftw         :    185.96s CPU    188.72s WALL (  429688 calls)
     davcio       :      0.01s CPU      0.62s WALL (     145 calls)
 
     Parallel routines
     fft_scatter  :    146.53s CPU    148.87s WALL (  429804 calls)

     PAW routines
     PAW_pot      :      1.17s CPU      1.25s WALL (       6 calls)
     PAW_symme    :      0.02s CPU      0.02s WALL (      12 calls)
 
     PWSCF        :  4m18.22s CPU     4m25.38s WALL

 
   This run was terminated on:  19:57:21  15Mar2020            

=------------------------------------------------------------------------------=
   JOB DONE.
=------------------------------------------------------------------------------=
