
     Program PWSCF v.5.4.0 starts on 16Mar2020 at 22:57:21 

     This program is part of the open-source Quantum ESPRESSO suite
     for quantum simulation of materials; please cite
         "P. Giannozzi et al., J. Phys.:Condens. Matter 21 395502 (2009);
          URL http://www.quantum-espresso.org", 
     in publications or presentations arising from this work. More details at
     http://www.quantum-espresso.org/quote

     Parallel version (MPI & OpenMP), running on      16 processor cores
     Number of MPI processes:                16
     Threads/MPI process:                     1
     R & G space division:  proc/nbgrp/npool/nimage =      16
     Waiting for input...
     Reading input from standard input
Warning: card &IONS ignored
Warning: card / ignored
Warning: card &CELL ignored
Warning: card / ignored

     Current dimensions of program PWSCF are:
     Max number of different atomic species (ntypx) = 10
     Max number of k-points (npk) =  40000
     Max angular momentum in pseudopotentials (lmaxx) =  3
               file Sn.pbesol-dn-kjpaw_psl.1.0.0.UPF: wavefunction(s)  5S 5P 4D renormalized
     Message from routine setup:
     At least one non s.o. pseudo

     Subspace diagonalization in iterative solution of the eigenvalue problem:
     a serial algorithm will be used

 
     Parallelization info
     --------------------
     sticks:   dense  smooth     PW     G-vecs:    dense   smooth      PW
     Min         109     109     31                 3022     3022     473
     Max         111     111     32                 3024     3024     477
     Sum        1759    1759    511                48359    48359    7583
 

     Title: 
     Sn                                                                         


     bravais-lattice index     =            0
     lattice parameter (alat)  =       8.9127  a.u.
     unit-cell volume          =     500.6268 (a.u.)^3
     number of atoms/cell      =            2
     number of atomic types    =            1
     number of electrons       =        28.00
     number of Kohn-Sham states=           36
     kinetic-energy cutoff     =      80.0000  Ry
     charge density cutoff     =     320.0000  Ry
     convergence threshold     =      1.0E-06
     mixing beta               =       0.7000
     number of iterations used =            8  plain     mixing
     Exchange-correlation      =  SLA  PW   PSX  PSC ( 1  4 10  8 0 0)
     Non magnetic calculation with spin-orbit


     celldm(1)=   8.912709  celldm(2)=   0.000000  celldm(3)=   0.000000
     celldm(4)=   0.000000  celldm(5)=   0.000000  celldm(6)=   0.000000

     crystal axes: (cart. coord. in units of alat)
               a(1) = (   0.000000   0.707107   0.707107 )  
               a(2) = (   0.707107   0.000000   0.707107 )  
               a(3) = (   0.707107   0.707107   0.000000 )  

     reciprocal axes: (cart. coord. in units 2 pi/alat)
               b(1) = ( -0.707107  0.707107  0.707107 )  
               b(2) = (  0.707107 -0.707107  0.707107 )  
               b(3) = (  0.707107  0.707107 -0.707107 )  


     PseudoPot. # 1 for Sn read from file:
     ../PseudopotentialDatabase/Sn.pbesol-dn-kjpaw_psl.1.0.0.UPF
     MD5 check sum: 3b64f90c238cf26ccb627d174952382c
     Pseudo is Projector augmented-wave + core cor, Zval = 14.0
     Generated using "atomic" code by A. Dal Corso  v.6.3
     Shape of augmentation charge: PSQ
     Using radial grid of 1243 points,  6 beta functions with: 
                l(1) =   0
                l(2) =   0
                l(3) =   1
                l(4) =   1
                l(5) =   2
                l(6) =   2
     Q(r) pseudized with 0 coefficients 


     atomic species   valence    mass     pseudopotential
        Sn            14.00   118.71000     Sn( 1.00)

     24 Sym. Ops. (no inversion) found
          (note: 24 additional sym.ops. were found but ignored
           their fractional translations are incommensurate with FFT grid)

                                    s                        frac. trans.

      isym =  1     identity                                     

 cryst.   s( 1) = (     1          0          0      )
                  (     0          1          0      )
                  (     0          0          1      )

 cart.    s( 1) = (  1.0000000  0.0000000  0.0000000 )
                  (  0.0000000  1.0000000  0.0000000 )
                  (  0.0000000  0.0000000  1.0000000 )


      isym =  2     180 deg rotation - cart. axis [0,0,1]        

 cryst.   s( 2) = (     0          1         -1      )
                  (     1          0         -1      )
                  (     0          0         -1      )

 cart.    s( 2) = ( -1.0000000  0.0000000  0.0000000 )
                  (  0.0000000 -1.0000000  0.0000000 )
                  (  0.0000000  0.0000000  1.0000000 )


      isym =  3     180 deg rotation - cart. axis [0,1,0]        

 cryst.   s( 3) = (     0         -1          1      )
                  (     0         -1          0      )
                  (     1         -1          0      )

 cart.    s( 3) = ( -1.0000000  0.0000000  0.0000000 )
                  (  0.0000000  1.0000000  0.0000000 )
                  (  0.0000000  0.0000000 -1.0000000 )


      isym =  4     180 deg rotation - cart. axis [1,0,0]        

 cryst.   s( 4) = (    -1          0          0      )
                  (    -1          0          1      )
                  (    -1          1          0      )

 cart.    s( 4) = (  1.0000000  0.0000000  0.0000000 )
                  (  0.0000000 -1.0000000  0.0000000 )
                  (  0.0000000  0.0000000 -1.0000000 )


      isym =  5     120 deg rotation - cart. axis [-1,-1,-1]     

 cryst.   s( 5) = (     0          0          1      )
                  (     1          0          0      )
                  (     0          1          0      )

 cart.    s( 5) = (  0.0000000  1.0000000  0.0000000 )
                  (  0.0000000  0.0000000  1.0000000 )
                  (  1.0000000  0.0000000  0.0000000 )


      isym =  6     120 deg rotation - cart. axis [-1,1,1]       

 cryst.   s( 6) = (     1         -1          0      )
                  (     0         -1          1      )
                  (     0         -1          0      )

 cart.    s( 6) = (  0.0000000 -1.0000000  0.0000000 )
                  (  0.0000000  0.0000000  1.0000000 )
                  ( -1.0000000  0.0000000  0.0000000 )


      isym =  7     120 deg rotation - cart. axis [1,1,-1]       

 cryst.   s( 7) = (    -1          1          0      )
                  (    -1          0          0      )
                  (    -1          0          1      )

 cart.    s( 7) = (  0.0000000  1.0000000  0.0000000 )
                  (  0.0000000  0.0000000 -1.0000000 )
                  ( -1.0000000  0.0000000  0.0000000 )


      isym =  8     120 deg rotation - cart. axis [1,-1,1]       

 cryst.   s( 8) = (     0          0         -1      )
                  (     0          1         -1      )
                  (     1          0         -1      )

 cart.    s( 8) = (  0.0000000 -1.0000000  0.0000000 )
                  (  0.0000000  0.0000000 -1.0000000 )
                  (  1.0000000  0.0000000  0.0000000 )


      isym =  9     120 deg rotation - cart. axis [1,1,1]        

 cryst.   s( 9) = (     0          1          0      )
                  (     0          0          1      )
                  (     1          0          0      )

 cart.    s( 9) = (  0.0000000  0.0000000  1.0000000 )
                  (  1.0000000  0.0000000  0.0000000 )
                  (  0.0000000  1.0000000  0.0000000 )


      isym = 10     120 deg rotation - cart. axis [-1,1,-1]      

 cryst.   s(10) = (    -1          0          1      )
                  (    -1          1          0      )
                  (    -1          0          0      )

 cart.    s(10) = (  0.0000000  0.0000000  1.0000000 )
                  ( -1.0000000  0.0000000  0.0000000 )
                  (  0.0000000 -1.0000000  0.0000000 )


      isym = 11     120 deg rotation - cart. axis [1,-1,-1]      

 cryst.   s(11) = (     1          0         -1      )
                  (     0          0         -1      )
                  (     0          1         -1      )

 cart.    s(11) = (  0.0000000  0.0000000 -1.0000000 )
                  ( -1.0000000  0.0000000  0.0000000 )
                  (  0.0000000  1.0000000  0.0000000 )


      isym = 12     120 deg rotation - cart. axis [-1,-1,1]      

 cryst.   s(12) = (     0         -1          0      )
                  (     1         -1          0      )
                  (     0         -1          1      )

 cart.    s(12) = (  0.0000000  0.0000000 -1.0000000 )
                  (  1.0000000  0.0000000  0.0000000 )
                  (  0.0000000 -1.0000000  0.0000000 )


      isym = 13     inv. 180 deg rotation - cart. axis [1,1,0]   

 cryst.   s(13) = (     1          0         -1      )
                  (     0          1         -1      )
                  (     0          0         -1      )

 cart.    s(13) = (  0.0000000 -1.0000000  0.0000000 )
                  ( -1.0000000  0.0000000  0.0000000 )
                  (  0.0000000  0.0000000  1.0000000 )


      isym = 14     inv. 180 deg rotation - cart. axis [1,-1,0]  

 cryst.   s(14) = (     0          1          0      )
                  (     1          0          0      )
                  (     0          0          1      )

 cart.    s(14) = (  0.0000000  1.0000000  0.0000000 )
                  (  1.0000000  0.0000000  0.0000000 )
                  (  0.0000000  0.0000000  1.0000000 )


      isym = 15     inv.  90 deg rotation - cart. axis [0,0,-1]  

 cryst.   s(15) = (     0         -1          0      )
                  (     0         -1          1      )
                  (     1         -1          0      )

 cart.    s(15) = (  0.0000000 -1.0000000  0.0000000 )
                  (  1.0000000  0.0000000  0.0000000 )
                  (  0.0000000  0.0000000 -1.0000000 )


      isym = 16     inv.  90 deg rotation - cart. axis [0,0,1]   

 cryst.   s(16) = (    -1          0          1      )
                  (    -1          0          0      )
                  (    -1          1          0      )

 cart.    s(16) = (  0.0000000  1.0000000  0.0000000 )
                  ( -1.0000000  0.0000000  0.0000000 )
                  (  0.0000000  0.0000000 -1.0000000 )


      isym = 17     inv. 180 deg rotation - cart. axis [1,0,1]   

 cryst.   s(17) = (     1         -1          0      )
                  (     0         -1          0      )
                  (     0         -1          1      )

 cart.    s(17) = (  0.0000000  0.0000000 -1.0000000 )
                  (  0.0000000  1.0000000  0.0000000 )
                  ( -1.0000000  0.0000000  0.0000000 )


      isym = 18     inv. 180 deg rotation - cart. axis [-1,0,1]  

 cryst.   s(18) = (     0          0          1      )
                  (     0          1          0      )
                  (     1          0          0      )

 cart.    s(18) = (  0.0000000  0.0000000  1.0000000 )
                  (  0.0000000  1.0000000  0.0000000 )
                  (  1.0000000  0.0000000  0.0000000 )


      isym = 19     inv.  90 deg rotation - cart. axis [0,1,0]   

 cryst.   s(19) = (     0          0         -1      )
                  (     1          0         -1      )
                  (     0          1         -1      )

 cart.    s(19) = (  0.0000000  0.0000000 -1.0000000 )
                  (  0.0000000 -1.0000000  0.0000000 )
                  (  1.0000000  0.0000000  0.0000000 )


      isym = 20     inv.  90 deg rotation - cart. axis [0,-1,0]  

 cryst.   s(20) = (    -1          1          0      )
                  (    -1          0          1      )
                  (    -1          0          0      )

 cart.    s(20) = (  0.0000000  0.0000000  1.0000000 )
                  (  0.0000000 -1.0000000  0.0000000 )
                  ( -1.0000000  0.0000000  0.0000000 )


      isym = 21     inv. 180 deg rotation - cart. axis [0,1,1]   

 cryst.   s(21) = (    -1          0          0      )
                  (    -1          1          0      )
                  (    -1          0          1      )

 cart.    s(21) = (  1.0000000  0.0000000  0.0000000 )
                  (  0.0000000  0.0000000 -1.0000000 )
                  (  0.0000000 -1.0000000  0.0000000 )


      isym = 22     inv. 180 deg rotation - cart. axis [0,1,-1]  

 cryst.   s(22) = (     1          0          0      )
                  (     0          0          1      )
                  (     0          1          0      )

 cart.    s(22) = (  1.0000000  0.0000000  0.0000000 )
                  (  0.0000000  0.0000000  1.0000000 )
                  (  0.0000000  1.0000000  0.0000000 )


      isym = 23     inv.  90 deg rotation - cart. axis [-1,0,0]  

 cryst.   s(23) = (     0          1         -1      )
                  (     0          0         -1      )
                  (     1          0         -1      )

 cart.    s(23) = ( -1.0000000  0.0000000  0.0000000 )
                  (  0.0000000  0.0000000 -1.0000000 )
                  (  0.0000000  1.0000000  0.0000000 )


      isym = 24     inv.  90 deg rotation - cart. axis [1,0,0]   

 cryst.   s(24) = (     0         -1          1      )
                  (     1         -1          0      )
                  (     0         -1          0      )

 cart.    s(24) = ( -1.0000000  0.0000000  0.0000000 )
                  (  0.0000000  0.0000000  1.0000000 )
                  (  0.0000000 -1.0000000  0.0000000 )


   Cartesian axes

     site n.     atom                  positions (alat units)
         1           Sn  tau(   1) = (   0.0000000   0.0000000   0.0000000  )
         2           Sn  tau(   2) = (   0.3535534   0.3535534   0.3535534  )

   Crystallographic axes

     site n.     atom                  positions (cryst. coord.)
         1           Sn  tau(   1) = (  0.0000000  0.0000000  0.0000000  )
         2           Sn  tau(   2) = (  0.2500000  0.2500000  0.2500000  )

     number of k points=   145  gaussian smearing, width (Ry)=  0.0001
                       cart. coord. in units 2pi/alat
        k(    1) = (   0.0000000   0.0000000   0.0000000), wk =   0.0002441
        k(    2) = (   0.0441942   0.0441942  -0.0441942), wk =   0.0019531
        k(    3) = (   0.0883883   0.0883883  -0.0883883), wk =   0.0019531
        k(    4) = (   0.1325825   0.1325825  -0.1325825), wk =   0.0019531
        k(    5) = (   0.1767767   0.1767767  -0.1767767), wk =   0.0019531
        k(    6) = (   0.2209709   0.2209709  -0.2209709), wk =   0.0019531
        k(    7) = (   0.2651650   0.2651650  -0.2651650), wk =   0.0019531
        k(    8) = (   0.3093592   0.3093592  -0.3093592), wk =   0.0019531
        k(    9) = (  -0.3535534  -0.3535534   0.3535534), wk =   0.0009766
        k(   10) = (   0.0883883   0.0000000   0.0000000), wk =   0.0014648
        k(   11) = (   0.1325825   0.0441942  -0.0441942), wk =   0.0058594
        k(   12) = (   0.1767767   0.0883883  -0.0883883), wk =   0.0058594
        k(   13) = (   0.2209709   0.1325825  -0.1325825), wk =   0.0058594
        k(   14) = (   0.2651650   0.1767767  -0.1767767), wk =   0.0058594
        k(   15) = (   0.3093592   0.2209709  -0.2209709), wk =   0.0058594
        k(   16) = (   0.3535534   0.2651650  -0.2651650), wk =   0.0058594
        k(   17) = (  -0.3093592  -0.3977476   0.3977476), wk =   0.0058594
        k(   18) = (  -0.2651650  -0.3535534   0.3535534), wk =   0.0058594
        k(   19) = (  -0.2209709  -0.3093592   0.3093592), wk =   0.0058594
        k(   20) = (  -0.1767767  -0.2651650   0.2651650), wk =   0.0058594
        k(   21) = (  -0.1325825  -0.2209709   0.2209709), wk =   0.0058594
        k(   22) = (  -0.0883883  -0.1767767   0.1767767), wk =   0.0058594
        k(   23) = (  -0.0441942  -0.1325825   0.1325825), wk =   0.0058594
        k(   24) = (   0.0000000  -0.0883883   0.0883883), wk =   0.0029297
        k(   25) = (   0.1767767   0.0000000   0.0000000), wk =   0.0014648
        k(   26) = (   0.2209709   0.0441942  -0.0441942), wk =   0.0058594
        k(   27) = (   0.2651650   0.0883883  -0.0883883), wk =   0.0058594
        k(   28) = (   0.3093592   0.1325825  -0.1325825), wk =   0.0058594
        k(   29) = (   0.3535534   0.1767767  -0.1767767), wk =   0.0058594
        k(   30) = (   0.3977476   0.2209709  -0.2209709), wk =   0.0058594
        k(   31) = (  -0.2651650  -0.4419417   0.4419417), wk =   0.0058594
        k(   32) = (  -0.2209709  -0.3977476   0.3977476), wk =   0.0058594
        k(   33) = (  -0.1767767  -0.3535534   0.3535534), wk =   0.0058594
        k(   34) = (  -0.1325825  -0.3093592   0.3093592), wk =   0.0058594
        k(   35) = (  -0.0883883  -0.2651650   0.2651650), wk =   0.0058594
        k(   36) = (  -0.0441942  -0.2209709   0.2209709), wk =   0.0058594
        k(   37) = (   0.0000000  -0.1767767   0.1767767), wk =   0.0029297
        k(   38) = (   0.2651650   0.0000000   0.0000000), wk =   0.0014648
        k(   39) = (   0.3093592   0.0441942  -0.0441942), wk =   0.0058594
        k(   40) = (   0.3535534   0.0883883  -0.0883883), wk =   0.0058594
        k(   41) = (   0.3977476   0.1325825  -0.1325825), wk =   0.0058594
        k(   42) = (   0.4419417   0.1767767  -0.1767767), wk =   0.0058594
        k(   43) = (  -0.2209709  -0.4861359   0.4861359), wk =   0.0058594
        k(   44) = (  -0.1767767  -0.4419417   0.4419417), wk =   0.0058594
        k(   45) = (  -0.1325825  -0.3977476   0.3977476), wk =   0.0058594
        k(   46) = (  -0.0883883  -0.3535534   0.3535534), wk =   0.0058594
        k(   47) = (  -0.0441942  -0.3093592   0.3093592), wk =   0.0058594
        k(   48) = (   0.0000000  -0.2651650   0.2651650), wk =   0.0029297
        k(   49) = (   0.3535534   0.0000000   0.0000000), wk =   0.0014648
        k(   50) = (   0.3977476   0.0441942  -0.0441942), wk =   0.0058594
        k(   51) = (   0.4419417   0.0883883  -0.0883883), wk =   0.0058594
        k(   52) = (   0.4861359   0.1325825  -0.1325825), wk =   0.0058594
        k(   53) = (  -0.1767767  -0.5303301   0.5303301), wk =   0.0058594
        k(   54) = (  -0.1325825  -0.4861359   0.4861359), wk =   0.0058594
        k(   55) = (  -0.0883883  -0.4419417   0.4419417), wk =   0.0058594
        k(   56) = (  -0.0441942  -0.3977476   0.3977476), wk =   0.0058594
        k(   57) = (   0.0000000  -0.3535534   0.3535534), wk =   0.0029297
        k(   58) = (   0.4419417   0.0000000   0.0000000), wk =   0.0014648
        k(   59) = (   0.4861359   0.0441942  -0.0441942), wk =   0.0058594
        k(   60) = (   0.5303301   0.0883883  -0.0883883), wk =   0.0058594
        k(   61) = (  -0.1325825  -0.5745243   0.5745243), wk =   0.0058594
        k(   62) = (  -0.0883883  -0.5303301   0.5303301), wk =   0.0058594
        k(   63) = (  -0.0441942  -0.4861359   0.4861359), wk =   0.0058594
        k(   64) = (   0.0000000  -0.4419417   0.4419417), wk =   0.0029297
        k(   65) = (   0.5303301   0.0000000   0.0000000), wk =   0.0014648
        k(   66) = (   0.5745243   0.0441942  -0.0441942), wk =   0.0058594
        k(   67) = (  -0.0883883  -0.6187184   0.6187184), wk =   0.0058594
        k(   68) = (  -0.0441942  -0.5745243   0.5745243), wk =   0.0058594
        k(   69) = (   0.0000000  -0.5303301   0.5303301), wk =   0.0029297
        k(   70) = (   0.6187184   0.0000000   0.0000000), wk =   0.0014648
        k(   71) = (  -0.0441942  -0.6629126   0.6629126), wk =   0.0058594
        k(   72) = (   0.0000000  -0.6187184   0.6187184), wk =   0.0029297
        k(   73) = (  -0.7071068   0.0000000   0.0000000), wk =   0.0007324
        k(   74) = (   0.1767767   0.0883883   0.0000000), wk =   0.0058594
        k(   75) = (   0.2209709   0.1325825  -0.0441942), wk =   0.0117188
        k(   76) = (   0.2651650   0.1767767  -0.0883883), wk =   0.0117188
        k(   77) = (   0.3093592   0.2209709  -0.1325825), wk =   0.0117188
        k(   78) = (   0.3535534   0.2651650  -0.1767767), wk =   0.0117188
        k(   79) = (  -0.3093592  -0.3977476   0.4861359), wk =   0.0117188
        k(   80) = (  -0.2651650  -0.3535534   0.4419417), wk =   0.0058594
        k(   81) = (   0.2651650   0.0883883   0.0000000), wk =   0.0058594
        k(   82) = (   0.3093592   0.1325825  -0.0441942), wk =   0.0117188
        k(   83) = (   0.3535534   0.1767767  -0.0883883), wk =   0.0117188
        k(   84) = (   0.3977476   0.2209709  -0.1325825), wk =   0.0117188
        k(   85) = (  -0.2651650  -0.4419417   0.5303301), wk =   0.0117188
        k(   86) = (  -0.2209709  -0.3977476   0.4861359), wk =   0.0117188
        k(   87) = (  -0.1767767  -0.3535534   0.4419417), wk =   0.0117188
        k(   88) = (  -0.1325825  -0.3093592   0.3977476), wk =   0.0117188
        k(   89) = (  -0.0883883  -0.2651650   0.3535534), wk =   0.0117188
        k(   90) = (  -0.0441942  -0.2209709   0.3093592), wk =   0.0117188
        k(   91) = (   0.0000000  -0.1767767   0.2651650), wk =   0.0058594
        k(   92) = (   0.3535534   0.0883883   0.0000000), wk =   0.0058594
        k(   93) = (   0.3977476   0.1325825  -0.0441942), wk =   0.0117188
        k(   94) = (   0.4419417   0.1767767  -0.0883883), wk =   0.0117188
        k(   95) = (  -0.2209709  -0.4861359   0.5745243), wk =   0.0117188
        k(   96) = (  -0.1767767  -0.4419417   0.5303301), wk =   0.0117188
        k(   97) = (  -0.1325825  -0.3977476   0.4861359), wk =   0.0117188
        k(   98) = (  -0.0883883  -0.3535534   0.4419417), wk =   0.0117188
        k(   99) = (  -0.0441942  -0.3093592   0.3977476), wk =   0.0117188
        k(  100) = (   0.0000000  -0.2651650   0.3535534), wk =   0.0058594
        k(  101) = (   0.4419417   0.0883883   0.0000000), wk =   0.0058594
        k(  102) = (   0.4861359   0.1325825  -0.0441942), wk =   0.0117188
        k(  103) = (  -0.1767767  -0.5303301   0.6187184), wk =   0.0117188
        k(  104) = (  -0.1325825  -0.4861359   0.5745243), wk =   0.0117188
        k(  105) = (  -0.0883883  -0.4419417   0.5303301), wk =   0.0117188
        k(  106) = (  -0.0441942  -0.3977476   0.4861359), wk =   0.0117188
        k(  107) = (   0.0000000  -0.3535534   0.4419417), wk =   0.0058594
        k(  108) = (   0.5303301   0.0883883   0.0000000), wk =   0.0058594
        k(  109) = (  -0.1325825  -0.5745243   0.6629126), wk =   0.0117188
        k(  110) = (  -0.0883883  -0.5303301   0.6187184), wk =   0.0117188
        k(  111) = (  -0.0441942  -0.4861359   0.5745243), wk =   0.0117188
        k(  112) = (   0.0000000  -0.4419417   0.5303301), wk =   0.0058594
        k(  113) = (  -0.0883883  -0.6187184   0.7071068), wk =   0.0058594
        k(  114) = (  -0.0441942  -0.5745243   0.6629126), wk =   0.0117188
        k(  115) = (  -0.0000000  -0.5303301   0.6187184), wk =   0.0058594
        k(  116) = (  -0.7071068   0.0883883   0.0000000), wk =   0.0029297
        k(  117) = (   0.3535534   0.1767767   0.0000000), wk =   0.0058594
        k(  118) = (   0.3977476   0.2209709  -0.0441942), wk =   0.0117188
        k(  119) = (  -0.2651650  -0.4419417   0.6187184), wk =   0.0117188
        k(  120) = (  -0.2209709  -0.3977476   0.5745243), wk =   0.0117188
        k(  121) = (  -0.1767767  -0.3535534   0.5303301), wk =   0.0058594
        k(  122) = (   0.4419417   0.1767767   0.0000000), wk =   0.0058594
        k(  123) = (  -0.2209709  -0.4861359   0.6629126), wk =   0.0117188
        k(  124) = (  -0.1767767  -0.4419417   0.6187184), wk =   0.0117188
        k(  125) = (  -0.1325825  -0.3977476   0.5745243), wk =   0.0117188
        k(  126) = (  -0.0883883  -0.3535534   0.5303301), wk =   0.0117188
        k(  127) = (  -0.0441942  -0.3093592   0.4861359), wk =   0.0117188
        k(  128) = (   0.0000000  -0.2651650   0.4419417), wk =   0.0058594
        k(  129) = (  -0.1767767  -0.5303301   0.7071068), wk =   0.0058594
        k(  130) = (  -0.1325825  -0.4861359   0.6629126), wk =   0.0117188
        k(  131) = (  -0.0883883  -0.4419417   0.6187184), wk =   0.0117188
        k(  132) = (  -0.0441942  -0.3977476   0.5745243), wk =   0.0117188
        k(  133) = (   0.0000000  -0.3535534   0.5303301), wk =   0.0058594
        k(  134) = (  -0.0883883  -0.5303301   0.7071068), wk =   0.0058594
        k(  135) = (  -0.0441942  -0.4861359   0.6629126), wk =   0.0117188
        k(  136) = (   0.0000000  -0.4419417   0.6187184), wk =   0.0058594
        k(  137) = (  -0.7071068   0.1767767   0.0000000), wk =   0.0029297
        k(  138) = (  -0.1767767  -0.4419417   0.7071068), wk =   0.0058594
        k(  139) = (  -0.1325825  -0.3977476   0.6629126), wk =   0.0117188
        k(  140) = (  -0.0883883  -0.3535534   0.6187184), wk =   0.0058594
        k(  141) = (  -0.0883883  -0.4419417   0.7071068), wk =   0.0058594
        k(  142) = (  -0.0441942  -0.3977476   0.6629126), wk =   0.0117188
        k(  143) = (  -0.0000000  -0.3535534   0.6187184), wk =   0.0058594
        k(  144) = (  -0.7071068   0.2651650   0.0000000), wk =   0.0029297
        k(  145) = (  -0.7071068   0.3535534   0.0000000), wk =   0.0014648

                       cryst. coord.
        k(    1) = (   0.0000000   0.0000000   0.0000000), wk =   0.0002441
        k(    2) = (   0.0000000   0.0000000   0.0625000), wk =   0.0019531
        k(    3) = (   0.0000000   0.0000000   0.1250000), wk =   0.0019531
        k(    4) = (   0.0000000   0.0000000   0.1875000), wk =   0.0019531
        k(    5) = (   0.0000000   0.0000000   0.2500000), wk =   0.0019531
        k(    6) = (   0.0000000   0.0000000   0.3125000), wk =   0.0019531
        k(    7) = (   0.0000000   0.0000000   0.3750000), wk =   0.0019531
        k(    8) = (   0.0000000   0.0000000   0.4375000), wk =   0.0019531
        k(    9) = (   0.0000000   0.0000000  -0.5000000), wk =   0.0009766
        k(   10) = (   0.0000000   0.0625000   0.0625000), wk =   0.0014648
        k(   11) = (   0.0000000   0.0625000   0.1250000), wk =   0.0058594
        k(   12) = (   0.0000000   0.0625000   0.1875000), wk =   0.0058594
        k(   13) = (   0.0000000   0.0625000   0.2500000), wk =   0.0058594
        k(   14) = (   0.0000000   0.0625000   0.3125000), wk =   0.0058594
        k(   15) = (   0.0000000   0.0625000   0.3750000), wk =   0.0058594
        k(   16) = (   0.0000000   0.0625000   0.4375000), wk =   0.0058594
        k(   17) = (   0.0000000   0.0625000  -0.5000000), wk =   0.0058594
        k(   18) = (   0.0000000   0.0625000  -0.4375000), wk =   0.0058594
        k(   19) = (   0.0000000   0.0625000  -0.3750000), wk =   0.0058594
        k(   20) = (   0.0000000   0.0625000  -0.3125000), wk =   0.0058594
        k(   21) = (   0.0000000   0.0625000  -0.2500000), wk =   0.0058594
        k(   22) = (   0.0000000   0.0625000  -0.1875000), wk =   0.0058594
        k(   23) = (   0.0000000   0.0625000  -0.1250000), wk =   0.0058594
        k(   24) = (   0.0000000   0.0625000  -0.0625000), wk =   0.0029297
        k(   25) = (   0.0000000   0.1250000   0.1250000), wk =   0.0014648
        k(   26) = (   0.0000000   0.1250000   0.1875000), wk =   0.0058594
        k(   27) = (   0.0000000   0.1250000   0.2500000), wk =   0.0058594
        k(   28) = (   0.0000000   0.1250000   0.3125000), wk =   0.0058594
        k(   29) = (   0.0000000   0.1250000   0.3750000), wk =   0.0058594
        k(   30) = (   0.0000000   0.1250000   0.4375000), wk =   0.0058594
        k(   31) = (   0.0000000   0.1250000  -0.5000000), wk =   0.0058594
        k(   32) = (   0.0000000   0.1250000  -0.4375000), wk =   0.0058594
        k(   33) = (   0.0000000   0.1250000  -0.3750000), wk =   0.0058594
        k(   34) = (   0.0000000   0.1250000  -0.3125000), wk =   0.0058594
        k(   35) = (   0.0000000   0.1250000  -0.2500000), wk =   0.0058594
        k(   36) = (   0.0000000   0.1250000  -0.1875000), wk =   0.0058594
        k(   37) = (   0.0000000   0.1250000  -0.1250000), wk =   0.0029297
        k(   38) = (   0.0000000   0.1875000   0.1875000), wk =   0.0014648
        k(   39) = (   0.0000000   0.1875000   0.2500000), wk =   0.0058594
        k(   40) = (   0.0000000   0.1875000   0.3125000), wk =   0.0058594
        k(   41) = (   0.0000000   0.1875000   0.3750000), wk =   0.0058594
        k(   42) = (   0.0000000   0.1875000   0.4375000), wk =   0.0058594
        k(   43) = (   0.0000000   0.1875000  -0.5000000), wk =   0.0058594
        k(   44) = (   0.0000000   0.1875000  -0.4375000), wk =   0.0058594
        k(   45) = (   0.0000000   0.1875000  -0.3750000), wk =   0.0058594
        k(   46) = (   0.0000000   0.1875000  -0.3125000), wk =   0.0058594
        k(   47) = (   0.0000000   0.1875000  -0.2500000), wk =   0.0058594
        k(   48) = (   0.0000000   0.1875000  -0.1875000), wk =   0.0029297
        k(   49) = (   0.0000000   0.2500000   0.2500000), wk =   0.0014648
        k(   50) = (   0.0000000   0.2500000   0.3125000), wk =   0.0058594
        k(   51) = (   0.0000000   0.2500000   0.3750000), wk =   0.0058594
        k(   52) = (   0.0000000   0.2500000   0.4375000), wk =   0.0058594
        k(   53) = (   0.0000000   0.2500000  -0.5000000), wk =   0.0058594
        k(   54) = (   0.0000000   0.2500000  -0.4375000), wk =   0.0058594
        k(   55) = (   0.0000000   0.2500000  -0.3750000), wk =   0.0058594
        k(   56) = (   0.0000000   0.2500000  -0.3125000), wk =   0.0058594
        k(   57) = (   0.0000000   0.2500000  -0.2500000), wk =   0.0029297
        k(   58) = (   0.0000000   0.3125000   0.3125000), wk =   0.0014648
        k(   59) = (   0.0000000   0.3125000   0.3750000), wk =   0.0058594
        k(   60) = (   0.0000000   0.3125000   0.4375000), wk =   0.0058594
        k(   61) = (   0.0000000   0.3125000  -0.5000000), wk =   0.0058594
        k(   62) = (   0.0000000   0.3125000  -0.4375000), wk =   0.0058594
        k(   63) = (   0.0000000   0.3125000  -0.3750000), wk =   0.0058594
        k(   64) = (   0.0000000   0.3125000  -0.3125000), wk =   0.0029297
        k(   65) = (   0.0000000   0.3750000   0.3750000), wk =   0.0014648
        k(   66) = (   0.0000000   0.3750000   0.4375000), wk =   0.0058594
        k(   67) = (   0.0000000   0.3750000  -0.5000000), wk =   0.0058594
        k(   68) = (   0.0000000   0.3750000  -0.4375000), wk =   0.0058594
        k(   69) = (   0.0000000   0.3750000  -0.3750000), wk =   0.0029297
        k(   70) = (   0.0000000   0.4375000   0.4375000), wk =   0.0014648
        k(   71) = (   0.0000000   0.4375000  -0.5000000), wk =   0.0058594
        k(   72) = (   0.0000000   0.4375000  -0.4375000), wk =   0.0029297
        k(   73) = (   0.0000000  -0.5000000  -0.5000000), wk =   0.0007324
        k(   74) = (   0.0625000   0.1250000   0.1875000), wk =   0.0058594
        k(   75) = (   0.0625000   0.1250000   0.2500000), wk =   0.0117188
        k(   76) = (   0.0625000   0.1250000   0.3125000), wk =   0.0117188
        k(   77) = (   0.0625000   0.1250000   0.3750000), wk =   0.0117188
        k(   78) = (   0.0625000   0.1250000   0.4375000), wk =   0.0117188
        k(   79) = (   0.0625000   0.1250000  -0.5000000), wk =   0.0117188
        k(   80) = (   0.0625000   0.1250000  -0.4375000), wk =   0.0058594
        k(   81) = (   0.0625000   0.1875000   0.2500000), wk =   0.0058594
        k(   82) = (   0.0625000   0.1875000   0.3125000), wk =   0.0117188
        k(   83) = (   0.0625000   0.1875000   0.3750000), wk =   0.0117188
        k(   84) = (   0.0625000   0.1875000   0.4375000), wk =   0.0117188
        k(   85) = (   0.0625000   0.1875000  -0.5000000), wk =   0.0117188
        k(   86) = (   0.0625000   0.1875000  -0.4375000), wk =   0.0117188
        k(   87) = (   0.0625000   0.1875000  -0.3750000), wk =   0.0117188
        k(   88) = (   0.0625000   0.1875000  -0.3125000), wk =   0.0117188
        k(   89) = (   0.0625000   0.1875000  -0.2500000), wk =   0.0117188
        k(   90) = (   0.0625000   0.1875000  -0.1875000), wk =   0.0117188
        k(   91) = (   0.0625000   0.1875000  -0.1250000), wk =   0.0058594
        k(   92) = (   0.0625000   0.2500000   0.3125000), wk =   0.0058594
        k(   93) = (   0.0625000   0.2500000   0.3750000), wk =   0.0117188
        k(   94) = (   0.0625000   0.2500000   0.4375000), wk =   0.0117188
        k(   95) = (   0.0625000   0.2500000  -0.5000000), wk =   0.0117188
        k(   96) = (   0.0625000   0.2500000  -0.4375000), wk =   0.0117188
        k(   97) = (   0.0625000   0.2500000  -0.3750000), wk =   0.0117188
        k(   98) = (   0.0625000   0.2500000  -0.3125000), wk =   0.0117188
        k(   99) = (   0.0625000   0.2500000  -0.2500000), wk =   0.0117188
        k(  100) = (   0.0625000   0.2500000  -0.1875000), wk =   0.0058594
        k(  101) = (   0.0625000   0.3125000   0.3750000), wk =   0.0058594
        k(  102) = (   0.0625000   0.3125000   0.4375000), wk =   0.0117188
        k(  103) = (   0.0625000   0.3125000  -0.5000000), wk =   0.0117188
        k(  104) = (   0.0625000   0.3125000  -0.4375000), wk =   0.0117188
        k(  105) = (   0.0625000   0.3125000  -0.3750000), wk =   0.0117188
        k(  106) = (   0.0625000   0.3125000  -0.3125000), wk =   0.0117188
        k(  107) = (   0.0625000   0.3125000  -0.2500000), wk =   0.0058594
        k(  108) = (   0.0625000   0.3750000   0.4375000), wk =   0.0058594
        k(  109) = (   0.0625000   0.3750000  -0.5000000), wk =   0.0117188
        k(  110) = (   0.0625000   0.3750000  -0.4375000), wk =   0.0117188
        k(  111) = (   0.0625000   0.3750000  -0.3750000), wk =   0.0117188
        k(  112) = (   0.0625000   0.3750000  -0.3125000), wk =   0.0058594
        k(  113) = (   0.0625000   0.4375000  -0.5000000), wk =   0.0058594
        k(  114) = (   0.0625000   0.4375000  -0.4375000), wk =   0.0117188
        k(  115) = (   0.0625000   0.4375000  -0.3750000), wk =   0.0058594
        k(  116) = (   0.0625000  -0.5000000  -0.4375000), wk =   0.0029297
        k(  117) = (   0.1250000   0.2500000   0.3750000), wk =   0.0058594
        k(  118) = (   0.1250000   0.2500000   0.4375000), wk =   0.0117188
        k(  119) = (   0.1250000   0.2500000  -0.5000000), wk =   0.0117188
        k(  120) = (   0.1250000   0.2500000  -0.4375000), wk =   0.0117188
        k(  121) = (   0.1250000   0.2500000  -0.3750000), wk =   0.0058594
        k(  122) = (   0.1250000   0.3125000   0.4375000), wk =   0.0058594
        k(  123) = (   0.1250000   0.3125000  -0.5000000), wk =   0.0117188
        k(  124) = (   0.1250000   0.3125000  -0.4375000), wk =   0.0117188
        k(  125) = (   0.1250000   0.3125000  -0.3750000), wk =   0.0117188
        k(  126) = (   0.1250000   0.3125000  -0.3125000), wk =   0.0117188
        k(  127) = (   0.1250000   0.3125000  -0.2500000), wk =   0.0117188
        k(  128) = (   0.1250000   0.3125000  -0.1875000), wk =   0.0058594
        k(  129) = (   0.1250000   0.3750000  -0.5000000), wk =   0.0058594
        k(  130) = (   0.1250000   0.3750000  -0.4375000), wk =   0.0117188
        k(  131) = (   0.1250000   0.3750000  -0.3750000), wk =   0.0117188
        k(  132) = (   0.1250000   0.3750000  -0.3125000), wk =   0.0117188
        k(  133) = (   0.1250000   0.3750000  -0.2500000), wk =   0.0058594
        k(  134) = (   0.1250000   0.4375000  -0.4375000), wk =   0.0058594
        k(  135) = (   0.1250000   0.4375000  -0.3750000), wk =   0.0117188
        k(  136) = (   0.1250000   0.4375000  -0.3125000), wk =   0.0058594
        k(  137) = (   0.1250000  -0.5000000  -0.3750000), wk =   0.0029297
        k(  138) = (   0.1875000   0.3750000  -0.4375000), wk =   0.0058594
        k(  139) = (   0.1875000   0.3750000  -0.3750000), wk =   0.0117188
        k(  140) = (   0.1875000   0.3750000  -0.3125000), wk =   0.0058594
        k(  141) = (   0.1875000   0.4375000  -0.3750000), wk =   0.0058594
        k(  142) = (   0.1875000   0.4375000  -0.3125000), wk =   0.0117188
        k(  143) = (   0.1875000   0.4375000  -0.2500000), wk =   0.0058594
        k(  144) = (   0.1875000  -0.5000000  -0.3125000), wk =   0.0029297
        k(  145) = (   0.2500000  -0.5000000  -0.2500000), wk =   0.0014648

     Dense  grid:    48359 G-vectors     FFT dimensions: (  54,  54,  54)

     Largest allocated arrays     est. size (Mb)     dimensions
        Kohn-Sham Wavefunctions         0.43 Mb     (     774,   36)
        NL pseudopotentials             0.21 Mb     (     387,   36)
        Each V/rho on FFT grid          0.18 Mb     (   11664)
        Each G-vector array             0.02 Mb     (    3024)
        G-vector shells                 0.00 Mb     (     421)
     Largest temporary arrays     est. size (Mb)     dimensions
        Auxiliary wavefunctions         1.70 Mb     (     774,  144)
        Each subspace H/S matrix        0.32 Mb     (     144,  144)
        Each <psi_i|beta_j> matrix      0.04 Mb     (      36,   2,   36)
        Arrays for rho mixing           1.42 Mb     (   11664,    8)

     Initial potential from superposition of free atoms

     starting charge   27.99749, renormalised to   28.00000
     Starting wfc are   36 randomized atomic wfcs
     Checking if some PAW data can be deallocated... 

     total cpu time spent up to now is       10.4 secs

     Self-consistent Calculation

     iteration #  1     ecut=    80.00 Ry     beta=0.70
     Davidson diagonalization with overlap
     ethr =  1.00E-02,  avg # of iterations =  3.5

     Threshold (ethr) on eigenvalues was too large:
     Diagonalizing with lowered threshold

     Davidson diagonalization with overlap
     ethr =  6.40E-05,  avg # of iterations =  3.3

     total cpu time spent up to now is       74.9 secs

     total energy              =    -873.10517330 Ry
     Harris-Foulkes estimate   =    -873.11076398 Ry
     estimated scf accuracy    <       0.02142628 Ry

     iteration #  2     ecut=    80.00 Ry     beta=0.70
     Davidson diagonalization with overlap
     ethr =  7.65E-05,  avg # of iterations =  1.0

     total cpu time spent up to now is      100.3 secs

     total energy              =    -873.10603470 Ry
     Harris-Foulkes estimate   =    -873.10629272 Ry
     estimated scf accuracy    <       0.00135257 Ry

     iteration #  3     ecut=    80.00 Ry     beta=0.70
     Davidson diagonalization with overlap
     ethr =  4.83E-06,  avg # of iterations =  2.7

     total cpu time spent up to now is      135.8 secs

     total energy              =    -873.10630515 Ry
     Harris-Foulkes estimate   =    -873.10634580 Ry
     estimated scf accuracy    <       0.00006855 Ry

     iteration #  4     ecut=    80.00 Ry     beta=0.70
     Davidson diagonalization with overlap
     ethr =  2.45E-07,  avg # of iterations =  2.0

     total cpu time spent up to now is      169.6 secs

     total energy              =    -873.10632651 Ry
     Harris-Foulkes estimate   =    -873.10632629 Ry
     estimated scf accuracy    <       0.00000418 Ry

     iteration #  5     ecut=    80.00 Ry     beta=0.70
     Davidson diagonalization with overlap
     ethr =  1.49E-08,  avg # of iterations =  2.0

     total cpu time spent up to now is      198.0 secs

     End of self-consistent calculation

          k = 0.0000 0.0000 0.0000 (  5985 PWs)   bands (ev):

   -14.7469 -14.7469 -14.7469 -14.7469 -14.7469 -14.7469 -14.6978 -14.6978
   -14.6978 -14.6978 -14.4477 -14.4477 -14.4477 -14.4477 -14.4477 -14.4477
   -14.4472 -14.4472 -14.4472 -14.4472  -3.3617  -3.3617   5.4964   5.4964
     6.8330   6.8330   6.8330   6.8330   6.8330   6.8330   8.8854   8.8854
     8.8854   8.8854   8.8854   8.8854

     occupation numbers 
     1.0000   1.0000   1.0000   1.0000   1.0000   1.0000   1.0000   1.0000
     1.0000   1.0000   1.0000   1.0000   1.0000   1.0000   1.0000   1.0000
     1.0000   1.0000   1.0000   1.0000   1.0000   1.0000   1.0000   1.0000
     0.0000   0.0000   0.0000   0.0000   0.0000   0.0000   0.0000   0.0000
     0.0000   0.0000   0.0000   0.0000

          k = 0.0442 0.0442-0.0442 (  6048 PWs)   bands (ev):

   -14.7495 -14.7495 -14.7495 -14.7495 -14.7461 -14.7461 -14.6943 -14.6943
   -14.6943 -14.6943 -14.4582 -14.4582 -14.4582 -14.4582 -14.4487 -14.4487
   -14.4373 -14.4373 -14.4373 -14.4373  -3.3269  -3.3269   5.1139   5.1139
     6.7602   6.7602   6.7602   6.7602   7.0009   7.0009   8.9806   8.9806
     8.9806   8.9806   9.0079   9.0079

     occupation numbers 
     1.0000   1.0000   1.0000   1.0000   1.0000   1.0000   1.0000   1.0000
     1.0000   1.0000   1.0000   1.0000   1.0000   1.0000   1.0000   1.0000
     1.0000   1.0000   1.0000   1.0000   1.0000   1.0000   1.0000   1.0000
     0.0007   0.0007   0.0007   0.0007   0.0000   0.0000   0.0000   0.0000
     0.0000   0.0000   0.0000   0.0000

          k = 0.0884 0.0884-0.0884 (  6051 PWs)   bands (ev):

   -14.7553 -14.7553 -14.7553 -14.7553 -14.7437 -14.7437 -14.6859 -14.6859
   -14.6859 -14.6859 -14.4689 -14.4689 -14.4689 -14.4689 -14.4516 -14.4516
   -14.4282 -14.4282 -14.4282 -14.4282  -3.2233  -3.2233   4.3633   4.3633
     6.5822   6.5822   6.5822   6.5822   7.1158   7.1158   9.2150   9.2150
     9.2150   9.2150   9.4267   9.4267

     occupation numbers 
     1.0000   1.0000   1.0000   1.0000   1.0000   1.0000   1.0000   1.0000
     1.0000   1.0000   1.0000   1.0000   1.0000   1.0000   1.0000   1.0000
     1.0000   1.0000   1.0000   1.0000   1.0000   1.0000   1.0000   1.0000
     1.0000   1.0000   1.0000   1.0000   0.0000   0.0000   0.0000   0.0000
     0.0000   0.0000   0.0000   0.0000

          k = 0.1326 0.1326-0.1326 (  6048 PWs)   bands (ev):

   -14.7617 -14.7617 -14.7617 -14.7617 -14.7401 -14.7401 -14.6759 -14.6759
   -14.6759 -14.6759 -14.4788 -14.4788 -14.4788 -14.4788 -14.4559 -14.4559
   -14.4205 -14.4205 -14.4205 -14.4205  -3.0538  -3.0538   3.5383   3.5383
     6.3670   6.3670   6.3670   6.3670   7.0420   7.0420   9.4899   9.4899
     9.4899   9.4899  10.0945  10.0946

     occupation numbers 
     1.0000   1.0000   1.0000   1.0000   1.0000   1.0000   1.0000   1.0000
     1.0000   1.0000   1.0000   1.0000   1.0000   1.0000   1.0000   1.0000
     1.0000   1.0000   1.0000   1.0000   1.0000   1.0000   1.0000   1.0000
     1.0000   1.0000   1.0000   1.0000   0.0000   0.0000   0.0000   0.0000
     0.0000   0.0000   0.0000   0.0000

          k = 0.1768 0.1768-0.1768 (  6057 PWs)   bands (ev):

   -14.7672 -14.7672 -14.7672 -14.7672 -14.7357 -14.7357 -14.6665 -14.6665
   -14.6665 -14.6665 -14.4873 -14.4873 -14.4873 -14.4873 -14.4611 -14.4611
   -14.4144 -14.4144 -14.4144 -14.4144  -2.8247  -2.8247   2.7287   2.7287
     6.1601   6.1601   6.1601   6.1601   6.8952   6.8952   9.7187   9.7187
     9.7187   9.7187  10.8942  10.8942

     occupation numbers 
     1.0000   1.0000   1.0000   1.0000   1.0000   1.0000   1.0000   1.0000
     1.0000   1.0000   1.0000   1.0000   1.0000   1.0000   1.0000   1.0000
     1.0000   1.0000   1.0000   1.0000   1.0000   1.0000   1.0000   1.0000
     1.0000   1.0000   1.0000   1.0000   0.0000   0.0000   0.0000   0.0000
     0.0000   0.0000   0.0000   0.0000

          k = 0.2210 0.2210-0.2210 (  6057 PWs)   bands (ev):

   -14.7714 -14.7714 -14.7714 -14.7714 -14.7312 -14.7312 -14.6587 -14.6587
   -14.6587 -14.6587 -14.4938 -14.4938 -14.4938 -14.4938 -14.4664 -14.4664
   -14.4099 -14.4099 -14.4099 -14.4099  -2.5492  -2.5492   1.9813   1.9813
     5.9852   5.9852   5.9852   5.9852   6.7490   6.7490   9.8556   9.8556
     9.8556   9.8556  11.7535  11.7535

     occupation numbers 
     1.0000   1.0000   1.0000   1.0000   1.0000   1.0000   1.0000   1.0000
     1.0000   1.0000   1.0000   1.0000   1.0000   1.0000   1.0000   1.0000
     1.0000   1.0000   1.0000   1.0000   1.0000   1.0000   1.0000   1.0000
     1.0000   1.0000   1.0000   1.0000   1.0000   1.0000   0.0000   0.0000
     0.0000   0.0000   0.0000   0.0000

          k = 0.2652 0.2652-0.2652 (  6077 PWs)   bands (ev):

   -14.7741 -14.7741 -14.7741 -14.7741 -14.7273 -14.7273 -14.6533 -14.6533
   -14.6533 -14.6533 -14.4981 -14.4981 -14.4981 -14.4981 -14.4710 -14.4710
   -14.4068 -14.4068 -14.4068 -14.4068  -2.2552  -2.2552   1.3412   1.3412
     5.8545   5.8545   5.8545   5.8545   6.6337   6.6337   9.9098   9.9098
     9.9098   9.9098  12.3840  12.3840

     occupation numbers 
     1.0000   1.0000   1.0000   1.0000   1.0000   1.0000   1.0000   1.0000
     1.0000   1.0000   1.0000   1.0000   1.0000   1.0000   1.0000   1.0000
     1.0000   1.0000   1.0000   1.0000   1.0000   1.0000   1.0000   1.0000
     1.0000   1.0000   1.0000   1.0000   1.0000   1.0000   0.0000   0.0000
     0.0000   0.0000   0.0000   0.0000

          k = 0.3094 0.3094-0.3094 (  6056 PWs)   bands (ev):

   -14.7756 -14.7756 -14.7756 -14.7756 -14.7246 -14.7246 -14.6502 -14.6502
   -14.6502 -14.6502 -14.5005 -14.5005 -14.5005 -14.5005 -14.4741 -14.4741
   -14.4051 -14.4051 -14.4051 -14.4051  -2.0030  -2.0030   0.8781   0.8781
     5.7741   5.7741   5.7741   5.7741   6.5614   6.5614   9.9203   9.9203
     9.9203   9.9203  12.3782  12.3782

     occupation numbers 
     1.0000   1.0000   1.0000   1.0000   1.0000   1.0000   1.0000   1.0000
     1.0000   1.0000   1.0000   1.0000   1.0000   1.0000   1.0000   1.0000
     1.0000   1.0000   1.0000   1.0000   1.0000   1.0000   1.0000   1.0000
     1.0000   1.0000   1.0000   1.0000   1.0000   1.0000   0.0000   0.0000
     0.0000   0.0000   0.0000   0.0000

          k =-0.3536-0.3536 0.3536 (  6062 PWs)   bands (ev):

   -14.7761 -14.7761 -14.7761 -14.7761 -14.7237 -14.7237 -14.6493 -14.6493
   -14.6493 -14.6493 -14.5012 -14.5012 -14.5012 -14.5012 -14.4752 -14.4752
   -14.4045 -14.4045 -14.4045 -14.4045  -1.8963  -1.8963   0.7006   0.7006
     5.7470   5.7470   5.7470   5.7470   6.5369   6.5369   9.9199   9.9199
     9.9199   9.9199  12.3494  12.3494

     occupation numbers 
     1.0000   1.0000   1.0000   1.0000   1.0000   1.0000   1.0000   1.0000
     1.0000   1.0000   1.0000   1.0000   1.0000   1.0000   1.0000   1.0000
     1.0000   1.0000   1.0000   1.0000   1.0000   1.0000   1.0000   1.0000
     1.0000   1.0000   1.0000   1.0000   1.0000   1.0000   0.0000   0.0000
     0.0000   0.0000   0.0000   0.0000

          k = 0.0884 0.0000 0.0000 (  6038 PWs)   bands (ev):

   -14.7491 -14.7491 -14.7487 -14.7487 -14.7487 -14.7487 -14.6953 -14.6953
   -14.6908 -14.6908 -14.4674 -14.4674 -14.4495 -14.4495 -14.4452 -14.4452
   -14.4452 -14.4452 -14.4331 -14.4331  -3.3152  -3.3152   5.0347   5.0347
     6.6264   6.6264   6.6264   6.6264   7.2755   7.2755   8.7308   8.7308
     9.1511   9.1511   9.1511   9.1511

     occupation numbers 
     1.0000   1.0000   1.0000   1.0000   1.0000   1.0000   1.0000   1.0000
     1.0000   1.0000   1.0000   1.0000   1.0000   1.0000   1.0000   1.0000
     1.0000   1.0000   1.0000   1.0000   1.0000   1.0000   1.0000   1.0000
     1.0000   1.0000   1.0000   1.0000   0.0000   0.0000   0.0000   0.0000
     0.0000   0.0000   0.0000   0.0000

          k = 0.1326 0.0442-0.0442 (  6057 PWs)   bands (ev):

   -14.7552 -14.7552 -14.7525 -14.7525 -14.7465 -14.7465 -14.6901 -14.6901
   -14.6821 -14.6821 -14.4789 -14.4789 -14.4587 -14.4587 -14.4454 -14.4454
   -14.4365 -14.4365 -14.4261 -14.4261  -3.2343  -3.2343   4.4783   4.4783
     6.4176   6.4176   6.4465   6.4465   7.5211   7.5211   8.7243   8.7243
     9.4345   9.4345   9.5029   9.5029

     occupation numbers 
     1.0000   1.0000   1.0000   1.0000   1.0000   1.0000   1.0000   1.0000
     1.0000   1.0000   1.0000   1.0000   1.0000   1.0000   1.0000   1.0000
     1.0000   1.0000   1.0000   1.0000   1.0000   1.0000   1.0000   1.0000
     1.0000   1.0000   1.0000   1.0000   0.0000   0.0000   0.0000   0.0000
     0.0000   0.0000   0.0000   0.0000

          k = 0.1768 0.0884-0.0884 (  6045 PWs)   bands (ev):

   -14.7625 -14.7625 -14.7583 -14.7583 -14.7424 -14.7424 -14.6814 -14.6814
   -14.6716 -14.6716 -14.4897 -14.4897 -14.4689 -14.4689 -14.4494 -14.4494
   -14.4277 -14.4277 -14.4184 -14.4184  -3.0864  -3.0864   3.7301   3.7301
     6.1948   6.1948   6.2248   6.2248   7.5327   7.5327   8.9526   8.9526
     9.7398   9.7398  10.0413  10.0413

     occupation numbers 
     1.0000   1.0000   1.0000   1.0000   1.0000   1.0000   1.0000   1.0000
     1.0000   1.0000   1.0000   1.0000   1.0000   1.0000   1.0000   1.0000
     1.0000   1.0000   1.0000   1.0000   1.0000   1.0000   1.0000   1.0000
     1.0000   1.0000   1.0000   1.0000   0.0000   0.0000   0.0000   0.0000
     0.0000   0.0000   0.0000   0.0000

          k = 0.2210 0.1326-0.1326 (  6053 PWs)   bands (ev):

   -14.7691 -14.7691 -14.7641 -14.7641 -14.7371 -14.7371 -14.6720 -14.6720
   -14.6615 -14.6615 -14.4987 -14.4987 -14.4783 -14.4783 -14.4556 -14.4556
   -14.4202 -14.4202 -14.4115 -14.4115  -2.8762  -2.8762   2.9445   2.9445
     5.9810   5.9810   5.9943   5.9943   7.4123   7.4123   9.2687   9.2687
     9.9857   9.9857  10.6707  10.6707

     occupation numbers 
     1.0000   1.0000   1.0000   1.0000   1.0000   1.0000   1.0000   1.0000
     1.0000   1.0000   1.0000   1.0000   1.0000   1.0000   1.0000   1.0000
     1.0000   1.0000   1.0000   1.0000   1.0000   1.0000   1.0000   1.0000
     1.0000   1.0000   1.0000   1.0000   0.0000   0.0000   0.0000   0.0000
     0.0000   0.0000   0.0000   0.0000

          k = 0.2652 0.1768-0.1768 (  6054 PWs)   bands (ev):

   -14.7743 -14.7743 -14.7689 -14.7689 -14.7311 -14.7311 -14.6634 -14.6634
   -14.6532 -14.6532 -14.5051 -14.5051 -14.4865 -14.4865 -14.4628 -14.4628
   -14.4141 -14.4141 -14.4060 -14.4060  -2.6140  -2.6140   2.1918   2.1918
     5.7539   5.7539   5.8351   5.8351   7.2631   7.2631   9.5302   9.5302
    10.1213  10.1213  11.3381  11.3381

     occupation numbers 
     1.0000   1.0000   1.0000   1.0000   1.0000   1.0000   1.0000   1.0000
     1.0000   1.0000   1.0000   1.0000   1.0000   1.0000   1.0000   1.0000
     1.0000   1.0000   1.0000   1.0000   1.0000   1.0000   1.0000   1.0000
     1.0000   1.0000   1.0000   1.0000   0.0000   0.0000   0.0000   0.0000
     0.0000   0.0000   0.0000   0.0000

          k = 0.3094 0.2210-0.2210 (  6068 PWs)   bands (ev):

   -14.7780 -14.7780 -14.7726 -14.7726 -14.7253 -14.7253 -14.6563 -14.6563
   -14.6480 -14.6480 -14.5082 -14.5082 -14.4933 -14.4933 -14.4700 -14.4700
   -14.4095 -14.4095 -14.4022 -14.4022  -2.3213  -2.3213   1.5215   1.5215
     5.5647   5.5647   5.7269   5.7269   7.1308   7.1308   9.6870   9.6870
    10.1502  10.1502  11.9985  11.9986

     occupation numbers 
     1.0000   1.0000   1.0000   1.0000   1.0000   1.0000   1.0000   1.0000
     1.0000   1.0000   1.0000   1.0000   1.0000   1.0000   1.0000   1.0000
     1.0000   1.0000   1.0000   1.0000   1.0000   1.0000   1.0000   1.0000
     1.0000   1.0000   1.0000   1.0000   0.0000   0.0000   0.0000   0.0000
     0.0000   0.0000   0.0000   0.0000

          k = 0.3536 0.2652-0.2652 (  6053 PWs)   bands (ev):

   -14.7801 -14.7801 -14.7752 -14.7752 -14.7208 -14.7208 -14.6508 -14.6508
   -14.6458 -14.6458 -14.5080 -14.5080 -14.4988 -14.4988 -14.4760 -14.4760
   -14.4060 -14.4060 -14.4002 -14.4002  -2.0450  -2.0450   0.9951   0.9951
     5.4238   5.4238   5.6742   5.6742   7.0346   7.0346   9.7709   9.7709
    10.1147  10.1147  12.4023  12.4023

     occupation numbers 
     1.0000   1.0000   1.0000   1.0000   1.0000   1.0000   1.0000   1.0000
     1.0000   1.0000   1.0000   1.0000   1.0000   1.0000   1.0000   1.0000
     1.0000   1.0000   1.0000   1.0000   1.0000   1.0000   1.0000   1.0000
     1.0000   1.0000   1.0000   1.0000   0.0000   0.0000   0.0000   0.0000
     0.0000   0.0000   0.0000   0.0000

          k =-0.3094-0.3977 0.3977 (  6060 PWs)   bands (ev):

   -14.7806 -14.7806 -14.7768 -14.7768 -14.7183 -14.7183 -14.6471 -14.6471
   -14.6464 -14.6464 -14.5053 -14.5053 -14.5030 -14.5030 -14.4799 -14.4799
   -14.4037 -14.4037 -14.3999 -14.3999  -1.8766  -1.8766   0.7118   0.7118
     5.3372   5.3372   5.6782   5.6782   6.9825   6.9825   9.8299   9.8299
    10.0561  10.0561  12.4786  12.4786

     occupation numbers 
     1.0000   1.0000   1.0000   1.0000   1.0000   1.0000   1.0000   1.0000
     1.0000   1.0000   1.0000   1.0000   1.0000   1.0000   1.0000   1.0000
     1.0000   1.0000   1.0000   1.0000   1.0000   1.0000   1.0000   1.0000
     1.0000   1.0000   1.0000   1.0000   0.0000   0.0000   0.0000   0.0000
     0.0000   0.0000   0.0000   0.0000

          k =-0.2652-0.3536 0.3536 (  6070 PWs)   bands (ev):

   -14.7798 -14.7798 -14.7775 -14.7775 -14.7184 -14.7184 -14.6491 -14.6491
   -14.6454 -14.6454 -14.5057 -14.5057 -14.5013 -14.5013 -14.4804 -14.4804
   -14.4026 -14.4026 -14.4012 -14.4012  -1.9137  -1.9137   0.7722   0.7722
     5.3082   5.3082   5.7380   5.7380   6.9778   6.9778   9.8895   9.8895
     9.9940   9.9940  12.4929  12.4929

     occupation numbers 
     1.0000   1.0000   1.0000   1.0000   1.0000   1.0000   1.0000   1.0000
     1.0000   1.0000   1.0000   1.0000   1.0000   1.0000   1.0000   1.0000
     1.0000   1.0000   1.0000   1.0000   1.0000   1.0000   1.0000   1.0000
     1.0000   1.0000   1.0000   1.0000   0.0000   0.0000   0.0000   0.0000
     0.0000   0.0000   0.0000   0.0000

          k =-0.2210-0.3094 0.3094 (  6063 PWs)   bands (ev):

   -14.7775 -14.7775 -14.7770 -14.7770 -14.7211 -14.7211 -14.6533 -14.6533
   -14.6461 -14.6461 -14.5063 -14.5063 -14.4973 -14.4973 -14.4768 -14.4768
   -14.4042 -14.4042 -14.4028 -14.4028  -2.1312  -2.1312   1.1505   1.1505
     5.3392   5.3392   5.8505   5.8505   7.0198   7.0198   9.9250   9.9250
     9.9467   9.9467  12.4036  12.4036

     occupation numbers 
     1.0000   1.0000   1.0000   1.0000   1.0000   1.0000   1.0000   1.0000
     1.0000   1.0000   1.0000   1.0000   1.0000   1.0000   1.0000   1.0000
     1.0000   1.0000   1.0000   1.0000   1.0000   1.0000   1.0000   1.0000
     1.0000   1.0000   1.0000   1.0000   0.0000   0.0000   0.0000   0.0000
     0.0000   0.0000   0.0000   0.0000

          k =-0.1768-0.2652 0.2652 (  6060 PWs)   bands (ev):

   -14.7753 -14.7753 -14.7740 -14.7740 -14.7258 -14.7258 -14.6589 -14.6589
   -14.6498 -14.6498 -14.5041 -14.5041 -14.4930 -14.4930 -14.4700 -14.4700
   -14.4088 -14.4088 -14.4045 -14.4045  -2.4208  -2.4208   1.7336   1.7336
     5.4316   5.4316   6.0098   6.0098   7.1043   7.1043   9.8241   9.8241
     9.9669   9.9669  11.8562  11.8562

     occupation numbers 
     1.0000   1.0000   1.0000   1.0000   1.0000   1.0000   1.0000   1.0000
     1.0000   1.0000   1.0000   1.0000   1.0000   1.0000   1.0000   1.0000
     1.0000   1.0000   1.0000   1.0000   1.0000   1.0000   1.0000   1.0000
     1.0000   1.0000   1.0000   1.0000   0.0000   0.0000   0.0000   0.0000
     0.0000   0.0000   0.0000   0.0000

          k =-0.1326-0.2210 0.2210 (  6046 PWs)   bands (ev):

   -14.7720 -14.7720 -14.7690 -14.7690 -14.7316 -14.7316 -14.6661 -14.6661
   -14.6567 -14.6567 -14.4989 -14.4989 -14.4874 -14.4874 -14.4618 -14.4618
   -14.4150 -14.4150 -14.4078 -14.4078  -2.7067  -2.7067   2.4360   2.4360
     5.5863   5.5863   6.2061   6.2061   7.2197   7.2197   9.6593   9.6593
     9.8800   9.8800  11.1348  11.1348

     occupation numbers 
     1.0000   1.0000   1.0000   1.0000   1.0000   1.0000   1.0000   1.0000
     1.0000   1.0000   1.0000   1.0000   1.0000   1.0000   1.0000   1.0000
     1.0000   1.0000   1.0000   1.0000   1.0000   1.0000   1.0000   1.0000
     1.0000   1.0000   1.0000   1.0000   0.0000   0.0000   0.0000   0.0000
     0.0000   0.0000   0.0000   0.0000

          k =-0.0884-0.1768 0.1768 (  6060 PWs)   bands (ev):

   -14.7671 -14.7671 -14.7629 -14.7629 -14.7376 -14.7376 -14.6746 -14.6746
   -14.6662 -14.6662 -14.4908 -14.4908 -14.4803 -14.4803 -14.4537 -14.4537
   -14.4227 -14.4227 -14.4128 -14.4128  -2.9531  -2.9531   3.2023   3.2023
     5.8030   5.8030   6.4219   6.4219   7.3371   7.3371   9.4252   9.4252
     9.6198   9.6198  10.4965  10.4965

     occupation numbers 
     1.0000   1.0000   1.0000   1.0000   1.0000   1.0000   1.0000   1.0000
     1.0000   1.0000   1.0000   1.0000   1.0000   1.0000   1.0000   1.0000
     1.0000   1.0000   1.0000   1.0000   1.0000   1.0000   1.0000   1.0000
     1.0000   1.0000   1.0000   1.0000   0.0000   0.0000   0.0000   0.0000
     0.0000   0.0000   0.0000   0.0000

          k =-0.0442-0.1326 0.1326 (  6051 PWs)   bands (ev):

   -14.7610 -14.7610 -14.7562 -14.7562 -14.7427 -14.7427 -14.6836 -14.6836
   -14.6769 -14.6769 -14.4808 -14.4808 -14.4718 -14.4718 -14.4467 -14.4467
   -14.4318 -14.4318 -14.4196 -14.4196  -3.1432  -3.1432   3.9782   3.9782
     6.0814   6.0814   6.6245   6.6245   7.3872   7.3872   9.1717   9.1717
     9.2589   9.2589   9.9424   9.9424

     occupation numbers 
     1.0000   1.0000   1.0000   1.0000   1.0000   1.0000   1.0000   1.0000
     1.0000   1.0000   1.0000   1.0000   1.0000   1.0000   1.0000   1.0000
     1.0000   1.0000   1.0000   1.0000   1.0000   1.0000   1.0000   1.0000
     1.0000   1.0000   1.0000   1.0000   0.0000   0.0000   0.0000   0.0000
     0.0000   0.0000   0.0000   0.0000

          k = 0.0000-0.0884 0.0884 (  6039 PWs)   bands (ev):

   -14.7544 -14.7544 -14.7507 -14.7507 -14.7459 -14.7459 -14.6911 -14.6911
   -14.6872 -14.6872 -14.4696 -14.4696 -14.4627 -14.4627 -14.4426 -14.4426
   -14.4404 -14.4404 -14.4279 -14.4279  -3.2690  -3.2690   4.6753   4.6753
     6.4201   6.4201   6.7581   6.7581   7.2546   7.2546   8.9927   8.9927
     9.0170   9.0170   9.4274   9.4274

     occupation numbers 
     1.0000   1.0000   1.0000   1.0000   1.0000   1.0000   1.0000   1.0000
     1.0000   1.0000   1.0000   1.0000   1.0000   1.0000   1.0000   1.0000
     1.0000   1.0000   1.0000   1.0000   1.0000   1.0000   1.0000   1.0000
     1.0000   1.0000   0.1658   0.1658   0.0000   0.0000   0.0000   0.0000
     0.0000   0.0000   0.0000   0.0000

          k = 0.1768 0.0000 0.0000 (  6058 PWs)   bands (ev):

   -14.7539 -14.7539 -14.7539 -14.7539 -14.7522 -14.7522 -14.6880 -14.6880
   -14.6732 -14.6732 -14.4923 -14.4923 -14.4565 -14.4565 -14.4382 -14.4382
   -14.4382 -14.4382 -14.4251 -14.4251  -3.1761  -3.1761   4.2301   4.2301
     6.1941   6.1941   6.1941   6.1941   7.9876   7.9876   8.3948   8.3948
     9.7588   9.7588   9.7588   9.7588

     occupation numbers 
     1.0000   1.0000   1.0000   1.0000   1.0000   1.0000   1.0000   1.0000
     1.0000   1.0000   1.0000   1.0000   1.0000   1.0000   1.0000   1.0000
     1.0000   1.0000   1.0000   1.0000   1.0000   1.0000   1.0000   1.0000
     1.0000   1.0000   1.0000   1.0000   0.0000   0.0000   0.0000   0.0000
     0.0000   0.0000   0.0000   0.0000

          k = 0.2210 0.0442-0.0442 (  6052 PWs)   bands (ev):

   -14.7616 -14.7616 -14.7582 -14.7582 -14.7479 -14.7479 -14.6813 -14.6813
   -14.6620 -14.6620 -14.5052 -14.5052 -14.4643 -14.4643 -14.4386 -14.4386
   -14.4311 -14.4311 -14.4195 -14.4195  -3.0500  -3.0500   3.6905   3.6905
     5.9474   5.9474   5.9661   5.9661   8.1651   8.1651   8.3889   8.3889
    10.1049  10.1049  10.1809  10.1809

     occupation numbers 
     1.0000   1.0000   1.0000   1.0000   1.0000   1.0000   1.0000   1.0000
     1.0000   1.0000   1.0000   1.0000   1.0000   1.0000   1.0000   1.0000
     1.0000   1.0000   1.0000   1.0000   1.0000   1.0000   1.0000   1.0000
     1.0000   1.0000   1.0000   1.0000   0.0000   0.0000   0.0000   0.0000
     0.0000   0.0000   0.0000   0.0000

          k = 0.2652 0.0884-0.0884 (  6054 PWs)   bands (ev):

   -14.7699 -14.7699 -14.7636 -14.7636 -14.7408 -14.7408 -14.6724 -14.6724
   -14.6509 -14.6509 -14.5163 -14.5163 -14.4741 -14.4741 -14.4456 -14.4456
   -14.4230 -14.4230 -14.4111 -14.4111  -2.8598  -2.8598   3.0174   3.0174
     5.6615   5.6615   5.7666   5.7666   8.0865   8.0865   8.6877   8.6877
    10.3927  10.3927  10.5985  10.5985

     occupation numbers 
     1.0000   1.0000   1.0000   1.0000   1.0000   1.0000   1.0000   1.0000
     1.0000   1.0000   1.0000   1.0000   1.0000   1.0000   1.0000   1.0000
     1.0000   1.0000   1.0000   1.0000   1.0000   1.0000   1.0000   1.0000
     1.0000   1.0000   1.0000   1.0000   0.0000   0.0000   0.0000   0.0000
     0.0000   0.0000   0.0000   0.0000

          k = 0.3094 0.1326-0.1326 (  6054 PWs)   bands (ev):

   -14.7773 -14.7773 -14.7686 -14.7686 -14.7321 -14.7321 -14.6633 -14.6633
   -14.6418 -14.6418 -14.5243 -14.5243 -14.4837 -14.4837 -14.4553 -14.4553
   -14.4159 -14.4159 -14.4033 -14.4033  -2.6133  -2.6133   2.3171   2.3171
     5.3741   5.3741   5.6131   5.6131   7.9425   7.9425   9.0756   9.0756
    10.5593  10.5593  10.9017  10.9017

     occupation numbers 
     1.0000   1.0000   1.0000   1.0000   1.0000   1.0000   1.0000   1.0000
     1.0000   1.0000   1.0000   1.0000   1.0000   1.0000   1.0000   1.0000
     1.0000   1.0000   1.0000   1.0000   1.0000   1.0000   1.0000   1.0000
     1.0000   1.0000   1.0000   1.0000   0.0000   0.0000   0.0000   0.0000
     0.0000   0.0000   0.0000   0.0000

          k = 0.3536 0.1768-0.1768 (  6061 PWs)   bands (ev):

   -14.7831 -14.7831 -14.7729 -14.7729 -14.7229 -14.7229 -14.6547 -14.6547
   -14.6360 -14.6360 -14.5281 -14.5281 -14.4927 -14.4927 -14.4660 -14.4660
   -14.4099 -14.4099 -14.3970 -14.3970  -2.3267  -2.3267   1.6566   1.6566
     5.1206   5.1206   5.5151   5.5151   7.7976   7.7976   9.4012   9.4012
    10.5936  10.5936  11.2510  11.2510

     occupation numbers 
     1.0000   1.0000   1.0000   1.0000   1.0000   1.0000   1.0000   1.0000
     1.0000   1.0000   1.0000   1.0000   1.0000   1.0000   1.0000   1.0000
     1.0000   1.0000   1.0000   1.0000   1.0000   1.0000   1.0000   1.0000
     1.0000   1.0000   1.0000   1.0000   0.0000   0.0000   0.0000   0.0000
     0.0000   0.0000   0.0000   0.0000

          k = 0.3977 0.2210-0.2210 (  6055 PWs)   bands (ev):

   -14.7871 -14.7871 -14.7762 -14.7762 -14.7145 -14.7145 -14.6472 -14.6472
   -14.6345 -14.6345 -14.5270 -14.5270 -14.5009 -14.5009 -14.4763 -14.4763
   -14.4051 -14.4051 -14.3927 -14.3927  -2.0357  -2.0357   1.0982   1.0982
     4.9181   4.9181   5.4769   5.4769   7.6800   7.6800   9.5966   9.5966
    10.5360  10.5360  11.7674  11.7674

     occupation numbers 
     1.0000   1.0000   1.0000   1.0000   1.0000   1.0000   1.0000   1.0000
     1.0000   1.0000   1.0000   1.0000   1.0000   1.0000   1.0000   1.0000
     1.0000   1.0000   1.0000   1.0000   1.0000   1.0000   1.0000   1.0000
     1.0000   1.0000   1.0000   1.0000   0.0000   0.0000   0.0000   0.0000
     0.0000   0.0000   0.0000   0.0000

          k =-0.2652-0.4419 0.4419 (  6059 PWs)   bands (ev):

   -14.7891 -14.7891 -14.7787 -14.7787 -14.7083 -14.7083 -14.6411 -14.6411
   -14.6369 -14.6369 -14.5213 -14.5213 -14.5080 -14.5080 -14.4849 -14.4849
   -14.4015 -14.4015 -14.3908 -14.3908  -1.8167  -1.8167   0.7324   0.7324
     4.7755   4.7755   5.4994   5.4994   7.6025   7.6025   9.7113   9.7113
    10.4355  10.4355  12.3328  12.3328

     occupation numbers 
     1.0000   1.0000   1.0000   1.0000   1.0000   1.0000   1.0000   1.0000
     1.0000   1.0000   1.0000   1.0000   1.0000   1.0000   1.0000   1.0000
     1.0000   1.0000   1.0000   1.0000   1.0000   1.0000   1.0000   1.0000
     1.0000   1.0000   1.0000   1.0000   0.0000   0.0000   0.0000   0.0000
     0.0000   0.0000   0.0000   0.0000

          k =-0.2210-0.3977 0.3977 (  6065 PWs)   bands (ev):

   -14.7890 -14.7890 -14.7802 -14.7802 -14.7056 -14.7056 -14.6420 -14.6420
   -14.6369 -14.6369 -14.5136 -14.5136 -14.5121 -14.5121 -14.4905 -14.4905
   -14.3992 -14.3992 -14.3913 -14.3913  -1.7812  -1.7812   0.6771   0.6771
     4.6985   4.6985   5.5809   5.5809   7.5699   7.5699   9.8079   9.8079
    10.3202  10.3202  12.6340  12.6340

     occupation numbers 
     1.0000   1.0000   1.0000   1.0000   1.0000   1.0000   1.0000   1.0000
     1.0000   1.0000   1.0000   1.0000   1.0000   1.0000   1.0000   1.0000
     1.0000   1.0000   1.0000   1.0000   1.0000   1.0000   1.0000   1.0000
     1.0000   1.0000   1.0000   1.0000   0.0000   0.0000   0.0000   0.0000
     0.0000   0.0000   0.0000   0.0000

          k =-0.1768-0.3536 0.3536 (  6059 PWs)   bands (ev):

   -14.7867 -14.7867 -14.7805 -14.7805 -14.7072 -14.7072 -14.6485 -14.6485
   -14.6355 -14.6355 -14.5167 -14.5167 -14.5016 -14.5016 -14.4916 -14.4916
   -14.3984 -14.3984 -14.3945 -14.3945  -1.9537  -1.9537   0.9569   0.9569
     4.6924   4.6924   5.7168   5.7168   7.5812   7.5812   9.9088   9.9088
    10.1931  10.1931  12.3880  12.3880

     occupation numbers 
     1.0000   1.0000   1.0000   1.0000   1.0000   1.0000   1.0000   1.0000
     1.0000   1.0000   1.0000   1.0000   1.0000   1.0000   1.0000   1.0000
     1.0000   1.0000   1.0000   1.0000   1.0000   1.0000   1.0000   1.0000
     1.0000   1.0000   1.0000   1.0000   0.0000   0.0000   0.0000   0.0000
     0.0000   0.0000   0.0000   0.0000

          k =-0.1326-0.3094 0.3094 (  6053 PWs)   bands (ev):

   -14.7825 -14.7825 -14.7796 -14.7796 -14.7128 -14.7128 -14.6553 -14.6553
   -14.6379 -14.6379 -14.5161 -14.5161 -14.4962 -14.4962 -14.4830 -14.4830
   -14.4001 -14.4001 -14.3991 -14.3991  -2.2326  -2.2326   1.4642   1.4642
     4.7638   4.7638   5.8989   5.8989   7.6293   7.6293   9.9909   9.9909
    10.0356  10.0356  11.7383  11.7383

     occupation numbers 
     1.0000   1.0000   1.0000   1.0000   1.0000   1.0000   1.0000   1.0000
     1.0000   1.0000   1.0000   1.0000   1.0000   1.0000   1.0000   1.0000
     1.0000   1.0000   1.0000   1.0000   1.0000   1.0000   1.0000   1.0000
     1.0000   1.0000   1.0000   1.0000   0.0000   0.0000   0.0000   0.0000
     0.0000   0.0000   0.0000   0.0000

          k =-0.0884-0.2652 0.2652 (  6050 PWs)   bands (ev):

   -14.7770 -14.7770 -14.7764 -14.7764 -14.7210 -14.7210 -14.6624 -14.6624
   -14.6444 -14.6444 -14.5115 -14.5115 -14.4925 -14.4925 -14.4698 -14.4698
   -14.4081 -14.4081 -14.4017 -14.4017  -2.5256  -2.5256   2.0921   2.0921
     4.9222   4.9222   6.1134   6.1134   7.6958   7.6958   9.8234   9.8234
     9.9592   9.9592  11.1339  11.1339

     occupation numbers 
     1.0000   1.0000   1.0000   1.0000   1.0000   1.0000   1.0000   1.0000
     1.0000   1.0000   1.0000   1.0000   1.0000   1.0000   1.0000   1.0000
     1.0000   1.0000   1.0000   1.0000   1.0000   1.0000   1.0000   1.0000
     1.0000   1.0000   1.0000   1.0000   0.0000   0.0000   0.0000   0.0000
     0.0000   0.0000   0.0000   0.0000

          k =-0.0442-0.2210 0.2210 (  6046 PWs)   bands (ev):

   -14.7729 -14.7729 -14.7691 -14.7691 -14.7300 -14.7300 -14.6698 -14.6698
   -14.6541 -14.6541 -14.5032 -14.5032 -14.4870 -14.4870 -14.4570 -14.4570
   -14.4178 -14.4178 -14.4060 -14.4060  -2.7871  -2.7871   2.7671   2.7671
     5.1829   5.1829   6.3363   6.3363   7.7363   7.7363   9.5620   9.5621
     9.6951   9.6951  10.7668  10.7668

     occupation numbers 
     1.0000   1.0000   1.0000   1.0000   1.0000   1.0000   1.0000   1.0000
     1.0000   1.0000   1.0000   1.0000   1.0000   1.0000   1.0000   1.0000
     1.0000   1.0000   1.0000   1.0000   1.0000   1.0000   1.0000   1.0000
     1.0000   1.0000   1.0000   1.0000   0.0000   0.0000   0.0000   0.0000
     0.0000   0.0000   0.0000   0.0000

          k = 0.0000-0.1768 0.1768 (  6047 PWs)   bands (ev):

   -14.7673 -14.7673 -14.7616 -14.7616 -14.7380 -14.7380 -14.6773 -14.6773
   -14.6656 -14.6656 -14.4926 -14.4926 -14.4797 -14.4797 -14.4470 -14.4470
   -14.4281 -14.4281 -14.4120 -14.4120  -2.9962  -2.9962   3.4208   3.4208
     5.5669   5.5669   6.5268   6.5268   7.6583   7.6583   9.3124   9.3124
     9.3805   9.3805  10.4421  10.4421

     occupation numbers 
     1.0000   1.0000   1.0000   1.0000   1.0000   1.0000   1.0000   1.0000
     1.0000   1.0000   1.0000   1.0000   1.0000   1.0000   1.0000   1.0000
     1.0000   1.0000   1.0000   1.0000   1.0000   1.0000   1.0000   1.0000
     1.0000   1.0000   1.0000   1.0000   0.0000   0.0000   0.0000   0.0000
     0.0000   0.0000   0.0000   0.0000

          k = 0.2652 0.0000 0.0000 (  6058 PWs)   bands (ev):

   -14.7612 -14.7612 -14.7612 -14.7612 -14.7522 -14.7522 -14.6762 -14.6762
   -14.6497 -14.6497 -14.5209 -14.5209 -14.4678 -14.4678 -14.4280 -14.4280
   -14.4280 -14.4280 -14.4236 -14.4236  -2.9456  -2.9456   3.3795   3.3795
     5.7337   5.7337   5.7337   5.7337   8.0421   8.0421   8.5431   8.5431
    10.5058  10.5058  10.5058  10.5058

     occupation numbers 
     1.0000   1.0000   1.0000   1.0000   1.0000   1.0000   1.0000   1.0000
     1.0000   1.0000   1.0000   1.0000   1.0000   1.0000   1.0000   1.0000
     1.0000   1.0000   1.0000   1.0000   1.0000   1.0000   1.0000   1.0000
     1.0000   1.0000   1.0000   1.0000   0.0000   0.0000   0.0000   0.0000
     0.0000   0.0000   0.0000   0.0000

          k = 0.3094 0.0442-0.0442 (  6047 PWs)   bands (ev):

   -14.7686 -14.7686 -14.7657 -14.7657 -14.7462 -14.7462 -14.6681 -14.6681
   -14.6370 -14.6370 -14.5348 -14.5348 -14.4762 -14.4762 -14.4343 -14.4343
   -14.4214 -14.4214 -14.4146 -14.4146  -2.7757  -2.7757   2.8767   2.8767
     5.4709   5.4709   5.5302   5.5302   8.0260   8.0260   8.6420   8.6420
    10.8223  10.8223  10.8615  10.8615

     occupation numbers 
     1.0000   1.0000   1.0000   1.0000   1.0000   1.0000   1.0000   1.0000
     1.0000   1.0000   1.0000   1.0000   1.0000   1.0000   1.0000   1.0000
     1.0000   1.0000   1.0000   1.0000   1.0000   1.0000   1.0000   1.0000
     1.0000   1.0000   1.0000   1.0000   0.0000   0.0000   0.0000   0.0000
     0.0000   0.0000   0.0000   0.0000

          k = 0.3536 0.0884-0.0884 (  6057 PWs)   bands (ev):

   -14.7776 -14.7776 -14.7704 -14.7704 -14.7358 -14.7358 -14.6587 -14.6587
   -14.6261 -14.6261 -14.5457 -14.5457 -14.4861 -14.4861 -14.4463 -14.4463
   -14.4143 -14.4143 -14.4039 -14.4039  -2.5463  -2.5463   2.2866   2.2866
     5.1456   5.1456   5.3742   5.3742   8.1223   8.1223   8.7864   8.7864
    10.8702  10.8702  11.0949  11.0949

     occupation numbers 
     1.0000   1.0000   1.0000   1.0000   1.0000   1.0000   1.0000   1.0000
     1.0000   1.0000   1.0000   1.0000   1.0000   1.0000   1.0000   1.0000
     1.0000   1.0000   1.0000   1.0000   1.0000   1.0000   1.0000   1.0000
     1.0000   1.0000   1.0000   1.0000   0.0000   0.0000   0.0000   0.0000
     0.0000   0.0000   0.0000   0.0000

          k = 0.3977 0.1326-0.1326 (  6053 PWs)   bands (ev):

   -14.7856 -14.7856 -14.7747 -14.7747 -14.7235 -14.7235 -14.6491 -14.6491
   -14.6188 -14.6188 -14.5520 -14.5520 -14.4963 -14.4963 -14.4600 -14.4600
   -14.4079 -14.4079 -14.3947 -14.3947  -2.2695  -2.2695   1.6854   1.6854
     4.8227   4.8227   5.2756   5.2756   8.0942   8.0942   9.1718   9.1718
    10.8620  10.8620  11.1707  11.1707

     occupation numbers 
     1.0000   1.0000   1.0000   1.0000   1.0000   1.0000   1.0000   1.0000
     1.0000   1.0000   1.0000   1.0000   1.0000   1.0000   1.0000   1.0000
     1.0000   1.0000   1.0000   1.0000   1.0000   1.0000   1.0000   1.0000
     1.0000   1.0000   1.0000   1.0000   0.0000   0.0000   0.0000   0.0000
     0.0000   0.0000   0.0000   0.0000

          k = 0.4419 0.1768-0.1768 (  6051 PWs)   bands (ev):

   -14.7919 -14.7919 -14.7783 -14.7783 -14.7112 -14.7112 -14.6401 -14.6401
   -14.6165 -14.6165 -14.5526 -14.5526 -14.5063 -14.5063 -14.4739 -14.4739
   -14.4026 -14.4026 -14.3876 -14.3876  -1.9721  -1.9721   1.1374   1.1374
     4.5461   4.5461   5.2394   5.2394   8.0175   8.0175   9.5905   9.5905
    11.0329  11.0329  11.1191  11.1191

     occupation numbers 
     1.0000   1.0000   1.0000   1.0000   1.0000   1.0000   1.0000   1.0000
     1.0000   1.0000   1.0000   1.0000   1.0000   1.0000   1.0000   1.0000
     1.0000   1.0000   1.0000   1.0000   1.0000   1.0000   1.0000   1.0000
     1.0000   1.0000   1.0000   1.0000   0.0000   0.0000   0.0000   0.0000
     0.0000   0.0000   0.0000   0.0000

          k =-0.2210-0.4861 0.4861 (  6058 PWs)   bands (ev):

   -14.7960 -14.7960 -14.7811 -14.7811 -14.7009 -14.7009 -14.6321 -14.6321
   -14.6196 -14.6196 -14.5471 -14.5471 -14.5156 -14.5156 -14.4859 -14.4859
   -14.3985 -14.3985 -14.3831 -14.3831  -1.7145  -1.7145   0.7245   0.7245
     4.3361   4.3361   5.2669   5.2669   7.9600   7.9600   9.8421   9.8421
    10.9963  10.9963  11.5160  11.5160

     occupation numbers 
     1.0000   1.0000   1.0000   1.0000   1.0000   1.0000   1.0000   1.0000
     1.0000   1.0000   1.0000   1.0000   1.0000   1.0000   1.0000   1.0000
     1.0000   1.0000   1.0000   1.0000   1.0000   1.0000   1.0000   1.0000
     1.0000   1.0000   1.0000   1.0000   0.0000   0.0000   0.0000   0.0000
     0.0000   0.0000   0.0000   0.0000

          k =-0.1768-0.4419 0.4419 (  6052 PWs)   bands (ev):

   -14.7975 -14.7975 -14.7830 -14.7830 -14.6943 -14.6943 -14.6271 -14.6271
   -14.6258 -14.6258 -14.5364 -14.5364 -14.5235 -14.5235 -14.4944 -14.4944
   -14.3956 -14.3956 -14.3818 -14.3818  -1.6090  -1.6090   0.5695   0.5695
     4.2039   4.2039   5.3563   5.3563   7.9396   7.9396   9.9691   9.9691
    10.8398  10.8398  12.1617  12.1617

     occupation numbers 
     1.0000   1.0000   1.0000   1.0000   1.0000   1.0000   1.0000   1.0000
     1.0000   1.0000   1.0000   1.0000   1.0000   1.0000   1.0000   1.0000
     1.0000   1.0000   1.0000   1.0000   1.0000   1.0000   1.0000   1.0000
     1.0000   1.0000   1.0000   1.0000   0.0000   0.0000   0.0000   0.0000
     0.0000   0.0000   0.0000   0.0000

          k =-0.1326-0.3977 0.3977 (  6051 PWs)   bands (ev):

   -14.7962 -14.7962 -14.7839 -14.7839 -14.6929 -14.6929 -14.6373 -14.6373
   -14.6227 -14.6227 -14.5285 -14.5285 -14.5217 -14.5217 -14.4988 -14.4988
   -14.3943 -14.3943 -14.3837 -14.3837  -1.7287  -1.7287   0.7471   0.7471
     4.1590   4.1590   5.5025   5.5025   7.9557   7.9557  10.0731  10.0731
    10.6578  10.6579  12.2745  12.2745

     occupation numbers 
     1.0000   1.0000   1.0000   1.0000   1.0000   1.0000   1.0000   1.0000
     1.0000   1.0000   1.0000   1.0000   1.0000   1.0000   1.0000   1.0000
     1.0000   1.0000   1.0000   1.0000   1.0000   1.0000   1.0000   1.0000
     1.0000   1.0000   1.0000   1.0000   0.0000   0.0000   0.0000   0.0000
     0.0000   0.0000   0.0000   0.0000

          k =-0.0884-0.3536 0.3536 (  6047 PWs)   bands (ev):

   -14.7922 -14.7922 -14.7834 -14.7834 -14.6973 -14.6973 -14.6476 -14.6476
   -14.6243 -14.6243 -14.5288 -14.5288 -14.5043 -14.5043 -14.4997 -14.4997
   -14.3946 -14.3946 -14.3889 -14.3889  -1.9913  -1.9913   1.1665   1.1665
     4.2139   4.2139   5.6961   5.6961   7.9948   7.9948  10.1809  10.1809
    10.4350  10.4350  11.5982  11.5982

     occupation numbers 
     1.0000   1.0000   1.0000   1.0000   1.0000   1.0000   1.0000   1.0000
     1.0000   1.0000   1.0000   1.0000   1.0000   1.0000   1.0000   1.0000
     1.0000   1.0000   1.0000   1.0000   1.0000   1.0000   1.0000   1.0000
     1.0000   1.0000   1.0000   1.0000   0.0000   0.0000   0.0000   0.0000
     0.0000   0.0000   0.0000   0.0000

          k =-0.0442-0.3094 0.3094 (  6053 PWs)   bands (ev):

   -14.7858 -14.7858 -14.7814 -14.7814 -14.7068 -14.7068 -14.6564 -14.6564
   -14.6312 -14.6312 -14.5238 -14.5238 -14.4977 -14.4977 -14.4862 -14.4862
   -14.3971 -14.3971 -14.3967 -14.3967  -2.2878  -2.2878   1.6987   1.6987
     4.3872   4.3872   5.9210   5.9210   8.0233   8.0233  10.1542  10.1542
    10.2130  10.2130  10.9835  10.9835

     occupation numbers 
     1.0000   1.0000   1.0000   1.0000   1.0000   1.0000   1.0000   1.0000
     1.0000   1.0000   1.0000   1.0000   1.0000   1.0000   1.0000   1.0000
     1.0000   1.0000   1.0000   1.0000   1.0000   1.0000   1.0000   1.0000
     1.0000   1.0000   1.0000   1.0000   0.0000   0.0000   0.0000   0.0000
     0.0000   0.0000   0.0000   0.0000

          k = 0.0000-0.2652 0.2652 (  6057 PWs)   bands (ev):

   -14.7778 -14.7778 -14.7777 -14.7777 -14.7188 -14.7188 -14.6636 -14.6636
   -14.6418 -14.6418 -14.5147 -14.5147 -14.4933 -14.4933 -14.4695 -14.4695
   -14.4074 -14.4074 -14.4005 -14.4005  -2.5614  -2.5614   2.2534   2.2534
     4.7039   4.7039   6.1494   6.1494   7.9696   7.9696   9.8377   9.8377
     9.9559   9.9559  10.8016  10.8016

     occupation numbers 
     1.0000   1.0000   1.0000   1.0000   1.0000   1.0000   1.0000   1.0000
     1.0000   1.0000   1.0000   1.0000   1.0000   1.0000   1.0000   1.0000
     1.0000   1.0000   1.0000   1.0000   1.0000   1.0000   1.0000   1.0000
     1.0000   1.0000   1.0000   1.0000   0.0000   0.0000   0.0000   0.0000
     0.0000   0.0000   0.0000   0.0000

          k = 0.3536 0.0000 0.0000 (  6030 PWs)   bands (ev):

   -14.7693 -14.7693 -14.7693 -14.7693 -14.7474 -14.7474 -14.6603 -14.6603
   -14.6224 -14.6224 -14.5520 -14.5520 -14.4831 -14.4831 -14.4286 -14.4286
   -14.4164 -14.4164 -14.4164 -14.4164  -2.6257  -2.6257   2.5334   2.5334
     5.3200   5.3200   5.3200   5.3200   7.7495   7.7495   8.6997   8.6997
    11.3107  11.3107  11.3107  11.3107

     occupation numbers 
     1.0000   1.0000   1.0000   1.0000   1.0000   1.0000   1.0000   1.0000
     1.0000   1.0000   1.0000   1.0000   1.0000   1.0000   1.0000   1.0000
     1.0000   1.0000   1.0000   1.0000   1.0000   1.0000   1.0000   1.0000
     1.0000   1.0000   1.0000   1.0000   0.0000   0.0000   0.0000   0.0000
     0.0000   0.0000   0.0000   0.0000

          k = 0.3977 0.0442-0.0442 (  6054 PWs)   bands (ev):

   -14.7761 -14.7761 -14.7735 -14.7735 -14.7393 -14.7393 -14.6508 -14.6508
   -14.6092 -14.6092 -14.5663 -14.5663 -14.4926 -14.4926 -14.4389 -14.4389
   -14.4103 -14.4103 -14.4066 -14.4066  -2.4140  -2.4140   2.0682   2.0682
     5.0659   5.0659   5.1562   5.1562   7.7735   7.7735   8.6610   8.6610
    11.4324  11.4324  11.6508  11.6508

     occupation numbers 
     1.0000   1.0000   1.0000   1.0000   1.0000   1.0000   1.0000   1.0000
     1.0000   1.0000   1.0000   1.0000   1.0000   1.0000   1.0000   1.0000
     1.0000   1.0000   1.0000   1.0000   1.0000   1.0000   1.0000   1.0000
     1.0000   1.0000   1.0000   1.0000   0.0000   0.0000   0.0000   0.0000
     0.0000   0.0000   0.0000   0.0000

          k = 0.4419 0.0884-0.0884 (  6061 PWs)   bands (ev):

   -14.7849 -14.7849 -14.7774 -14.7774 -14.7259 -14.7259 -14.6407 -14.6407
   -14.5993 -14.5993 -14.5761 -14.5761 -14.5032 -14.5032 -14.4542 -14.4542
   -14.4044 -14.4044 -14.3956 -14.3956  -2.1497  -2.1497   1.5562   1.5562
     4.7232   4.7232   5.0502   5.0502   7.9214   7.9214   8.7954   8.7954
    11.2875  11.2875  11.8130  11.8130

     occupation numbers 
     1.0000   1.0000   1.0000   1.0000   1.0000   1.0000   1.0000   1.0000
     1.0000   1.0000   1.0000   1.0000   1.0000   1.0000   1.0000   1.0000
     1.0000   1.0000   1.0000   1.0000   1.0000   1.0000   1.0000   1.0000
     1.0000   1.0000   1.0000   1.0000   0.0000   0.0000   0.0000   0.0000
     0.0000   0.0000   0.0000   0.0000

          k = 0.4861 0.1326-0.1326 (  6052 PWs)   bands (ev):

   -14.7930 -14.7930 -14.7809 -14.7809 -14.7108 -14.7108 -14.6305 -14.6305
   -14.5958 -14.5958 -14.5787 -14.5787 -14.5142 -14.5142 -14.4708 -14.4708
   -14.3993 -14.3993 -14.3862 -14.3862  -1.8522  -1.8522   1.0561   1.0561
     4.3801   4.3801   5.0076   5.0076   7.9644   7.9644   9.2598   9.2598
    11.1525  11.1525  11.8019  11.8019

     occupation numbers 
     1.0000   1.0000   1.0000   1.0000   1.0000   1.0000   1.0000   1.0000
     1.0000   1.0000   1.0000   1.0000   1.0000   1.0000   1.0000   1.0000
     1.0000   1.0000   1.0000   1.0000   1.0000   1.0000   1.0000   1.0000
     1.0000   1.0000   1.0000   1.0000   0.0000   0.0000   0.0000   0.0000
     0.0000   0.0000   0.0000   0.0000

          k =-0.1768-0.5303 0.5303 (  6053 PWs)   bands (ev):

   -14.7992 -14.7992 -14.7836 -14.7836 -14.6969 -14.6969 -14.6210 -14.6210
   -14.5981 -14.5981 -14.5748 -14.5748 -14.5250 -14.5250 -14.4857 -14.4857
   -14.3952 -14.3952 -14.3793 -14.3793  -1.5675  -1.5675   0.6363   0.6363
     4.0943   4.0943   5.0305   5.0305   7.9615   7.9615   9.8866   9.8866
    11.1268  11.1268  11.6769  11.6769

     occupation numbers 
     1.0000   1.0000   1.0000   1.0000   1.0000   1.0000   1.0000   1.0000
     1.0000   1.0000   1.0000   1.0000   1.0000   1.0000   1.0000   1.0000
     1.0000   1.0000   1.0000   1.0000   1.0000   1.0000   1.0000   1.0000
[...]

     occupation numbers 
     1.0000   1.0000   1.0000   1.0000   1.0000   1.0000   1.0000   1.0000
     1.0000   1.0000   1.0000   1.0000   1.0000   1.0000   1.0000   1.0000
     1.0000   1.0000   1.0000   1.0000   1.0000   1.0000   1.0000   1.0000
     1.0000   1.0000   1.0000   1.0000   0.0000   0.0000   0.0000   0.0000
     0.0000   0.0000   0.0000   0.0000

          k =-0.1326-0.3977 0.5745 (  6042 PWs)   bands (ev):

   -14.8031 -14.8031 -14.7903 -14.7903 -14.6764 -14.6764 -14.6153 -14.6153
   -14.5949 -14.5949 -14.5721 -14.5721 -14.5373 -14.5373 -14.5061 -14.5061
   -14.3875 -14.3875 -14.3750 -14.3750  -1.3102  -1.3102   0.3391   0.3391
     3.8583   3.8583   4.8325   4.8325   8.6512   8.6512   9.8884   9.8884
    11.1638  11.1638  11.8672  11.8672

     occupation numbers 
     1.0000   1.0000   1.0000   1.0000   1.0000   1.0000   1.0000   1.0000
     1.0000   1.0000   1.0000   1.0000   1.0000   1.0000   1.0000   1.0000
     1.0000   1.0000   1.0000   1.0000   1.0000   1.0000   1.0000   1.0000
     1.0000   1.0000   1.0000   1.0000   0.0000   0.0000   0.0000   0.0000
     0.0000   0.0000   0.0000   0.0000

          k =-0.0884-0.3536 0.5303 (  6041 PWs)   bands (ev):

   -14.8030 -14.8030 -14.7904 -14.7904 -14.6758 -14.6758 -14.6183 -14.6183
   -14.5963 -14.5963 -14.5680 -14.5680 -14.5367 -14.5367 -14.5072 -14.5072
   -14.3874 -14.3874 -14.3753 -14.3753  -1.3648  -1.3648   0.4084   0.4084
     3.8249   3.8249   4.9019   4.9019   8.6995   8.6995   9.8764   9.8764
    11.2315  11.2315  11.8278  11.8278

     occupation numbers 
     1.0000   1.0000   1.0000   1.0000   1.0000   1.0000   1.0000   1.0000
     1.0000   1.0000   1.0000   1.0000   1.0000   1.0000   1.0000   1.0000
     1.0000   1.0000   1.0000   1.0000   1.0000   1.0000   1.0000   1.0000
     1.0000   1.0000   1.0000   1.0000   0.0000   0.0000   0.0000   0.0000
     0.0000   0.0000   0.0000   0.0000

          k =-0.0442-0.3094 0.4861 (  6046 PWs)   bands (ev):

   -14.7996 -14.7996 -14.7894 -14.7894 -14.6829 -14.6829 -14.6288 -14.6288
   -14.5986 -14.5986 -14.5655 -14.5655 -14.5236 -14.5236 -14.5028 -14.5028
   -14.3885 -14.3885 -14.3794 -14.3794  -1.6091  -1.6091   0.7280   0.7280
     3.8968   3.8968   5.0453   5.0453   8.7551   8.7551   9.7661   9.7661
    10.6384  10.6384  12.0637  12.0637

     occupation numbers 
     1.0000   1.0000   1.0000   1.0000   1.0000   1.0000   1.0000   1.0000
     1.0000   1.0000   1.0000   1.0000   1.0000   1.0000   1.0000   1.0000
     1.0000   1.0000   1.0000   1.0000   1.0000   1.0000   1.0000   1.0000
     1.0000   1.0000   1.0000   1.0000   0.0000   0.0000   0.0000   0.0000
     0.0000   0.0000   0.0000   0.0000

          k = 0.0000-0.2652 0.4419 (  6045 PWs)   bands (ev):

   -14.7935 -14.7935 -14.7870 -14.7870 -14.6957 -14.6957 -14.6396 -14.6396
   -14.6062 -14.6062 -14.5595 -14.5595 -14.5086 -14.5086 -14.4922 -14.4922
   -14.3912 -14.3912 -14.3869 -14.3869  -1.9078  -1.9078   1.1470   1.1470
     4.0931   4.0931   5.2371   5.2371   8.7582   8.7582   9.4141   9.4141
    10.4557  10.4557  11.8363  11.8363

     occupation numbers 
     1.0000   1.0000   1.0000   1.0000   1.0000   1.0000   1.0000   1.0000
     1.0000   1.0000   1.0000   1.0000   1.0000   1.0000   1.0000   1.0000
     1.0000   1.0000   1.0000   1.0000   1.0000   1.0000   1.0000   1.0000
     1.0000   1.0000   1.0000   1.0000   0.0000   0.0000   0.0000   0.0000
     0.0000   0.0000   0.0000   0.0000

          k =-0.1768-0.5303 0.7071 (  6053 PWs)   bands (ev):

   -14.7917 -14.7917 -14.7899 -14.7899 -14.6993 -14.6993 -14.6198 -14.6198
   -14.6012 -14.6012 -14.5746 -14.5746 -14.5250 -14.5250 -14.4816 -14.4816
   -14.3885 -14.3885 -14.3873 -14.3873  -1.6162  -1.6162   0.7661   0.7661
     4.2681   4.2681   4.7051   4.7051   8.3819   8.3819   8.7407   8.7407
    11.1613  11.1613  12.8017  12.8017

     occupation numbers 
     1.0000   1.0000   1.0000   1.0000   1.0000   1.0000   1.0000   1.0000
     1.0000   1.0000   1.0000   1.0000   1.0000   1.0000   1.0000   1.0000
     1.0000   1.0000   1.0000   1.0000   1.0000   1.0000   1.0000   1.0000
     1.0000   1.0000   1.0000   1.0000   0.0000   0.0000   0.0000   0.0000
     0.0000   0.0000   0.0000   0.0000

          k =-0.1326-0.4861 0.6629 (  6051 PWs)   bands (ev):

   -14.7985 -14.7985 -14.7922 -14.7922 -14.6818 -14.6818 -14.6097 -14.6097
   -14.6059 -14.6059 -14.5684 -14.5684 -14.5374 -14.5374 -14.4990 -14.4990
   -14.3856 -14.3856 -14.3794 -14.3794  -1.3118  -1.3118   0.3822   0.3822
     4.0355   4.0355   4.5819   4.5819   8.5495   8.5495   9.2195   9.2195
    10.9825  10.9825  12.7501  12.7501

     occupation numbers 
     1.0000   1.0000   1.0000   1.0000   1.0000   1.0000   1.0000   1.0000
     1.0000   1.0000   1.0000   1.0000   1.0000   1.0000   1.0000   1.0000
     1.0000   1.0000   1.0000   1.0000   1.0000   1.0000   1.0000   1.0000
     1.0000   1.0000   1.0000   1.0000   0.0000   0.0000   0.0000   0.0000
     0.0000   0.0000   0.0000   0.0000

          k =-0.0884-0.4419 0.6187 (  6041 PWs)   bands (ev):

   -14.8036 -14.8036 -14.7932 -14.7932 -14.6691 -14.6691 -14.6056 -14.6056
   -14.5980 -14.5980 -14.5704 -14.5704 -14.5486 -14.5486 -14.5108 -14.5108
   -14.3842 -14.3842 -14.3740 -14.3740  -1.0733  -1.0733   0.1066   0.1066
     3.8352   3.8352   4.5721   4.5721   8.6066   8.6066   9.9535   9.9535
    10.8742  10.8742  12.1581  12.1581

     occupation numbers 
     1.0000   1.0000   1.0000   1.0000   1.0000   1.0000   1.0000   1.0000
     1.0000   1.0000   1.0000   1.0000   1.0000   1.0000   1.0000   1.0000
     1.0000   1.0000   1.0000   1.0000   1.0000   1.0000   1.0000   1.0000
     1.0000   1.0000   1.0000   1.0000   0.0000   0.0000   0.0000   0.0000
     0.0000   0.0000   0.0000   0.0000

          k =-0.0442-0.3977 0.5745 (  6042 PWs)   bands (ev):

   -14.8055 -14.8055 -14.7932 -14.7932 -14.6659 -14.6659 -14.6020 -14.6020
   -14.5899 -14.5899 -14.5781 -14.5781 -14.5531 -14.5531 -14.5137 -14.5137
   -14.3841 -14.3841 -14.3721 -14.3721  -1.0752  -1.0752   0.1113   0.1113
     3.7211   3.7211   4.6616   4.6616   8.6870   8.6870  10.4235  10.4235
    11.0954  11.0954  11.4174  11.4174

     occupation numbers 
     1.0000   1.0000   1.0000   1.0000   1.0000   1.0000   1.0000   1.0000
     1.0000   1.0000   1.0000   1.0000   1.0000   1.0000   1.0000   1.0000
     1.0000   1.0000   1.0000   1.0000   1.0000   1.0000   1.0000   1.0000
     1.0000   1.0000   1.0000   1.0000   0.0000   0.0000   0.0000   0.0000
     0.0000   0.0000   0.0000   0.0000

          k = 0.0000-0.3536 0.5303 (  6045 PWs)   bands (ev):

   -14.8041 -14.8041 -14.7920 -14.7920 -14.6711 -14.6711 -14.6140 -14.6140
   -14.5870 -14.5870 -14.5776 -14.5776 -14.5425 -14.5425 -14.5103 -14.5103
   -14.3854 -14.3854 -14.3741 -14.3741  -1.3110  -1.3110   0.3804   0.3804
     3.7333   3.7333   4.8283   4.8283   8.7704   8.7704  10.2813  10.2813
    10.7101  10.7101  11.9170  11.9170

     occupation numbers 
     1.0000   1.0000   1.0000   1.0000   1.0000   1.0000   1.0000   1.0000
     1.0000   1.0000   1.0000   1.0000   1.0000   1.0000   1.0000   1.0000
     1.0000   1.0000   1.0000   1.0000   1.0000   1.0000   1.0000   1.0000
     1.0000   1.0000   1.0000   1.0000   0.0000   0.0000   0.0000   0.0000
     0.0000   0.0000   0.0000   0.0000

          k =-0.0884-0.5303 0.7071 (  6044 PWs)   bands (ev):

   -14.7952 -14.7952 -14.7940 -14.7940 -14.6800 -14.6800 -14.6299 -14.6299
   -14.5968 -14.5968 -14.5480 -14.5480 -14.5478 -14.5478 -14.4999 -14.4999
   -14.3834 -14.3834 -14.3823 -14.3823  -1.0893  -1.0893   0.1150   0.1150
     4.1952   4.1952   4.4125   4.4125   8.3481   8.3481   8.5569   8.5569
    11.8388  11.8388  13.0817  13.0818

     occupation numbers 
     1.0000   1.0000   1.0000   1.0000   1.0000   1.0000   1.0000   1.0000
     1.0000   1.0000   1.0000   1.0000   1.0000   1.0000   1.0000   1.0000
     1.0000   1.0000   1.0000   1.0000   1.0000   1.0000   1.0000   1.0000
     1.0000   1.0000   1.0000   1.0000   0.0000   0.0000   0.0000   0.0000
     0.0000   0.0000   0.0000   0.0000

          k =-0.0442-0.4861 0.6629 (  6036 PWs)   bands (ev):

   -14.8009 -14.8009 -14.7951 -14.7951 -14.6631 -14.6631 -14.6307 -14.6307
   -14.5864 -14.5864 -14.5606 -14.5606 -14.5460 -14.5460 -14.5160 -14.5160
   -14.3820 -14.3820 -14.3763 -14.3763  -0.8051  -0.8051  -0.1851  -0.1851
     3.9820   3.9820   4.3701   4.3701   8.4948   8.4948   9.1635   9.1635
    11.6540  11.6540  12.3716  12.3716

     occupation numbers 
     1.0000   1.0000   1.0000   1.0000   1.0000   1.0000   1.0000   1.0000
     1.0000   1.0000   1.0000   1.0000   1.0000   1.0000   1.0000   1.0000
     1.0000   1.0000   1.0000   1.0000   1.0000   1.0000   1.0000   1.0000
     1.0000   1.0000   1.0000   1.0000   0.0000   0.0000   0.0000   0.0000
     0.0000   0.0000   0.0000   0.0000

          k = 0.0000-0.4419 0.6187 (  6039 PWs)   bands (ev):

   -14.8048 -14.8048 -14.7947 -14.7947 -14.6601 -14.6601 -14.6146 -14.6146
   -14.5856 -14.5856 -14.5648 -14.5648 -14.5593 -14.5593 -14.5184 -14.5184
   -14.3823 -14.3823 -14.3725 -14.3725  -0.8070  -0.8070  -0.1738  -0.1738
     3.7863   3.7863   4.4754   4.4754   8.5848   8.5848   9.9884   9.9884
    11.4919  11.4919  11.5078  11.5078

     occupation numbers 
     1.0000   1.0000   1.0000   1.0000   1.0000   1.0000   1.0000   1.0000
     1.0000   1.0000   1.0000   1.0000   1.0000   1.0000   1.0000   1.0000
     1.0000   1.0000   1.0000   1.0000   1.0000   1.0000   1.0000   1.0000
     1.0000   1.0000   1.0000   1.0000   0.0000   0.0000   0.0000   0.0000
     0.0000   0.0000   0.0000   0.0000

          k =-0.7071 0.1768 0.0000 (  6042 PWs)   bands (ev):

   -14.7960 -14.7960 -14.7959 -14.7959 -14.6571 -14.6571 -14.6560 -14.6560
   -14.5750 -14.5750 -14.5697 -14.5697 -14.5231 -14.5231 -14.5220 -14.5220
   -14.3811 -14.3811 -14.3810 -14.3810  -0.5087  -0.5087  -0.5072  -0.5072
     4.2422   4.2422   4.2423   4.2423   8.4105   8.4105   8.4107   8.4107
    12.5658  12.5658  12.5658  12.5658

     occupation numbers 
     1.0000   1.0000   1.0000   1.0000   1.0000   1.0000   1.0000   1.0000
     1.0000   1.0000   1.0000   1.0000   1.0000   1.0000   1.0000   1.0000
     1.0000   1.0000   1.0000   1.0000   1.0000   1.0000   1.0000   1.0000
     1.0000   1.0000   1.0000   1.0000   0.0000   0.0000   0.0000   0.0000
     0.0000   0.0000   0.0000   0.0000

          k =-0.1768-0.4419 0.7071 (  6045 PWs)   bands (ev):

   -14.7986 -14.7986 -14.7924 -14.7924 -14.6812 -14.6812 -14.6202 -14.6202
   -14.5884 -14.5884 -14.5818 -14.5818 -14.5290 -14.5290 -14.5014 -14.5014
   -14.3855 -14.3855 -14.3800 -14.3800  -1.4821  -1.4821   0.5933   0.5933
     3.9550   3.9550   4.7398   4.7398   9.1550   9.1550   9.2741   9.2741
    10.4104  10.4104  12.5292  12.5292

     occupation numbers 
     1.0000   1.0000   1.0000   1.0000   1.0000   1.0000   1.0000   1.0000
     1.0000   1.0000   1.0000   1.0000   1.0000   1.0000   1.0000   1.0000
     1.0000   1.0000   1.0000   1.0000   1.0000   1.0000   1.0000   1.0000
     1.0000   1.0000   1.0000   1.0000   0.0000   0.0000   0.0000   0.0000
     0.0000   0.0000   0.0000   0.0000

          k =-0.1326-0.3977 0.6629 (  6038 PWs)   bands (ev):

   -14.8030 -14.8030 -14.7945 -14.7945 -14.6675 -14.6675 -14.6098 -14.6098
   -14.5926 -14.5926 -14.5763 -14.5763 -14.5433 -14.5433 -14.5130 -14.5130
   -14.3831 -14.3831 -14.3749 -14.3749  -1.1981  -1.1981   0.2544   0.2544
     3.8265   3.8265   4.5828   4.5828   9.1786   9.1786   9.7693   9.7693
    10.5240  10.5240  12.0436  12.0436

     occupation numbers 
     1.0000   1.0000   1.0000   1.0000   1.0000   1.0000   1.0000   1.0000
     1.0000   1.0000   1.0000   1.0000   1.0000   1.0000   1.0000   1.0000
     1.0000   1.0000   1.0000   1.0000   1.0000   1.0000   1.0000   1.0000
     1.0000   1.0000   1.0000   1.0000   0.0000   0.0000   0.0000   0.0000
     0.0000   0.0000   0.0000   0.0000

          k =-0.0884-0.3536 0.6187 (  6030 PWs)   bands (ev):

   -14.8046 -14.8046 -14.7951 -14.7951 -14.6621 -14.6621 -14.6059 -14.6059
   -14.5906 -14.5906 -14.5769 -14.5769 -14.5499 -14.5499 -14.5171 -14.5171
   -14.3824 -14.3824 -14.3730 -14.3730  -1.0598  -1.0598   0.0968   0.0968
     3.7857   3.7857   4.5255   4.5255   9.1785   9.1785   9.8864   9.8864
    11.0617  11.0617  11.3503  11.3503

     occupation numbers 
     1.0000   1.0000   1.0000   1.0000   1.0000   1.0000   1.0000   1.0000
     1.0000   1.0000   1.0000   1.0000   1.0000   1.0000   1.0000   1.0000
     1.0000   1.0000   1.0000   1.0000   1.0000   1.0000   1.0000   1.0000
     1.0000   1.0000   1.0000   1.0000   0.0000   0.0000   0.0000   0.0000
     0.0000   0.0000   0.0000   0.0000

          k =-0.0884-0.4419 0.7071 (  6038 PWs)   bands (ev):

   -14.8009 -14.8009 -14.7972 -14.7972 -14.6626 -14.6626 -14.6146 -14.6146
   -14.5983 -14.5983 -14.5591 -14.5591 -14.5514 -14.5514 -14.5165 -14.5165
   -14.3801 -14.3801 -14.3765 -14.3765  -1.0055  -1.0055   0.0449   0.0449
     3.9461   3.9461   4.3423   4.3423   9.2136   9.2136   9.2611   9.2611
    10.7999  10.7999  12.2090  12.2090

     occupation numbers 
     1.0000   1.0000   1.0000   1.0000   1.0000   1.0000   1.0000   1.0000
     1.0000   1.0000   1.0000   1.0000   1.0000   1.0000   1.0000   1.0000
     1.0000   1.0000   1.0000   1.0000   1.0000   1.0000   1.0000   1.0000
     1.0000   1.0000   1.0000   1.0000   0.0000   0.0000   0.0000   0.0000
     0.0000   0.0000   0.0000   0.0000

          k =-0.0442-0.3977 0.6629 (  6031 PWs)   bands (ev):

   -14.8037 -14.8037 -14.7984 -14.7984 -14.6500 -14.6500 -14.6162 -14.6162
   -14.5894 -14.5894 -14.5646 -14.5646 -14.5555 -14.5555 -14.5270 -14.5270
   -14.3787 -14.3787 -14.3735 -14.3735  -0.7853  -0.7853  -0.1844  -0.1844
     3.8635   3.8635   4.2609   4.2609   9.2989   9.2989   9.9757   9.9757
    10.7149  10.7149  11.3408  11.3408

     occupation numbers 
     1.0000   1.0000   1.0000   1.0000   1.0000   1.0000   1.0000   1.0000
     1.0000   1.0000   1.0000   1.0000   1.0000   1.0000   1.0000   1.0000
     1.0000   1.0000   1.0000   1.0000   1.0000   1.0000   1.0000   1.0000
     1.0000   1.0000   1.0000   1.0000   0.0000   0.0000   0.0000   0.0000
     0.0000   0.0000   0.0000   0.0000

          k =-0.0000-0.3536 0.6187 (  6031 PWs)   bands (ev):

   -14.8045 -14.8045 -14.7974 -14.7974 -14.6539 -14.6539 -14.6059 -14.6059
   -14.5956 -14.5956 -14.5642 -14.5642 -14.5594 -14.5594 -14.5236 -14.5236
   -14.3798 -14.3798 -14.3729 -14.3729  -0.9073  -0.9073  -0.0545  -0.0545
     3.7973   3.7973   4.3659   4.3659   9.3546   9.3546  10.1572  10.1572
    10.6025  10.6026  11.2428  11.2428

     occupation numbers 
     1.0000   1.0000   1.0000   1.0000   1.0000   1.0000   1.0000   1.0000
     1.0000   1.0000   1.0000   1.0000   1.0000   1.0000   1.0000   1.0000
     1.0000   1.0000   1.0000   1.0000   1.0000   1.0000   1.0000   1.0000
     1.0000   1.0000   1.0000   1.0000   0.0000   0.0000   0.0000   0.0000
     0.0000   0.0000   0.0000   0.0000

          k =-0.7071 0.2652 0.0000 (  6040 PWs)   bands (ev):

   -14.8004 -14.8004 -14.8003 -14.8003 -14.6407 -14.6407 -14.6393 -14.6393
   -14.5776 -14.5776 -14.5723 -14.5723 -14.5371 -14.5371 -14.5356 -14.5356
   -14.3768 -14.3768 -14.3767 -14.3767  -0.4926  -0.4926  -0.4911  -0.4911
     4.0745   4.0745   4.0746   4.0746   9.2247   9.2247   9.2250   9.2250
    11.4762  11.4762  11.4763  11.4763

     occupation numbers 
     1.0000   1.0000   1.0000   1.0000   1.0000   1.0000   1.0000   1.0000
     1.0000   1.0000   1.0000   1.0000   1.0000   1.0000   1.0000   1.0000
     1.0000   1.0000   1.0000   1.0000   1.0000   1.0000   1.0000   1.0000
     1.0000   1.0000   1.0000   1.0000   0.0000   0.0000   0.0000   0.0000
     0.0000   0.0000   0.0000   0.0000

          k =-0.7071 0.3536 0.0000 (  6032 PWs)   bands (ev):

   -14.8021 -14.8021 -14.8020 -14.8020 -14.6325 -14.6325 -14.6308 -14.6308
   -14.5800 -14.5800 -14.5747 -14.5747 -14.5432 -14.5432 -14.5414 -14.5414
   -14.3751 -14.3751 -14.3750 -14.3750  -0.4858  -0.4858  -0.4843  -0.4843
     4.0110   4.0110   4.0111   4.0111   9.9048   9.9048   9.9054   9.9054
    10.6993  10.6993  10.6997  10.6997

     occupation numbers 
     1.0000   1.0000   1.0000   1.0000   1.0000   1.0000   1.0000   1.0000
     1.0000   1.0000   1.0000   1.0000   1.0000   1.0000   1.0000   1.0000
     1.0000   1.0000   1.0000   1.0000   1.0000   1.0000   1.0000   1.0000
     1.0000   1.0000   1.0000   1.0000   0.0000   0.0000   0.0000   0.0000
     0.0000   0.0000   0.0000   0.0000

     the Fermi energy is     6.7571 ev

!    total energy              =    -873.10632718 Ry
     Harris-Foulkes estimate   =    -873.10632724 Ry
     estimated scf accuracy    <       0.00000041 Ry

     total all-electron energy =    -24698.428636 Ry

     The total energy is the sum of the following terms:

     one-electron contribution =    -154.01993468 Ry
     hartree contribution      =      95.49632893 Ry
     xc contribution           =     -95.18472405 Ry
     ewald contribution        =    -167.52979533 Ry
     one-center paw contrib.   =    -551.86820194 Ry
     smearing contrib. (-TS)   =      -0.00000010 Ry

     convergence has been achieved in   5 iterations

     Writing output data file Sn.save
 
     init_run     :      9.20s CPU      9.94s WALL (       1 calls)
     electrons    :    174.34s CPU    187.68s WALL (       1 calls)

     Called by init_run:
     wfcinit      :      8.91s CPU      9.53s WALL (       1 calls)
     potinit      :      0.10s CPU      0.12s WALL (       1 calls)

     Called by electrons:
     c_bands      :    147.69s CPU    159.26s WALL (       6 calls)
     sum_band     :     26.11s CPU     27.77s WALL (       6 calls)
     v_of_rho     :      0.06s CPU      0.07s WALL (       6 calls)
     v_h          :      0.00s CPU      0.01s WALL (       6 calls)
     v_xc         :      0.06s CPU      0.07s WALL (       6 calls)
     newd         :      0.07s CPU      0.08s WALL (       6 calls)
     PAW_pot      :      0.46s CPU      0.52s WALL (       6 calls)
     mix_rho      :      0.02s CPU      0.03s WALL (       6 calls)

     Called by c_bands:
     init_us_2    :      0.24s CPU      0.30s WALL (    1885 calls)
     cegterg      :    145.41s CPU    156.75s WALL (     870 calls)

     Called by sum_band:
     sum_band:bec :      0.08s CPU      0.08s WALL (     870 calls)
     addusdens    :      0.06s CPU      0.09s WALL (       6 calls)

     Called by *egterg:
     h_psi        :    129.11s CPU    137.91s WALL (    3127 calls)
     s_psi        :      1.23s CPU      1.24s WALL (    3127 calls)
     g_psi        :      0.25s CPU      0.26s WALL (    2112 calls)
     cdiaghg      :      8.12s CPU      8.32s WALL (    2837 calls)
     cegterg:over :      6.78s CPU      6.81s WALL (    2112 calls)
     cegterg:upda :      2.09s CPU      2.10s WALL (    2112 calls)
     cegterg:last :      1.04s CPU      1.05s WALL (     870 calls)

     Called by h_psi:
     h_psi:vloc   :    124.07s CPU    132.73s WALL (    3127 calls)
     h_psi:vnl    :      4.81s CPU      4.92s WALL (    3127 calls)
     add_vuspsi   :      1.32s CPU      1.33s WALL (    3127 calls)

     General routines
     calbec       :      4.71s CPU      4.82s WALL (    3997 calls)
     fft          :      0.09s CPU      0.10s WALL (     116 calls)
     fftw         :    141.48s CPU    151.34s WALL (  395708 calls)
     davcio       :      0.05s CPU      0.36s WALL (     145 calls)
 
     Parallel routines
     fft_scatter  :     92.61s CPU     98.89s WALL (  395824 calls)

     PAW routines
     PAW_pot      :      0.46s CPU      0.52s WALL (       6 calls)
     PAW_symme    :      0.01s CPU      0.01s WALL (      12 calls)
 
     PWSCF        :  3m 4.27s CPU     3m18.76s WALL

 
   This run was terminated on:  23: 0:39  16Mar2020            

=------------------------------------------------------------------------------=
   JOB DONE.
=------------------------------------------------------------------------------=
