
     Program PWSCF v.5.4.0 starts on 16Mar2020 at 22:54:21 

     This program is part of the open-source Quantum ESPRESSO suite
     for quantum simulation of materials; please cite
         "P. Giannozzi et al., J. Phys.:Condens. Matter 21 395502 (2009);
          URL http://www.quantum-espresso.org", 
     in publications or presentations arising from this work. More details at
     http://www.quantum-espresso.org/quote

     Parallel version (MPI & OpenMP), running on      16 processor cores
     Number of MPI processes:                16
     Threads/MPI process:                     1
     R & G space division:  proc/nbgrp/npool/nimage =      16
     Waiting for input...
     Reading input from standard input
Warning: card &IONS ignored
Warning: card / ignored
Warning: card &CELL ignored
Warning: card / ignored

     Current dimensions of program PWSCF are:
     Max number of different atomic species (ntypx) = 10
     Max number of k-points (npk) =  40000
     Max angular momentum in pseudopotentials (lmaxx) =  3
               file Sn.rel-pbe-dn-rrkjus_psl.1.0.0.UPF: wavefunction(s)  5S 4D 4D renormalized

     Subspace diagonalization in iterative solution of the eigenvalue problem:
     a serial algorithm will be used

 
     Parallelization info
     --------------------
     sticks:   dense  smooth     PW     G-vecs:    dense   smooth      PW
     Min         109     109     31                 3022     3022     473
     Max         111     111     32                 3024     3024     477
     Sum        1759    1759    511                48359    48359    7583
 

     Title: 
     Sn                                                                         


     bravais-lattice index     =            0
     lattice parameter (alat)  =       8.9127  a.u.
     unit-cell volume          =     500.6268 (a.u.)^3
     number of atoms/cell      =            2
     number of atomic types    =            1
     number of electrons       =        28.00
     number of Kohn-Sham states=           36
     kinetic-energy cutoff     =      80.0000  Ry
     charge density cutoff     =     320.0000  Ry
     convergence threshold     =      1.0E-06
     mixing beta               =       0.7000
     number of iterations used =            8  plain     mixing
     Exchange-correlation      = PBE ( 1  4  3  4 0 0)
     Non magnetic calculation with spin-orbit


     celldm(1)=   8.912709  celldm(2)=   0.000000  celldm(3)=   0.000000
     celldm(4)=   0.000000  celldm(5)=   0.000000  celldm(6)=   0.000000

     crystal axes: (cart. coord. in units of alat)
               a(1) = (   0.000000   0.707107   0.707107 )  
               a(2) = (   0.707107   0.000000   0.707107 )  
               a(3) = (   0.707107   0.707107   0.000000 )  

     reciprocal axes: (cart. coord. in units 2 pi/alat)
               b(1) = ( -0.707107  0.707107  0.707107 )  
               b(2) = (  0.707107 -0.707107  0.707107 )  
               b(3) = (  0.707107  0.707107 -0.707107 )  


     PseudoPot. # 1 for Sn read from file:
     ../PseudopotentialDatabase/Sn.rel-pbe-dn-rrkjus_psl.1.0.0.UPF
     MD5 check sum: e9415cc9ba1036dfb73502962f03961a
     Pseudo is Ultrasoft + core correction, Zval = 14.0
     Generated using "atomic" code by A. Dal Corso  v.6.3
     Using radial grid of 1243 points, 10 beta functions with: 
                l(1) =   0
                l(2) =   0
                l(3) =   1
                l(4) =   1
                l(5) =   1
                l(6) =   1
                l(7) =   2
                l(8) =   2
                l(9) =   2
               l(10) =   2
     Q(r) pseudized with 0 coefficients 


     atomic species   valence    mass     pseudopotential
        Sn            14.00   118.71000     Sn( 1.00)

     24 Sym. Ops. (no inversion) found
          (note: 24 additional sym.ops. were found but ignored
           their fractional translations are incommensurate with FFT grid)

                                    s                        frac. trans.

      isym =  1     identity                                     

 cryst.   s( 1) = (     1          0          0      )
                  (     0          1          0      )
                  (     0          0          1      )

 cart.    s( 1) = (  1.0000000  0.0000000  0.0000000 )
                  (  0.0000000  1.0000000  0.0000000 )
                  (  0.0000000  0.0000000  1.0000000 )


      isym =  2     180 deg rotation - cart. axis [0,0,1]        

 cryst.   s( 2) = (     0          1         -1      )
                  (     1          0         -1      )
                  (     0          0         -1      )

 cart.    s( 2) = ( -1.0000000  0.0000000  0.0000000 )
                  (  0.0000000 -1.0000000  0.0000000 )
                  (  0.0000000  0.0000000  1.0000000 )


      isym =  3     180 deg rotation - cart. axis [0,1,0]        

 cryst.   s( 3) = (     0         -1          1      )
                  (     0         -1          0      )
                  (     1         -1          0      )

 cart.    s( 3) = ( -1.0000000  0.0000000  0.0000000 )
                  (  0.0000000  1.0000000  0.0000000 )
                  (  0.0000000  0.0000000 -1.0000000 )


      isym =  4     180 deg rotation - cart. axis [1,0,0]        

 cryst.   s( 4) = (    -1          0          0      )
                  (    -1          0          1      )
                  (    -1          1          0      )

 cart.    s( 4) = (  1.0000000  0.0000000  0.0000000 )
                  (  0.0000000 -1.0000000  0.0000000 )
                  (  0.0000000  0.0000000 -1.0000000 )


      isym =  5     120 deg rotation - cart. axis [-1,-1,-1]     

 cryst.   s( 5) = (     0          0          1      )
                  (     1          0          0      )
                  (     0          1          0      )

 cart.    s( 5) = (  0.0000000  1.0000000  0.0000000 )
                  (  0.0000000  0.0000000  1.0000000 )
                  (  1.0000000  0.0000000  0.0000000 )


      isym =  6     120 deg rotation - cart. axis [-1,1,1]       

 cryst.   s( 6) = (     1         -1          0      )
                  (     0         -1          1      )
                  (     0         -1          0      )

 cart.    s( 6) = (  0.0000000 -1.0000000  0.0000000 )
                  (  0.0000000  0.0000000  1.0000000 )
                  ( -1.0000000  0.0000000  0.0000000 )


      isym =  7     120 deg rotation - cart. axis [1,1,-1]       

 cryst.   s( 7) = (    -1          1          0      )
                  (    -1          0          0      )
                  (    -1          0          1      )

 cart.    s( 7) = (  0.0000000  1.0000000  0.0000000 )
                  (  0.0000000  0.0000000 -1.0000000 )
                  ( -1.0000000  0.0000000  0.0000000 )


      isym =  8     120 deg rotation - cart. axis [1,-1,1]       

 cryst.   s( 8) = (     0          0         -1      )
                  (     0          1         -1      )
                  (     1          0         -1      )

 cart.    s( 8) = (  0.0000000 -1.0000000  0.0000000 )
                  (  0.0000000  0.0000000 -1.0000000 )
                  (  1.0000000  0.0000000  0.0000000 )


      isym =  9     120 deg rotation - cart. axis [1,1,1]        

 cryst.   s( 9) = (     0          1          0      )
                  (     0          0          1      )
                  (     1          0          0      )

 cart.    s( 9) = (  0.0000000  0.0000000  1.0000000 )
                  (  1.0000000  0.0000000  0.0000000 )
                  (  0.0000000  1.0000000  0.0000000 )


      isym = 10     120 deg rotation - cart. axis [-1,1,-1]      

 cryst.   s(10) = (    -1          0          1      )
                  (    -1          1          0      )
                  (    -1          0          0      )

 cart.    s(10) = (  0.0000000  0.0000000  1.0000000 )
                  ( -1.0000000  0.0000000  0.0000000 )
                  (  0.0000000 -1.0000000  0.0000000 )


      isym = 11     120 deg rotation - cart. axis [1,-1,-1]      

 cryst.   s(11) = (     1          0         -1      )
                  (     0          0         -1      )
                  (     0          1         -1      )

 cart.    s(11) = (  0.0000000  0.0000000 -1.0000000 )
                  ( -1.0000000  0.0000000  0.0000000 )
                  (  0.0000000  1.0000000  0.0000000 )


      isym = 12     120 deg rotation - cart. axis [-1,-1,1]      

 cryst.   s(12) = (     0         -1          0      )
                  (     1         -1          0      )
                  (     0         -1          1      )

 cart.    s(12) = (  0.0000000  0.0000000 -1.0000000 )
                  (  1.0000000  0.0000000  0.0000000 )
                  (  0.0000000 -1.0000000  0.0000000 )


      isym = 13     inv. 180 deg rotation - cart. axis [1,1,0]   

 cryst.   s(13) = (     1          0         -1      )
                  (     0          1         -1      )
                  (     0          0         -1      )

 cart.    s(13) = (  0.0000000 -1.0000000  0.0000000 )
                  ( -1.0000000  0.0000000  0.0000000 )
                  (  0.0000000  0.0000000  1.0000000 )


      isym = 14     inv. 180 deg rotation - cart. axis [1,-1,0]  

 cryst.   s(14) = (     0          1          0      )
                  (     1          0          0      )
                  (     0          0          1      )

 cart.    s(14) = (  0.0000000  1.0000000  0.0000000 )
                  (  1.0000000  0.0000000  0.0000000 )
                  (  0.0000000  0.0000000  1.0000000 )


      isym = 15     inv.  90 deg rotation - cart. axis [0,0,-1]  

 cryst.   s(15) = (     0         -1          0      )
                  (     0         -1          1      )
                  (     1         -1          0      )

 cart.    s(15) = (  0.0000000 -1.0000000  0.0000000 )
                  (  1.0000000  0.0000000  0.0000000 )
                  (  0.0000000  0.0000000 -1.0000000 )


      isym = 16     inv.  90 deg rotation - cart. axis [0,0,1]   

 cryst.   s(16) = (    -1          0          1      )
                  (    -1          0          0      )
                  (    -1          1          0      )

 cart.    s(16) = (  0.0000000  1.0000000  0.0000000 )
                  ( -1.0000000  0.0000000  0.0000000 )
                  (  0.0000000  0.0000000 -1.0000000 )


      isym = 17     inv. 180 deg rotation - cart. axis [1,0,1]   

 cryst.   s(17) = (     1         -1          0      )
                  (     0         -1          0      )
                  (     0         -1          1      )

 cart.    s(17) = (  0.0000000  0.0000000 -1.0000000 )
                  (  0.0000000  1.0000000  0.0000000 )
                  ( -1.0000000  0.0000000  0.0000000 )


      isym = 18     inv. 180 deg rotation - cart. axis [-1,0,1]  

 cryst.   s(18) = (     0          0          1      )
                  (     0          1          0      )
                  (     1          0          0      )

 cart.    s(18) = (  0.0000000  0.0000000  1.0000000 )
                  (  0.0000000  1.0000000  0.0000000 )
                  (  1.0000000  0.0000000  0.0000000 )


      isym = 19     inv.  90 deg rotation - cart. axis [0,1,0]   

 cryst.   s(19) = (     0          0         -1      )
                  (     1          0         -1      )
                  (     0          1         -1      )

 cart.    s(19) = (  0.0000000  0.0000000 -1.0000000 )
                  (  0.0000000 -1.0000000  0.0000000 )
                  (  1.0000000  0.0000000  0.0000000 )


      isym = 20     inv.  90 deg rotation - cart. axis [0,-1,0]  

 cryst.   s(20) = (    -1          1          0      )
                  (    -1          0          1      )
                  (    -1          0          0      )

 cart.    s(20) = (  0.0000000  0.0000000  1.0000000 )
                  (  0.0000000 -1.0000000  0.0000000 )
                  ( -1.0000000  0.0000000  0.0000000 )


      isym = 21     inv. 180 deg rotation - cart. axis [0,1,1]   

 cryst.   s(21) = (    -1          0          0      )
                  (    -1          1          0      )
                  (    -1          0          1      )

 cart.    s(21) = (  1.0000000  0.0000000  0.0000000 )
                  (  0.0000000  0.0000000 -1.0000000 )
                  (  0.0000000 -1.0000000  0.0000000 )


      isym = 22     inv. 180 deg rotation - cart. axis [0,1,-1]  

 cryst.   s(22) = (     1          0          0      )
                  (     0          0          1      )
                  (     0          1          0      )

 cart.    s(22) = (  1.0000000  0.0000000  0.0000000 )
                  (  0.0000000  0.0000000  1.0000000 )
                  (  0.0000000  1.0000000  0.0000000 )


      isym = 23     inv.  90 deg rotation - cart. axis [-1,0,0]  

 cryst.   s(23) = (     0          1         -1      )
                  (     0          0         -1      )
                  (     1          0         -1      )

 cart.    s(23) = ( -1.0000000  0.0000000  0.0000000 )
                  (  0.0000000  0.0000000 -1.0000000 )
                  (  0.0000000  1.0000000  0.0000000 )


      isym = 24     inv.  90 deg rotation - cart. axis [1,0,0]   

 cryst.   s(24) = (     0         -1          1      )
                  (     1         -1          0      )
                  (     0         -1          0      )

 cart.    s(24) = ( -1.0000000  0.0000000  0.0000000 )
                  (  0.0000000  0.0000000  1.0000000 )
                  (  0.0000000 -1.0000000  0.0000000 )


   Cartesian axes

     site n.     atom                  positions (alat units)
         1           Sn  tau(   1) = (   0.0000000   0.0000000   0.0000000  )
         2           Sn  tau(   2) = (   0.3535534   0.3535534   0.3535534  )

   Crystallographic axes

     site n.     atom                  positions (cryst. coord.)
         1           Sn  tau(   1) = (  0.0000000  0.0000000  0.0000000  )
         2           Sn  tau(   2) = (  0.2500000  0.2500000  0.2500000  )

     number of k points=   145  gaussian smearing, width (Ry)=  0.0001
                       cart. coord. in units 2pi/alat
        k(    1) = (   0.0000000   0.0000000   0.0000000), wk =   0.0002441
        k(    2) = (   0.0441942   0.0441942  -0.0441942), wk =   0.0019531
        k(    3) = (   0.0883883   0.0883883  -0.0883883), wk =   0.0019531
        k(    4) = (   0.1325825   0.1325825  -0.1325825), wk =   0.0019531
        k(    5) = (   0.1767767   0.1767767  -0.1767767), wk =   0.0019531
        k(    6) = (   0.2209709   0.2209709  -0.2209709), wk =   0.0019531
        k(    7) = (   0.2651650   0.2651650  -0.2651650), wk =   0.0019531
        k(    8) = (   0.3093592   0.3093592  -0.3093592), wk =   0.0019531
        k(    9) = (  -0.3535534  -0.3535534   0.3535534), wk =   0.0009766
        k(   10) = (   0.0883883   0.0000000   0.0000000), wk =   0.0014648
        k(   11) = (   0.1325825   0.0441942  -0.0441942), wk =   0.0058594
        k(   12) = (   0.1767767   0.0883883  -0.0883883), wk =   0.0058594
        k(   13) = (   0.2209709   0.1325825  -0.1325825), wk =   0.0058594
        k(   14) = (   0.2651650   0.1767767  -0.1767767), wk =   0.0058594
        k(   15) = (   0.3093592   0.2209709  -0.2209709), wk =   0.0058594
        k(   16) = (   0.3535534   0.2651650  -0.2651650), wk =   0.0058594
        k(   17) = (  -0.3093592  -0.3977476   0.3977476), wk =   0.0058594
        k(   18) = (  -0.2651650  -0.3535534   0.3535534), wk =   0.0058594
        k(   19) = (  -0.2209709  -0.3093592   0.3093592), wk =   0.0058594
        k(   20) = (  -0.1767767  -0.2651650   0.2651650), wk =   0.0058594
        k(   21) = (  -0.1325825  -0.2209709   0.2209709), wk =   0.0058594
        k(   22) = (  -0.0883883  -0.1767767   0.1767767), wk =   0.0058594
        k(   23) = (  -0.0441942  -0.1325825   0.1325825), wk =   0.0058594
        k(   24) = (   0.0000000  -0.0883883   0.0883883), wk =   0.0029297
        k(   25) = (   0.1767767   0.0000000   0.0000000), wk =   0.0014648
        k(   26) = (   0.2209709   0.0441942  -0.0441942), wk =   0.0058594
        k(   27) = (   0.2651650   0.0883883  -0.0883883), wk =   0.0058594
        k(   28) = (   0.3093592   0.1325825  -0.1325825), wk =   0.0058594
        k(   29) = (   0.3535534   0.1767767  -0.1767767), wk =   0.0058594
        k(   30) = (   0.3977476   0.2209709  -0.2209709), wk =   0.0058594
        k(   31) = (  -0.2651650  -0.4419417   0.4419417), wk =   0.0058594
        k(   32) = (  -0.2209709  -0.3977476   0.3977476), wk =   0.0058594
        k(   33) = (  -0.1767767  -0.3535534   0.3535534), wk =   0.0058594
        k(   34) = (  -0.1325825  -0.3093592   0.3093592), wk =   0.0058594
        k(   35) = (  -0.0883883  -0.2651650   0.2651650), wk =   0.0058594
        k(   36) = (  -0.0441942  -0.2209709   0.2209709), wk =   0.0058594
        k(   37) = (   0.0000000  -0.1767767   0.1767767), wk =   0.0029297
        k(   38) = (   0.2651650   0.0000000   0.0000000), wk =   0.0014648
        k(   39) = (   0.3093592   0.0441942  -0.0441942), wk =   0.0058594
        k(   40) = (   0.3535534   0.0883883  -0.0883883), wk =   0.0058594
        k(   41) = (   0.3977476   0.1325825  -0.1325825), wk =   0.0058594
        k(   42) = (   0.4419417   0.1767767  -0.1767767), wk =   0.0058594
        k(   43) = (  -0.2209709  -0.4861359   0.4861359), wk =   0.0058594
        k(   44) = (  -0.1767767  -0.4419417   0.4419417), wk =   0.0058594
        k(   45) = (  -0.1325825  -0.3977476   0.3977476), wk =   0.0058594
        k(   46) = (  -0.0883883  -0.3535534   0.3535534), wk =   0.0058594
        k(   47) = (  -0.0441942  -0.3093592   0.3093592), wk =   0.0058594
        k(   48) = (   0.0000000  -0.2651650   0.2651650), wk =   0.0029297
        k(   49) = (   0.3535534   0.0000000   0.0000000), wk =   0.0014648
        k(   50) = (   0.3977476   0.0441942  -0.0441942), wk =   0.0058594
        k(   51) = (   0.4419417   0.0883883  -0.0883883), wk =   0.0058594
        k(   52) = (   0.4861359   0.1325825  -0.1325825), wk =   0.0058594
        k(   53) = (  -0.1767767  -0.5303301   0.5303301), wk =   0.0058594
        k(   54) = (  -0.1325825  -0.4861359   0.4861359), wk =   0.0058594
        k(   55) = (  -0.0883883  -0.4419417   0.4419417), wk =   0.0058594
        k(   56) = (  -0.0441942  -0.3977476   0.3977476), wk =   0.0058594
        k(   57) = (   0.0000000  -0.3535534   0.3535534), wk =   0.0029297
        k(   58) = (   0.4419417   0.0000000   0.0000000), wk =   0.0014648
        k(   59) = (   0.4861359   0.0441942  -0.0441942), wk =   0.0058594
        k(   60) = (   0.5303301   0.0883883  -0.0883883), wk =   0.0058594
        k(   61) = (  -0.1325825  -0.5745243   0.5745243), wk =   0.0058594
        k(   62) = (  -0.0883883  -0.5303301   0.5303301), wk =   0.0058594
        k(   63) = (  -0.0441942  -0.4861359   0.4861359), wk =   0.0058594
        k(   64) = (   0.0000000  -0.4419417   0.4419417), wk =   0.0029297
        k(   65) = (   0.5303301   0.0000000   0.0000000), wk =   0.0014648
        k(   66) = (   0.5745243   0.0441942  -0.0441942), wk =   0.0058594
        k(   67) = (  -0.0883883  -0.6187184   0.6187184), wk =   0.0058594
        k(   68) = (  -0.0441942  -0.5745243   0.5745243), wk =   0.0058594
        k(   69) = (   0.0000000  -0.5303301   0.5303301), wk =   0.0029297
        k(   70) = (   0.6187184   0.0000000   0.0000000), wk =   0.0014648
        k(   71) = (  -0.0441942  -0.6629126   0.6629126), wk =   0.0058594
        k(   72) = (   0.0000000  -0.6187184   0.6187184), wk =   0.0029297
        k(   73) = (  -0.7071068   0.0000000   0.0000000), wk =   0.0007324
        k(   74) = (   0.1767767   0.0883883   0.0000000), wk =   0.0058594
        k(   75) = (   0.2209709   0.1325825  -0.0441942), wk =   0.0117188
        k(   76) = (   0.2651650   0.1767767  -0.0883883), wk =   0.0117188
        k(   77) = (   0.3093592   0.2209709  -0.1325825), wk =   0.0117188
        k(   78) = (   0.3535534   0.2651650  -0.1767767), wk =   0.0117188
        k(   79) = (  -0.3093592  -0.3977476   0.4861359), wk =   0.0117188
        k(   80) = (  -0.2651650  -0.3535534   0.4419417), wk =   0.0058594
        k(   81) = (   0.2651650   0.0883883   0.0000000), wk =   0.0058594
        k(   82) = (   0.3093592   0.1325825  -0.0441942), wk =   0.0117188
        k(   83) = (   0.3535534   0.1767767  -0.0883883), wk =   0.0117188
        k(   84) = (   0.3977476   0.2209709  -0.1325825), wk =   0.0117188
        k(   85) = (  -0.2651650  -0.4419417   0.5303301), wk =   0.0117188
        k(   86) = (  -0.2209709  -0.3977476   0.4861359), wk =   0.0117188
        k(   87) = (  -0.1767767  -0.3535534   0.4419417), wk =   0.0117188
        k(   88) = (  -0.1325825  -0.3093592   0.3977476), wk =   0.0117188
        k(   89) = (  -0.0883883  -0.2651650   0.3535534), wk =   0.0117188
        k(   90) = (  -0.0441942  -0.2209709   0.3093592), wk =   0.0117188
        k(   91) = (   0.0000000  -0.1767767   0.2651650), wk =   0.0058594
        k(   92) = (   0.3535534   0.0883883   0.0000000), wk =   0.0058594
        k(   93) = (   0.3977476   0.1325825  -0.0441942), wk =   0.0117188
        k(   94) = (   0.4419417   0.1767767  -0.0883883), wk =   0.0117188
        k(   95) = (  -0.2209709  -0.4861359   0.5745243), wk =   0.0117188
        k(   96) = (  -0.1767767  -0.4419417   0.5303301), wk =   0.0117188
        k(   97) = (  -0.1325825  -0.3977476   0.4861359), wk =   0.0117188
        k(   98) = (  -0.0883883  -0.3535534   0.4419417), wk =   0.0117188
        k(   99) = (  -0.0441942  -0.3093592   0.3977476), wk =   0.0117188
        k(  100) = (   0.0000000  -0.2651650   0.3535534), wk =   0.0058594
        k(  101) = (   0.4419417   0.0883883   0.0000000), wk =   0.0058594
        k(  102) = (   0.4861359   0.1325825  -0.0441942), wk =   0.0117188
        k(  103) = (  -0.1767767  -0.5303301   0.6187184), wk =   0.0117188
        k(  104) = (  -0.1325825  -0.4861359   0.5745243), wk =   0.0117188
        k(  105) = (  -0.0883883  -0.4419417   0.5303301), wk =   0.0117188
        k(  106) = (  -0.0441942  -0.3977476   0.4861359), wk =   0.0117188
        k(  107) = (   0.0000000  -0.3535534   0.4419417), wk =   0.0058594
        k(  108) = (   0.5303301   0.0883883   0.0000000), wk =   0.0058594
        k(  109) = (  -0.1325825  -0.5745243   0.6629126), wk =   0.0117188
        k(  110) = (  -0.0883883  -0.5303301   0.6187184), wk =   0.0117188
        k(  111) = (  -0.0441942  -0.4861359   0.5745243), wk =   0.0117188
        k(  112) = (   0.0000000  -0.4419417   0.5303301), wk =   0.0058594
        k(  113) = (  -0.0883883  -0.6187184   0.7071068), wk =   0.0058594
        k(  114) = (  -0.0441942  -0.5745243   0.6629126), wk =   0.0117188
        k(  115) = (  -0.0000000  -0.5303301   0.6187184), wk =   0.0058594
        k(  116) = (  -0.7071068   0.0883883   0.0000000), wk =   0.0029297
        k(  117) = (   0.3535534   0.1767767   0.0000000), wk =   0.0058594
        k(  118) = (   0.3977476   0.2209709  -0.0441942), wk =   0.0117188
        k(  119) = (  -0.2651650  -0.4419417   0.6187184), wk =   0.0117188
        k(  120) = (  -0.2209709  -0.3977476   0.5745243), wk =   0.0117188
        k(  121) = (  -0.1767767  -0.3535534   0.5303301), wk =   0.0058594
        k(  122) = (   0.4419417   0.1767767   0.0000000), wk =   0.0058594
        k(  123) = (  -0.2209709  -0.4861359   0.6629126), wk =   0.0117188
        k(  124) = (  -0.1767767  -0.4419417   0.6187184), wk =   0.0117188
        k(  125) = (  -0.1325825  -0.3977476   0.5745243), wk =   0.0117188
        k(  126) = (  -0.0883883  -0.3535534   0.5303301), wk =   0.0117188
        k(  127) = (  -0.0441942  -0.3093592   0.4861359), wk =   0.0117188
        k(  128) = (   0.0000000  -0.2651650   0.4419417), wk =   0.0058594
        k(  129) = (  -0.1767767  -0.5303301   0.7071068), wk =   0.0058594
        k(  130) = (  -0.1325825  -0.4861359   0.6629126), wk =   0.0117188
        k(  131) = (  -0.0883883  -0.4419417   0.6187184), wk =   0.0117188
        k(  132) = (  -0.0441942  -0.3977476   0.5745243), wk =   0.0117188
        k(  133) = (   0.0000000  -0.3535534   0.5303301), wk =   0.0058594
        k(  134) = (  -0.0883883  -0.5303301   0.7071068), wk =   0.0058594
        k(  135) = (  -0.0441942  -0.4861359   0.6629126), wk =   0.0117188
        k(  136) = (   0.0000000  -0.4419417   0.6187184), wk =   0.0058594
        k(  137) = (  -0.7071068   0.1767767   0.0000000), wk =   0.0029297
        k(  138) = (  -0.1767767  -0.4419417   0.7071068), wk =   0.0058594
        k(  139) = (  -0.1325825  -0.3977476   0.6629126), wk =   0.0117188
        k(  140) = (  -0.0883883  -0.3535534   0.6187184), wk =   0.0058594
        k(  141) = (  -0.0883883  -0.4419417   0.7071068), wk =   0.0058594
        k(  142) = (  -0.0441942  -0.3977476   0.6629126), wk =   0.0117188
        k(  143) = (  -0.0000000  -0.3535534   0.6187184), wk =   0.0058594
        k(  144) = (  -0.7071068   0.2651650   0.0000000), wk =   0.0029297
        k(  145) = (  -0.7071068   0.3535534   0.0000000), wk =   0.0014648

                       cryst. coord.
        k(    1) = (   0.0000000   0.0000000   0.0000000), wk =   0.0002441
        k(    2) = (   0.0000000   0.0000000   0.0625000), wk =   0.0019531
        k(    3) = (   0.0000000   0.0000000   0.1250000), wk =   0.0019531
        k(    4) = (   0.0000000   0.0000000   0.1875000), wk =   0.0019531
        k(    5) = (   0.0000000   0.0000000   0.2500000), wk =   0.0019531
        k(    6) = (   0.0000000   0.0000000   0.3125000), wk =   0.0019531
        k(    7) = (   0.0000000   0.0000000   0.3750000), wk =   0.0019531
        k(    8) = (   0.0000000   0.0000000   0.4375000), wk =   0.0019531
        k(    9) = (   0.0000000   0.0000000  -0.5000000), wk =   0.0009766
        k(   10) = (   0.0000000   0.0625000   0.0625000), wk =   0.0014648
        k(   11) = (   0.0000000   0.0625000   0.1250000), wk =   0.0058594
        k(   12) = (   0.0000000   0.0625000   0.1875000), wk =   0.0058594
        k(   13) = (   0.0000000   0.0625000   0.2500000), wk =   0.0058594
        k(   14) = (   0.0000000   0.0625000   0.3125000), wk =   0.0058594
        k(   15) = (   0.0000000   0.0625000   0.3750000), wk =   0.0058594
        k(   16) = (   0.0000000   0.0625000   0.4375000), wk =   0.0058594
        k(   17) = (   0.0000000   0.0625000  -0.5000000), wk =   0.0058594
        k(   18) = (   0.0000000   0.0625000  -0.4375000), wk =   0.0058594
        k(   19) = (   0.0000000   0.0625000  -0.3750000), wk =   0.0058594
        k(   20) = (   0.0000000   0.0625000  -0.3125000), wk =   0.0058594
        k(   21) = (   0.0000000   0.0625000  -0.2500000), wk =   0.0058594
        k(   22) = (   0.0000000   0.0625000  -0.1875000), wk =   0.0058594
        k(   23) = (   0.0000000   0.0625000  -0.1250000), wk =   0.0058594
        k(   24) = (   0.0000000   0.0625000  -0.0625000), wk =   0.0029297
        k(   25) = (   0.0000000   0.1250000   0.1250000), wk =   0.0014648
        k(   26) = (   0.0000000   0.1250000   0.1875000), wk =   0.0058594
        k(   27) = (   0.0000000   0.1250000   0.2500000), wk =   0.0058594
        k(   28) = (   0.0000000   0.1250000   0.3125000), wk =   0.0058594
        k(   29) = (   0.0000000   0.1250000   0.3750000), wk =   0.0058594
        k(   30) = (   0.0000000   0.1250000   0.4375000), wk =   0.0058594
        k(   31) = (   0.0000000   0.1250000  -0.5000000), wk =   0.0058594
        k(   32) = (   0.0000000   0.1250000  -0.4375000), wk =   0.0058594
        k(   33) = (   0.0000000   0.1250000  -0.3750000), wk =   0.0058594
        k(   34) = (   0.0000000   0.1250000  -0.3125000), wk =   0.0058594
        k(   35) = (   0.0000000   0.1250000  -0.2500000), wk =   0.0058594
        k(   36) = (   0.0000000   0.1250000  -0.1875000), wk =   0.0058594
        k(   37) = (   0.0000000   0.1250000  -0.1250000), wk =   0.0029297
        k(   38) = (   0.0000000   0.1875000   0.1875000), wk =   0.0014648
        k(   39) = (   0.0000000   0.1875000   0.2500000), wk =   0.0058594
        k(   40) = (   0.0000000   0.1875000   0.3125000), wk =   0.0058594
        k(   41) = (   0.0000000   0.1875000   0.3750000), wk =   0.0058594
        k(   42) = (   0.0000000   0.1875000   0.4375000), wk =   0.0058594
        k(   43) = (   0.0000000   0.1875000  -0.5000000), wk =   0.0058594
        k(   44) = (   0.0000000   0.1875000  -0.4375000), wk =   0.0058594
        k(   45) = (   0.0000000   0.1875000  -0.3750000), wk =   0.0058594
        k(   46) = (   0.0000000   0.1875000  -0.3125000), wk =   0.0058594
        k(   47) = (   0.0000000   0.1875000  -0.2500000), wk =   0.0058594
        k(   48) = (   0.0000000   0.1875000  -0.1875000), wk =   0.0029297
        k(   49) = (   0.0000000   0.2500000   0.2500000), wk =   0.0014648
        k(   50) = (   0.0000000   0.2500000   0.3125000), wk =   0.0058594
        k(   51) = (   0.0000000   0.2500000   0.3750000), wk =   0.0058594
        k(   52) = (   0.0000000   0.2500000   0.4375000), wk =   0.0058594
        k(   53) = (   0.0000000   0.2500000  -0.5000000), wk =   0.0058594
        k(   54) = (   0.0000000   0.2500000  -0.4375000), wk =   0.0058594
        k(   55) = (   0.0000000   0.2500000  -0.3750000), wk =   0.0058594
        k(   56) = (   0.0000000   0.2500000  -0.3125000), wk =   0.0058594
        k(   57) = (   0.0000000   0.2500000  -0.2500000), wk =   0.0029297
        k(   58) = (   0.0000000   0.3125000   0.3125000), wk =   0.0014648
        k(   59) = (   0.0000000   0.3125000   0.3750000), wk =   0.0058594
        k(   60) = (   0.0000000   0.3125000   0.4375000), wk =   0.0058594
        k(   61) = (   0.0000000   0.3125000  -0.5000000), wk =   0.0058594
        k(   62) = (   0.0000000   0.3125000  -0.4375000), wk =   0.0058594
        k(   63) = (   0.0000000   0.3125000  -0.3750000), wk =   0.0058594
        k(   64) = (   0.0000000   0.3125000  -0.3125000), wk =   0.0029297
        k(   65) = (   0.0000000   0.3750000   0.3750000), wk =   0.0014648
        k(   66) = (   0.0000000   0.3750000   0.4375000), wk =   0.0058594
        k(   67) = (   0.0000000   0.3750000  -0.5000000), wk =   0.0058594
        k(   68) = (   0.0000000   0.3750000  -0.4375000), wk =   0.0058594
        k(   69) = (   0.0000000   0.3750000  -0.3750000), wk =   0.0029297
        k(   70) = (   0.0000000   0.4375000   0.4375000), wk =   0.0014648
        k(   71) = (   0.0000000   0.4375000  -0.5000000), wk =   0.0058594
        k(   72) = (   0.0000000   0.4375000  -0.4375000), wk =   0.0029297
        k(   73) = (   0.0000000  -0.5000000  -0.5000000), wk =   0.0007324
        k(   74) = (   0.0625000   0.1250000   0.1875000), wk =   0.0058594
        k(   75) = (   0.0625000   0.1250000   0.2500000), wk =   0.0117188
        k(   76) = (   0.0625000   0.1250000   0.3125000), wk =   0.0117188
        k(   77) = (   0.0625000   0.1250000   0.3750000), wk =   0.0117188
        k(   78) = (   0.0625000   0.1250000   0.4375000), wk =   0.0117188
        k(   79) = (   0.0625000   0.1250000  -0.5000000), wk =   0.0117188
        k(   80) = (   0.0625000   0.1250000  -0.4375000), wk =   0.0058594
        k(   81) = (   0.0625000   0.1875000   0.2500000), wk =   0.0058594
        k(   82) = (   0.0625000   0.1875000   0.3125000), wk =   0.0117188
        k(   83) = (   0.0625000   0.1875000   0.3750000), wk =   0.0117188
        k(   84) = (   0.0625000   0.1875000   0.4375000), wk =   0.0117188
        k(   85) = (   0.0625000   0.1875000  -0.5000000), wk =   0.0117188
        k(   86) = (   0.0625000   0.1875000  -0.4375000), wk =   0.0117188
        k(   87) = (   0.0625000   0.1875000  -0.3750000), wk =   0.0117188
        k(   88) = (   0.0625000   0.1875000  -0.3125000), wk =   0.0117188
        k(   89) = (   0.0625000   0.1875000  -0.2500000), wk =   0.0117188
        k(   90) = (   0.0625000   0.1875000  -0.1875000), wk =   0.0117188
        k(   91) = (   0.0625000   0.1875000  -0.1250000), wk =   0.0058594
        k(   92) = (   0.0625000   0.2500000   0.3125000), wk =   0.0058594
        k(   93) = (   0.0625000   0.2500000   0.3750000), wk =   0.0117188
        k(   94) = (   0.0625000   0.2500000   0.4375000), wk =   0.0117188
        k(   95) = (   0.0625000   0.2500000  -0.5000000), wk =   0.0117188
        k(   96) = (   0.0625000   0.2500000  -0.4375000), wk =   0.0117188
        k(   97) = (   0.0625000   0.2500000  -0.3750000), wk =   0.0117188
        k(   98) = (   0.0625000   0.2500000  -0.3125000), wk =   0.0117188
        k(   99) = (   0.0625000   0.2500000  -0.2500000), wk =   0.0117188
        k(  100) = (   0.0625000   0.2500000  -0.1875000), wk =   0.0058594
        k(  101) = (   0.0625000   0.3125000   0.3750000), wk =   0.0058594
        k(  102) = (   0.0625000   0.3125000   0.4375000), wk =   0.0117188
        k(  103) = (   0.0625000   0.3125000  -0.5000000), wk =   0.0117188
        k(  104) = (   0.0625000   0.3125000  -0.4375000), wk =   0.0117188
        k(  105) = (   0.0625000   0.3125000  -0.3750000), wk =   0.0117188
        k(  106) = (   0.0625000   0.3125000  -0.3125000), wk =   0.0117188
        k(  107) = (   0.0625000   0.3125000  -0.2500000), wk =   0.0058594
        k(  108) = (   0.0625000   0.3750000   0.4375000), wk =   0.0058594
        k(  109) = (   0.0625000   0.3750000  -0.5000000), wk =   0.0117188
        k(  110) = (   0.0625000   0.3750000  -0.4375000), wk =   0.0117188
        k(  111) = (   0.0625000   0.3750000  -0.3750000), wk =   0.0117188
        k(  112) = (   0.0625000   0.3750000  -0.3125000), wk =   0.0058594
        k(  113) = (   0.0625000   0.4375000  -0.5000000), wk =   0.0058594
        k(  114) = (   0.0625000   0.4375000  -0.4375000), wk =   0.0117188
        k(  115) = (   0.0625000   0.4375000  -0.3750000), wk =   0.0058594
        k(  116) = (   0.0625000  -0.5000000  -0.4375000), wk =   0.0029297
        k(  117) = (   0.1250000   0.2500000   0.3750000), wk =   0.0058594
        k(  118) = (   0.1250000   0.2500000   0.4375000), wk =   0.0117188
        k(  119) = (   0.1250000   0.2500000  -0.5000000), wk =   0.0117188
        k(  120) = (   0.1250000   0.2500000  -0.4375000), wk =   0.0117188
        k(  121) = (   0.1250000   0.2500000  -0.3750000), wk =   0.0058594
        k(  122) = (   0.1250000   0.3125000   0.4375000), wk =   0.0058594
        k(  123) = (   0.1250000   0.3125000  -0.5000000), wk =   0.0117188
        k(  124) = (   0.1250000   0.3125000  -0.4375000), wk =   0.0117188
        k(  125) = (   0.1250000   0.3125000  -0.3750000), wk =   0.0117188
        k(  126) = (   0.1250000   0.3125000  -0.3125000), wk =   0.0117188
        k(  127) = (   0.1250000   0.3125000  -0.2500000), wk =   0.0117188
        k(  128) = (   0.1250000   0.3125000  -0.1875000), wk =   0.0058594
        k(  129) = (   0.1250000   0.3750000  -0.5000000), wk =   0.0058594
        k(  130) = (   0.1250000   0.3750000  -0.4375000), wk =   0.0117188
        k(  131) = (   0.1250000   0.3750000  -0.3750000), wk =   0.0117188
        k(  132) = (   0.1250000   0.3750000  -0.3125000), wk =   0.0117188
        k(  133) = (   0.1250000   0.3750000  -0.2500000), wk =   0.0058594
        k(  134) = (   0.1250000   0.4375000  -0.4375000), wk =   0.0058594
        k(  135) = (   0.1250000   0.4375000  -0.3750000), wk =   0.0117188
        k(  136) = (   0.1250000   0.4375000  -0.3125000), wk =   0.0058594
        k(  137) = (   0.1250000  -0.5000000  -0.3750000), wk =   0.0029297
        k(  138) = (   0.1875000   0.3750000  -0.4375000), wk =   0.0058594
        k(  139) = (   0.1875000   0.3750000  -0.3750000), wk =   0.0117188
        k(  140) = (   0.1875000   0.3750000  -0.3125000), wk =   0.0058594
        k(  141) = (   0.1875000   0.4375000  -0.3750000), wk =   0.0058594
        k(  142) = (   0.1875000   0.4375000  -0.3125000), wk =   0.0117188
        k(  143) = (   0.1875000   0.4375000  -0.2500000), wk =   0.0058594
        k(  144) = (   0.1875000  -0.5000000  -0.3125000), wk =   0.0029297
        k(  145) = (   0.2500000  -0.5000000  -0.2500000), wk =   0.0014648

     Dense  grid:    48359 G-vectors     FFT dimensions: (  54,  54,  54)

     Largest allocated arrays     est. size (Mb)     dimensions
        Kohn-Sham Wavefunctions         0.43 Mb     (     774,   36)
        NL pseudopotentials             0.40 Mb     (     387,   68)
        Each V/rho on FFT grid          0.18 Mb     (   11664)
        Each G-vector array             0.02 Mb     (    3024)
        G-vector shells                 0.00 Mb     (     421)
     Largest temporary arrays     est. size (Mb)     dimensions
        Auxiliary wavefunctions         1.70 Mb     (     774,  144)
        Each subspace H/S matrix        0.32 Mb     (     144,  144)
        Each <psi_i|beta_j> matrix      0.07 Mb     (      68,   2,   36)
        Arrays for rho mixing           1.42 Mb     (   11664,    8)

     Initial potential from superposition of free atoms

     starting charge   27.99781, renormalised to   28.00000
     Starting wfc are   36 randomized atomic wfcs

     total cpu time spent up to now is       11.2 secs

     Self-consistent Calculation

     iteration #  1     ecut=    80.00 Ry     beta=0.70
     Davidson diagonalization with overlap
     ethr =  1.00E-02,  avg # of iterations =  3.5

     Threshold (ethr) on eigenvalues was too large:
     Diagonalizing with lowered threshold

     Davidson diagonalization with overlap
     ethr =  5.69E-05,  avg # of iterations =  3.5

     total cpu time spent up to now is       81.2 secs

     total energy              =    -325.85571178 Ry
     Harris-Foulkes estimate   =    -325.85772149 Ry
     estimated scf accuracy    <       0.01886761 Ry

     iteration #  2     ecut=    80.00 Ry     beta=0.70
     Davidson diagonalization with overlap
     ethr =  6.74E-05,  avg # of iterations =  1.0

     total cpu time spent up to now is      108.5 secs

     total energy              =    -325.85629675 Ry
     Harris-Foulkes estimate   =    -325.85640713 Ry
     estimated scf accuracy    <       0.00151229 Ry

     iteration #  3     ecut=    80.00 Ry     beta=0.70
     Davidson diagonalization with overlap
     ethr =  5.40E-06,  avg # of iterations =  2.3

     total cpu time spent up to now is      145.3 secs

     total energy              =    -325.85650930 Ry
     Harris-Foulkes estimate   =    -325.85654920 Ry
     estimated scf accuracy    <       0.00008184 Ry

     iteration #  4     ecut=    80.00 Ry     beta=0.70
     Davidson diagonalization with overlap
     ethr =  2.92E-07,  avg # of iterations =  2.1

     total cpu time spent up to now is      179.6 secs

     total energy              =    -325.85652979 Ry
     Harris-Foulkes estimate   =    -325.85652807 Ry
     estimated scf accuracy    <       0.00000287 Ry

     iteration #  5     ecut=    80.00 Ry     beta=0.70
     Davidson diagonalization with overlap
     ethr =  1.03E-08,  avg # of iterations =  2.0

     total cpu time spent up to now is      210.0 secs

     End of self-consistent calculation

          k = 0.0000 0.0000 0.0000 (  5985 PWs)   bands (ev):

   -15.1250 -15.1250 -15.1250 -15.1250 -15.0452 -15.0452 -15.0452 -15.0452
   -14.1984 -14.1984 -14.0299 -14.0299 -14.0299 -14.0299 -13.9927 -13.9927
   -13.9927 -13.9927 -13.8891 -13.8891  -3.1708  -3.1708   5.7242   5.7242
     6.5512   6.5512   7.1994   7.1994   7.1994   7.1994   8.7334   8.7334
     9.2032   9.2032   9.2032   9.2032

     occupation numbers 
     1.0000   1.0000   1.0000   1.0000   1.0000   1.0000   1.0000   1.0000
     1.0000   1.0000   1.0000   1.0000   1.0000   1.0000   1.0000   1.0000
     1.0000   1.0000   1.0000   1.0000   1.0000   1.0000   1.0000   1.0000
     1.0000   1.0000   0.0000   0.0000   0.0000   0.0000   0.0000   0.0000
     0.0000   0.0000   0.0000   0.0000

          k = 0.0442 0.0442-0.0442 (  6048 PWs)   bands (ev):

   -15.1253 -15.1253 -15.1242 -15.1242 -15.0460 -15.0460 -15.0447 -15.0447
   -14.1966 -14.1966 -14.0349 -14.0349 -14.0331 -14.0331 -13.9894 -13.9894
   -13.9884 -13.9884 -13.8901 -13.8901  -3.1361  -3.1361   5.3154   5.3154
     6.5974   6.5974   7.1246   7.1246   7.2607   7.2607   8.8904   8.8904
     9.2859   9.2859   9.3002   9.3002

     occupation numbers 
     1.0000   1.0000   1.0000   1.0000   1.0000   1.0000   1.0000   1.0000
     1.0000   1.0000   1.0000   1.0000   1.0000   1.0000   1.0000   1.0000
     1.0000   1.0000   1.0000   1.0000   1.0000   1.0000   1.0000   1.0000
     1.0000   1.0000   0.0000   0.0000   0.0000   0.0000   0.0000   0.0000
     0.0000   0.0000   0.0000   0.0000

          k = 0.0884 0.0884-0.0884 (  6051 PWs)   bands (ev):

   -15.1264 -15.1264 -15.1219 -15.1219 -15.0482 -15.0482 -15.0432 -15.0432
   -14.1915 -14.1915 -14.0460 -14.0460 -14.0402 -14.0402 -13.9818 -13.9818
   -13.9794 -13.9794 -13.8928 -13.8928  -3.0326  -3.0326   4.5525   4.5525
     6.4906   6.4906   6.9427   6.9427   7.3080   7.3080   9.2169   9.2169
     9.5374   9.5374   9.6404   9.6404

     occupation numbers 
     1.0000   1.0000   1.0000   1.0000   1.0000   1.0000   1.0000   1.0000
     1.0000   1.0000   1.0000   1.0000   1.0000   1.0000   1.0000   1.0000
     1.0000   1.0000   1.0000   1.0000   1.0000   1.0000   1.0000   1.0000
     1.0000   1.0000   1.0000   1.0000   0.0000   0.0000   0.0000   0.0000
     0.0000   0.0000   0.0000   0.0000

          k = 0.1326 0.1326-0.1326 (  6048 PWs)   bands (ev):

   -15.1279 -15.1279 -15.1183 -15.1183 -15.0517 -15.0517 -15.0412 -15.0412
   -14.1834 -14.1834 -14.0590 -14.0590 -14.0481 -14.0481 -13.9729 -13.9729
   -13.9695 -13.9695 -13.8972 -13.8972  -2.8634  -2.8634   3.7246   3.7246
     6.2950   6.2950   6.7244   6.7244   7.2295   7.2295   9.5033   9.5033
     9.8118   9.8118  10.3083  10.3083

     occupation numbers 
     1.0000   1.0000   1.0000   1.0000   1.0000   1.0000   1.0000   1.0000
     1.0000   1.0000   1.0000   1.0000   1.0000   1.0000   1.0000   1.0000
     1.0000   1.0000   1.0000   1.0000   1.0000   1.0000   1.0000   1.0000
     1.0000   1.0000   1.0000   1.0000   0.0000   0.0000   0.0000   0.0000
     0.0000   0.0000   0.0000   0.0000

          k = 0.1768 0.1768-0.1768 (  6057 PWs)   bands (ev):

   -15.1295 -15.1295 -15.1135 -15.1135 -15.0563 -15.0563 -15.0388 -15.0388
   -14.1731 -14.1731 -14.0724 -14.0724 -14.0556 -14.0556 -13.9645 -13.9645
   -13.9602 -13.9602 -13.9028 -13.9028  -2.6347  -2.6347   2.9145   2.9145
     6.0948   6.0948   6.5154   6.5154   7.0908   7.0908   9.7352   9.7352
    10.0343  10.0343  11.1164  11.1164

     occupation numbers 
     1.0000   1.0000   1.0000   1.0000   1.0000   1.0000   1.0000   1.0000
     1.0000   1.0000   1.0000   1.0000   1.0000   1.0000   1.0000   1.0000
     1.0000   1.0000   1.0000   1.0000   1.0000   1.0000   1.0000   1.0000
     1.0000   1.0000   1.0000   1.0000   0.0000   0.0000   0.0000   0.0000
     0.0000   0.0000   0.0000   0.0000

          k = 0.2210 0.2210-0.2210 (  6057 PWs)   bands (ev):

   -15.1310 -15.1310 -15.1079 -15.1079 -15.0617 -15.0617 -15.0367 -15.0367
   -14.1615 -14.1615 -14.0856 -14.0856 -14.0619 -14.0619 -13.9572 -13.9572
   -13.9517 -13.9517 -13.9092 -13.9092  -2.3597  -2.3597   2.1675   2.1675
     5.9228   5.9228   6.3393   6.3393   6.9518   6.9518   9.8854   9.8854
    10.1603  10.1603  11.9773  11.9773

     occupation numbers 
     1.0000   1.0000   1.0000   1.0000   1.0000   1.0000   1.0000   1.0000
     1.0000   1.0000   1.0000   1.0000   1.0000   1.0000   1.0000   1.0000
     1.0000   1.0000   1.0000   1.0000   1.0000   1.0000   1.0000   1.0000
     1.0000   1.0000   1.0000   1.0000   0.1250   0.1250   0.0000   0.0000
     0.0000   0.0000   0.0000   0.0000

          k = 0.2652 0.2652-0.2652 (  6077 PWs)   bands (ev):

   -15.1322 -15.1322 -15.1019 -15.1019 -15.0675 -15.0675 -15.0349 -15.0349
   -14.1492 -14.1492 -14.0982 -14.0982 -14.0665 -14.0665 -13.9517 -13.9517
   -13.9440 -13.9440 -13.9161 -13.9161  -2.0663  -2.0663   1.5281   1.5281
     5.7934   5.7934   6.2079   6.2079   6.8411   6.8411   9.9558   9.9558
    10.2035  10.2035  12.6323  12.6323

     occupation numbers 
     1.0000   1.0000   1.0000   1.0000   1.0000   1.0000   1.0000   1.0000
     1.0000   1.0000   1.0000   1.0000   1.0000   1.0000   1.0000   1.0000
     1.0000   1.0000   1.0000   1.0000   1.0000   1.0000   1.0000   1.0000
     1.0000   1.0000   1.0000   1.0000   1.0000   1.0000   0.0000   0.0000
     0.0000   0.0000   0.0000   0.0000

          k = 0.3094 0.3094-0.3094 (  6056 PWs)   bands (ev):

   -15.1329 -15.1329 -15.0964 -15.0964 -15.0729 -15.0729 -15.0338 -15.0338
   -14.1371 -14.1371 -14.1101 -14.1101 -14.0694 -14.0694 -13.9482 -13.9482
   -13.9371 -13.9371 -13.9229 -13.9229  -1.8146  -1.8146   1.0657   1.0657
     5.7137   5.7137   6.1272   6.1272   6.7714   6.7714   9.9780   9.9780
    10.2067  10.2067  12.6560  12.6560

     occupation numbers 
     1.0000   1.0000   1.0000   1.0000   1.0000   1.0000   1.0000   1.0000
     1.0000   1.0000   1.0000   1.0000   1.0000   1.0000   1.0000   1.0000
     1.0000   1.0000   1.0000   1.0000   1.0000   1.0000   1.0000   1.0000
     1.0000   1.0000   1.0000   1.0000   1.0000   1.0000   0.0000   0.0000
     0.0000   0.0000   0.0000   0.0000

          k =-0.3536-0.3536 0.3536 (  6062 PWs)   bands (ev):

   -15.1332 -15.1332 -15.0938 -15.0938 -15.0755 -15.0755 -15.0334 -15.0334
   -14.1289 -14.1289 -14.1182 -14.1182 -14.0704 -14.0704 -13.9471 -13.9471
   -13.9319 -13.9319 -13.9281 -13.9281  -1.7082  -1.7082   0.8885   0.8885
     5.6867   5.6867   6.1000   6.1000   6.7477   6.7477   9.9817   9.9817
    10.2039  10.2039  12.6308  12.6309

     occupation numbers 
     1.0000   1.0000   1.0000   1.0000   1.0000   1.0000   1.0000   1.0000
     1.0000   1.0000   1.0000   1.0000   1.0000   1.0000   1.0000   1.0000
     1.0000   1.0000   1.0000   1.0000   1.0000   1.0000   1.0000   1.0000
     1.0000   1.0000   1.0000   1.0000   1.0000   1.0000   0.0000   0.0000
     0.0000   0.0000   0.0000   0.0000

          k = 0.0884 0.0000 0.0000 (  6038 PWs)   bands (ev):

   -15.1250 -15.1250 -15.1244 -15.1244 -15.0459 -15.0459 -15.0448 -15.0448
   -14.1960 -14.1960 -14.0374 -14.0374 -14.0330 -14.0330 -13.9887 -13.9887
   -13.9870 -13.9870 -13.8904 -13.8904  -3.1244  -3.1244   5.2347   5.2347
     6.5300   6.5300   6.9442   6.9442   7.5176   7.5176   8.8079   8.8079
     9.2994   9.2994   9.4341   9.4341

     occupation numbers 
     1.0000   1.0000   1.0000   1.0000   1.0000   1.0000   1.0000   1.0000
     1.0000   1.0000   1.0000   1.0000   1.0000   1.0000   1.0000   1.0000
     1.0000   1.0000   1.0000   1.0000   1.0000   1.0000   1.0000   1.0000
     1.0000   1.0000   1.0000   1.0000   0.0000   0.0000   0.0000   0.0000
     0.0000   0.0000   0.0000   0.0000

          k = 0.1326 0.0442-0.0442 (  6057 PWs)   bands (ev):

   -15.1258 -15.1258 -15.1227 -15.1227 -15.0475 -15.0475 -15.0437 -15.0437
   -14.1920 -14.1920 -14.0463 -14.0463 -14.0379 -14.0379 -13.9834 -13.9834
   -13.9797 -13.9797 -13.8924 -13.8924  -3.0437  -3.0437   4.6694   4.6694
     6.3906   6.3906   6.7335   6.7335   7.7206   7.7206   8.8747   8.8747
     9.5854   9.5854   9.7356   9.7356

     occupation numbers 
     1.0000   1.0000   1.0000   1.0000   1.0000   1.0000   1.0000   1.0000
     1.0000   1.0000   1.0000   1.0000   1.0000   1.0000   1.0000   1.0000
     1.0000   1.0000   1.0000   1.0000   1.0000   1.0000   1.0000   1.0000
     1.0000   1.0000   1.0000   1.0000   0.0000   0.0000   0.0000   0.0000
     0.0000   0.0000   0.0000   0.0000

          k = 0.1768 0.0884-0.0884 (  6045 PWs)   bands (ev):

   -15.1272 -15.1272 -15.1195 -15.1195 -15.0506 -15.0506 -15.0418 -15.0418
   -14.1849 -14.1849 -14.0580 -14.0580 -14.0450 -14.0450 -13.9768 -13.9768
   -13.9697 -13.9696 -13.8961 -13.8961  -2.8959  -2.8959   3.9171   3.9171
     6.1859   6.1859   6.5151   6.5151   7.7162   7.7162   9.1178   9.1178
     9.9187   9.9187  10.2478  10.2478

     occupation numbers 
     1.0000   1.0000   1.0000   1.0000   1.0000   1.0000   1.0000   1.0000
     1.0000   1.0000   1.0000   1.0000   1.0000   1.0000   1.0000   1.0000
     1.0000   1.0000   1.0000   1.0000   1.0000   1.0000   1.0000   1.0000
     1.0000   1.0000   1.0000   1.0000   0.0000   0.0000   0.0000   0.0000
     0.0000   0.0000   0.0000   0.0000

          k = 0.2210 0.1326-0.1326 (  6053 PWs)   bands (ev):

   -15.1288 -15.1288 -15.1150 -15.1150 -15.0549 -15.0549 -15.0395 -15.0395
   -14.1754 -14.1754 -14.0706 -14.0706 -14.0523 -14.0523 -13.9703 -13.9703
   -13.9595 -13.9595 -13.9009 -13.9009  -2.6861  -2.6861   3.1305   3.1305
     5.9702   5.9702   6.2975   6.2975   7.5992   7.5992   9.4229   9.4229
    10.1737  10.1737  10.8850  10.8850

     occupation numbers 
     1.0000   1.0000   1.0000   1.0000   1.0000   1.0000   1.0000   1.0000
     1.0000   1.0000   1.0000   1.0000   1.0000   1.0000   1.0000   1.0000
     1.0000   1.0000   1.0000   1.0000   1.0000   1.0000   1.0000   1.0000
     1.0000   1.0000   1.0000   1.0000   0.0000   0.0000   0.0000   0.0000
     0.0000   0.0000   0.0000   0.0000

          k = 0.2652 0.1768-0.1768 (  6054 PWs)   bands (ev):

   -15.1304 -15.1304 -15.1097 -15.1097 -15.0601 -15.0601 -15.0372 -15.0372
   -14.1643 -14.1643 -14.0830 -14.0830 -14.0589 -14.0589 -13.9644 -13.9644
   -13.9502 -13.9502 -13.9065 -13.9065  -2.4244  -2.4244   2.3779   2.3779
     5.7754   5.7754   6.1113   6.1113   7.4558   7.4558   9.6768   9.6768
    10.3141  10.3141  11.5604  11.5605

     occupation numbers 
     1.0000   1.0000   1.0000   1.0000   1.0000   1.0000   1.0000   1.0000
     1.0000   1.0000   1.0000   1.0000   1.0000   1.0000   1.0000   1.0000
     1.0000   1.0000   1.0000   1.0000   1.0000   1.0000   1.0000   1.0000
     1.0000   1.0000   1.0000   1.0000   0.0000   0.0000   0.0000   0.0000
     0.0000   0.0000   0.0000   0.0000

          k = 0.3094 0.2210-0.2210 (  6068 PWs)   bands (ev):

   -15.1318 -15.1318 -15.1038 -15.1038 -15.0659 -15.0659 -15.0352 -15.0352
   -14.1524 -14.1524 -14.0950 -14.0950 -14.0642 -14.0642 -13.9597 -13.9597
   -13.9425 -13.9425 -13.9122 -13.9122  -2.1323  -2.1323   1.7082   1.7082
     5.6151   5.6151   5.9767   5.9767   7.3281   7.3281   9.8337   9.8337
    10.3466  10.3466  12.2239  12.2239

     occupation numbers 
     1.0000   1.0000   1.0000   1.0000   1.0000   1.0000   1.0000   1.0000
     1.0000   1.0000   1.0000   1.0000   1.0000   1.0000   1.0000   1.0000
     1.0000   1.0000   1.0000   1.0000   1.0000   1.0000   1.0000   1.0000
     1.0000   1.0000   1.0000   1.0000   0.0000   0.0000   0.0000   0.0000
     0.0000   0.0000   0.0000   0.0000

          k = 0.3536 0.2652-0.2652 (  6053 PWs)   bands (ev):

   -15.1327 -15.1327 -15.0980 -15.0980 -15.0716 -15.0716 -15.0337 -15.0337
   -14.1407 -14.1407 -14.1062 -14.1062 -14.0678 -14.0678 -13.9564 -13.9564
   -13.9366 -13.9366 -13.9173 -13.9173  -1.8565  -1.8565   1.1824   1.1824
     5.4966   5.4966   5.9025   5.9025   7.2350   7.2350   9.9182   9.9182
    10.3161  10.3161  12.6508  12.6508

     occupation numbers 
     1.0000   1.0000   1.0000   1.0000   1.0000   1.0000   1.0000   1.0000
     1.0000   1.0000   1.0000   1.0000   1.0000   1.0000   1.0000   1.0000
     1.0000   1.0000   1.0000   1.0000   1.0000   1.0000   1.0000   1.0000
     1.0000   1.0000   1.0000   1.0000   0.0000   0.0000   0.0000   0.0000
     0.0000   0.0000   0.0000   0.0000

          k =-0.3094-0.3977 0.3977 (  6060 PWs)   bands (ev):

   -15.1331 -15.1331 -15.0940 -15.0940 -15.0755 -15.0755 -15.0331 -15.0331
   -14.1311 -14.1311 -14.1153 -14.1153 -14.0695 -14.0695 -13.9549 -13.9549
   -13.9331 -13.9331 -13.9205 -13.9205  -1.6885  -1.6885   0.8996   0.8996
     5.4260   5.4260   5.8904   5.8904   7.1848   7.1848   9.9704   9.9704
    10.2676  10.2676  12.7435  12.7435

     occupation numbers 
     1.0000   1.0000   1.0000   1.0000   1.0000   1.0000   1.0000   1.0000
     1.0000   1.0000   1.0000   1.0000   1.0000   1.0000   1.0000   1.0000
     1.0000   1.0000   1.0000   1.0000   1.0000   1.0000   1.0000   1.0000
     1.0000   1.0000   1.0000   1.0000   0.0000   0.0000   0.0000   0.0000
     0.0000   0.0000   0.0000   0.0000

          k =-0.2652-0.3536 0.3536 (  6070 PWs)   bands (ev):

   -15.1330 -15.1330 -15.0949 -15.0949 -15.0747 -15.0747 -15.0332 -15.0332
   -14.1337 -14.1337 -14.1128 -14.1128 -14.0691 -14.0691 -13.9554 -13.9554
   -13.9336 -13.9336 -13.9199 -13.9199  -1.7255  -1.7255   0.9599   0.9599
     5.4078   5.4078   5.9384   5.9384   7.1805   7.1805  10.0048  10.0048
    10.2306  10.2306  12.7561  12.7561

     occupation numbers 
     1.0000   1.0000   1.0000   1.0000   1.0000   1.0000   1.0000   1.0000
     1.0000   1.0000   1.0000   1.0000   1.0000   1.0000   1.0000   1.0000
     1.0000   1.0000   1.0000   1.0000   1.0000   1.0000   1.0000   1.0000
     1.0000   1.0000   1.0000   1.0000   0.0000   0.0000   0.0000   0.0000
     0.0000   0.0000   0.0000   0.0000

          k =-0.2210-0.3094 0.3094 (  6063 PWs)   bands (ev):

   -15.1325 -15.1325 -15.0997 -15.0997 -15.0699 -15.0699 -15.0341 -15.0341
   -14.1445 -14.1445 -14.1026 -14.1026 -14.0667 -14.0667 -13.9579 -13.9579
   -13.9377 -13.9377 -13.9159 -13.9159  -1.9425  -1.9425   1.3376   1.3376
     5.4457   5.4457   6.0423   6.0423   7.2218   7.2218   9.9993   9.9993
    10.2206  10.2206  12.6436  12.6436

     occupation numbers 
     1.0000   1.0000   1.0000   1.0000   1.0000   1.0000   1.0000   1.0000
     1.0000   1.0000   1.0000   1.0000   1.0000   1.0000   1.0000   1.0000
     1.0000   1.0000   1.0000   1.0000   1.0000   1.0000   1.0000   1.0000
     1.0000   1.0000   1.0000   1.0000   0.0000   0.0000   0.0000   0.0000
     0.0000   0.0000   0.0000   0.0000

          k =-0.1768-0.2652 0.2652 (  6060 PWs)   bands (ev):

   -15.1314 -15.1314 -15.1056 -15.1056 -15.0641 -15.0641 -15.0357 -15.0357
   -14.1564 -14.1564 -14.0911 -14.0911 -14.0624 -14.0624 -13.9619 -13.9619
   -13.9441 -13.9441 -13.9105 -13.9105  -2.2315  -2.2315   1.9201   1.9201
     5.5416   5.5416   6.1956   6.1956   7.3039   7.3039   9.9239   9.9239
    10.2102  10.2102  12.0794  12.0795

     occupation numbers 
     1.0000   1.0000   1.0000   1.0000   1.0000   1.0000   1.0000   1.0000
     1.0000   1.0000   1.0000   1.0000   1.0000   1.0000   1.0000   1.0000
     1.0000   1.0000   1.0000   1.0000   1.0000   1.0000   1.0000   1.0000
     1.0000   1.0000   1.0000   1.0000   0.0000   0.0000   0.0000   0.0000
     0.0000   0.0000   0.0000   0.0000

          k =-0.1326-0.2210 0.2210 (  6046 PWs)   bands (ev):

   -15.1300 -15.1300 -15.1114 -15.1114 -15.0585 -15.0585 -15.0378 -15.0378
   -14.1682 -14.1682 -14.0790 -14.0790 -14.0566 -14.0566 -13.9672 -13.9672
   -13.9522 -13.9522 -13.9047 -13.9047  -2.5169  -2.5169   2.6220   2.6220
     5.6962   5.6962   6.3880   6.3880   7.4148   7.4148   9.7659   9.7659
    10.1154  10.1154  11.3544  11.3544

     occupation numbers 
     1.0000   1.0000   1.0000   1.0000   1.0000   1.0000   1.0000   1.0000
     1.0000   1.0000   1.0000   1.0000   1.0000   1.0000   1.0000   1.0000
     1.0000   1.0000   1.0000   1.0000   1.0000   1.0000   1.0000   1.0000
     1.0000   1.0000   1.0000   1.0000   0.0000   0.0000   0.0000   0.0000
     0.0000   0.0000   0.0000   0.0000

          k =-0.0884-0.1768 0.1768 (  6060 PWs)   bands (ev):

   -15.1284 -15.1284 -15.1164 -15.1164 -15.0536 -15.0536 -15.0401 -15.0401
   -14.1788 -14.1788 -14.0664 -14.0664 -14.0497 -14.0497 -13.9734 -13.9734
   -13.9618 -13.9618 -13.8993 -13.8993  -2.7629  -2.7629   3.3885   3.3885
     5.9079   5.9079   6.6021   6.6021   7.5264   7.5264   9.5328   9.5328
     9.8625   9.8625  10.7024  10.7024

     occupation numbers 
     1.0000   1.0000   1.0000   1.0000   1.0000   1.0000   1.0000   1.0000
     1.0000   1.0000   1.0000   1.0000   1.0000   1.0000   1.0000   1.0000
     1.0000   1.0000   1.0000   1.0000   1.0000   1.0000   1.0000   1.0000
     1.0000   1.0000   1.0000   1.0000   0.0000   0.0000   0.0000   0.0000
     0.0000   0.0000   0.0000   0.0000

          k =-0.0442-0.1326 0.1326 (  6051 PWs)   bands (ev):

   -15.1269 -15.1269 -15.1204 -15.1204 -15.0497 -15.0497 -15.0423 -15.0423
   -14.1876 -14.1876 -14.0538 -14.0538 -14.0426 -14.0426 -13.9800 -13.9800
   -13.9721 -13.9721 -13.8948 -13.8948  -2.9527  -2.9527   4.1660   4.1660
     6.1700   6.1700   6.8079   6.8079   7.5763   7.5763   9.2658   9.2658
     9.5182   9.5182  10.1375  10.1375

     occupation numbers 
     1.0000   1.0000   1.0000   1.0000   1.0000   1.0000   1.0000   1.0000
     1.0000   1.0000   1.0000   1.0000   1.0000   1.0000   1.0000   1.0000
     1.0000   1.0000   1.0000   1.0000   1.0000   1.0000   1.0000   1.0000
     1.0000   1.0000   1.0000   1.0000   0.0000   0.0000   0.0000   0.0000
     0.0000   0.0000   0.0000   0.0000

          k = 0.0000-0.0884 0.0884 (  6039 PWs)   bands (ev):

   -15.1258 -15.1258 -15.1231 -15.1231 -15.0471 -15.0471 -15.0439 -15.0439
   -14.1937 -14.1937 -14.0424 -14.0424 -14.0364 -14.0364 -13.9859 -13.9859
   -13.9820 -13.9820 -13.8916 -13.8916  -3.0783  -3.0783   4.8680   4.8680
     6.4515   6.4515   6.9703   6.9703   7.4701   7.4701   9.0240   9.0240
     9.3042   9.3042   9.6375   9.6375

     occupation numbers 
     1.0000   1.0000   1.0000   1.0000   1.0000   1.0000   1.0000   1.0000
     1.0000   1.0000   1.0000   1.0000   1.0000   1.0000   1.0000   1.0000
     1.0000   1.0000   1.0000   1.0000   1.0000   1.0000   1.0000   1.0000
     1.0000   1.0000   0.0000   0.0000   0.0000   0.0000   0.0000   0.0000
     0.0000   0.0000   0.0000   0.0000

          k = 0.1768 0.0000 0.0000 (  6058 PWs)   bands (ev):

   -15.1252 -15.1252 -15.1227 -15.1227 -15.0477 -15.0477 -15.0438 -15.0438
   -14.1892 -14.1892 -14.0523 -14.0523 -14.0396 -14.0396 -13.9791 -13.9791
   -13.9774 -13.9774 -13.8936 -13.8936  -2.9856  -2.9856   4.4203   4.4203
     6.2001   6.2001   6.4553   6.4553   8.1848   8.1848   8.5686   8.5686
     9.8868   9.8868   9.9903   9.9903

     occupation numbers 
     1.0000   1.0000   1.0000   1.0000   1.0000   1.0000   1.0000   1.0000
     1.0000   1.0000   1.0000   1.0000   1.0000   1.0000   1.0000   1.0000
     1.0000   1.0000   1.0000   1.0000   1.0000   1.0000   1.0000   1.0000
     1.0000   1.0000   1.0000   1.0000   0.0000   0.0000   0.0000   0.0000
     0.0000   0.0000   0.0000   0.0000

          k = 0.2210 0.0442-0.0442 (  6052 PWs)   bands (ev):

   -15.1261 -15.1261 -15.1204 -15.1204 -15.0500 -15.0500 -15.0425 -15.0425
   -14.1832 -14.1832 -14.0617 -14.0617 -14.0443 -14.0443 -13.9756 -13.9756
   -13.9691 -13.9691 -13.8962 -13.8962  -2.8597  -2.8597   3.8785   3.8785
     5.9805   5.9805   6.2136   6.2136   8.3311   8.3311   8.5975   8.5975
    10.2578  10.2578  10.3849  10.3849

     occupation numbers 
     1.0000   1.0000   1.0000   1.0000   1.0000   1.0000   1.0000   1.0000
     1.0000   1.0000   1.0000   1.0000   1.0000   1.0000   1.0000   1.0000
     1.0000   1.0000   1.0000   1.0000   1.0000   1.0000   1.0000   1.0000
     1.0000   1.0000   1.0000   1.0000   0.0000   0.0000   0.0000   0.0000
     0.0000   0.0000   0.0000   0.0000

          k = 0.2652 0.0884-0.0884 (  6054 PWs)   bands (ev):

   -15.1277 -15.1277 -15.1164 -15.1164 -15.0538 -15.0538 -15.0402 -15.0402
   -14.1747 -14.1747 -14.0726 -14.0726 -14.0499 -14.0499 -13.9730 -13.9730
   -13.9587 -13.9587 -13.8998 -13.8998  -2.6697  -2.6697   3.2041   3.2041
     5.7304   5.7304   5.9915   5.9915   8.2581   8.2581   8.8859   8.8859
    10.5537  10.5537  10.8076  10.8076

     occupation numbers 
     1.0000   1.0000   1.0000   1.0000   1.0000   1.0000   1.0000   1.0000
     1.0000   1.0000   1.0000   1.0000   1.0000   1.0000   1.0000   1.0000
     1.0000   1.0000   1.0000   1.0000   1.0000   1.0000   1.0000   1.0000
     1.0000   1.0000   1.0000   1.0000   0.0000   0.0000   0.0000   0.0000
     0.0000   0.0000   0.0000   0.0000

          k = 0.3094 0.1326-0.1326 (  6054 PWs)   bands (ev):

   -15.1294 -15.1294 -15.1115 -15.1115 -15.0587 -15.0587 -15.0377 -15.0377
   -14.1645 -14.1645 -14.0836 -14.0836 -14.0556 -14.0556 -13.9709 -13.9709
   -13.9491 -13.9491 -13.9037 -13.9037  -2.4236  -2.4236   2.5034   2.5034
     5.4753   5.4753   5.8145   5.8145   8.1236   8.1236   9.2582   9.2582
    10.7252  10.7252  11.1256  11.1256

     occupation numbers 
     1.0000   1.0000   1.0000   1.0000   1.0000   1.0000   1.0000   1.0000
     1.0000   1.0000   1.0000   1.0000   1.0000   1.0000   1.0000   1.0000
     1.0000   1.0000   1.0000   1.0000   1.0000   1.0000   1.0000   1.0000
     1.0000   1.0000   1.0000   1.0000   0.0000   0.0000   0.0000   0.0000
     0.0000   0.0000   0.0000   0.0000

          k = 0.3536 0.1768-0.1768 (  6061 PWs)   bands (ev):

   -15.1309 -15.1309 -15.1058 -15.1058 -15.0643 -15.0643 -15.0354 -15.0354
   -14.1535 -14.1535 -14.0939 -14.0939 -14.0607 -14.0607 -13.9693 -13.9693
   -13.9414 -13.9414 -13.9072 -13.9072  -2.1375  -2.1375   1.8431   1.8431
     5.2424   5.2424   5.7006   5.7006   7.9848   7.9848   9.5771   9.5771
    10.7635  10.7635  11.4820  11.4820

     occupation numbers 
     1.0000   1.0000   1.0000   1.0000   1.0000   1.0000   1.0000   1.0000
     1.0000   1.0000   1.0000   1.0000   1.0000   1.0000   1.0000   1.0000
     1.0000   1.0000   1.0000   1.0000   1.0000   1.0000   1.0000   1.0000
     1.0000   1.0000   1.0000   1.0000   0.0000   0.0000   0.0000   0.0000
     0.0000   0.0000   0.0000   0.0000

          k = 0.3977 0.2210-0.2210 (  6055 PWs)   bands (ev):

   -15.1321 -15.1321 -15.1000 -15.1000 -15.0701 -15.0701 -15.0336 -15.0336
   -14.1428 -14.1428 -14.1031 -14.1031 -14.0647 -14.0647 -13.9686 -13.9686
   -13.9362 -13.9362 -13.9095 -13.9095  -1.8471  -1.8471   1.2853   1.2853
     5.0522   5.0522   5.6523   5.6523   7.8710   7.8710   9.7751   9.7751
    10.7094  10.7094  11.9951  11.9951

     occupation numbers 
     1.0000   1.0000   1.0000   1.0000   1.0000   1.0000   1.0000   1.0000
     1.0000   1.0000   1.0000   1.0000   1.0000   1.0000   1.0000   1.0000
     1.0000   1.0000   1.0000   1.0000   1.0000   1.0000   1.0000   1.0000
     1.0000   1.0000   1.0000   1.0000   0.0000   0.0000   0.0000   0.0000
     0.0000   0.0000   0.0000   0.0000

          k =-0.2652-0.4419 0.4419 (  6059 PWs)   bands (ev):

   -15.1328 -15.1328 -15.0951 -15.0951 -15.0751 -15.0751 -15.0324 -15.0324
   -14.1344 -14.1344 -14.1103 -14.1103 -14.0670 -14.0670 -13.9685 -13.9685
   -13.9336 -13.9336 -13.9105 -13.9105  -1.6286  -1.6286   0.9201   0.9201
     4.9168   4.9168   5.6681   5.6681   7.7956   7.7956   9.8938   9.8938
    10.6119  10.6119  12.5576  12.5576

     occupation numbers 
     1.0000   1.0000   1.0000   1.0000   1.0000   1.0000   1.0000   1.0000
     1.0000   1.0000   1.0000   1.0000   1.0000   1.0000   1.0000   1.0000
     1.0000   1.0000   1.0000   1.0000   1.0000   1.0000   1.0000   1.0000
     1.0000   1.0000   1.0000   1.0000   0.0000   0.0000   0.0000   0.0000
     0.0000   0.0000   0.0000   0.0000

          k =-0.2210-0.3977 0.3977 (  6065 PWs)   bands (ev):

   -15.1330 -15.1330 -15.0937 -15.0937 -15.0766 -15.0766 -15.0321 -15.0321
   -14.1329 -14.1329 -14.1117 -14.1117 -14.0671 -14.0671 -13.9690 -13.9690
   -13.9327 -13.9327 -13.9107 -13.9107  -1.5932  -1.5932   0.8648   0.8648
     4.8440   4.8440   5.7446   5.7446   7.7636   7.7636   9.9902   9.9902
    10.5002  10.5002  12.8600  12.8600

     occupation numbers 
     1.0000   1.0000   1.0000   1.0000   1.0000   1.0000   1.0000   1.0000
     1.0000   1.0000   1.0000   1.0000   1.0000   1.0000   1.0000   1.0000
     1.0000   1.0000   1.0000   1.0000   1.0000   1.0000   1.0000   1.0000
     1.0000   1.0000   1.0000   1.0000   0.0000   0.0000   0.0000   0.0000
     0.0000   0.0000   0.0000   0.0000

          k =-0.1768-0.3536 0.3536 (  6059 PWs)   bands (ev):

   -15.1327 -15.1327 -15.0972 -15.0972 -15.0731 -15.0731 -15.0327 -15.0327
   -14.1399 -14.1399 -14.1058 -14.1058 -14.0650 -14.0650 -13.9701 -13.9701
   -13.9336 -13.9336 -13.9103 -13.9103  -1.7653  -1.7653   1.1442   1.1442
     4.8400   4.8400   5.8766   5.8766   7.7740   7.7740  10.0801  10.0801
    10.3832  10.3832  12.6072  12.6072

     occupation numbers 
     1.0000   1.0000   1.0000   1.0000   1.0000   1.0000   1.0000   1.0000
     1.0000   1.0000   1.0000   1.0000   1.0000   1.0000   1.0000   1.0000
     1.0000   1.0000   1.0000   1.0000   1.0000   1.0000   1.0000   1.0000
     1.0000   1.0000   1.0000   1.0000   0.0000   0.0000   0.0000   0.0000
     0.0000   0.0000   0.0000   0.0000

          k =-0.1326-0.3094 0.3094 (  6053 PWs)   bands (ev):

   -15.1319 -15.1319 -15.1027 -15.1027 -15.0676 -15.0676 -15.0340 -15.0340
   -14.1501 -14.1501 -14.0972 -14.0972 -14.0611 -14.0611 -13.9716 -13.9716
   -13.9368 -13.9368 -13.9088 -13.9088  -2.0436  -2.0436   1.6509   1.6509
     4.9115   4.9115   6.0556   6.0556   7.8195   7.8195  10.1032  10.1032
    10.2810  10.2810  11.9614  11.9615

     occupation numbers 
     1.0000   1.0000   1.0000   1.0000   1.0000   1.0000   1.0000   1.0000
     1.0000   1.0000   1.0000   1.0000   1.0000   1.0000   1.0000   1.0000
     1.0000   1.0000   1.0000   1.0000   1.0000   1.0000   1.0000   1.0000
     1.0000   1.0000   1.0000   1.0000   0.0000   0.0000   0.0000   0.0000
     0.0000   0.0000   0.0000   0.0000

          k =-0.0884-0.2652 0.2652 (  6050 PWs)   bands (ev):

   -15.1307 -15.1307 -15.1084 -15.1084 -15.0620 -15.0620 -15.0360 -15.0360
   -14.1611 -14.1611 -14.0874 -14.0874 -14.0562 -14.0562 -13.9735 -13.9735
   -13.9430 -13.9430 -13.9057 -13.9057  -2.3361  -2.3361   2.2784   2.2784
     5.0679   5.0679   6.2677   6.2677   7.8811   7.8811   9.9458   9.9458
    10.1940  10.1940  11.3566  11.3567

     occupation numbers 
     1.0000   1.0000   1.0000   1.0000   1.0000   1.0000   1.0000   1.0000
     1.0000   1.0000   1.0000   1.0000   1.0000   1.0000   1.0000   1.0000
     1.0000   1.0000   1.0000   1.0000   1.0000   1.0000   1.0000   1.0000
     1.0000   1.0000   1.0000   1.0000   0.0000   0.0000   0.0000   0.0000
     0.0000   0.0000   0.0000   0.0000

          k =-0.0442-0.2210 0.2210 (  6046 PWs)   bands (ev):

   -15.1293 -15.1293 -15.1135 -15.1135 -15.0569 -15.0569 -15.0383 -15.0383
   -14.1717 -14.1717 -14.0765 -14.0765 -14.0509 -14.0509 -13.9757 -13.9757
   -13.9517 -13.9517 -13.9018 -13.9018  -2.5971  -2.5971   2.9534   2.9534
     5.3231   5.3231   6.4894   6.4894   7.9153   7.9153   9.6953   9.6953
     9.9291   9.9291  10.9749  10.9749

     occupation numbers 
     1.0000   1.0000   1.0000   1.0000   1.0000   1.0000   1.0000   1.0000
     1.0000   1.0000   1.0000   1.0000   1.0000   1.0000   1.0000   1.0000
     1.0000   1.0000   1.0000   1.0000   1.0000   1.0000   1.0000   1.0000
     1.0000   1.0000   1.0000   1.0000   0.0000   0.0000   0.0000   0.0000
     0.0000   0.0000   0.0000   0.0000

          k = 0.0000-0.1768 0.1768 (  6047 PWs)   bands (ev):

   -15.1279 -15.1279 -15.1176 -15.1176 -15.0526 -15.0526 -15.0406 -15.0406
   -14.1808 -14.1808 -14.0649 -14.0649 -14.0462 -14.0462 -13.9781 -13.9781
   -13.9619 -13.9619 -13.8979 -13.8979  -2.8059  -2.8059   3.6077   3.6077
     5.6948   5.6948   6.6828   6.6828   7.8363   7.8363   9.4377   9.4377
     9.6264   9.6264  10.6355  10.6355

     occupation numbers 
     1.0000   1.0000   1.0000   1.0000   1.0000   1.0000   1.0000   1.0000
     1.0000   1.0000   1.0000   1.0000   1.0000   1.0000   1.0000   1.0000
     1.0000   1.0000   1.0000   1.0000   1.0000   1.0000   1.0000   1.0000
     1.0000   1.0000   1.0000   1.0000   0.0000   0.0000   0.0000   0.0000
     0.0000   0.0000   0.0000   0.0000

          k = 0.2652 0.0000 0.0000 (  6058 PWs)   bands (ev):

   -15.1253 -15.1253 -15.1203 -15.1203 -15.0503 -15.0503 -15.0427 -15.0427
   -14.1784 -14.1784 -14.0684 -14.0684 -14.0468 -14.0468 -13.9713 -13.9713
   -13.9668 -13.9668 -13.8975 -13.8975  -2.7554  -2.7554   3.5673   3.5673
     5.7887   5.7887   5.9601   5.9601   8.2414   8.2414   8.7316   8.7316
    10.6617  10.6617  10.6952  10.6952

     occupation numbers 
     1.0000   1.0000   1.0000   1.0000   1.0000   1.0000   1.0000   1.0000
     1.0000   1.0000   1.0000   1.0000   1.0000   1.0000   1.0000   1.0000
     1.0000   1.0000   1.0000   1.0000   1.0000   1.0000   1.0000   1.0000
     1.0000   1.0000   1.0000   1.0000   0.0000   0.0000   0.0000   0.0000
     0.0000   0.0000   0.0000   0.0000

          k = 0.3094 0.0442-0.0442 (  6047 PWs)   bands (ev):

   -15.1261 -15.1261 -15.1177 -15.1177 -15.0527 -15.0527 -15.0413 -15.0413
   -14.1711 -14.1711 -14.0771 -14.0771 -14.0505 -14.0505 -13.9718 -13.9718
   -13.9580 -13.9580 -13.8996 -13.8996  -2.5857  -2.5857   3.0637   3.0637
     5.5567   5.5567   5.7344   5.7344   8.2223   8.2223   8.8364   8.8364
    10.9912  10.9912  11.0430  11.0430

     occupation numbers 
     1.0000   1.0000   1.0000   1.0000   1.0000   1.0000   1.0000   1.0000
     1.0000   1.0000   1.0000   1.0000   1.0000   1.0000   1.0000   1.0000
     1.0000   1.0000   1.0000   1.0000   1.0000   1.0000   1.0000   1.0000
     1.0000   1.0000   1.0000   1.0000   0.0000   0.0000   0.0000   0.0000
     0.0000   0.0000   0.0000   0.0000

          k = 0.3536 0.0884-0.0884 (  6057 PWs)   bands (ev):

   -15.1278 -15.1278 -15.1134 -15.1134 -15.0570 -15.0570 -15.0390 -15.0390
   -14.1620 -14.1620 -14.0864 -14.0864 -14.0543 -14.0543 -13.9739 -13.9739
   -13.9484 -13.9484 -13.9018 -13.9018  -2.3567  -2.3567   2.4731   2.4731
     5.2653   5.2653   5.5552   5.5552   8.3108   8.3108   8.9832   8.9832
    11.0683  11.0683  11.2683  11.2684

     occupation numbers 
     1.0000   1.0000   1.0000   1.0000   1.0000   1.0000   1.0000   1.0000
     1.0000   1.0000   1.0000   1.0000   1.0000   1.0000   1.0000   1.0000
     1.0000   1.0000   1.0000   1.0000   1.0000   1.0000   1.0000   1.0000
     1.0000   1.0000   1.0000   1.0000   0.0000   0.0000   0.0000   0.0000
     0.0000   0.0000   0.0000   0.0000

          k = 0.3977 0.1326-0.1326 (  6053 PWs)   bands (ev):

   -15.1295 -15.1295 -15.1083 -15.1083 -15.0622 -15.0622 -15.0363 -15.0363
   -14.1522 -14.1522 -14.0948 -14.0948 -14.0579 -14.0579 -13.9766 -13.9766
   -13.9407 -13.9407 -13.9033 -13.9033  -2.0803  -2.0803   1.8719   1.8719
     4.9612   4.9612   5.4455   5.4455   8.2849   8.2849   9.3583   9.3583
    11.0721  11.0721  11.3508  11.3508

     occupation numbers 
     1.0000   1.0000   1.0000   1.0000   1.0000   1.0000   1.0000   1.0000
     1.0000   1.0000   1.0000   1.0000   1.0000   1.0000   1.0000   1.0000
     1.0000   1.0000   1.0000   1.0000   1.0000   1.0000   1.0000   1.0000
     1.0000   1.0000   1.0000   1.0000   0.0000   0.0000   0.0000   0.0000
     0.0000   0.0000   0.0000   0.0000

          k = 0.4419 0.1768-0.1768 (  6051 PWs)   bands (ev):

   -15.1310 -15.1310 -15.1028 -15.1028 -15.0679 -15.0679 -15.0340 -15.0340
   -14.1430 -14.1430 -14.1016 -14.1016 -14.0610 -14.0610 -13.9795 -13.9795
   -13.9358 -13.9358 -13.9035 -13.9035  -1.7835  -1.7835   1.3243   1.3243
     4.6949   4.6949   5.4033   5.4033   8.2109   8.2109   9.7695   9.7695
    11.1989  11.1989  11.3536  11.3536

     occupation numbers 
     1.0000   1.0000   1.0000   1.0000   1.0000   1.0000   1.0000   1.0000
     1.0000   1.0000   1.0000   1.0000   1.0000   1.0000   1.0000   1.0000
     1.0000   1.0000   1.0000   1.0000   1.0000   1.0000   1.0000   1.0000
     1.0000   1.0000   1.0000   1.0000   0.0000   0.0000   0.0000   0.0000
     0.0000   0.0000   0.0000   0.0000

          k =-0.2210-0.4861 0.4861 (  6058 PWs)   bands (ev):

   -15.1320 -15.1320 -15.0976 -15.0976 -15.0732 -15.0732 -15.0322 -15.0322
   -14.1364 -14.1364 -14.1060 -14.1060 -14.0631 -14.0631 -13.9820 -13.9820
   -13.9335 -13.9335 -13.9027 -13.9027  -1.5264  -1.5264   0.9118   0.9118
     4.4909   4.4909   5.4269   5.4269   8.1542   8.1542  10.0262  10.0262
    11.1540  11.1540  11.7535  11.7535

     occupation numbers 
     1.0000   1.0000   1.0000   1.0000   1.0000   1.0000   1.0000   1.0000
     1.0000   1.0000   1.0000   1.0000   1.0000   1.0000   1.0000   1.0000
     1.0000   1.0000   1.0000   1.0000   1.0000   1.0000   1.0000   1.0000
     1.0000   1.0000   1.0000   1.0000   0.0000   0.0000   0.0000   0.0000
     0.0000   0.0000   0.0000   0.0000

          k =-0.1768-0.4419 0.4419 (  6052 PWs)   bands (ev):

   -15.1326 -15.1326 -15.0942 -15.0942 -15.0768 -15.0768 -15.0313 -15.0313
   -14.1342 -14.1342 -14.1075 -14.1075 -14.0635 -14.0635 -13.9837 -13.9837
   -13.9326 -13.9326 -13.9022 -13.9022  -1.4212  -1.4212   0.7571   0.7571
     4.3619   4.3619   5.5132   5.5132   8.1330   8.1330  10.1612  10.1612
    11.0047  11.0047  12.3784  12.3784

     occupation numbers 
     1.0000   1.0000   1.0000   1.0000   1.0000   1.0000   1.0000   1.0000
     1.0000   1.0000   1.0000   1.0000   1.0000   1.0000   1.0000   1.0000
     1.0000   1.0000   1.0000   1.0000   1.0000   1.0000   1.0000   1.0000
     1.0000   1.0000   1.0000   1.0000   0.0000   0.0000   0.0000   0.0000
     0.0000   0.0000   0.0000   0.0000

          k =-0.1326-0.3977 0.3977 (  6051 PWs)   bands (ev):

   -15.1327 -15.1327 -15.0951 -15.0951 -15.0760 -15.0760 -15.0313 -15.0313
   -14.1371 -14.1371 -14.1058 -14.1058 -14.0618 -14.0618 -13.9840 -13.9840
   -13.9324 -13.9324 -13.9028 -13.9028  -1.5407  -1.5407   0.9345   0.9345
     4.3183   4.3183   5.6569   5.6569   8.1465   8.1465  10.2685  10.2685
    10.8249  10.8249  12.4838  12.4838

     occupation numbers 
     1.0000   1.0000   1.0000   1.0000   1.0000   1.0000   1.0000   1.0000
     1.0000   1.0000   1.0000   1.0000   1.0000   1.0000   1.0000   1.0000
     1.0000   1.0000   1.0000   1.0000   1.0000   1.0000   1.0000   1.0000
     1.0000   1.0000   1.0000   1.0000   0.0000   0.0000   0.0000   0.0000
     0.0000   0.0000   0.0000   0.0000

          k =-0.0884-0.3536 0.3536 (  6047 PWs)   bands (ev):

   -15.1323 -15.1323 -15.0994 -15.0994 -15.0718 -15.0718 -15.0322 -15.0322
   -14.1440 -14.1440 -14.1016 -14.1016 -14.0588 -14.0588 -13.9831 -13.9831
   -13.9332 -13.9332 -13.9040 -13.9040  -1.8027  -1.8027   1.3534   1.3534
     4.3729   4.3729   5.8483   5.8483   8.1810   8.1810  10.3694  10.3694
    10.6083  10.6083  11.8213  11.8213

     occupation numbers 
     1.0000   1.0000   1.0000   1.0000   1.0000   1.0000   1.0000   1.0000
     1.0000   1.0000   1.0000   1.0000   1.0000   1.0000   1.0000   1.0000
     1.0000   1.0000   1.0000   1.0000   1.0000   1.0000   1.0000   1.0000
     1.0000   1.0000   1.0000   1.0000   0.0000   0.0000   0.0000   0.0000
     0.0000   0.0000   0.0000   0.0000

          k =-0.0442-0.3094 0.3094 (  6053 PWs)   bands (ev):

   -15.1315 -15.1315 -15.1045 -15.1045 -15.0665 -15.0665 -15.0339 -15.0339
   -14.1530 -14.1530 -14.0950 -14.0950 -14.0556 -14.0556 -13.9810 -13.9810
   -13.9363 -13.9363 -13.9048 -13.9048  -2.0986  -2.0986   1.8852   1.8852
     4.5439   4.5439   6.0713   6.0713   8.2033   8.2033  10.2940  10.2940
    10.4324  10.4324  11.2154  11.2154

     occupation numbers 
     1.0000   1.0000   1.0000   1.0000   1.0000   1.0000   1.0000   1.0000
     1.0000   1.0000   1.0000   1.0000   1.0000   1.0000   1.0000   1.0000
     1.0000   1.0000   1.0000   1.0000   1.0000   1.0000   1.0000   1.0000
     1.0000   1.0000   1.0000   1.0000   0.0000   0.0000   0.0000   0.0000
     0.0000   0.0000   0.0000   0.0000

          k = 0.0000-0.2652 0.2652 (  6057 PWs)   bands (ev):

   -15.1304 -15.1304 -15.1094 -15.1094 -15.0613 -15.0613 -15.0361 -15.0361
   -14.1627 -14.1627 -14.0864 -14.0864 -14.0528 -14.0528 -13.9784 -13.9784
   -13.9427 -13.9427 -13.9040 -13.9040  -2.3718  -2.3718   2.4399   2.4399
     4.8554   4.8554   6.2990   6.2990   8.1447   8.1447   9.9892   9.9892
    10.1728  10.1728  11.0233  11.0233

     occupation numbers 
     1.0000   1.0000   1.0000   1.0000   1.0000   1.0000   1.0000   1.0000
     1.0000   1.0000   1.0000   1.0000   1.0000   1.0000   1.0000   1.0000
     1.0000   1.0000   1.0000   1.0000   1.0000   1.0000   1.0000   1.0000
     1.0000   1.0000   1.0000   1.0000   0.0000   0.0000   0.0000   0.0000
     0.0000   0.0000   0.0000   0.0000

          k = 0.3536 0.0000 0.0000 (  6030 PWs)   bands (ev):

   -15.1250 -15.1250 -15.1178 -15.1178 -15.0527 -15.0527 -15.0419 -15.0419
   -14.1649 -14.1649 -14.0835 -14.0835 -14.0528 -14.0528 -13.9720 -13.9720
   -13.9536 -13.9536 -13.9003 -13.9003  -2.4359  -2.4359   2.7204   2.7204
     5.4052   5.4052   5.5235   5.5235   7.9607   7.9607   8.8967   8.8967
    11.4560  11.4561  11.4927  11.4927

     occupation numbers 
     1.0000   1.0000   1.0000   1.0000   1.0000   1.0000   1.0000   1.0000
     1.0000   1.0000   1.0000   1.0000   1.0000   1.0000   1.0000   1.0000
     1.0000   1.0000   1.0000   1.0000   1.0000   1.0000   1.0000   1.0000
     1.0000   1.0000   1.0000   1.0000   0.0000   0.0000   0.0000   0.0000
     0.0000   0.0000   0.0000   0.0000

          k = 0.3977 0.0442-0.0442 (  6054 PWs)   bands (ev):

   -15.1257 -15.1257 -15.1153 -15.1153 -15.0550 -15.0550 -15.0408 -15.0408
   -14.1571 -14.1571 -14.0908 -14.0908 -14.0550 -14.0550 -13.9760 -13.9760
   -13.9459 -13.9459 -13.9012 -13.9012  -2.2245  -2.2245   2.2548   2.2548
     5.1823   5.1823   5.3353   5.3353   7.9822   7.9822   8.8639   8.8639
    11.6072  11.6072  11.8187  11.8187

     occupation numbers 
     1.0000   1.0000   1.0000   1.0000   1.0000   1.0000   1.0000   1.0000
     1.0000   1.0000   1.0000   1.0000   1.0000   1.0000   1.0000   1.0000
     1.0000   1.0000   1.0000   1.0000   1.0000   1.0000   1.0000   1.0000
     1.0000   1.0000   1.0000   1.0000   0.0000   0.0000   0.0000   0.0000
     0.0000   0.0000   0.0000   0.0000

          k = 0.4419 0.0884-0.0884 (  6061 PWs)   bands (ev):

   -15.1273 -15.1273 -15.1111 -15.1111 -15.0593 -15.0593 -15.0383 -15.0383
   -14.1486 -14.1486 -14.0976 -14.0976 -14.0566 -14.0566 -13.9819 -13.9819
   -13.9387 -13.9387 -13.9014 -13.9014  -1.9606  -1.9606   1.7427   1.7427
     4.8631   4.8631   5.2153   5.2153   8.1244   8.1244   8.9982   8.9982
    11.4820  11.4820  11.9820  11.9820

     occupation numbers 
     1.0000   1.0000   1.0000   1.0000   1.0000   1.0000   1.0000   1.0000
     1.0000   1.0000   1.0000   1.0000   1.0000   1.0000   1.0000   1.0000
     1.0000   1.0000   1.0000   1.0000   1.0000   1.0000   1.0000   1.0000
     1.0000   1.0000   1.0000   1.0000   0.0000   0.0000   0.0000   0.0000
     0.0000   0.0000   0.0000   0.0000

          k = 0.4861 0.1326-0.1326 (  6052 PWs)   bands (ev):

   -15.1291 -15.1291 -15.1062 -15.1062 -15.0645 -15.0645 -15.0355 -15.0355
   -14.1412 -14.1412 -14.1022 -14.1022 -14.0577 -14.0577 -13.9883 -13.9883
   -13.9341 -13.9341 -13.9002 -13.9002  -1.6636  -1.6636   1.2429   1.2429
     4.5318   4.5318   5.1679   5.1679   8.1676   8.1676   9.4525   9.4525
    11.3586  11.3586  11.9753  11.9753

     occupation numbers 
     1.0000   1.0000   1.0000   1.0000   1.0000   1.0000   1.0000   1.0000
     1.0000   1.0000   1.0000   1.0000   1.0000   1.0000   1.0000   1.0000
     1.0000   1.0000   1.0000   1.0000   1.0000   1.0000   1.0000   1.0000
     1.0000   1.0000   1.0000   1.0000   0.0000   0.0000   0.0000   0.0000
     0.0000   0.0000   0.0000   0.0000

          k =-0.1768-0.5303 0.5303 (  6053 PWs)   bands (ev):

   -15.1306 -15.1306 -15.1013 -15.1013 -15.0698 -15.0698 -15.0331 -15.0331
   -14.1367 -14.1367 -14.1039 -14.1039 -14.0584 -14.0584 -13.9939 -13.9939
   -13.9323 -13.9323 -13.8981 -13.8981  -1.3795  -1.3795   0.8234   0.8234
     4.2528   4.2528   5.1881   5.1881   8.1650   8.1650  10.0644  10.0644
    11.3410  11.3410  11.8576  11.8576

     occupation numbers 
     1.0000   1.0000   1.0000   1.0000   1.0000   1.0000   1.0000   1.0000
     1.0000   1.0000   1.0000   1.0000   1.0000   1.0000   1.0000   1.0000
     1.0000   1.0000   1.0000   1.0000   1.0000   1.0000   1.0000   1.0000
     1.0000   1.0000   1.0000   1.0000   0.0000   0.0000   0.0000   0.0000
     0.0000   0.0000   0.0000   0.0000

[...]

   -15.1310 -15.1310 -15.1000 -15.1000 -15.0716 -15.0716 -15.0320 -15.0320
   -14.1373 -14.1373 -14.1020 -14.1020 -14.0564 -14.0564 -13.9991 -13.9991
   -13.9328 -13.9328 -13.8955 -13.8955  -1.3045  -1.3045   0.7600   0.7600
     4.1388   4.1388   5.0148   5.0148   8.8106   8.8106   9.9128   9.9128
    10.8470  10.8470  12.3814  12.3814

     occupation numbers 
     1.0000   1.0000   1.0000   1.0000   1.0000   1.0000   1.0000   1.0000
     1.0000   1.0000   1.0000   1.0000   1.0000   1.0000   1.0000   1.0000
     1.0000   1.0000   1.0000   1.0000   1.0000   1.0000   1.0000   1.0000
     1.0000   1.0000   1.0000   1.0000   0.0000   0.0000   0.0000   0.0000
     0.0000   0.0000   0.0000   0.0000

          k =-0.1326-0.3977 0.5745 (  6042 PWs)   bands (ev):

   -15.1316 -15.1316 -15.0971 -15.0971 -15.0748 -15.0748 -15.0309 -15.0309
   -14.1363 -14.1363 -14.1010 -14.1010 -14.0564 -14.0564 -14.0026 -14.0026
   -13.9327 -13.9327 -13.8938 -13.8938  -1.1227  -1.1227   0.5265   0.5265
     4.0191   4.0191   4.9970   4.9970   8.8317   8.8317  10.0880  10.0880
    11.3510  11.3510  12.0641  12.0641

     occupation numbers 
     1.0000   1.0000   1.0000   1.0000   1.0000   1.0000   1.0000   1.0000
     1.0000   1.0000   1.0000   1.0000   1.0000   1.0000   1.0000   1.0000
     1.0000   1.0000   1.0000   1.0000   1.0000   1.0000   1.0000   1.0000
     1.0000   1.0000   1.0000   1.0000   0.0000   0.0000   0.0000   0.0000
     0.0000   0.0000   0.0000   0.0000

          k =-0.0884-0.3536 0.5303 (  6041 PWs)   bands (ev):

   -15.1319 -15.1319 -15.0965 -15.0965 -15.0754 -15.0754 -15.0307 -15.0307
   -14.1368 -14.1368 -14.1011 -14.1011 -14.0562 -14.0562 -14.0022 -14.0022
   -13.9328 -13.9328 -13.8941 -13.8941  -1.1773  -1.1773   0.5958   0.5958
     3.9867   3.9867   5.0654   5.0654   8.8756   8.8756  10.0819  10.0819
    11.4087  11.4087  12.0302  12.0302

     occupation numbers 
     1.0000   1.0000   1.0000   1.0000   1.0000   1.0000   1.0000   1.0000
     1.0000   1.0000   1.0000   1.0000   1.0000   1.0000   1.0000   1.0000
     1.0000   1.0000   1.0000   1.0000   1.0000   1.0000   1.0000   1.0000
     1.0000   1.0000   1.0000   1.0000   0.0000   0.0000   0.0000   0.0000
     0.0000   0.0000   0.0000   0.0000

          k =-0.0442-0.3094 0.4861 (  6046 PWs)   bands (ev):

   -15.1317 -15.1317 -15.0986 -15.0986 -15.0732 -15.0732 -15.0313 -15.0313
   -14.1388 -14.1388 -14.1018 -14.1018 -14.0559 -14.0559 -13.9977 -13.9977
   -13.9331 -13.9331 -13.8962 -13.8962  -1.4210  -1.4210   0.9150   0.9150
     4.0579   4.0579   5.2073   5.2073   8.9229   8.9229   9.9701   9.9701
    10.8502  10.8502  12.2371  12.2371

     occupation numbers 
     1.0000   1.0000   1.0000   1.0000   1.0000   1.0000   1.0000   1.0000
     1.0000   1.0000   1.0000   1.0000   1.0000   1.0000   1.0000   1.0000
     1.0000   1.0000   1.0000   1.0000   1.0000   1.0000   1.0000   1.0000
     1.0000   1.0000   1.0000   1.0000   0.0000   0.0000   0.0000   0.0000
     0.0000   0.0000   0.0000   0.0000

          k = 0.0000-0.2652 0.4419 (  6045 PWs)   bands (ev):

   -15.1311 -15.1311 -15.1022 -15.1022 -15.0693 -15.0693 -15.0328 -15.0328
   -14.1433 -14.1433 -14.1007 -14.1007 -14.0560 -14.0560 -13.9904 -13.9904
   -13.9342 -13.9342 -13.8996 -13.8996  -1.7192  -1.7192   1.3338   1.3338
     4.2518   4.2518   5.3975   5.3975   8.9134   8.9134   9.6271   9.6271
    10.6767  10.6767  12.0097  12.0097

     occupation numbers 
     1.0000   1.0000   1.0000   1.0000   1.0000   1.0000   1.0000   1.0000
     1.0000   1.0000   1.0000   1.0000   1.0000   1.0000   1.0000   1.0000
     1.0000   1.0000   1.0000   1.0000   1.0000   1.0000   1.0000   1.0000
     1.0000   1.0000   1.0000   1.0000   0.0000   0.0000   0.0000   0.0000
     0.0000   0.0000   0.0000   0.0000

          k =-0.1768-0.5303 0.7071 (  6053 PWs)   bands (ev):

   -15.1283 -15.1283 -15.1068 -15.1068 -15.0642 -15.0642 -15.0357 -15.0357
   -14.1379 -14.1379 -14.1035 -14.1035 -14.0544 -14.0544 -13.9982 -13.9982
   -13.9315 -13.9315 -13.8976 -13.8976  -1.4279  -1.4279   0.9528   0.9528
     4.4166   4.4166   4.8738   4.8738   8.5663   8.5663   8.9595   8.9595
    11.3606  11.3606  12.9593  12.9593

     occupation numbers 
     1.0000   1.0000   1.0000   1.0000   1.0000   1.0000   1.0000   1.0000
     1.0000   1.0000   1.0000   1.0000   1.0000   1.0000   1.0000   1.0000
     1.0000   1.0000   1.0000   1.0000   1.0000   1.0000   1.0000   1.0000
     1.0000   1.0000   1.0000   1.0000   0.0000   0.0000   0.0000   0.0000
     0.0000   0.0000   0.0000   0.0000

          k =-0.1326-0.4861 0.6629 (  6051 PWs)   bands (ev):

   -15.1294 -15.1294 -15.1035 -15.1035 -15.0680 -15.0680 -15.0336 -15.0336
   -14.1363 -14.1363 -14.1020 -14.1020 -14.0521 -14.0521 -14.0072 -14.0072
   -13.9310 -13.9310 -13.8941 -13.8941  -1.1240  -1.1240   0.5692   0.5692
     4.1891   4.1891   4.7516   4.7516   8.7378   8.7378   9.4238   9.4238
    11.1884  11.1884  12.9152  12.9152

     occupation numbers 
     1.0000   1.0000   1.0000   1.0000   1.0000   1.0000   1.0000   1.0000
     1.0000   1.0000   1.0000   1.0000   1.0000   1.0000   1.0000   1.0000
     1.0000   1.0000   1.0000   1.0000   1.0000   1.0000   1.0000   1.0000
     1.0000   1.0000   1.0000   1.0000   0.0000   0.0000   0.0000   0.0000
     0.0000   0.0000   0.0000   0.0000

          k =-0.0884-0.4419 0.6187 (  6041 PWs)   bands (ev):

   -15.1304 -15.1304 -15.1004 -15.1004 -15.0716 -15.0716 -15.0318 -15.0318
   -14.1365 -14.1365 -14.0992 -14.0992 -14.0503 -14.0503 -14.0133 -14.0133
   -13.9317 -13.9317 -13.8914 -13.8914  -0.8861  -0.8861   0.2939   0.2939
     3.9940   3.9940   4.7402   4.7402   8.7971   8.7971  10.1369  10.1369
    11.0898  11.0898  12.3452  12.3452

     occupation numbers 
     1.0000   1.0000   1.0000   1.0000   1.0000   1.0000   1.0000   1.0000
     1.0000   1.0000   1.0000   1.0000   1.0000   1.0000   1.0000   1.0000
     1.0000   1.0000   1.0000   1.0000   1.0000   1.0000   1.0000   1.0000
     1.0000   1.0000   1.0000   1.0000   0.0000   0.0000   0.0000   0.0000
     0.0000   0.0000   0.0000   0.0000

          k =-0.0442-0.3977 0.5745 (  6042 PWs)   bands (ev):

   -15.1312 -15.1312 -15.0980 -15.0980 -15.0742 -15.0742 -15.0307 -15.0307
   -14.1371 -14.1371 -14.0982 -14.0982 -14.0505 -14.0505 -14.0137 -14.0137
   -13.9323 -13.9323 -13.8907 -13.8907  -0.8881  -0.8881   0.2988   0.2988
     3.8830   3.8830   4.8277   4.8277   8.8737   8.8737  10.5957  10.5957
    11.2978  11.2978  11.6364  11.6364

     occupation numbers 
     1.0000   1.0000   1.0000   1.0000   1.0000   1.0000   1.0000   1.0000
     1.0000   1.0000   1.0000   1.0000   1.0000   1.0000   1.0000   1.0000
     1.0000   1.0000   1.0000   1.0000   1.0000   1.0000   1.0000   1.0000
     1.0000   1.0000   1.0000   1.0000   0.0000   0.0000   0.0000   0.0000
     0.0000   0.0000   0.0000   0.0000

          k = 0.0000-0.3536 0.5303 (  6045 PWs)   bands (ev):

   -15.1316 -15.1316 -15.0973 -15.0973 -15.0748 -15.0748 -15.0306 -15.0306
   -14.1375 -14.1375 -14.0997 -14.0997 -14.0529 -14.0529 -14.0077 -14.0077
   -13.9327 -13.9327 -13.8924 -13.8924  -1.1235  -1.1235   0.5676   0.5676
     3.8960   3.8960   4.9923   4.9923   8.9487   8.9487  10.4623  10.4623
    10.9287  10.9287  12.1064  12.1064

     occupation numbers 
     1.0000   1.0000   1.0000   1.0000   1.0000   1.0000   1.0000   1.0000
     1.0000   1.0000   1.0000   1.0000   1.0000   1.0000   1.0000   1.0000
     1.0000   1.0000   1.0000   1.0000   1.0000   1.0000   1.0000   1.0000
     1.0000   1.0000   1.0000   1.0000   0.0000   0.0000   0.0000   0.0000
     0.0000   0.0000   0.0000   0.0000

          k =-0.0884-0.5303 0.7071 (  6044 PWs)   bands (ev):

   -15.1275 -15.1275 -15.1068 -15.1068 -15.0642 -15.0642 -15.0358 -15.0358
   -14.1341 -14.1341 -14.1043 -14.1043 -14.0468 -14.0468 -14.0144 -14.0144
   -13.9276 -13.9276 -13.8950 -13.8950  -0.9017  -0.9017   0.3020   0.3020
     4.3354   4.3354   4.5921   4.5921   8.5312   8.5312   8.7858   8.7858
    12.0270  12.0270  13.2498  13.2498

     occupation numbers 
     1.0000   1.0000   1.0000   1.0000   1.0000   1.0000   1.0000   1.0000
     1.0000   1.0000   1.0000   1.0000   1.0000   1.0000   1.0000   1.0000
     1.0000   1.0000   1.0000   1.0000   1.0000   1.0000   1.0000   1.0000
     1.0000   1.0000   1.0000   1.0000   0.0000   0.0000   0.0000   0.0000
     0.0000   0.0000   0.0000   0.0000

          k =-0.0442-0.4861 0.6629 (  6036 PWs)   bands (ev):

   -15.1288 -15.1288 -15.1039 -15.1039 -15.0678 -15.0678 -15.0336 -15.0336
   -14.1355 -14.1355 -14.1005 -14.1005 -14.0430 -14.0430 -14.0220 -14.0220
   -13.9294 -13.9294 -13.8917 -13.8917  -0.6182  -0.6182   0.0026   0.0026
     4.1324   4.1324   4.5451   4.5451   8.6883   8.6883   9.3698   9.3698
    11.8452  11.8452  12.5633  12.5633

     occupation numbers 
     1.0000   1.0000   1.0000   1.0000   1.0000   1.0000   1.0000   1.0000
     1.0000   1.0000   1.0000   1.0000   1.0000   1.0000   1.0000   1.0000
     1.0000   1.0000   1.0000   1.0000   1.0000   1.0000   1.0000   1.0000
     1.0000   1.0000   1.0000   1.0000   0.0000   0.0000   0.0000   0.0000
     0.0000   0.0000   0.0000   0.0000

          k = 0.0000-0.4419 0.6187 (  6039 PWs)   bands (ev):

   -15.1301 -15.1301 -15.1008 -15.1008 -15.0713 -15.0713 -15.0317 -15.0317
   -14.1367 -14.1367 -14.0979 -14.0979 -14.0446 -14.0446 -14.0218 -14.0218
   -13.9312 -13.9312 -13.8900 -13.8900  -0.6204  -0.6204   0.0141   0.0141
     3.9450   3.9450   4.6447   4.6447   8.7781   8.7781  10.1747  10.1747
    11.6536  11.6536  11.7528  11.7528

     occupation numbers 
     1.0000   1.0000   1.0000   1.0000   1.0000   1.0000   1.0000   1.0000
     1.0000   1.0000   1.0000   1.0000   1.0000   1.0000   1.0000   1.0000
     1.0000   1.0000   1.0000   1.0000   1.0000   1.0000   1.0000   1.0000
     1.0000   1.0000   1.0000   1.0000   0.0000   0.0000   0.0000   0.0000
     0.0000   0.0000   0.0000   0.0000

          k =-0.7071 0.1768 0.0000 (  6042 PWs)   bands (ev):

   -15.1271 -15.1271 -15.1070 -15.1070 -15.0640 -15.0640 -15.0360 -15.0360
   -14.1335 -14.1335 -14.1040 -14.1040 -14.0374 -14.0373 -14.0267 -14.0267
   -13.9263 -13.9263 -13.8941 -13.8941  -0.3361  -0.3361  -0.3053  -0.3053
     4.3336   4.3336   4.4715   4.4715   8.5481   8.5481   8.6877   8.6877
    12.6677  12.6677  12.8298  12.8298

     occupation numbers 
     1.0000   1.0000   1.0000   1.0000   1.0000   1.0000   1.0000   1.0000
     1.0000   1.0000   1.0000   1.0000   1.0000   1.0000   1.0000   1.0000
     1.0000   1.0000   1.0000   1.0000   1.0000   1.0000   1.0000   1.0000
     1.0000   1.0000   1.0000   1.0000   0.0000   0.0000   0.0000   0.0000
     0.0000   0.0000   0.0000   0.0000

          k =-0.1768-0.4419 0.7071 (  6045 PWs)   bands (ev):

   -15.1306 -15.1306 -15.1012 -15.1012 -15.0706 -15.0706 -15.0322 -15.0322
   -14.1380 -14.1380 -14.1012 -14.1012 -14.0542 -14.0542 -14.0026 -14.0026
   -13.9328 -13.9328 -13.8945 -13.8945  -1.2942  -1.2942   0.7803   0.7803
     4.1125   4.1125   4.9075   4.9075   9.2611   9.2611   9.5391   9.5391
    10.6333  10.6333  12.6921  12.6921

     occupation numbers 
     1.0000   1.0000   1.0000   1.0000   1.0000   1.0000   1.0000   1.0000
     1.0000   1.0000   1.0000   1.0000   1.0000   1.0000   1.0000   1.0000
     1.0000   1.0000   1.0000   1.0000   1.0000   1.0000   1.0000   1.0000
     1.0000   1.0000   1.0000   1.0000   0.0000   0.0000   0.0000   0.0000
     0.0000   0.0000   0.0000   0.0000

          k =-0.1326-0.3977 0.6629 (  6038 PWs)   bands (ev):

   -15.1310 -15.1310 -15.0991 -15.0991 -15.0731 -15.0731 -15.0311 -15.0311
   -14.1373 -14.1373 -14.0988 -14.0988 -14.0520 -14.0520 -14.0105 -14.0105
   -13.9327 -13.9327 -13.8914 -13.8914  -1.0107  -1.0107   0.4417   0.4417
     3.9852   3.9852   4.7529   4.7529   9.3327   9.3327   9.9820   9.9820
    10.7432  10.7432  12.2323  12.2323

     occupation numbers 
     1.0000   1.0000   1.0000   1.0000   1.0000   1.0000   1.0000   1.0000
     1.0000   1.0000   1.0000   1.0000   1.0000   1.0000   1.0000   1.0000
     1.0000   1.0000   1.0000   1.0000   1.0000   1.0000   1.0000   1.0000
     1.0000   1.0000   1.0000   1.0000   0.0000   0.0000   0.0000   0.0000
     0.0000   0.0000   0.0000   0.0000

          k =-0.0884-0.3536 0.6187 (  6030 PWs)   bands (ev):

   -15.1311 -15.1311 -15.0982 -15.0982 -15.0741 -15.0740 -15.0307 -15.0307
   -14.1372 -14.1372 -14.0975 -14.0975 -14.0510 -14.0510 -14.0137 -14.0137
   -13.9328 -13.9328 -13.8903 -13.8903  -0.8727  -0.8727   0.2843   0.2843
     3.9447   3.9447   4.6964   4.6964   9.3377   9.3377  10.1009  10.1009
    11.2429  11.2430  11.5773  11.5773

     occupation numbers 
     1.0000   1.0000   1.0000   1.0000   1.0000   1.0000   1.0000   1.0000
     1.0000   1.0000   1.0000   1.0000   1.0000   1.0000   1.0000   1.0000
     1.0000   1.0000   1.0000   1.0000   1.0000   1.0000   1.0000   1.0000
     1.0000   1.0000   1.0000   1.0000   0.0000   0.0000   0.0000   0.0000
     0.0000   0.0000   0.0000   0.0000

          k =-0.0884-0.4419 0.7071 (  6038 PWs)   bands (ev):

   -15.1299 -15.1299 -15.1017 -15.1017 -15.0703 -15.0703 -15.0322 -15.0322
   -14.1368 -14.1368 -14.0986 -14.0986 -14.0476 -14.0476 -14.0171 -14.0171
   -13.9316 -13.9316 -13.8907 -13.8907  -0.8183  -0.8183   0.2322   0.2322
     4.0958   4.0958   4.5215   4.5215   9.3201   9.3201   9.5350   9.5350
    11.0118  11.0118  12.3984  12.3984

     occupation numbers 
     1.0000   1.0000   1.0000   1.0000   1.0000   1.0000   1.0000   1.0000
     1.0000   1.0000   1.0000   1.0000   1.0000   1.0000   1.0000   1.0000
     1.0000   1.0000   1.0000   1.0000   1.0000   1.0000   1.0000   1.0000
     1.0000   1.0000   1.0000   1.0000   0.0000   0.0000   0.0000   0.0000
     0.0000   0.0000   0.0000   0.0000

          k =-0.0442-0.3977 0.6629 (  6031 PWs)   bands (ev):

   -15.1304 -15.1304 -15.1001 -15.1001 -15.0723 -15.0723 -15.0311 -15.0311
   -14.1375 -14.1375 -14.0960 -14.0960 -14.0447 -14.0447 -14.0229 -14.0229
   -13.9324 -13.9324 -13.8887 -13.8887  -0.5987  -0.5987   0.0035   0.0035
     4.0138   4.0138   4.4422   4.4422   9.4620   9.4620  10.1704  10.1704
    10.9364  10.9364  11.5500  11.5500

     occupation numbers 
     1.0000   1.0000   1.0000   1.0000   1.0000   1.0000   1.0000   1.0000
     1.0000   1.0000   1.0000   1.0000   1.0000   1.0000   1.0000   1.0000
     1.0000   1.0000   1.0000   1.0000   1.0000   1.0000   1.0000   1.0000
     1.0000   1.0000   1.0000   1.0000   0.0000   0.0000   0.0000   0.0000
     0.0000   0.0000   0.0000   0.0000

          k =-0.0000-0.3536 0.6187 (  6031 PWs)   bands (ev):

   -15.1308 -15.1308 -15.0991 -15.0991 -15.0733 -15.0733 -15.0308 -15.0308
   -14.1376 -14.1376 -14.0961 -14.0961 -14.0470 -14.0470 -14.0199 -14.0199
   -13.9328 -13.9328 -13.8889 -13.8889  -0.7204  -0.7204   0.1331   0.1331
     3.9532   3.9532   4.5415   4.5415   9.5108   9.5108  10.3521  10.3521
    10.8238  10.8238  11.4577  11.4577

     occupation numbers 
     1.0000   1.0000   1.0000   1.0000   1.0000   1.0000   1.0000   1.0000
     1.0000   1.0000   1.0000   1.0000   1.0000   1.0000   1.0000   1.0000
     1.0000   1.0000   1.0000   1.0000   1.0000   1.0000   1.0000   1.0000
     1.0000   1.0000   1.0000   1.0000   0.0000   0.0000   0.0000   0.0000
     0.0000   0.0000   0.0000   0.0000

          k =-0.7071 0.2652 0.0000 (  6040 PWs)   bands (ev):

   -15.1296 -15.1296 -15.1021 -15.1021 -15.0700 -15.0700 -15.0322 -15.0322
   -14.1368 -14.1368 -14.0973 -14.0973 -14.0401 -14.0401 -14.0274 -14.0274
   -13.9311 -13.9311 -13.8893 -13.8893  -0.3252  -0.3252  -0.2841  -0.2841
     4.1575   4.1575   4.3217   4.3217   9.3191   9.3191   9.5156   9.5156
    11.6252  11.6252  11.7315  11.7315

     occupation numbers 
     1.0000   1.0000   1.0000   1.0000   1.0000   1.0000   1.0000   1.0000
     1.0000   1.0000   1.0000   1.0000   1.0000   1.0000   1.0000   1.0000
     1.0000   1.0000   1.0000   1.0000   1.0000   1.0000   1.0000   1.0000
     1.0000   1.0000   1.0000   1.0000   0.0000   0.0000   0.0000   0.0000
     0.0000   0.0000   0.0000   0.0000

          k =-0.7071 0.3536 0.0000 (  6032 PWs)   bands (ev):

   -15.1304 -15.1304 -15.1000 -15.1000 -15.0725 -15.0725 -15.0309 -15.0309
   -14.1379 -14.1379 -14.0946 -14.0946 -14.0411 -14.0411 -14.0280 -14.0280
   -13.9328 -13.9328 -13.8877 -13.8877  -0.3203  -0.3203  -0.2755  -0.2755
     4.0916   4.0916   4.2637   4.2637   9.9144   9.9144  10.2367  10.2367
    10.9140  10.9141  10.9352  10.9352

     occupation numbers 
     1.0000   1.0000   1.0000   1.0000   1.0000   1.0000   1.0000   1.0000
     1.0000   1.0000   1.0000   1.0000   1.0000   1.0000   1.0000   1.0000
     1.0000   1.0000   1.0000   1.0000   1.0000   1.0000   1.0000   1.0000
     1.0000   1.0000   1.0000   1.0000   0.0000   0.0000   0.0000   0.0000
     0.0000   0.0000   0.0000   0.0000

     the Fermi energy is     6.9507 ev

!    total energy              =    -325.85653028 Ry
     Harris-Foulkes estimate   =    -325.85653022 Ry
     estimated scf accuracy    <       0.00000010 Ry

     The total energy is the sum of the following terms:

     one-electron contribution =    -157.76594171 Ry
     hartree contribution      =      95.54432315 Ry
     xc contribution           =     -96.10511632 Ry
     ewald contribution        =    -167.52979533 Ry
     smearing contrib. (-TS)   =      -0.00000006 Ry

     convergence has been achieved in   5 iterations

     Writing output data file Sn.save
 
     init_run     :      9.49s CPU     10.40s WALL (       1 calls)
     electrons    :    185.77s CPU    198.85s WALL (       1 calls)

     Called by init_run:
     wfcinit      :      9.16s CPU      9.86s WALL (       1 calls)
     potinit      :      0.02s CPU      0.03s WALL (       1 calls)

     Called by electrons:
     c_bands      :    156.45s CPU    167.76s WALL (       6 calls)
     sum_band     :     28.90s CPU     30.58s WALL (       6 calls)
     v_of_rho     :      0.06s CPU      0.07s WALL (       6 calls)
     v_h          :      0.01s CPU      0.01s WALL (       6 calls)
     v_xc         :      0.06s CPU      0.06s WALL (       6 calls)
     newd         :      0.38s CPU      0.42s WALL (       6 calls)
     mix_rho      :      0.02s CPU      0.04s WALL (       6 calls)

     Called by c_bands:
     init_us_2    :      0.37s CPU      0.45s WALL (    1885 calls)
     cegterg      :    148.93s CPU    160.00s WALL (     870 calls)

     Called by sum_band:
     sum_band:bec :      1.93s CPU      1.96s WALL (     870 calls)
     addusdens    :      0.22s CPU      0.26s WALL (       6 calls)

     Called by *egterg:
     h_psi        :    131.92s CPU    140.60s WALL (    3084 calls)
     s_psi        :      2.73s CPU      2.75s WALL (    3084 calls)
     g_psi        :      0.25s CPU      0.25s WALL (    2069 calls)
     cdiaghg      :      7.92s CPU      8.12s WALL (    2794 calls)
     cegterg:over :      6.65s CPU      6.67s WALL (    2069 calls)
     cegterg:upda :      2.03s CPU      2.04s WALL (    2069 calls)
     cegterg:last :      1.04s CPU      1.04s WALL (     870 calls)

     Called by h_psi:
     h_psi:vloc   :    123.73s CPU    132.26s WALL (    3084 calls)
     h_psi:vnl    :      7.97s CPU      8.09s WALL (    3084 calls)
     add_vuspsi   :      2.90s CPU      2.93s WALL (    3084 calls)

     General routines
     calbec       :      6.80s CPU      6.93s WALL (    3954 calls)
     fft          :      0.09s CPU      0.15s WALL (     116 calls)
     fftw         :    141.31s CPU    151.03s WALL (  392028 calls)
     davcio       :      0.05s CPU      0.37s WALL (     145 calls)
 
     Parallel routines
     fft_scatter  :     92.94s CPU     99.15s WALL (  392144 calls)
 
     PWSCF        :  3m16.44s CPU     3m30.95s WALL

 
   This run was terminated on:  22:57:51  16Mar2020            

=------------------------------------------------------------------------------=
   JOB DONE.
=------------------------------------------------------------------------------=
