
     Program PWSCF v.5.4.0 starts on  2Mar2020 at 12:19:11 

     This program is part of the open-source Quantum ESPRESSO suite
     for quantum simulation of materials; please cite
         "P. Giannozzi et al., J. Phys.:Condens. Matter 21 395502 (2009);
          URL http://www.quantum-espresso.org", 
     in publications or presentations arising from this work. More details at
     http://www.quantum-espresso.org/quote

     Parallel version (MPI & OpenMP), running on      16 processor cores
     Number of MPI processes:                16
     Threads/MPI process:                     1
     R & G space division:  proc/nbgrp/npool/nimage =      16
     Waiting for input...
     Reading input from standard input
Warning: card &IONS ignored
Warning: card / ignored
Warning: card &CELL ignored
Warning: card / ignored

     Current dimensions of program PWSCF are:
     Max number of different atomic species (ntypx) = 10
     Max number of k-points (npk) =  40000
     Max angular momentum in pseudopotentials (lmaxx) =  3

     Subspace diagonalization in iterative solution of the eigenvalue problem:
     a serial algorithm will be used

 
     Parallelization info
     --------------------
     sticks:   dense  smooth     PW     G-vecs:    dense   smooth      PW
     Min         107     107     31                 2947     2947     461
     Max         108     108     32                 2950     2950     465
     Sum        1723    1723    499                47183    47183    7391
 

     Title: 
     Sn                                                                         


     bravais-lattice index     =            0
     lattice parameter (alat)  =       8.8192  a.u.
     unit-cell volume          =     485.0298 (a.u.)^3
     number of atoms/cell      =            2
     number of atomic types    =            1
     number of electrons       =        28.00
     number of Kohn-Sham states=           18
     kinetic-energy cutoff     =      80.0000  Ry
     charge density cutoff     =     320.0000  Ry
     convergence threshold     =      1.0E-06
     mixing beta               =       0.7000
     number of iterations used =            8  plain     mixing
     Exchange-correlation      = PBE ( 1  4  3  4 0 0)

     celldm(1)=   8.819172  celldm(2)=   0.000000  celldm(3)=   0.000000
     celldm(4)=   0.000000  celldm(5)=   0.000000  celldm(6)=   0.000000

     crystal axes: (cart. coord. in units of alat)
               a(1) = (   0.000000   0.707107   0.707107 )  
               a(2) = (   0.707107   0.000000   0.707107 )  
               a(3) = (   0.707107   0.707107   0.000000 )  

     reciprocal axes: (cart. coord. in units 2 pi/alat)
               b(1) = ( -0.707107  0.707107  0.707107 )  
               b(2) = (  0.707107 -0.707107  0.707107 )  
               b(3) = (  0.707107  0.707107 -0.707107 )  


     PseudoPot. # 1 for Sn read from file:
     ../PseudopotentialDatabase/Sn_ONCV_PBE-1.0.upf
     MD5 check sum: 4ecdb67ea6112684f1b2ae1cab9d4ca6
     Pseudo is Norm-conserving, Zval = 14.0
     Generated using ONCVPSP code by D. R. Hamann
     Using radial grid of  602 points,  6 beta functions with: 
                l(1) =   0
                l(2) =   0
                l(3) =   1
                l(4) =   1
                l(5) =   2
                l(6) =   2

     atomic species   valence    mass     pseudopotential
        Sn            14.00   118.71000     Sn( 1.00)

     24 Sym. Ops. (no inversion) found
          (note: 24 additional sym.ops. were found but ignored
           their fractional translations are incommensurate with FFT grid)

                                    s                        frac. trans.

      isym =  1     identity                                     

 cryst.   s( 1) = (     1          0          0      )
                  (     0          1          0      )
                  (     0          0          1      )

 cart.    s( 1) = (  1.0000000  0.0000000  0.0000000 )
                  (  0.0000000  1.0000000  0.0000000 )
                  (  0.0000000  0.0000000  1.0000000 )


      isym =  2     180 deg rotation - cart. axis [0,0,1]        

 cryst.   s( 2) = (     0          1         -1      )
                  (     1          0         -1      )
                  (     0          0         -1      )

 cart.    s( 2) = ( -1.0000000  0.0000000  0.0000000 )
                  (  0.0000000 -1.0000000  0.0000000 )
                  (  0.0000000  0.0000000  1.0000000 )


      isym =  3     180 deg rotation - cart. axis [0,1,0]        

 cryst.   s( 3) = (     0         -1          1      )
                  (     0         -1          0      )
                  (     1         -1          0      )

 cart.    s( 3) = ( -1.0000000  0.0000000  0.0000000 )
                  (  0.0000000  1.0000000  0.0000000 )
                  (  0.0000000  0.0000000 -1.0000000 )


      isym =  4     180 deg rotation - cart. axis [1,0,0]        

 cryst.   s( 4) = (    -1          0          0      )
                  (    -1          0          1      )
                  (    -1          1          0      )

 cart.    s( 4) = (  1.0000000  0.0000000  0.0000000 )
                  (  0.0000000 -1.0000000  0.0000000 )
                  (  0.0000000  0.0000000 -1.0000000 )


      isym =  5     120 deg rotation - cart. axis [-1,-1,-1]     

 cryst.   s( 5) = (     0          0          1      )
                  (     1          0          0      )
                  (     0          1          0      )

 cart.    s( 5) = (  0.0000000  1.0000000  0.0000000 )
                  (  0.0000000  0.0000000  1.0000000 )
                  (  1.0000000  0.0000000  0.0000000 )


      isym =  6     120 deg rotation - cart. axis [-1,1,1]       

 cryst.   s( 6) = (     1         -1          0      )
                  (     0         -1          1      )
                  (     0         -1          0      )

 cart.    s( 6) = (  0.0000000 -1.0000000  0.0000000 )
                  (  0.0000000  0.0000000  1.0000000 )
                  ( -1.0000000  0.0000000  0.0000000 )


      isym =  7     120 deg rotation - cart. axis [1,1,-1]       

 cryst.   s( 7) = (    -1          1          0      )
                  (    -1          0          0      )
                  (    -1          0          1      )

 cart.    s( 7) = (  0.0000000  1.0000000  0.0000000 )
                  (  0.0000000  0.0000000 -1.0000000 )
                  ( -1.0000000  0.0000000  0.0000000 )


      isym =  8     120 deg rotation - cart. axis [1,-1,1]       

 cryst.   s( 8) = (     0          0         -1      )
                  (     0          1         -1      )
                  (     1          0         -1      )

 cart.    s( 8) = (  0.0000000 -1.0000000  0.0000000 )
                  (  0.0000000  0.0000000 -1.0000000 )
                  (  1.0000000  0.0000000  0.0000000 )


      isym =  9     120 deg rotation - cart. axis [1,1,1]        

 cryst.   s( 9) = (     0          1          0      )
                  (     0          0          1      )
                  (     1          0          0      )

 cart.    s( 9) = (  0.0000000  0.0000000  1.0000000 )
                  (  1.0000000  0.0000000  0.0000000 )
                  (  0.0000000  1.0000000  0.0000000 )


      isym = 10     120 deg rotation - cart. axis [-1,1,-1]      

 cryst.   s(10) = (    -1          0          1      )
                  (    -1          1          0      )
                  (    -1          0          0      )

 cart.    s(10) = (  0.0000000  0.0000000  1.0000000 )
                  ( -1.0000000  0.0000000  0.0000000 )
                  (  0.0000000 -1.0000000  0.0000000 )


      isym = 11     120 deg rotation - cart. axis [1,-1,-1]      

 cryst.   s(11) = (     1          0         -1      )
                  (     0          0         -1      )
                  (     0          1         -1      )

 cart.    s(11) = (  0.0000000  0.0000000 -1.0000000 )
                  ( -1.0000000  0.0000000  0.0000000 )
                  (  0.0000000  1.0000000  0.0000000 )


      isym = 12     120 deg rotation - cart. axis [-1,-1,1]      

 cryst.   s(12) = (     0         -1          0      )
                  (     1         -1          0      )
                  (     0         -1          1      )

 cart.    s(12) = (  0.0000000  0.0000000 -1.0000000 )
                  (  1.0000000  0.0000000  0.0000000 )
                  (  0.0000000 -1.0000000  0.0000000 )


      isym = 13     inv. 180 deg rotation - cart. axis [1,1,0]   

 cryst.   s(13) = (     1          0         -1      )
                  (     0          1         -1      )
                  (     0          0         -1      )

 cart.    s(13) = (  0.0000000 -1.0000000  0.0000000 )
                  ( -1.0000000  0.0000000  0.0000000 )
                  (  0.0000000  0.0000000  1.0000000 )


      isym = 14     inv. 180 deg rotation - cart. axis [1,-1,0]  

 cryst.   s(14) = (     0          1          0      )
                  (     1          0          0      )
                  (     0          0          1      )

 cart.    s(14) = (  0.0000000  1.0000000  0.0000000 )
                  (  1.0000000  0.0000000  0.0000000 )
                  (  0.0000000  0.0000000  1.0000000 )


      isym = 15     inv.  90 deg rotation - cart. axis [0,0,-1]  

 cryst.   s(15) = (     0         -1          0      )
                  (     0         -1          1      )
                  (     1         -1          0      )

 cart.    s(15) = (  0.0000000 -1.0000000  0.0000000 )
                  (  1.0000000  0.0000000  0.0000000 )
                  (  0.0000000  0.0000000 -1.0000000 )


      isym = 16     inv.  90 deg rotation - cart. axis [0,0,1]   

 cryst.   s(16) = (    -1          0          1      )
                  (    -1          0          0      )
                  (    -1          1          0      )

 cart.    s(16) = (  0.0000000  1.0000000  0.0000000 )
                  ( -1.0000000  0.0000000  0.0000000 )
                  (  0.0000000  0.0000000 -1.0000000 )


      isym = 17     inv. 180 deg rotation - cart. axis [1,0,1]   

 cryst.   s(17) = (     1         -1          0      )
                  (     0         -1          0      )
                  (     0         -1          1      )

 cart.    s(17) = (  0.0000000  0.0000000 -1.0000000 )
                  (  0.0000000  1.0000000  0.0000000 )
                  ( -1.0000000  0.0000000  0.0000000 )


      isym = 18     inv. 180 deg rotation - cart. axis [-1,0,1]  

 cryst.   s(18) = (     0          0          1      )
                  (     0          1          0      )
                  (     1          0          0      )

 cart.    s(18) = (  0.0000000  0.0000000  1.0000000 )
                  (  0.0000000  1.0000000  0.0000000 )
                  (  1.0000000  0.0000000  0.0000000 )


      isym = 19     inv.  90 deg rotation - cart. axis [0,1,0]   

 cryst.   s(19) = (     0          0         -1      )
                  (     1          0         -1      )
                  (     0          1         -1      )

 cart.    s(19) = (  0.0000000  0.0000000 -1.0000000 )
                  (  0.0000000 -1.0000000  0.0000000 )
                  (  1.0000000  0.0000000  0.0000000 )


      isym = 20     inv.  90 deg rotation - cart. axis [0,-1,0]  

 cryst.   s(20) = (    -1          1          0      )
                  (    -1          0          1      )
                  (    -1          0          0      )

 cart.    s(20) = (  0.0000000  0.0000000  1.0000000 )
                  (  0.0000000 -1.0000000  0.0000000 )
                  ( -1.0000000  0.0000000  0.0000000 )


      isym = 21     inv. 180 deg rotation - cart. axis [0,1,1]   

 cryst.   s(21) = (    -1          0          0      )
                  (    -1          1          0      )
                  (    -1          0          1      )

 cart.    s(21) = (  1.0000000  0.0000000  0.0000000 )
                  (  0.0000000  0.0000000 -1.0000000 )
                  (  0.0000000 -1.0000000  0.0000000 )


      isym = 22     inv. 180 deg rotation - cart. axis [0,1,-1]  

 cryst.   s(22) = (     1          0          0      )
                  (     0          0          1      )
                  (     0          1          0      )

 cart.    s(22) = (  1.0000000  0.0000000  0.0000000 )
                  (  0.0000000  0.0000000  1.0000000 )
                  (  0.0000000  1.0000000  0.0000000 )


      isym = 23     inv.  90 deg rotation - cart. axis [-1,0,0]  

 cryst.   s(23) = (     0          1         -1      )
                  (     0          0         -1      )
                  (     1          0         -1      )

 cart.    s(23) = ( -1.0000000  0.0000000  0.0000000 )
                  (  0.0000000  0.0000000 -1.0000000 )
                  (  0.0000000  1.0000000  0.0000000 )


      isym = 24     inv.  90 deg rotation - cart. axis [1,0,0]   

 cryst.   s(24) = (     0         -1          1      )
                  (     1         -1          0      )
                  (     0         -1          0      )

 cart.    s(24) = ( -1.0000000  0.0000000  0.0000000 )
                  (  0.0000000  0.0000000  1.0000000 )
                  (  0.0000000 -1.0000000  0.0000000 )


   Cartesian axes

     site n.     atom                  positions (alat units)
         1           Sn  tau(   1) = (   0.0000000   0.0000000   0.0000000  )
         2           Sn  tau(   2) = (   0.3535534   0.3535534   0.3535534  )

   Crystallographic axes

     site n.     atom                  positions (cryst. coord.)
         1           Sn  tau(   1) = (  0.0000000  0.0000000  0.0000000  )
         2           Sn  tau(   2) = (  0.2500000  0.2500000  0.2500000  )

     number of k points=   120  gaussian smearing, width (Ry)=  0.0001
                       cart. coord. in units 2pi/alat
        k(    1) = (   0.0000000   0.0000000   0.0000000), wk =   0.0005926
        k(    2) = (   0.0471405   0.0471405  -0.0471405), wk =   0.0047407
        k(    3) = (   0.0942809   0.0942809  -0.0942809), wk =   0.0047407
        k(    4) = (   0.1414214   0.1414214  -0.1414214), wk =   0.0047407
        k(    5) = (   0.1885618   0.1885618  -0.1885618), wk =   0.0047407
        k(    6) = (   0.2357023   0.2357023  -0.2357023), wk =   0.0047407
        k(    7) = (   0.2828427   0.2828427  -0.2828427), wk =   0.0047407
        k(    8) = (   0.3299832   0.3299832  -0.3299832), wk =   0.0047407
        k(    9) = (   0.0942809   0.0000000   0.0000000), wk =   0.0035556
        k(   10) = (   0.1414214   0.0471405  -0.0471405), wk =   0.0142222
        k(   11) = (   0.1885618   0.0942809  -0.0942809), wk =   0.0142222
        k(   12) = (   0.2357023   0.1414214  -0.1414214), wk =   0.0142222
        k(   13) = (   0.2828427   0.1885618  -0.1885618), wk =   0.0142222
        k(   14) = (   0.3299832   0.2357023  -0.2357023), wk =   0.0142222
        k(   15) = (   0.3771236   0.2828427  -0.2828427), wk =   0.0142222
        k(   16) = (  -0.2828427  -0.3771236   0.3771236), wk =   0.0142222
        k(   17) = (  -0.2357023  -0.3299832   0.3299832), wk =   0.0142222
        k(   18) = (  -0.1885618  -0.2828427   0.2828427), wk =   0.0142222
        k(   19) = (  -0.1414214  -0.2357023   0.2357023), wk =   0.0142222
        k(   20) = (  -0.0942809  -0.1885618   0.1885618), wk =   0.0142222
        k(   21) = (  -0.0471405  -0.1414214   0.1414214), wk =   0.0142222
        k(   22) = (   0.0000000  -0.0942809   0.0942809), wk =   0.0071111
        k(   23) = (   0.1885618   0.0000000   0.0000000), wk =   0.0035556
        k(   24) = (   0.2357023   0.0471405  -0.0471405), wk =   0.0142222
        k(   25) = (   0.2828427   0.0942809  -0.0942809), wk =   0.0142222
        k(   26) = (   0.3299832   0.1414214  -0.1414214), wk =   0.0142222
        k(   27) = (   0.3771236   0.1885618  -0.1885618), wk =   0.0142222
        k(   28) = (   0.4242641   0.2357023  -0.2357023), wk =   0.0142222
        k(   29) = (  -0.2357023  -0.4242641   0.4242641), wk =   0.0142222
        k(   30) = (  -0.1885618  -0.3771236   0.3771236), wk =   0.0142222
        k(   31) = (  -0.1414214  -0.3299832   0.3299832), wk =   0.0142222
        k(   32) = (  -0.0942809  -0.2828427   0.2828427), wk =   0.0142222
        k(   33) = (  -0.0471405  -0.2357023   0.2357023), wk =   0.0142222
        k(   34) = (   0.0000000  -0.1885618   0.1885618), wk =   0.0071111
        k(   35) = (   0.2828427   0.0000000   0.0000000), wk =   0.0035556
        k(   36) = (   0.3299832   0.0471405  -0.0471405), wk =   0.0142222
        k(   37) = (   0.3771236   0.0942809  -0.0942809), wk =   0.0142222
        k(   38) = (   0.4242641   0.1414214  -0.1414214), wk =   0.0142222
        k(   39) = (   0.4714045   0.1885618  -0.1885618), wk =   0.0142222
        k(   40) = (  -0.1885618  -0.4714045   0.4714045), wk =   0.0142222
        k(   41) = (  -0.1414214  -0.4242641   0.4242641), wk =   0.0142222
        k(   42) = (  -0.0942809  -0.3771236   0.3771236), wk =   0.0142222
        k(   43) = (  -0.0471405  -0.3299832   0.3299832), wk =   0.0142222
        k(   44) = (   0.0000000  -0.2828427   0.2828427), wk =   0.0071111
        k(   45) = (   0.3771236   0.0000000   0.0000000), wk =   0.0035556
        k(   46) = (   0.4242641   0.0471405  -0.0471405), wk =   0.0142222
        k(   47) = (   0.4714045   0.0942809  -0.0942809), wk =   0.0142222
        k(   48) = (   0.5185450   0.1414214  -0.1414214), wk =   0.0142222
        k(   49) = (  -0.1414214  -0.5185450   0.5185450), wk =   0.0142222
        k(   50) = (  -0.0942809  -0.4714045   0.4714045), wk =   0.0142222
        k(   51) = (  -0.0471405  -0.4242641   0.4242641), wk =   0.0142222
        k(   52) = (  -0.0000000  -0.3771236   0.3771236), wk =   0.0071111
        k(   53) = (   0.4714045   0.0000000   0.0000000), wk =   0.0035556
        k(   54) = (   0.5185450   0.0471405  -0.0471405), wk =   0.0142222
        k(   55) = (   0.5656854   0.0942809  -0.0942809), wk =   0.0142222
        k(   56) = (  -0.0942809  -0.5656854   0.5656854), wk =   0.0142222
        k(   57) = (  -0.0471405  -0.5185450   0.5185450), wk =   0.0142222
        k(   58) = (  -0.0000000  -0.4714045   0.4714045), wk =   0.0071111
        k(   59) = (   0.5656854   0.0000000   0.0000000), wk =   0.0035556
        k(   60) = (   0.6128259   0.0471405  -0.0471405), wk =   0.0142222
        k(   61) = (  -0.0471405  -0.6128259   0.6128259), wk =   0.0142222
        k(   62) = (   0.0000000  -0.5656854   0.5656854), wk =   0.0071111
        k(   63) = (   0.6599663   0.0000000   0.0000000), wk =   0.0035556
        k(   64) = (   0.0000000  -0.6599663   0.6599663), wk =   0.0071111
        k(   65) = (   0.1885618   0.0942809  -0.0000000), wk =   0.0142222
        k(   66) = (   0.2357023   0.1414214  -0.0471405), wk =   0.0284444
        k(   67) = (   0.2828427   0.1885618  -0.0942809), wk =   0.0284444
        k(   68) = (   0.3299832   0.2357023  -0.1414214), wk =   0.0284444
        k(   69) = (   0.3771236   0.2828427  -0.1885618), wk =   0.0284444
        k(   70) = (  -0.2828427  -0.3771236   0.4714045), wk =   0.0284444
        k(   71) = (   0.2828427   0.0942809   0.0000000), wk =   0.0142222
        k(   72) = (   0.3299832   0.1414214  -0.0471405), wk =   0.0284444
        k(   73) = (   0.3771236   0.1885618  -0.0942809), wk =   0.0284444
        k(   74) = (   0.4242641   0.2357023  -0.1414214), wk =   0.0284444
        k(   75) = (  -0.2357023  -0.4242641   0.5185450), wk =   0.0284444
        k(   76) = (  -0.1885618  -0.3771236   0.4714045), wk =   0.0284444
        k(   77) = (  -0.1414214  -0.3299832   0.4242641), wk =   0.0284444
        k(   78) = (  -0.0942809  -0.2828427   0.3771236), wk =   0.0284444
        k(   79) = (  -0.0471405  -0.2357023   0.3299832), wk =   0.0284444
        k(   80) = (   0.0000000  -0.1885618   0.2828427), wk =   0.0142222
        k(   81) = (   0.3771236   0.0942809   0.0000000), wk =   0.0142222
        k(   82) = (   0.4242641   0.1414214  -0.0471405), wk =   0.0284444
        k(   83) = (   0.4714045   0.1885618  -0.0942809), wk =   0.0284444
        k(   84) = (  -0.1885618  -0.4714045   0.5656854), wk =   0.0284444
        k(   85) = (  -0.1414214  -0.4242641   0.5185450), wk =   0.0284444
        k(   86) = (  -0.0942809  -0.3771236   0.4714045), wk =   0.0284444
        k(   87) = (  -0.0471405  -0.3299832   0.4242641), wk =   0.0284444
        k(   88) = (   0.0000000  -0.2828427   0.3771236), wk =   0.0142222
        k(   89) = (   0.4714045   0.0942809  -0.0000000), wk =   0.0142222
        k(   90) = (   0.5185450   0.1414214  -0.0471405), wk =   0.0284444
        k(   91) = (  -0.1414214  -0.5185450   0.6128259), wk =   0.0284444
        k(   92) = (  -0.0942809  -0.4714045   0.5656854), wk =   0.0284444
        k(   93) = (  -0.0471405  -0.4242641   0.5185450), wk =   0.0284444
        k(   94) = (  -0.0000000  -0.3771236   0.4714045), wk =   0.0142222
        k(   95) = (   0.5656854   0.0942809   0.0000000), wk =   0.0142222
        k(   96) = (  -0.0942809  -0.5656854   0.6599663), wk =   0.0284444
        k(   97) = (  -0.0471405  -0.5185450   0.6128259), wk =   0.0284444
        k(   98) = (   0.0000000  -0.4714045   0.5656854), wk =   0.0142222
        k(   99) = (  -0.0471405  -0.6128259   0.7071068), wk =   0.0142222
        k(  100) = (   0.0000000  -0.5656854   0.6599663), wk =   0.0142222
        k(  101) = (   0.3771236   0.1885618  -0.0000000), wk =   0.0142222
        k(  102) = (   0.4242641   0.2357023  -0.0471405), wk =   0.0284444
        k(  103) = (  -0.2357023  -0.4242641   0.6128259), wk =   0.0284444
        k(  104) = (  -0.1885618  -0.3771236   0.5656854), wk =   0.0284444
        k(  105) = (   0.4714045   0.1885618  -0.0000000), wk =   0.0142222
        k(  106) = (  -0.1885618  -0.4714045   0.6599663), wk =   0.0284444
        k(  107) = (  -0.1414214  -0.4242641   0.6128259), wk =   0.0284444
        k(  108) = (  -0.0942809  -0.3771236   0.5656854), wk =   0.0284444
        k(  109) = (  -0.0471405  -0.3299832   0.5185450), wk =   0.0284444
        k(  110) = (   0.0000000  -0.2828427   0.4714045), wk =   0.0142222
        k(  111) = (  -0.1414214  -0.5185450   0.7071068), wk =   0.0142222
        k(  112) = (  -0.0942809  -0.4714045   0.6599663), wk =   0.0284444
        k(  113) = (  -0.0471405  -0.4242641   0.6128259), wk =   0.0284444
        k(  114) = (   0.0000000  -0.3771236   0.5656854), wk =   0.0142222
        k(  115) = (  -0.0471405  -0.5185450   0.7071068), wk =   0.0142222
        k(  116) = (   0.0000000  -0.4714045   0.6599663), wk =   0.0142222
        k(  117) = (  -0.1414214  -0.4242641   0.7071068), wk =   0.0142222
        k(  118) = (  -0.0942809  -0.3771236   0.6599663), wk =   0.0284444
        k(  119) = (  -0.0471405  -0.4242641   0.7071068), wk =   0.0142222
        k(  120) = (  -0.0000000  -0.3771236   0.6599663), wk =   0.0142222

                       cryst. coord.
        k(    1) = (   0.0000000   0.0000000   0.0000000), wk =   0.0005926
        k(    2) = (   0.0000000   0.0000000   0.0666667), wk =   0.0047407
        k(    3) = (   0.0000000   0.0000000   0.1333333), wk =   0.0047407
        k(    4) = (   0.0000000   0.0000000   0.2000000), wk =   0.0047407
        k(    5) = (   0.0000000   0.0000000   0.2666667), wk =   0.0047407
        k(    6) = (   0.0000000   0.0000000   0.3333333), wk =   0.0047407
        k(    7) = (   0.0000000   0.0000000   0.4000000), wk =   0.0047407
        k(    8) = (   0.0000000   0.0000000   0.4666667), wk =   0.0047407
        k(    9) = (   0.0000000   0.0666667   0.0666667), wk =   0.0035556
        k(   10) = (   0.0000000   0.0666667   0.1333333), wk =   0.0142222
        k(   11) = (   0.0000000   0.0666667   0.2000000), wk =   0.0142222
        k(   12) = (   0.0000000   0.0666667   0.2666667), wk =   0.0142222
        k(   13) = (   0.0000000   0.0666667   0.3333333), wk =   0.0142222
        k(   14) = (   0.0000000   0.0666667   0.4000000), wk =   0.0142222
        k(   15) = (   0.0000000   0.0666667   0.4666667), wk =   0.0142222
        k(   16) = (   0.0000000   0.0666667  -0.4666667), wk =   0.0142222
        k(   17) = (   0.0000000   0.0666667  -0.4000000), wk =   0.0142222
        k(   18) = (   0.0000000   0.0666667  -0.3333333), wk =   0.0142222
        k(   19) = (   0.0000000   0.0666667  -0.2666667), wk =   0.0142222
        k(   20) = (   0.0000000   0.0666667  -0.2000000), wk =   0.0142222
        k(   21) = (   0.0000000   0.0666667  -0.1333333), wk =   0.0142222
        k(   22) = (   0.0000000   0.0666667  -0.0666667), wk =   0.0071111
        k(   23) = (   0.0000000   0.1333333   0.1333333), wk =   0.0035556
        k(   24) = (   0.0000000   0.1333333   0.2000000), wk =   0.0142222
        k(   25) = (   0.0000000   0.1333333   0.2666667), wk =   0.0142222
        k(   26) = (   0.0000000   0.1333333   0.3333333), wk =   0.0142222
        k(   27) = (   0.0000000   0.1333333   0.4000000), wk =   0.0142222
        k(   28) = (   0.0000000   0.1333333   0.4666667), wk =   0.0142222
        k(   29) = (   0.0000000   0.1333333  -0.4666667), wk =   0.0142222
        k(   30) = (   0.0000000   0.1333333  -0.4000000), wk =   0.0142222
        k(   31) = (   0.0000000   0.1333333  -0.3333333), wk =   0.0142222
        k(   32) = (   0.0000000   0.1333333  -0.2666667), wk =   0.0142222
        k(   33) = (   0.0000000   0.1333333  -0.2000000), wk =   0.0142222
        k(   34) = (   0.0000000   0.1333333  -0.1333333), wk =   0.0071111
        k(   35) = (   0.0000000   0.2000000   0.2000000), wk =   0.0035556
        k(   36) = (   0.0000000   0.2000000   0.2666667), wk =   0.0142222
        k(   37) = (   0.0000000   0.2000000   0.3333333), wk =   0.0142222
        k(   38) = (   0.0000000   0.2000000   0.4000000), wk =   0.0142222
        k(   39) = (   0.0000000   0.2000000   0.4666667), wk =   0.0142222
        k(   40) = (   0.0000000   0.2000000  -0.4666667), wk =   0.0142222
        k(   41) = (   0.0000000   0.2000000  -0.4000000), wk =   0.0142222
        k(   42) = (   0.0000000   0.2000000  -0.3333333), wk =   0.0142222
        k(   43) = (   0.0000000   0.2000000  -0.2666667), wk =   0.0142222
        k(   44) = (   0.0000000   0.2000000  -0.2000000), wk =   0.0071111
        k(   45) = (   0.0000000   0.2666667   0.2666667), wk =   0.0035556
        k(   46) = (   0.0000000   0.2666667   0.3333333), wk =   0.0142222
        k(   47) = (   0.0000000   0.2666667   0.4000000), wk =   0.0142222
        k(   48) = (   0.0000000   0.2666667   0.4666667), wk =   0.0142222
        k(   49) = (   0.0000000   0.2666667  -0.4666667), wk =   0.0142222
        k(   50) = (   0.0000000   0.2666667  -0.4000000), wk =   0.0142222
        k(   51) = (   0.0000000   0.2666667  -0.3333333), wk =   0.0142222
        k(   52) = (   0.0000000   0.2666667  -0.2666667), wk =   0.0071111
        k(   53) = (   0.0000000   0.3333333   0.3333333), wk =   0.0035556
        k(   54) = (   0.0000000   0.3333333   0.4000000), wk =   0.0142222
        k(   55) = (   0.0000000   0.3333333   0.4666667), wk =   0.0142222
        k(   56) = (   0.0000000   0.3333333  -0.4666667), wk =   0.0142222
        k(   57) = (   0.0000000   0.3333333  -0.4000000), wk =   0.0142222
        k(   58) = (   0.0000000   0.3333333  -0.3333333), wk =   0.0071111
        k(   59) = (   0.0000000   0.4000000   0.4000000), wk =   0.0035556
        k(   60) = (   0.0000000   0.4000000   0.4666667), wk =   0.0142222
        k(   61) = (   0.0000000   0.4000000  -0.4666667), wk =   0.0142222
        k(   62) = (   0.0000000   0.4000000  -0.4000000), wk =   0.0071111
        k(   63) = (   0.0000000   0.4666667   0.4666667), wk =   0.0035556
        k(   64) = (   0.0000000   0.4666667  -0.4666667), wk =   0.0071111
        k(   65) = (   0.0666667   0.1333333   0.2000000), wk =   0.0142222
        k(   66) = (   0.0666667   0.1333333   0.2666667), wk =   0.0284444
        k(   67) = (   0.0666667   0.1333333   0.3333333), wk =   0.0284444
        k(   68) = (   0.0666667   0.1333333   0.4000000), wk =   0.0284444
        k(   69) = (   0.0666667   0.1333333   0.4666667), wk =   0.0284444
        k(   70) = (   0.0666667   0.1333333  -0.4666667), wk =   0.0284444
        k(   71) = (   0.0666667   0.2000000   0.2666667), wk =   0.0142222
        k(   72) = (   0.0666667   0.2000000   0.3333333), wk =   0.0284444
        k(   73) = (   0.0666667   0.2000000   0.4000000), wk =   0.0284444
        k(   74) = (   0.0666667   0.2000000   0.4666667), wk =   0.0284444
        k(   75) = (   0.0666667   0.2000000  -0.4666667), wk =   0.0284444
        k(   76) = (   0.0666667   0.2000000  -0.4000000), wk =   0.0284444
        k(   77) = (   0.0666667   0.2000000  -0.3333333), wk =   0.0284444
        k(   78) = (   0.0666667   0.2000000  -0.2666667), wk =   0.0284444
        k(   79) = (   0.0666667   0.2000000  -0.2000000), wk =   0.0284444
        k(   80) = (   0.0666667   0.2000000  -0.1333333), wk =   0.0142222
        k(   81) = (   0.0666667   0.2666667   0.3333333), wk =   0.0142222
        k(   82) = (   0.0666667   0.2666667   0.4000000), wk =   0.0284444
        k(   83) = (   0.0666667   0.2666667   0.4666667), wk =   0.0284444
        k(   84) = (   0.0666667   0.2666667  -0.4666667), wk =   0.0284444
        k(   85) = (   0.0666667   0.2666667  -0.4000000), wk =   0.0284444
        k(   86) = (   0.0666667   0.2666667  -0.3333333), wk =   0.0284444
        k(   87) = (   0.0666667   0.2666667  -0.2666667), wk =   0.0284444
        k(   88) = (   0.0666667   0.2666667  -0.2000000), wk =   0.0142222
        k(   89) = (   0.0666667   0.3333333   0.4000000), wk =   0.0142222
        k(   90) = (   0.0666667   0.3333333   0.4666667), wk =   0.0284444
        k(   91) = (   0.0666667   0.3333333  -0.4666667), wk =   0.0284444
        k(   92) = (   0.0666667   0.3333333  -0.4000000), wk =   0.0284444
        k(   93) = (   0.0666667   0.3333333  -0.3333333), wk =   0.0284444
        k(   94) = (   0.0666667   0.3333333  -0.2666667), wk =   0.0142222
        k(   95) = (   0.0666667   0.4000000   0.4666667), wk =   0.0142222
        k(   96) = (   0.0666667   0.4000000  -0.4666667), wk =   0.0284444
        k(   97) = (   0.0666667   0.4000000  -0.4000000), wk =   0.0284444
        k(   98) = (   0.0666667   0.4000000  -0.3333333), wk =   0.0142222
        k(   99) = (   0.0666667   0.4666667  -0.4666667), wk =   0.0142222
        k(  100) = (   0.0666667   0.4666667  -0.4000000), wk =   0.0142222
        k(  101) = (   0.1333333   0.2666667   0.4000000), wk =   0.0142222
        k(  102) = (   0.1333333   0.2666667   0.4666667), wk =   0.0284444
        k(  103) = (   0.1333333   0.2666667  -0.4666667), wk =   0.0284444
        k(  104) = (   0.1333333   0.2666667  -0.4000000), wk =   0.0284444
        k(  105) = (   0.1333333   0.3333333   0.4666667), wk =   0.0142222
        k(  106) = (   0.1333333   0.3333333  -0.4666667), wk =   0.0284444
        k(  107) = (   0.1333333   0.3333333  -0.4000000), wk =   0.0284444
        k(  108) = (   0.1333333   0.3333333  -0.3333333), wk =   0.0284444
        k(  109) = (   0.1333333   0.3333333  -0.2666667), wk =   0.0284444
        k(  110) = (   0.1333333   0.3333333  -0.2000000), wk =   0.0142222
        k(  111) = (   0.1333333   0.4000000  -0.4666667), wk =   0.0142222
        k(  112) = (   0.1333333   0.4000000  -0.4000000), wk =   0.0284444
        k(  113) = (   0.1333333   0.4000000  -0.3333333), wk =   0.0284444
        k(  114) = (   0.1333333   0.4000000  -0.2666667), wk =   0.0142222
        k(  115) = (   0.1333333   0.4666667  -0.4000000), wk =   0.0142222
        k(  116) = (   0.1333333   0.4666667  -0.3333333), wk =   0.0142222
        k(  117) = (   0.2000000   0.4000000  -0.4000000), wk =   0.0142222
        k(  118) = (   0.2000000   0.4000000  -0.3333333), wk =   0.0284444
        k(  119) = (   0.2000000   0.4666667  -0.3333333), wk =   0.0142222
        k(  120) = (   0.2000000   0.4666667  -0.2666667), wk =   0.0142222

     Dense  grid:    47183 G-vectors     FFT dimensions: (  54,  54,  54)

     Largest allocated arrays     est. size (Mb)     dimensions
        Kohn-Sham Wavefunctions         0.10 Mb     (     372,   18)
        NL pseudopotentials             0.20 Mb     (     372,   36)
        Each V/rho on FFT grid          0.18 Mb     (   11664)
        Each G-vector array             0.02 Mb     (    2950)
        G-vector shells                 0.00 Mb     (     405)
     Largest temporary arrays     est. size (Mb)     dimensions
        Auxiliary wavefunctions         0.41 Mb     (     372,   72)
        Each subspace H/S matrix        0.08 Mb     (      72,   72)
        Each <psi_i|beta_j> matrix      0.01 Mb     (      36,   18)
        Arrays for rho mixing           1.42 Mb     (   11664,    8)

     Initial potential from superposition of free atoms

     starting charge   27.82674, renormalised to   28.00000
     Starting wfc are random

     total cpu time spent up to now is        9.3 secs

     Self-consistent Calculation

     iteration #  1     ecut=    80.00 Ry     beta=0.70
     Davidson diagonalization with overlap
     ethr =  1.00E-02,  avg # of iterations =  8.0

     Threshold (ethr) on eigenvalues was too large:
     Diagonalizing with lowered threshold

     Davidson diagonalization with overlap
     ethr =  1.18E-04,  avg # of iterations =  5.8

     total cpu time spent up to now is      118.0 secs

     total energy              =    -256.21661308 Ry
     Harris-Foulkes estimate   =    -256.22971399 Ry
     estimated scf accuracy    <       0.03275964 Ry

     iteration #  2     ecut=    80.00 Ry     beta=0.70
     Davidson diagonalization with overlap
     ethr =  1.17E-04,  avg # of iterations =  2.1

     total cpu time spent up to now is      137.0 secs

     total energy              =    -256.22109697 Ry
     Harris-Foulkes estimate   =    -256.22133624 Ry
     estimated scf accuracy    <       0.00187691 Ry

     iteration #  3     ecut=    80.00 Ry     beta=0.70
     Davidson diagonalization with overlap
     ethr =  6.70E-06,  avg # of iterations =  2.7

     total cpu time spent up to now is      149.6 secs

     total energy              =    -256.22127313 Ry
     Harris-Foulkes estimate   =    -256.22125388 Ry
     estimated scf accuracy    <       0.00010866 Ry

     iteration #  4     ecut=    80.00 Ry     beta=0.70
     Davidson diagonalization with overlap
     ethr =  3.88E-07,  avg # of iterations =  2.8

     total cpu time spent up to now is      161.9 secs

     End of self-consistent calculation

          k = 0.0000 0.0000 0.0000 (  5961 PWs)   bands (ev):

   -13.7641 -13.7641 -13.7641 -13.7113 -13.7113 -13.4424 -13.4424 -13.4424
   -13.4388 -13.4388  -2.4056   6.8828   7.9570   7.9570   7.9570   9.7198
     9.7223  10.0300

     occupation numbers 
     1.0000   1.0000   1.0000   1.0000   1.0000   1.0000   1.0000   1.0000
     1.0000   1.0000   1.0000   1.0000   0.0000   0.0000   0.0000   0.0000
     0.0000   0.0000

          k = 0.0471 0.0471-0.0471 (  5883 PWs)   bands (ev):

   -13.7673 -13.7673 -13.7631 -13.7070 -13.7070 -13.4530 -13.4530 -13.4436
   -13.4289 -13.4289  -2.3647   6.3713   7.8711   7.8711   8.2091   9.7198
     9.7223  10.1418

     occupation numbers 
     1.0000   1.0000   1.0000   1.0000   1.0000   1.0000   1.0000   1.0000
     1.0000   1.0000   1.0000   1.0000   0.1583   0.1583   0.0000   0.0000
     0.0000   0.0000

          k = 0.0943 0.0943-0.0943 (  5880 PWs)   bands (ev):

   -13.7742 -13.7742 -13.7603 -13.6969 -13.6969 -13.4650 -13.4650 -13.4470
   -13.4188 -13.4188  -2.2431   5.4800   7.6664   7.6664   8.3398   9.7198
     9.7222  10.4096

     occupation numbers 
     1.0000   1.0000   1.0000   1.0000   1.0000   1.0000   1.0000   1.0000
     1.0000   1.0000   1.0000   1.0000   1.0000   1.0000   0.0000   0.0000
     0.0000   0.0000

          k = 0.1414 0.1414-0.1414 (  5865 PWs)   bands (ev):

   -13.7815 -13.7815 -13.7560 -13.6853 -13.6853 -13.4761 -13.4761 -13.4521
   -13.4103 -13.4103  -2.0446   4.5465   7.4273   7.4273   8.2445   9.7198
     9.7222  10.7081

     occupation numbers 
     1.0000   1.0000   1.0000   1.0000   1.0000   1.0000   1.0000   1.0000
     1.0000   1.0000   1.0000   1.0000   1.0000   1.0000   0.0000   0.0000
     0.0000   0.0000

          k = 0.1886 0.1886-0.1886 (  5882 PWs)   bands (ev):

   -13.7875 -13.7875 -13.7511 -13.6748 -13.6748 -13.4852 -13.4852 -13.4581
   -13.4038 -13.4038  -1.7782   3.6543   7.2055   7.2055   8.0846   9.7198
     9.7222  10.9348

     occupation numbers 
     1.0000   1.0000   1.0000   1.0000   1.0000   1.0000   1.0000   1.0000
     1.0000   1.0000   1.0000   1.0000   1.0000   1.0000   0.0000   0.0000
     0.0000   0.0000

          k = 0.2357 0.2357-0.2357 (  5888 PWs)   bands (ev):

   -13.7917 -13.7917 -13.7462 -13.6667 -13.6667 -13.4917 -13.4917 -13.4640
   -13.3993 -13.3993  -1.4630   2.8531   7.0264   7.0264   7.9372   9.7198
     9.7222  11.0498

     occupation numbers 
     1.0000   1.0000   1.0000   1.0000   1.0000   1.0000   1.0000   1.0000
     1.0000   1.0000   1.0000   1.0000   1.0000   1.0000   0.0000   0.0000
     0.0000   0.0000

          k = 0.2828 0.2828-0.2828 (  5858 PWs)   bands (ev):

   -13.7943 -13.7943 -13.7422 -13.6615 -13.6615 -13.4957 -13.4957 -13.4687
   -13.3965 -13.3965  -1.1436   2.2028   6.9021   6.9021   7.8307   9.7198
     9.7222  11.0825

     occupation numbers 
     1.0000   1.0000   1.0000   1.0000   1.0000   1.0000   1.0000   1.0000
     1.0000   1.0000   1.0000   1.0000   1.0000   1.0000   1.0000   0.0000
     0.0000   0.0000

          k = 0.3300 0.3300-0.3300 (  5861 PWs)   bands (ev):

   -13.7955 -13.7955 -13.7400 -13.6591 -13.6591 -13.4974 -13.4974 -13.4714
   -13.3951 -13.3951  -0.9175   1.8094   6.8388   6.8388   7.7756   9.7199
     9.7222  11.0836

     occupation numbers 
     1.0000   1.0000   1.0000   1.0000   1.0000   1.0000   1.0000   1.0000
     1.0000   1.0000   1.0000   1.0000   1.0000   1.0000   1.0000   0.0000
     0.0000   0.0000

          k = 0.0943 0.0000 0.0000 (  5881 PWs)   bands (ev):

   -13.7668 -13.7664 -13.7664 -13.7082 -13.7026 -13.4641 -13.4417 -13.4392
   -13.4392 -13.4240  -2.3510   6.2840   7.7147   7.7147   8.5319   9.7197
     9.7223   9.8604

     occupation numbers 
     1.0000   1.0000   1.0000   1.0000   1.0000   1.0000   1.0000   1.0000
     1.0000   1.0000   1.0000   1.0000   1.0000   1.0000   0.0000   0.0000
     0.0000   0.0000

          k = 0.1414 0.0471-0.0471 (  5882 PWs)   bands (ev):

   -13.7742 -13.7709 -13.7637 -13.7018 -13.6922 -13.4774 -13.4529 -13.4394
   -13.4285 -13.4163  -2.2560   5.6253   7.4779   7.5142   8.8061   9.7195
     9.7223   9.8671

     occupation numbers 
     1.0000   1.0000   1.0000   1.0000   1.0000   1.0000   1.0000   1.0000
     1.0000   1.0000   1.0000   1.0000   1.0000   1.0000   0.0000   0.0000
     0.0000   0.0000

          k = 0.1886 0.0943-0.0943 (  5885 PWs)   bands (ev):

   -13.7826 -13.7776 -13.7587 -13.6916 -13.6799 -13.4896 -13.4646 -13.4443
   -13.4185 -13.4076  -2.0826   4.7704   7.2335   7.2685   8.7897   9.7198
     9.7223  10.1385

     occupation numbers 
     1.0000   1.0000   1.0000   1.0000   1.0000   1.0000   1.0000   1.0000
     1.0000   1.0000   1.0000   1.0000   1.0000   1.0000   0.0000   0.0000
     0.0000   0.0000

          k = 0.2357 0.1414-0.1414 (  5878 PWs)   bands (ev):

   -13.7900 -13.7841 -13.7523 -13.6809 -13.6685 -13.4994 -13.4751 -13.4518
   -13.4102 -13.4001  -1.8374   3.8970   7.0034   7.0222   8.6438   9.7198
     9.7223  10.4809

     occupation numbers 
     1.0000   1.0000   1.0000   1.0000   1.0000   1.0000   1.0000   1.0000
     1.0000   1.0000   1.0000   1.0000   1.0000   1.0000   0.0000   0.0000
     0.0000   0.0000

          k = 0.2828 0.1886-0.1886 (  5880 PWs)   bands (ev):

   -13.7957 -13.7893 -13.7453 -13.6714 -13.6600 -13.5055 -13.4841 -13.4603
   -13.4037 -13.3943  -1.5352   3.0808   6.7631   6.8640   8.4832   9.7198
     9.7222  10.7363

     occupation numbers 
     1.0000   1.0000   1.0000   1.0000   1.0000   1.0000   1.0000   1.0000
     1.0000   1.0000   1.0000   1.0000   1.0000   1.0000   0.0000   0.0000
     0.0000   0.0000

          k = 0.3300 0.2357-0.2357 (  5867 PWs)   bands (ev):

   -13.7994 -13.7931 -13.7389 -13.6637 -13.6553 -13.5073 -13.4915 -13.4686
   -13.3987 -13.3907  -1.2092   2.3829   6.5704   6.7685   8.3517   9.7199
     9.7222  10.8745

     occupation numbers 
     1.0000   1.0000   1.0000   1.0000   1.0000   1.0000   1.0000   1.0000
     1.0000   1.0000   1.0000   1.0000   1.0000   1.0000   0.0000   0.0000
     0.0000   0.0000

          k = 0.3771 0.2828-0.2828 (  5851 PWs)   bands (ev):

   -13.8010 -13.7957 -13.7344 -13.6581 -13.6545 -13.5051 -13.4974 -13.4750
   -13.3952 -13.3892  -0.9361   1.8934   6.4365   6.7394   8.2665   9.7198
     9.7222  10.9510

     occupation numbers 
     1.0000   1.0000   1.0000   1.0000   1.0000   1.0000   1.0000   1.0000
     1.0000   1.0000   1.0000   1.0000   1.0000   1.0000   0.0000   0.0000
     0.0000   0.0000

          k =-0.2828-0.3771 0.3771 (  5851 PWs)   bands (ev):

   -13.8009 -13.7971 -13.7328 -13.6566 -13.6547 -13.5018 -13.5003 -13.4782
   -13.3931 -13.3898  -0.8500   1.7529   6.3674   6.7771   8.2343   9.7198
     9.7222  11.0176

     occupation numbers 
     1.0000   1.0000   1.0000   1.0000   1.0000   1.0000   1.0000   1.0000
     1.0000   1.0000   1.0000   1.0000   1.0000   1.0000   0.0000   0.0000
     0.0000   0.0000

          k =-0.2357-0.3300 0.3300 (  5863 PWs)   bands (ev):

   -13.7990 -13.7973 -13.7345 -13.6609 -13.6540 -13.5040 -13.4953 -13.4763
   -13.3925 -13.3924  -1.0144   2.0265   6.3673   6.8789   8.2563   9.7199
     9.7223  11.0897

     occupation numbers 
     1.0000   1.0000   1.0000   1.0000   1.0000   1.0000   1.0000   1.0000
     1.0000   1.0000   1.0000   1.0000   1.0000   1.0000   0.0000   0.0000
     0.0000   0.0000

          k =-0.1886-0.2828 0.2828 (  5864 PWs)   bands (ev):

   -13.7959 -13.7953 -13.7392 -13.6668 -13.6567 -13.5031 -13.4908 -13.4692
   -13.3973 -13.3934  -1.3178   2.5993   6.4387   7.0388   8.3297   9.7199
     9.7223  11.0376

     occupation numbers 
     1.0000   1.0000   1.0000   1.0000   1.0000   1.0000   1.0000   1.0000
     1.0000   1.0000   1.0000   1.0000   1.0000   1.0000   0.0000   0.0000
     0.0000   0.0000

          k =-0.1414-0.2357 0.2357 (  5881 PWs)   bands (ev):

   -13.7928 -13.7900 -13.7457 -13.6746 -13.6635 -13.4985 -13.4854 -13.4595
   -13.4041 -13.3965  -1.6415   3.3435   6.5833   7.2466   8.4442   9.7199
     9.7223  10.8812

     occupation numbers 
     1.0000   1.0000   1.0000   1.0000   1.0000   1.0000   1.0000   1.0000
     1.0000   1.0000   1.0000   1.0000   1.0000   1.0000   0.0000   0.0000
     0.0000   0.0000

          k =-0.0943-0.1886 0.1886 (  5879 PWs)   bands (ev):

   -13.7877 -13.7832 -13.7527 -13.6840 -13.6738 -13.4901 -13.4780 -13.4496
   -13.4127 -13.4016  -1.9270   4.1819   6.8022   7.4833   8.5729   9.7198
     9.7223  10.6407

     occupation numbers 
     1.0000   1.0000   1.0000   1.0000   1.0000   1.0000   1.0000   1.0000
     1.0000   1.0000   1.0000   1.0000   1.0000   1.0000   0.0000   0.0000
     0.0000   0.0000

          k =-0.0471-0.1414 0.1414 (  5883 PWs)   bands (ev):

   -13.7808 -13.7754 -13.7589 -13.6942 -13.6862 -13.4789 -13.4687 -13.4408
   -13.4231 -13.4089  -2.1492   5.0504   7.0975   7.7127   8.6437   9.7198
     9.7223  10.3613

     occupation numbers 
     1.0000   1.0000   1.0000   1.0000   1.0000   1.0000   1.0000   1.0000
     1.0000   1.0000   1.0000   1.0000   1.0000   1.0000   0.0000   0.0000
     0.0000   0.0000

          k = 0.0000-0.0943 0.0943 (  5879 PWs)   bands (ev):

   -13.7733 -13.7687 -13.7628 -13.7031 -13.6983 -13.4661 -13.4585 -13.4360
   -13.4328 -13.4181  -2.2968   5.8498   7.4748   7.8685   8.5103   9.7198
     9.7223  10.1553

     occupation numbers 
     1.0000   1.0000   1.0000   1.0000   1.0000   1.0000   1.0000   1.0000
     1.0000   1.0000   1.0000   1.0000   1.0000   0.9556   0.0000   0.0000
     0.0000   0.0000

          k = 0.1886 0.0000 0.0000 (  5878 PWs)   bands (ev):

   -13.7726 -13.7726 -13.7704 -13.6992 -13.6814 -13.4934 -13.4503 -13.4306
   -13.4306 -13.4154  -2.1876   5.3546   7.2267   7.2267   9.3373   9.4977
     9.7208   9.7235

     occupation numbers 
     1.0000   1.0000   1.0000   1.0000   1.0000   1.0000   1.0000   1.0000
     1.0000   1.0000   1.0000   1.0000   1.0000   1.0000   0.0000   0.0000
     0.0000   0.0000

          k = 0.2357 0.0471-0.0471 (  5870 PWs)   bands (ev):

   -13.7817 -13.7777 -13.7651 -13.6911 -13.6681 -13.5085 -13.4596 -13.4314
   -13.4222 -13.4091  -2.0397   4.7441   6.9541   6.9779   9.4222   9.5886
     9.7210   9.7254

     occupation numbers 
     1.0000   1.0000   1.0000   1.0000   1.0000   1.0000   1.0000   1.0000
     1.0000   1.0000   1.0000   1.0000   1.0000   1.0000   0.0000   0.0000
     0.0000   0.0000

          k = 0.2828 0.0943-0.0943 (  5882 PWs)   bands (ev):

   -13.7913 -13.7838 -13.7562 -13.6807 -13.6554 -13.5210 -13.4710 -13.4402
   -13.4130 -13.3994  -1.8173   3.9928   6.6395   6.7684   9.3348   9.7192
     9.7223   9.9199

     occupation numbers 
     1.0000   1.0000   1.0000   1.0000   1.0000   1.0000   1.0000   1.0000
     1.0000   1.0000   1.0000   1.0000   1.0000   1.0000   0.0000   0.0000
     0.0000   0.0000

          k = 0.3300 0.1414-0.1414 (  5874 PWs)   bands (ev):

   -13.7997 -13.7894 -13.7455 -13.6701 -13.6457 -13.5291 -13.4821 -13.4522
   -13.4050 -13.3905  -1.5315   3.2271   6.3294   6.6174   9.1824   9.7198
     9.7224  10.3352

     occupation numbers 
     1.0000   1.0000   1.0000   1.0000   1.0000   1.0000   1.0000   1.0000
     1.0000   1.0000   1.0000   1.0000   1.0000   1.0000   0.0000   0.0000
     0.0000   0.0000

          k = 0.3771 0.1886-0.1886 (  5854 PWs)   bands (ev):

   -13.8061 -13.7939 -13.7346 -13.6605 -13.6408 -13.5315 -13.4924 -13.4651
   -13.3984 -13.3837  -1.2068   2.5270   6.0634   6.5342   9.0363   9.7199
     9.7224  10.6543

     occupation numbers 
     1.0000   1.0000   1.0000   1.0000   1.0000   1.0000   1.0000   1.0000
     1.0000   1.0000   1.0000   1.0000   1.0000   1.0000   0.0000   0.0000
     0.0000   0.0000

          k = 0.4243 0.2357-0.2357 (  5865 PWs)   bands (ev):

   -13.8100 -13.7974 -13.7253 -13.6522 -13.6412 -13.5277 -13.5018 -13.4768
   -13.3933 -13.3795  -0.9014   1.9783   5.8603   6.5227   8.9277   9.7200
     9.7223  10.8277

     occupation numbers 
     1.0000   1.0000   1.0000   1.0000   1.0000   1.0000   1.0000   1.0000
     1.0000   1.0000   1.0000   1.0000   1.0000   1.0000   0.0000   0.0000
     0.0000   0.0000

          k =-0.2357-0.4243 0.4243 (  5854 PWs)   bands (ev):

   -13.8113 -13.7998 -13.7194 -13.6462 -13.6458 -13.5184 -13.5098 -13.4857
   -13.3896 -13.3785  -0.7366   1.7157   5.7299   6.5826   8.8686   9.7199
     9.7223  10.9388

     occupation numbers 
     1.0000   1.0000   1.0000   1.0000   1.0000   1.0000   1.0000   1.0000
     1.0000   1.0000   1.0000   1.0000   1.0000   1.0000   0.0000   0.0000
     0.0000   0.0000

          k =-0.1886-0.3771 0.3771 (  5861 PWs)   bands (ev):

   -13.8099 -13.8010 -13.7186 -13.6537 -13.6422 -13.5153 -13.5052 -13.4907
   -13.3877 -13.3807  -0.8273   1.8582   5.6798   6.7097   8.8611   9.7199
     9.7223  11.0495

     occupation numbers 
     1.0000   1.0000   1.0000   1.0000   1.0000   1.0000   1.0000   1.0000
     1.0000   1.0000   1.0000   1.0000   1.0000   1.0000   0.0000   0.0000
     0.0000   0.0000

          k =-0.1414-0.3300 0.3300 (  5864 PWs)   bands (ev):

   -13.8058 -13.8006 -13.7232 -13.6619 -13.6430 -13.5168 -13.4943 -13.4869
   -13.3876 -13.3863  -1.1046   2.3331   5.7180   6.8960   8.8993   9.7199
     9.7224  11.1623

     occupation numbers 
     1.0000   1.0000   1.0000   1.0000   1.0000   1.0000   1.0000   1.0000
     1.0000   1.0000   1.0000   1.0000   1.0000   1.0000   0.0000   0.0000
     0.0000   0.0000

          k =-0.0943-0.2828 0.2828 (  5873 PWs)   bands (ev):

   -13.7993 -13.7984 -13.7320 -13.6701 -13.6490 -13.5131 -13.4912 -13.4709
   -13.3949 -13.3897  -1.4317   2.9889   5.8563   7.1265   8.9659   9.7199
     9.7224  11.0955

     occupation numbers 
     1.0000   1.0000   1.0000   1.0000   1.0000   1.0000   1.0000   1.0000
     1.0000   1.0000   1.0000   1.0000   1.0000   1.0000   0.0000   0.0000
     0.0000   0.0000

          k =-0.0471-0.2357 0.2357 (  5875 PWs)   bands (ev):

   -13.7941 -13.7910 -13.7428 -13.6785 -13.6596 -13.5045 -13.4858 -13.4550
   -13.4060 -13.3940  -1.7331   3.7198   6.1142   7.3751   9.0157   9.7200
     9.7225  10.8130

     occupation numbers 
     1.0000   1.0000   1.0000   1.0000   1.0000   1.0000   1.0000   1.0000
     1.0000   1.0000   1.0000   1.0000   1.0000   1.0000   0.0000   0.0000
     0.0000   0.0000

          k = 0.0000-0.1886 0.1886 (  5879 PWs)   bands (ev):

   -13.7880 -13.7821 -13.7527 -13.6870 -13.6728 -13.4926 -13.4779 -13.4422
   -13.4182 -13.4004  -1.9770   4.4375   6.5223   7.5950   8.9433   9.7199
     9.7225  10.5285

     occupation numbers 
     1.0000   1.0000   1.0000   1.0000   1.0000   1.0000   1.0000   1.0000
     1.0000   1.0000   1.0000   1.0000   1.0000   1.0000   0.0000   0.0000
     0.0000   0.0000

          k = 0.2828 0.0000 0.0000 (  5882 PWs)   bands (ev):

   -13.7813 -13.7813 -13.7697 -13.6847 -13.6532 -13.5272 -13.4642 -13.4183
   -13.4183 -13.4148  -1.9170   4.4035   6.7240   6.7240   9.1292   9.7168
     9.7213   9.8826

     occupation numbers 
     1.0000   1.0000   1.0000   1.0000   1.0000   1.0000   1.0000   1.0000
     1.0000   1.0000   1.0000   1.0000   1.0000   1.0000   0.0000   0.0000
     0.0000   0.0000

          k = 0.3300 0.0471-0.0471 (  5876 PWs)   bands (ev):

   -13.7899 -13.7864 -13.7622 -13.6748 -13.6385 -13.5434 -13.4743 -13.4275
   -13.4106 -13.4033  -1.7180   3.8466   6.4354   6.5094   9.1322   9.7179
     9.7215   9.9387

     occupation numbers 
     1.0000   1.0000   1.0000   1.0000   1.0000   1.0000   1.0000   1.0000
     1.0000   1.0000   1.0000   1.0000   1.0000   1.0000   0.0000   0.0000
     0.0000   0.0000

          k = 0.3771 0.0943-0.0943 (  5866 PWs)   bands (ev):

   -13.8002 -13.7917 -13.7492 -13.6638 -13.6264 -13.5553 -13.4860 -13.4425
   -13.4027 -13.3908  -1.4509   3.2018   6.0757   6.3546   9.2628   9.7190
     9.7219  10.0887

     occupation numbers 
     1.0000   1.0000   1.0000   1.0000   1.0000   1.0000   1.0000   1.0000
     1.0000   1.0000   1.0000   1.0000   1.0000   1.0000   0.0000   0.0000
     0.0000   0.0000

          k = 0.4243 0.1414-0.1414 (  5854 PWs)   bands (ev):

   -13.8093 -13.7963 -13.7343 -13.6527 -13.6194 -13.5609 -13.4980 -13.4592
   -13.3957 -13.3804  -1.1336   2.5598   5.7264   6.2700   9.2562   9.7197
     9.7222  10.5303

     occupation numbers 
     1.0000   1.0000   1.0000   1.0000   1.0000   1.0000   1.0000   1.0000
     1.0000   1.0000   1.0000   1.0000   1.0000   1.0000   0.0000   0.0000
     0.0000   0.0000

          k = 0.4714 0.1886-0.1886 (  5857 PWs)   bands (ev):

   -13.8161 -13.8001 -13.7200 -13.6423 -13.6194 -13.5587 -13.5097 -13.4752
   -13.3900 -13.3729  -0.8089   2.0036   5.4382   6.2603   9.2013   9.7198
     9.7223  10.9823

     occupation numbers 
     1.0000   1.0000   1.0000   1.0000   1.0000   1.0000   1.0000   1.0000
     1.0000   1.0000   1.0000   1.0000   1.0000   1.0000   0.0000   0.0000
     0.0000   0.0000

          k =-0.1886-0.4714 0.4714 (  5851 PWs)   bands (ev):

   -13.8198 -13.8029 -13.7092 -13.6335 -13.6259 -13.5493 -13.5204 -13.4878
   -13.3858 -13.3689  -0.5781   1.6563   5.2343   6.3253   9.1735   9.7199
     9.7224  11.2075

     occupation numbers 
     1.0000   1.0000   1.0000   1.0000   1.0000   1.0000   1.0000   1.0000
     1.0000   1.0000   1.0000   1.0000   1.0000   1.0000   0.0000   0.0000
     0.0000   0.0000

          k =-0.1414-0.4243 0.4243 (  5853 PWs)   bands (ev):

   -13.8201 -13.8045 -13.7041 -13.6373 -13.6276 -13.5339 -13.5284 -13.4952
   -13.3833 -13.3691  -0.5893   1.6734   5.1290   6.4610   9.1882   9.7200
     9.7225  11.3211

     occupation numbers 
     1.0000   1.0000   1.0000   1.0000   1.0000   1.0000   1.0000   1.0000
     1.0000   1.0000   1.0000   1.0000   1.0000   1.0000   0.0000   0.0000
     0.0000   0.0000

          k =-0.0943-0.3771 0.3771 (  5855 PWs)   bands (ev):

   -13.8168 -13.8047 -13.7059 -13.6506 -13.6271 -13.5313 -13.5143 -13.4976
   -13.3828 -13.3735  -0.8322   2.0395   5.1377   6.6581   9.2359   9.7200
     9.7226  11.4339

     occupation numbers 
     1.0000   1.0000   1.0000   1.0000   1.0000   1.0000   1.0000   1.0000
     1.0000   1.0000   1.0000   1.0000   1.0000   1.0000   0.0000   0.0000
     0.0000   0.0000

          k =-0.0471-0.3300 0.3300 (  5865 PWs)   bands (ev):

   -13.8103 -13.8030 -13.7150 -13.6623 -13.6334 -13.5274 -13.4976 -13.4913
   -13.3844 -13.3819  -1.1576   2.5842   5.2836   6.8998   9.2830   9.7200
     9.7227  11.5006

     occupation numbers 
     1.0000   1.0000   1.0000   1.0000   1.0000   1.0000   1.0000   1.0000
     1.0000   1.0000   1.0000   1.0000   1.0000   1.0000   0.0000   0.0000
     0.0000   0.0000

          k = 0.0000-0.2828 0.2828 (  5859 PWs)   bands (ev):

   -13.8012 -13.7995 -13.7287 -13.6713 -13.6452 -13.5177 -13.4925 -13.4712
   -13.3935 -13.3881  -1.4710   3.1732   5.5997   7.1561   9.2513   9.7200
     9.7228  11.1408

     occupation numbers 
     1.0000   1.0000   1.0000   1.0000   1.0000   1.0000   1.0000   1.0000
     1.0000   1.0000   1.0000   1.0000   1.0000   1.0000   0.0000   0.0000
     0.0000   0.0000

          k = 0.3771 0.0000 0.0000 (  5854 PWs)   bands (ev):

   -13.7906 -13.7906 -13.7630 -13.6653 -13.6210 -13.5638 -13.4830 -13.4223
   -13.4048 -13.4048  -1.5418   3.4687   6.2859   6.2859   8.8369   9.7178
     9.7214   9.9005

     occupation numbers 
     1.0000   1.0000   1.0000   1.0000   1.0000   1.0000   1.0000   1.0000
     1.0000   1.0000   1.0000   1.0000   1.0000   1.0000   0.0000   0.0000
     0.0000   0.0000

          k = 0.4243 0.0471-0.0471 (  5857 PWs)   bands (ev):

   -13.7983 -13.7952 -13.7527 -13.6538 -13.6057 -13.5802 -13.4944 -13.4350
   -13.3980 -13.3937  -1.2945   2.9609   6.0096   6.1209   8.8850   9.7166
     9.7213   9.8249

     occupation numbers 
     1.0000   1.0000   1.0000   1.0000   1.0000   1.0000   1.0000   1.0000
     1.0000   1.0000   1.0000   1.0000   1.0000   1.0000   0.0000   0.0000
     0.0000   0.0000

          k = 0.4714 0.0943-0.0943 (  5858 PWs)   bands (ev):

   -13.8084 -13.7995 -13.7362 -13.6418 -13.5966 -13.5890 -13.5071 -13.4537
   -13.3915 -13.3814  -0.9889   2.4133   5.6314   6.0264   9.0499   9.7190
     9.7218  10.0115

     occupation numbers 
     1.0000   1.0000   1.0000   1.0000   1.0000   1.0000   1.0000   1.0000
     1.0000   1.0000   1.0000   1.0000   1.0000   1.0000   0.0000   0.0000
     0.0000   0.0000

          k = 0.5185 0.1414-0.1414 (  5843 PWs)   bands (ev):

   -13.8174 -13.8030 -13.7183 -13.6299 -13.5991 -13.5852 -13.5201 -13.4731
   -13.3862 -13.3710  -0.6554   1.8976   5.2628   6.0081   9.0973   9.7196
     9.7221  10.5940

     occupation numbers 
     1.0000   1.0000   1.0000   1.0000   1.0000   1.0000   1.0000   1.0000
     1.0000   1.0000   1.0000   1.0000   1.0000   1.0000   0.0000   0.0000
     0.0000   0.0000

          k =-0.1414-0.5185 0.5185 (  5850 PWs)   bands (ev):

   -13.8238 -13.8057 -13.7035 -13.6192 -13.6012 -13.5813 -13.5326 -13.4889
   -13.3822 -13.3641  -0.3738   1.5139   4.9732   6.0668   9.1191   9.7198
     9.7222  11.3485

     occupation numbers 
     1.0000   1.0000   1.0000   1.0000   1.0000   1.0000   1.0000   1.0000
     1.0000   1.0000   1.0000   1.0000   1.0000   1.0000   0.0000   0.0000
     0.0000   0.0000

          k =-0.0943-0.4714 0.4714 (  5861 PWs)   bands (ev):

   -13.8264 -13.8073 -13.6953 -13.6117 -13.6116 -13.5685 -13.5424 -13.4978
   -13.3799 -13.3615  -0.3086   1.4326   4.7997   6.1988   9.1749   9.7199
     9.7223  11.8937

     occupation numbers 
     1.0000   1.0000   1.0000   1.0000   1.0000   1.0000   1.0000   1.0000
     1.0000   1.0000   1.0000   1.0000   1.0000   1.0000   0.0000   0.0000
     0.0000   0.0000

          k =-0.0471-0.4243 0.4243 (  5860 PWs)   bands (ev):

   -13.8250 -13.8075 -13.6944 -13.6304 -13.6111 -13.5459 -13.5453 -13.5005
   -13.3794 -13.3637  -0.5166   1.7015   4.7719   6.3952   9.2619   9.7200
     9.7225  12.0630

     occupation numbers 
     1.0000   1.0000   1.0000   1.0000   1.0000   1.0000   1.0000   1.0000
     1.0000   1.0000   1.0000   1.0000   1.0000   1.0000   0.0000   0.0000
     0.0000   0.0000

          k =-0.0000-0.3771 0.3771 (  5855 PWs)   bands (ev):

   -13.8194 -13.8061 -13.7010 -13.6491 -13.6195 -13.5393 -13.5195 -13.4992
   -13.3809 -13.3708  -0.8377   2.1346   4.9227   6.6389   9.3349   9.7200
     9.7228  11.9754

     occupation numbers 
     1.0000   1.0000   1.0000   1.0000   1.0000   1.0000   1.0000   1.0000
     1.0000   1.0000   1.0000   1.0000   1.0000   1.0000   0.0000   0.0000
     0.0000   0.0000

          k = 0.4714 0.0000 0.0000 (  5866 PWs)   bands (ev):

   -13.7991 -13.7991 -13.7497 -13.6419 -13.6015 -13.5866 -13.5057 -13.4373
   -13.3924 -13.3924  -1.0661   2.5649   5.9423   5.9423   8.6539   9.5634
     9.7205   9.7236

     occupation numbers 
     1.0000   1.0000   1.0000   1.0000   1.0000   1.0000   1.0000   1.0000
     1.0000   1.0000   1.0000   1.0000   1.0000   1.0000   0.0000   0.0000
     0.0000   0.0000

          k = 0.5185 0.0471-0.0471 (  5851 PWs)   bands (ev):

   -13.8055 -13.8026 -13.7365 -13.6291 -13.6174 -13.5713 -13.5185 -13.4520
   -13.3870 -13.3838  -0.7743   2.1027   5.6966   5.8332   8.7481   9.4757
     9.7203   9.7228

     occupation numbers 
     1.0000   1.0000   1.0000   1.0000   1.0000   1.0000   1.0000   1.0000
     1.0000   1.0000   1.0000   1.0000   1.0000   1.0000   0.0000   0.0000
     0.0000   0.0000

          k = 0.5657 0.0943-0.0943 (  5855 PWs)   bands (ev):

   -13.8146 -13.8055 -13.7174 -13.6259 -13.6162 -13.5622 -13.5322 -13.4724
   -13.3826 -13.3733  -0.4399   1.6412   5.3280   5.8005   8.9019   9.7163
     9.7214   9.7892

     occupation numbers 
     1.0000   1.0000   1.0000   1.0000   1.0000   1.0000   1.0000   1.0000
     1.0000   1.0000   1.0000   1.0000   1.0000   1.0000   0.0000   0.0000
     0.0000   0.0000

          k =-0.0943-0.5657 0.5657 (  5858 PWs)   bands (ev):

   -13.8228 -13.8077 -13.6997 -13.6235 -13.6040 -13.5633 -13.5458 -13.4909
   -13.3794 -13.3645  -0.1220   1.2559   4.9737   5.8461   8.9627   9.7196
     9.7220  10.5021

     occupation numbers 
     1.0000   1.0000   1.0000   1.0000   1.0000   1.0000   1.0000   1.0000
     1.0000   1.0000   1.0000   1.0000   1.0000   1.0000   0.0000   0.0000
     0.0000   0.0000

          k =-0.0471-0.5185 0.5185 (  5860 PWs)   bands (ev):

   -13.8279 -13.8089 -13.6904 -13.6065 -13.5954 -13.5787 -13.5563 -13.5003
   -13.3778 -13.3593   0.0014   1.1217   4.7251   5.9671   9.0400   9.7198
     9.7222  11.4077

     occupation numbers 
     1.0000   1.0000   1.0000   1.0000   1.0000   1.0000   1.0000   1.0000
     1.0000   1.0000   1.0000   1.0000   1.0000   1.0000   0.0000   0.0000
     0.0000   0.0000

          k =-0.0000-0.4714 0.4714 (  5840 PWs)   bands (ev):

   -13.8288 -13.8089 -13.6895 -13.6042 -13.5980 -13.5781 -13.5560 -13.5020
   -13.3777 -13.3589  -0.1970   1.3469   4.6422   6.1554   9.1541   9.7198
     9.7223  12.3156

     occupation numbers 
     1.0000   1.0000   1.0000   1.0000   1.0000   1.0000   1.0000   1.0000
     1.0000   1.0000   1.0000   1.0000   1.0000   1.0000   0.0000   0.0000
     0.0000   0.0000

          k = 0.5657 0.0000 0.0000 (  5846 PWs)   bands (ev):

   -13.8053 -13.8053 -13.7298 -13.6385 -13.6156 -13.5515 -13.5314 -13.4590
   -13.3829 -13.3829  -0.4953   1.7046   5.7073   5.7073   8.5942   9.1762
     9.7200   9.7223

     occupation numbers 
     1.0000   1.0000   1.0000   1.0000   1.0000   1.0000   1.0000   1.0000
     1.0000   1.0000   1.0000   1.0000   1.0000   1.0000   0.0000   0.0000
     0.0000   0.0000

          k = 0.6128 0.0471-0.0471 (  5847 PWs)   bands (ev):

   -13.8103 -13.8075 -13.7140 -13.6529 -13.6019 -13.5453 -13.5373 -13.4758
   -13.3797 -13.3769  -0.1647   1.2869   5.5059   5.6571   8.7263   9.1520
     9.7200   9.7223

     occupation numbers 
     1.0000   1.0000   1.0000   1.0000   1.0000   1.0000   1.0000   1.0000
     1.0000   1.0000   1.0000   1.0000   1.0000   1.0000   0.0000   0.0000
     0.0000   0.0000

          k =-0.0471-0.6128 0.6128 (  5859 PWs)   bands (ev):

   -13.8179 -13.8089 -13.6951 -13.6563 -13.5887 -13.5595 -13.5330 -13.4951
   -13.3777 -13.3688   0.1771   0.9106   5.1748   5.6857   8.8318   9.6307
     9.7207   9.7241

     occupation numbers 
     1.0000   1.0000   1.0000   1.0000   1.0000   1.0000   1.0000   1.0000
     1.0000   1.0000   1.0000   1.0000   1.0000   1.0000   0.0000   0.0000
     0.0000   0.0000

          k = 0.0000-0.5657 0.5657 (  5848 PWs)   bands (ev):

   -13.8246 -13.8094 -13.6883 -13.6382 -13.5825 -13.5672 -13.5496 -13.5021
   -13.3770 -13.3621   0.2785   0.8195   4.8758   5.7913   8.9138   9.7196
     9.7220  10.4556

     occupation numbers 
     1.0000   1.0000   1.0000   1.0000   1.0000   1.0000   1.0000   1.0000
     1.0000   1.0000   1.0000   1.0000   1.0000   1.0000   0.0000   0.0000
     0.0000   0.0000

          k = 0.6600 0.0000 0.0000 (  5850 PWs)   bands (ev):

   -13.8087 -13.8087 -13.7040 -13.6732 -13.5876 -13.5591 -13.5176 -13.4862
   -13.3779 -13.3779   0.1631   0.9000   5.5881   5.5881   8.6636   8.8617
     9.7199   9.7222

     occupation numbers 
     1.0000   1.0000   1.0000   1.0000   1.0000   1.0000   1.0000   1.0000
     1.0000   1.0000   1.0000   1.0000   1.0000   1.0000   0.0000   0.0000
     0.0000   0.0000

          k = 0.0000-0.6600 0.6600 (  5844 PWs)   bands (ev):

   -13.8120 -13.8092 -13.6890 -13.6822 -13.5745 -13.5726 -13.5081 -13.5016
   -13.3772 -13.3745   0.4975   0.5554   5.4419   5.5979   8.7664   8.9897
     9.7200   9.7223

     occupation numbers 
     1.0000   1.0000   1.0000   1.0000   1.0000   1.0000   1.0000   1.0000
     1.0000   1.0000   1.0000   1.0000   1.0000   1.0000   0.0000   0.0000
     0.0000   0.0000

          k = 0.1886 0.0943-0.0000 (  5869 PWs)   bands (ev):

   -13.7805 -13.7752 -13.7618 -13.6953 -13.6804 -13.4916 -13.4605 -13.4342
   -13.4272 -13.4091  -2.1348   5.0569   6.9926   7.4516   9.0964   9.7193
     9.7225   9.8298

     occupation numbers 
     1.0000   1.0000   1.0000   1.0000   1.0000   1.0000   1.0000   1.0000
     1.0000   1.0000   1.0000   1.0000   1.0000   1.0000   0.0000   0.0000
     0.0000   0.0000

          k = 0.2357 0.1414-0.0471 (  5876 PWs)   bands (ev):

   -13.7883 -13.7825 -13.7547 -13.6858 -13.6674 -13.5042 -13.4709 -13.4425
   -13.4161 -13.4010  -1.9368   4.3141   6.5910   7.2878   9.1361   9.7199
     9.7225  10.0797

     occupation numbers 
     1.0000   1.0000   1.0000   1.0000   1.0000   1.0000   1.0000   1.0000
     1.0000   1.0000   1.0000   1.0000   1.0000   1.0000   0.0000   0.0000
     0.0000   0.0000

          k = 0.2828 0.1886-0.0943 (  5882 PWs)   bands (ev):

   -13.7955 -13.7895 -13.7454 -13.6759 -13.6561 -13.5137 -13.4804 -13.4545
   -13.4058 -13.3940  -1.6708   3.5264   6.2965   7.0734   9.0279   9.7200
     9.7225  10.4497

     occupation numbers 
     1.0000   1.0000   1.0000   1.0000   1.0000   1.0000   1.0000   1.0000
     1.0000   1.0000   1.0000   1.0000   1.0000   1.0000   0.0000   0.0000
     0.0000   0.0000

          k = 0.3300 0.2357-0.1414 (  5874 PWs)   bands (ev):

   -13.8015 -13.7946 -13.7358 -13.6669 -13.6483 -13.5188 -13.4885 -13.4674
   -13.3979 -13.3884  -1.3554   2.7823   6.0919   6.8730   8.8994   9.7199
     9.7224  10.7277

     occupation numbers 
     1.0000   1.0000   1.0000   1.0000   1.0000   1.0000   1.0000   1.0000
     1.0000   1.0000   1.0000   1.0000   1.0000   1.0000   0.0000   0.0000
     0.0000   0.0000

          k = 0.3771 0.2828-0.1886 (  5859 PWs)   bands (ev):

   -13.8058 -13.7977 -13.7278 -13.6590 -13.6453 -13.5186 -13.4960 -13.4786
   -13.3929 -13.3843  -1.0341   2.1610   5.9636   6.7229   8.7995   9.7199
     9.7224  10.8555

     occupation numbers 
     1.0000   1.0000   1.0000   1.0000   1.0000   1.0000   1.0000   1.0000
     1.0000   1.0000   1.0000   1.0000   1.0000   1.0000   0.0000   0.0000
     0.0000   0.0000

          k =-0.2828-0.3771 0.4714 (  5855 PWs)   bands (ev):

   -13.8080 -13.7992 -13.7232 -13.6527 -13.6465 -13.5139 -13.5040 -13.4847
   -13.3905 -13.3821  -0.8049   1.7781   5.9021   6.6431   8.7463   9.7199
     9.7223  10.8934

     occupation numbers 
     1.0000   1.0000   1.0000   1.0000   1.0000   1.0000   1.0000   1.0000
     1.0000   1.0000   1.0000   1.0000   1.0000   1.0000   0.0000   0.0000
     0.0000   0.0000

          k = 0.2828 0.0943 0.0000 (  5885 PWs)   bands (ev):

   -13.7876 -13.7841 -13.7601 -13.6826 -13.6541 -13.5242 -13.4682 -13.4337
   -13.4149 -13.4031  -1.8667   4.2017   6.5004   6.8850   9.4629   9.6952
     9.7213   9.7455

     occupation numbers 
     1.0000   1.0000   1.0000   1.0000   1.0000   1.0000   1.0000   1.0000
     1.0000   1.0000   1.0000   1.0000   1.0000   1.0000   0.0000   0.0000
     0.0000   0.0000

          k = 0.3300 0.1414-0.0471 (  5877 PWs)   bands (ev):

   -13.7962 -13.7908 -13.7491 -13.6724 -13.6413 -13.5367 -13.4790 -13.4456
   -13.4048 -13.3941  -1.6219   3.5442   6.1150   6.7172   9.5219   9.7190
     9.7227   9.9489

     occupation numbers 
     1.0000   1.0000   1.0000   1.0000   1.0000   1.0000   1.0000   1.0000
     1.0000   1.0000   1.0000   1.0000   1.0000   1.0000   0.0000   0.0000
     0.0000   0.0000

          k = 0.3771 0.1886-0.0943 (  5871 PWs)   bands (ev):

   -13.8050 -13.7959 -13.7358 -13.6621 -13.6320 -13.5444 -13.4899 -13.4607
   -13.3967 -13.3851  -1.3194   2.8644   5.8144   6.5417   9.4270   9.7200
     9.7229  10.3905

     occupation numbers 
     1.0000   1.0000   1.0000   1.0000   1.0000   1.0000   1.0000   1.0000
     1.0000   1.0000   1.0000   1.0000   1.0000   1.0000   0.0000   0.0000
     0.0000   0.0000

          k = 0.4243 0.2357-0.1414 (  5862 PWs)   bands (ev):

   -13.8118 -13.7997 -13.7230 -13.6523 -13.6283 -13.5455 -13.5007 -13.4755
   -13.3909 -13.3777  -0.9909   2.2456   5.5896   6.4194   9.3269   9.7200
     9.7227  10.7267

     occupation numbers 
     1.0000   1.0000   1.0000   1.0000   1.0000   1.0000   1.0000   1.0000
     1.0000   1.0000   1.0000   1.0000   1.0000   1.0000   0.0000   0.0000
     0.0000   0.0000

          k =-0.2357-0.4243 0.5185 (  5854 PWs)   bands (ev):

   -13.8160 -13.8022 -13.7132 -13.6439 -13.6303 -13.5401 -13.5114 -13.4868
   -13.3871 -13.3732  -0.7124   1.7937   5.4352   6.3769   9.2631   9.7200
     9.7226  10.8595

     occupation numbers 
     1.0000   1.0000   1.0000   1.0000   1.0000   1.0000   1.0000   1.0000
     1.0000   1.0000   1.0000   1.0000   1.0000   1.0000   0.0000   0.0000
     0.0000   0.0000

          k =-0.1886-0.3771 0.4714 (  5865 PWs)   bands (ev):

   -13.8170 -13.8035 -13.7087 -13.6418 -13.6327 -13.5322 -13.5178 -13.4928
   -13.3851 -13.3723  -0.6259   1.6649   5.3542   6.4197   9.2464   9.7200
     9.7227  10.9074

     occupation numbers 
     1.0000   1.0000   1.0000   1.0000   1.0000   1.0000   1.0000   1.0000
     1.0000   1.0000   1.0000   1.0000   1.0000   1.0000   0.0000   0.0000
     0.0000   0.0000

          k =-0.1414-0.3300 0.4243 (  5852 PWs)   bands (ev):

   -13.8148 -13.8035 -13.7108 -13.6499 -13.6309 -13.5329 -13.5080 -13.4937
   -13.3849 -13.3751  -0.7991   1.9288   5.3561   6.5414   9.2753   9.7201
     9.7228  10.9291

     occupation numbers 
     1.0000   1.0000   1.0000   1.0000   1.0000   1.0000   1.0000   1.0000
     1.0000   1.0000   1.0000   1.0000   1.0000   1.0000   0.0000   0.0000
     0.0000   0.0000

          k =-0.0943-0.2828 0.3771 (  5860 PWs)   bands (ev):

   -13.8095 -13.8020 -13.7191 -13.6596 -13.6333 -13.5331 -13.4950 -13.4861
   -13.3871 -13.3813  -1.1085   2.4519   5.4561   6.7266   9.3377   9.7201
     9.7230  10.8665

     occupation numbers 
     1.0000   1.0000   1.0000   1.0000   1.0000   1.0000   1.0000   1.0000
     1.0000   1.0000   1.0000   1.0000   1.0000   1.0000   0.0000   0.0000
     0.0000   0.0000

          k =-0.0471-0.2357 0.3300 (  5878 PWs)   bands (ev):

   -13.8017 -13.7987 -13.7314 -13.6688 -13.6415 -13.5276 -13.4880 -13.4688
   -13.3941 -13.3879  -1.4329   3.0874   5.6770   6.9492   9.4007   9.7202
     9.7233  10.5975

     occupation numbers 
     1.0000   1.0000   1.0000   1.0000   1.0000   1.0000   1.0000   1.0000
     1.0000   1.0000   1.0000   1.0000   1.0000   1.0000   0.0000   0.0000
     0.0000   0.0000

          k = 0.0000-0.1886 0.2828 (  5888 PWs)   bands (ev):

   -13.7945 -13.7915 -13.7444 -13.6776 -13.6537 -13.5174 -13.4800 -13.4523
   -13.4057 -13.3940  -1.7168   3.7347   6.0490   7.1624   9.3741   9.7201
     9.7233  10.2424

     occupation numbers 
     1.0000   1.0000   1.0000   1.0000   1.0000   1.0000   1.0000   1.0000
     1.0000   1.0000   1.0000   1.0000   1.0000   1.0000   0.0000   0.0000
     0.0000   0.0000

          k = 0.3771 0.0943 0.0000 (  5875 PWs)   bands (ev):

   -13.7950 -13.7936 -13.7539 -13.6645 -13.6234 -13.5598 -13.4846 -13.4361
   -13.4014 -13.3966  -1.4955   3.3402   6.0784   6.3741   9.1652   9.7181
     9.7215   9.9423

     occupation numbers 
     1.0000   1.0000   1.0000   1.0000   1.0000   1.0000   1.0000   1.0000
     1.0000   1.0000   1.0000   1.0000   1.0000   1.0000   0.0000   0.0000
     0.0000   0.0000

          k = 0.4243 0.1414-0.0471 (  5862 PWs)   bands (ev):

   -13.8046 -13.7988 -13.7390 -13.6532 -13.6114 -13.5715 -13.4965 -13.4526
   -13.3932 -13.3858  -1.2091   2.7693   5.7189   6.2184   9.3538   9.7191
     9.7219  10.0803

     occupation numbers 
     1.0000   1.0000   1.0000   1.0000   1.0000   1.0000   1.0000   1.0000
     1.0000   1.0000   1.0000   1.0000   1.0000   1.0000   0.0000   0.0000
     0.0000   0.0000

          k = 0.4714 0.1886-0.0943 (  5865 PWs)   bands (ev):

   -13.8138 -13.8025 -13.7222 -13.6420 -13.6055 -13.5759 -13.5089 -13.4708
   -13.3875 -13.3754  -0.8816   2.2056   5.3971   6.1084   9.3952   9.7198
     9.7224  10.5788

     occupation numbers 
     1.0000   1.0000   1.0000   1.0000   1.0000   1.0000   1.0000   1.0000
     1.0000   1.0000   1.0000   1.0000   1.0000   1.0000   0.0000   0.0000
     0.0000   0.0000

          k =-0.1886-0.4714 0.5657 (  5840 PWs)   bands (ev):

   -13.8205 -13.8054 -13.7074 -13.6317 -13.6071 -13.5721 -13.5215 -13.4866
   -13.3833 -13.3679  -0.5692   1.7369   5.1401   6.0823   9.3885   9.7199
     9.7226  11.1171

     occupation numbers 
     1.0000   1.0000   1.0000   1.0000   1.0000   1.0000   1.0000   1.0000
     1.0000   1.0000   1.0000   1.0000   1.0000   1.0000   0.0000   0.0000
     0.0000   0.0000

          k =-0.1414-0.4243 0.5185 (  5853 PWs)   bands (ev):

   -13.8238 -13.8071 -13.6980 -13.6254 -13.6129 -13.5622 -13.5318 -13.4965
   -13.3807 -13.3644  -0.4035   1.5113   4.9725   6.1437   9.4116   9.7201
     9.7228  11.3076

     occupation numbers 
     1.0000   1.0000   1.0000   1.0000   1.0000   1.0000   1.0000   1.0000
     1.0000   1.0000   1.0000   1.0000   1.0000   1.0000   0.0000   0.0000
     0.0000   0.0000

          k =-0.0943-0.3771 0.4714 (  5854 PWs)   bands (ev):

   -13.8231 -13.8076 -13.6961 -13.6333 -13.6141 -13.5520 -13.5315 -13.5001
   -13.3798 -13.3656  -0.5140   1.6612   4.9157   6.2841   9.4715   9.7202
     9.7232  11.3277

     occupation numbers 
     1.0000   1.0000   1.0000   1.0000   1.0000   1.0000   1.0000   1.0000
     1.0000   1.0000   1.0000   1.0000   1.0000   1.0000   0.0000   0.0000
     0.0000   0.0000

          k =-0.0471-0.3300 0.4243 (  5865 PWs)   bands (ev):

   -13.8186 -13.8067 -13.7021 -13.6476 -13.6175 -13.5476 -13.5134 -13.4988
   -13.3806 -13.3714  -0.8069   2.0792   4.9945   6.4874   9.5443   9.7203
     9.7241  11.2699

     occupation numbers 
     1.0000   1.0000   1.0000   1.0000   1.0000   1.0000   1.0000   1.0000
     1.0000   1.0000   1.0000   1.0000   1.0000   1.0000   0.0000   0.0000
     0.0000   0.0000

          k = 0.0000-0.2828 0.3771 (  5867 PWs)   bands (ev):

   -13.8107 -13.8041 -13.7152 -13.6597 -13.6276 -13.5396 -13.4949 -13.4897
   -13.3835 -13.3813  -1.1358   2.5895   5.2396   6.7259   9.5641   9.7205
     9.7248  10.9560

     occupation numbers 
     1.0000   1.0000   1.0000   1.0000   1.0000   1.0000   1.0000   1.0000
     1.0000   1.0000   1.0000   1.0000   1.0000   1.0000   0.0000   0.0000
     0.0000   0.0000

          k = 0.4714 0.0943-0.0000 (  5844 PWs)   bands (ev):

   -13.8024 -13.8021 -13.7412 -13.6418 -13.5965 -13.5902 -13.5064 -13.4476
   -13.3891 -13.3878  -1.0259   2.4921   5.7562   5.9633   8.9697   9.7032
     9.7211   9.7421

     occupation numbers 
     1.0000   1.0000   1.0000   1.0000   1.0000   1.0000   1.0000   1.0000
     1.0000   1.0000   1.0000   1.0000   1.0000   1.0000   0.0000   0.0000
     0.0000   0.0000

          k = 0.5185 0.1414-0.0471 (  5856 PWs)   bands (ev):

   -13.8118 -13.8056 -13.7231 -13.6295 -13.6071 -13.5793 -13.5196 -13.4671
   -13.3835 -13.3770  -0.7054   2.0018   5.4236   5.8443   9.1840   9.7186
     9.7217   9.9226

     occupation numbers 
     1.0000   1.0000   1.0000   1.0000   1.0000   1.0000   1.0000   1.0000
     1.0000   1.0000   1.0000   1.0000   1.0000   1.0000   0.0000   0.0000
     0.0000   0.0000

          k =-0.1414-0.5185 0.6128 (  5851 PWs)   bands (ev):

   -13.8204 -13.8082 -13.7044 -13.6176 -13.6094 -13.5754 -13.5332 -13.4866
   -13.3797 -13.3673  -0.3725   1.5551   5.0863   5.8183   9.2558   9.7197
     9.7222  10.5622

     occupation numbers 
     1.0000   1.0000   1.0000   1.0000   1.0000   1.0000   1.0000   1.0000
     1.0000   1.0000   1.0000   1.0000   1.0000   1.0000   0.0000   0.0000
     0.0000   0.0000

          k =-0.0943-0.4714 0.5657 (  5850 PWs)   bands (ev):

   -13.8262 -13.8098 -13.6914 -13.6089 -13.6001 -13.5817 -13.5455 -13.4997
   -13.3774 -13.3612  -0.1404   1.2744   4.8280   5.8831   9.3124   9.7198
     9.7223  11.3938

     occupation numbers 
     1.0000   1.0000   1.0000   1.0000   1.0000   1.0000   1.0000   1.0000
     1.0000   1.0000   1.0000   1.0000   1.0000   1.0000   0.0000   0.0000
     0.0000   0.0000

          k =-0.0471-0.4243 0.5185 (  5862 PWs)   bands (ev):

   -13.8279 -13.8102 -13.6872 -13.6103 -13.5955 -13.5796 -13.5509 -13.5040
   -13.3766 -13.3597  -0.1963   1.3428   4.7011   6.0283   9.4047   9.7200
     9.7226  11.9833

     occupation numbers 
     1.0000   1.0000   1.0000   1.0000   1.0000   1.0000   1.0000   1.0000
     1.0000   1.0000   1.0000   1.0000   1.0000   1.0000   0.0000   0.0000
     0.0000   0.0000

          k =-0.0000-0.3771 0.4714 (  5863 PWs)   bands (ev):

   -13.8253 -13.8093 -13.6909 -13.6293 -13.6038 -13.5621 -13.5386 -13.5029
   -13.3776 -13.3632  -0.4779   1.6795   4.7456   6.2386   9.5111   9.7202
     9.7234  11.8817

     occupation numbers 
     1.0000   1.0000   1.0000   1.0000   1.0000   1.0000   1.0000   1.0000
     1.0000   1.0000   1.0000   1.0000   1.0000   1.0000   0.0000   0.0000
     0.0000   0.0000

          k = 0.5657 0.0943 0.0000 (  5850 PWs)   bands (ev):

   -13.8084 -13.8082 -13.7219 -13.6327 -13.6159 -13.5564 -13.5319 -13.4674
   -13.3799 -13.3798  -0.4645   1.6726   5.5482   5.6702   8.8921   9.3891
     9.7202   9.7226

     occupation numbers 
     1.0000   1.0000   1.0000   1.0000   1.0000   1.0000   1.0000   1.0000
     1.0000   1.0000   1.0000   1.0000   1.0000   1.0000   0.0000   0.0000
     0.0000   0.0000

          k =-0.0943-0.5657 0.6600 (  5846 PWs)   bands (ev):

   -13.8166 -13.8103 -13.7017 -13.6404 -13.6027 -13.5481 -13.5460 -13.4882
   -13.3769 -13.3706  -0.1217   1.2567   5.2412   5.6154   9.0926   9.7021
     9.7212   9.7356

     occupation numbers 
     1.0000   1.0000   1.0000   1.0000   1.0000   1.0000   1.0000   1.0000
     1.0000   1.0000   1.0000   1.0000   1.0000   1.0000   0.0000   0.0000
     0.0000   0.0000

          k =-0.0471-0.5185 0.6128 (  5846 PWs)   bands (ev):

   -13.8240 -13.8114 -13.6862 -13.6343 -13.5911 -13.5598 -13.5525 -13.5037
   -13.3753 -13.3629   0.1601   0.9529   4.9204   5.6749   9.1698   9.7197
     9.7221  10.4866

     occupation numbers 
     1.0000   1.0000   1.0000   1.0000   1.0000   1.0000   1.0000   1.0000
     1.0000   1.0000   1.0000   1.0000   1.0000   1.0000   0.0000   0.0000
     0.0000   0.0000

          k = 0.0000-0.4714 0.5657 (  5860 PWs)   bands (ev):

   -13.8281 -13.8114 -13.6832 -13.6107 -13.5910 -13.5731 -13.5631 -13.5066
   -13.3751 -13.3589   0.1025   1.0238   4.7165   5.8174   9.2749   9.7198
     9.7223  11.4204

     occupation numbers 
     1.0000   1.0000   1.0000   1.0000   1.0000   1.0000   1.0000   1.0000
     1.0000   1.0000   1.0000   1.0000   1.0000   1.0000   0.0000   0.0000
     0.0000   0.0000

          k =-0.0471-0.6128 0.7071 (  5841 PWs)   bands (ev):

   -13.8116 -13.8115 -13.6967 -13.6666 -13.5880 -13.5595 -13.5235 -13.4933
   -13.3751 -13.3750   0.1802   0.8970   5.4621   5.5023   8.9391   9.1098
     9.7200   9.7223

     occupation numbers 
     1.0000   1.0000   1.0000   1.0000   1.0000   1.0000   1.0000   1.0000
     1.0000   1.0000   1.0000   1.0000   1.0000   1.0000   0.0000   0.0000
     0.0000   0.0000

          k = 0.0000-0.5657 0.6600 (  5853 PWs)   bands (ev):

   -13.8183 -13.8119 -13.6822 -13.6641 -13.5770 -13.5717 -13.5250 -13.5078
   -13.3745 -13.3683   0.4516   0.6291   5.1795   5.5387   9.0672   9.6301
     9.7207   9.7240

     occupation numbers 
     1.0000   1.0000   1.0000   1.0000   1.0000   1.0000   1.0000   1.0000
     1.0000   1.0000   1.0000   1.0000   1.0000   1.0000   0.0000   0.0000
     0.0000   0.0000

          k = 0.3771 0.1886-0.0000 (  5873 PWs)   bands (ev):

   -13.8012 -13.8008 -13.7351 -13.6628 -13.6277 -13.5498 -13.4891 -13.4607
   -13.3925 -13.3881  -1.3583   3.0137   5.6553   6.5715   9.7171   9.7205
     9.9014   9.9498

     occupation numbers 
     1.0000   1.0000   1.0000   1.0000   1.0000   1.0000   1.0000   1.0000
     1.0000   1.0000   1.0000   1.0000   1.0000   1.0000   0.0000   0.0000
     0.0000   0.0000

          k = 0.4243 0.2357-0.0471 (  5864 PWs)   bands (ev):

   -13.8109 -13.8045 -13.7191 -13.6525 -13.6174 -13.5583 -13.5001 -13.4786
   -13.3848 -13.3794  -1.0432   2.4512   5.3324   6.3752   9.7165   9.7209
     9.8463  10.4524

     occupation numbers 
     1.0000   1.0000   1.0000   1.0000   1.0000   1.0000   1.0000   1.0000
     1.0000   1.0000   1.0000   1.0000   1.0000   1.0000   0.0000   0.0000
     0.0000   0.0000

          k =-0.2357-0.4243 0.6128 (  5851 PWs)   bands (ev):

   -13.8182 -13.8069 -13.7052 -13.6420 -13.6129 -13.5604 -13.5135 -13.4925
   -13.3815 -13.3709  -0.7160   1.9339   5.1357   6.2078   9.7132   9.7208
     9.7881  10.7757

     occupation numbers 
     1.0000   1.0000   1.0000   1.0000   1.0000   1.0000   1.0000   1.0000
     1.0000   1.0000   1.0000   1.0000   1.0000   1.0000   0.0000   0.0000
     0.0000   0.0000

          k =-0.1886-0.3771 0.5657 (  5856 PWs)   bands (ev):

   -13.8221 -13.8081 -13.6972 -13.6331 -13.6139 -13.5573 -13.5261 -13.4990
   -13.3799 -13.3664  -0.4742   1.5893   5.0442   6.1142   9.7076   9.7207
     9.7597  10.8395

     occupation numbers 
     1.0000   1.0000   1.0000   1.0000   1.0000   1.0000   1.0000   1.0000
     1.0000   1.0000   1.0000   1.0000   1.0000   1.0000   0.0000   0.0000
     0.0000   0.0000

          k = 0.4714 0.1886-0.0000 (  5858 PWs)   bands (ev):

   -13.8096 -13.8074 -13.7219 -13.6420 -13.5984 -13.5840 -13.5087 -13.4707
   -13.3813 -13.3809  -0.9082   2.2914   5.3732   6.0339   9.7137   9.7198
     9.7486  10.0940

     occupation numbers 
     1.0000   1.0000   1.0000   1.0000   1.0000   1.0000   1.0000   1.0000
     1.0000   1.0000   1.0000   1.0000   1.0000   1.0000   0.0000   0.0000
     0.0000   0.0000

          k =-0.1886-0.4714 0.6600 (  5843 PWs)   bands (ev):

   -13.8181 -13.8106 -13.7032 -13.6304 -13.5939 -13.5867 -13.5225 -13.4897
   -13.3776 -13.3704  -0.5750   1.8182   5.1026   5.8644   9.7183   9.7211
     9.8961  10.5730

     occupation numbers 
     1.0000   1.0000   1.0000   1.0000   1.0000   1.0000   1.0000   1.0000
     1.0000   1.0000   1.0000   1.0000   1.0000   1.0000   0.0000   0.0000
     0.0000   0.0000

          k =-0.1414-0.4243 0.6128 (  5848 PWs)   bands (ev):

   -13.8241 -13.8122 -13.6888 -13.6204 -13.5947 -13.5835 -13.5364 -13.5031
   -13.3753 -13.3636  -0.2813   1.4402   4.9134   5.7838   9.7184   9.7213
     9.9262  11.1043

     occupation numbers 
     1.0000   1.0000   1.0000   1.0000   1.0000   1.0000   1.0000   1.0000
     1.0000   1.0000   1.0000   1.0000   1.0000   1.0000   0.0000   0.0000
     0.0000   0.0000

          k =-0.0943-0.3771 0.5657 (  5855 PWs)   bands (ev):

   -13.8262 -13.8127 -13.6833 -13.6178 -13.5939 -13.5810 -13.5433 -13.5080
   -13.3745 -13.3614  -0.1950   1.3362   4.8182   5.8139   9.7186   9.7213
     9.9841  11.1759

     occupation numbers 
     1.0000   1.0000   1.0000   1.0000   1.0000   1.0000   1.0000   1.0000
     1.0000   1.0000   1.0000   1.0000   1.0000   1.0000   0.0000   0.0000
     0.0000   0.0000

          k =-0.0471-0.3300 0.5185 (  5848 PWs)   bands (ev):

   -13.8241 -13.8120 -13.6880 -13.6273 -13.5964 -13.5765 -13.5338 -13.5052
   -13.3753 -13.3641  -0.3978   1.5858   4.8395   5.9448   9.7188   9.7214
    10.0604  11.0964

     occupation numbers 
     1.0000   1.0000   1.0000   1.0000   1.0000   1.0000   1.0000   1.0000
     1.0000   1.0000   1.0000   1.0000   1.0000   1.0000   0.0000   0.0000
     0.0000   0.0000

          k = 0.0000-0.2828 0.4714 (  5849 PWs)   bands (ev):

   -13.8183 -13.8097 -13.7013 -13.6410 -13.6042 -13.5698 -13.5147 -13.4958
   -13.3779 -13.3712  -0.7210   2.0053   5.0043   6.1484   9.7188   9.7213
    10.0926  10.7539

     occupation numbers 
     1.0000   1.0000   1.0000   1.0000   1.0000   1.0000   1.0000   1.0000
     1.0000   1.0000   1.0000   1.0000   1.0000   1.0000   0.0000   0.0000
     0.0000   0.0000

          k =-0.1414-0.5185 0.7071 (  5851 PWs)   bands (ev):

   -13.8154 -13.8132 -13.7031 -13.6179 -13.6169 -13.5677 -13.5336 -13.4874
   -13.3744 -13.3726  -0.3757   1.5773   5.2190   5.6132   9.6359   9.7190
     9.7237   9.9523

     occupation numbers 
     1.0000   1.0000   1.0000   1.0000   1.0000   1.0000   1.0000   1.0000
     1.0000   1.0000   1.0000   1.0000   1.0000   1.0000   0.0000   0.0000
     0.0000   0.0000

          k =-0.0943-0.4714 0.6600 (  5865 PWs)   bands (ev):

   -13.8224 -13.8154 -13.6831 -13.6219 -13.6046 -13.5627 -13.5483 -13.5066
   -13.3717 -13.3648  -0.0465   1.1961   4.9917   5.5039   9.7175   9.7209
     9.8187  10.5643

     occupation numbers 
     1.0000   1.0000   1.0000   1.0000   1.0000   1.0000   1.0000   1.0000
     1.0000   1.0000   1.0000   1.0000   1.0000   1.0000   0.0000   0.0000
     0.0000   0.0000

          k =-0.0471-0.4243 0.6128 (  5860 PWs)   bands (ev):

   -13.8269 -13.8157 -13.6732 -13.6134 -13.5966 -13.5706 -13.5585 -13.5153
   -13.3710 -13.3601   0.1150   1.0238   4.7995   5.5510   9.7185   9.7212
     9.9049  11.4201

     occupation numbers 
     1.0000   1.0000   1.0000   1.0000   1.0000   1.0000   1.0000   1.0000
     1.0000   1.0000   1.0000   1.0000   1.0000   1.0000   0.0000   0.0000
     0.0000   0.0000

          k = 0.0000-0.3771 0.5657 (  5862 PWs)   bands (ev):

   -13.8275 -13.8147 -13.6764 -13.6086 -13.5947 -13.5809 -13.5542 -13.5128
   -13.3721 -13.3599  -0.0746   1.2323   4.7323   5.7100   9.7188   9.7214
    10.0143  11.7168

     occupation numbers 
     1.0000   1.0000   1.0000   1.0000   1.0000   1.0000   1.0000   1.0000
     1.0000   1.0000   1.0000   1.0000   1.0000   1.0000   0.0000   0.0000
     0.0000   0.0000

          k =-0.0471-0.5185 0.7071 (  5856 PWs)   bands (ev):

   -13.8179 -13.8170 -13.6789 -13.6501 -13.5894 -13.5611 -13.5377 -13.5103
   -13.3696 -13.3688   0.2267   0.8835   5.2036   5.3341   9.6432   9.7145
     9.7241   9.7672

     occupation numbers 
     1.0000   1.0000   1.0000   1.0000   1.0000   1.0000   1.0000   1.0000
     1.0000   1.0000   1.0000   1.0000   1.0000   1.0000   0.0000   0.0000
     0.0000   0.0000

          k = 0.0000-0.4714 0.6600 (  5852 PWs)   bands (ev):

   -13.8238 -13.8173 -13.6668 -13.6416 -13.5816 -13.5719 -13.5445 -13.5212
   -13.3693 -13.3629   0.4069   0.7123   4.9688   5.3656   9.7162   9.7207
     9.7874  10.5304

     occupation numbers 
     1.0000   1.0000   1.0000   1.0000   1.0000   1.0000   1.0000   1.0000
     1.0000   1.0000   1.0000   1.0000   1.0000   1.0000   0.0000   0.0000
     0.0000   0.0000

          k =-0.1414-0.4243 0.7071 (  5887 PWs)   bands (ev):

   -13.8227 -13.8158 -13.6832 -13.6176 -13.6015 -13.5778 -13.5393 -13.5077
   -13.3714 -13.3650  -0.2401   1.4247   4.9144   5.6197   9.7192   9.7215
    10.5332  10.6348

     occupation numbers 
     1.0000   1.0000   1.0000   1.0000   1.0000   1.0000   1.0000   1.0000
     1.0000   1.0000   1.0000   1.0000   1.0000   1.0000   0.0000   0.0000
     0.0000   0.0000

          k =-0.0943-0.3771 0.6600 (  5860 PWs)   bands (ev):

   -13.8261 -13.8178 -13.6694 -13.6106 -13.6019 -13.5726 -13.5541 -13.5187
   -13.3691 -13.3610   0.0406   1.1121   4.8304   5.4699   9.7193   9.7216
    10.5660  11.1217

     occupation numbers 
     1.0000   1.0000   1.0000   1.0000   1.0000   1.0000   1.0000   1.0000
     1.0000   1.0000   1.0000   1.0000   1.0000   1.0000   0.0000   0.0000
     0.0000   0.0000

          k =-0.0471-0.4243 0.7071 (  5855 PWs)   bands (ev):

   -13.8235 -13.8209 -13.6598 -13.6321 -13.5919 -13.5654 -13.5512 -13.5269
   -13.3658 -13.3632   0.2897   0.8499   4.9841   5.2211   9.7193   9.7216
    10.6027  10.6257

     occupation numbers 
     1.0000   1.0000   1.0000   1.0000   1.0000   1.0000   1.0000   1.0000
     1.0000   1.0000   1.0000   1.0000   1.0000   1.0000   0.0000   0.0000
     0.0000   0.0000

          k =-0.0000-0.3771 0.6600 (  5851 PWs)   bands (ev):

   -13.8258 -13.8210 -13.6544 -13.6264 -13.5895 -13.5713 -13.5549 -13.5309
   -13.3657 -13.3610   0.3532   0.7908   4.8960   5.2331   9.7194   9.7217
    10.6933  11.3845

     occupation numbers 
     1.0000   1.0000   1.0000   1.0000   1.0000   1.0000   1.0000   1.0000
     1.0000   1.0000   1.0000   1.0000   1.0000   1.0000   0.0000   0.0000
     0.0000   0.0000

     the Fermi energy is     7.8701 ev

!    total energy              =    -256.22128212 Ry
     Harris-Foulkes estimate   =    -256.22128168 Ry
     estimated scf accuracy    <       0.00000094 Ry

     The total energy is the sum of the following terms:

     one-electron contribution =    -133.72378339 Ry
     hartree contribution      =      78.30740647 Ry
     xc contribution           =     -31.49827850 Ry
     ewald contribution        =    -169.30662650 Ry
     smearing contrib. (-TS)   =      -0.00000021 Ry

     convergence has been achieved in   4 iterations

     Writing output data file Sn.save
 
     init_run     :      4.52s CPU      8.35s WALL (       1 calls)
     electrons    :     77.78s CPU    152.96s WALL (       1 calls)

     Called by init_run:
     wfcinit      :      4.00s CPU      7.54s WALL (       1 calls)
     potinit      :      0.15s CPU      0.17s WALL (       1 calls)

     Called by electrons:
     c_bands      :     67.76s CPU    133.48s WALL (       5 calls)
     sum_band     :      9.67s CPU     18.80s WALL (       5 calls)
     v_of_rho     :      0.24s CPU      0.30s WALL (       5 calls)
     v_h          :      0.06s CPU      0.06s WALL (       5 calls)
     v_xc         :      0.18s CPU      0.24s WALL (       5 calls)
     mix_rho      :      0.03s CPU      0.05s WALL (       5 calls)

     Called by c_bands:
     init_us_2    :      0.15s CPU      0.21s WALL (    1320 calls)
     cegterg      :     66.43s CPU    130.99s WALL (     600 calls)

     Called by sum_band:

     Called by *egterg:
     h_psi        :     59.65s CPU    117.34s WALL (    3282 calls)
     g_psi        :      0.07s CPU      0.09s WALL (    2562 calls)
     cdiaghg      :      4.19s CPU      8.74s WALL (    3042 calls)
     cegterg:over :      3.15s CPU      6.13s WALL (    2562 calls)
     cegterg:upda :      0.29s CPU      0.37s WALL (    2562 calls)
     cegterg:last :      0.14s CPU      0.19s WALL (     840 calls)

     Called by h_psi:
     h_psi:vloc   :     57.32s CPU    112.85s WALL (    3282 calls)
     h_psi:vnl    :      2.28s CPU      4.39s WALL (    3282 calls)
     add_vuspsi   :      0.21s CPU      0.29s WALL (    3282 calls)

     General routines
     calbec       :      2.05s CPU      4.09s WALL (    3282 calls)
     fft          :      0.19s CPU      0.31s WALL (      56 calls)
     fftw         :     65.31s CPU    129.23s WALL (   90518 calls)
     davcio       :      0.01s CPU      0.08s WALL (     120 calls)
 
     Parallel routines
     fft_scatter  :     55.99s CPU    115.39s WALL (   90574 calls)
 
     PWSCF        :  1m23.21s CPU     2m43.08s WALL

 
   This run was terminated on:  12:21:54   2Mar2020            

=------------------------------------------------------------------------------=
   JOB DONE.
=------------------------------------------------------------------------------=
