
     Program PWSCF v.5.4.0 starts on 21Feb2020 at  0:51:55 

     This program is part of the open-source Quantum ESPRESSO suite
     for quantum simulation of materials; please cite
         "P. Giannozzi et al., J. Phys.:Condens. Matter 21 395502 (2009);
          URL http://www.quantum-espresso.org", 
     in publications or presentations arising from this work. More details at
     http://www.quantum-espresso.org/quote

     Parallel version (MPI & OpenMP), running on      16 processor cores
     Number of MPI processes:                16
     Threads/MPI process:                     1
     R & G space division:  proc/nbgrp/npool/nimage =      16
     Waiting for input...
     Reading input from standard input
Warning: card &IONS ignored
Warning: card / ignored
Warning: card &CELL ignored
Warning: card / ignored

     Current dimensions of program PWSCF are:
     Max number of different atomic species (ntypx) = 10
     Max number of k-points (npk) =  40000
     Max angular momentum in pseudopotentials (lmaxx) =  3

     Subspace diagonalization in iterative solution of the eigenvalue problem:
     a serial algorithm will be used

 
     Parallelization info
     --------------------
     sticks:   dense  smooth     PW     G-vecs:    dense   smooth      PW
     Min          80      80     23                 1931     1931     308
     Max          81      81     24                 1936     1936     311
     Sum        1285    1285    379                30923    30923    4957
 

     Title: 
     Sn                                                                         


     bravais-lattice index     =            0
     lattice parameter (alat)  =       8.8993  a.u.
     unit-cell volume          =     498.3785 (a.u.)^3
     number of atoms/cell      =            2
     number of atomic types    =            1
     number of electrons       =        28.00
     number of Kohn-Sham states=           18
     kinetic-energy cutoff     =      60.0000  Ry
     charge density cutoff     =     240.0000  Ry
     convergence threshold     =      1.0E-06
     mixing beta               =       0.7000
     number of iterations used =            8  plain     mixing
     Exchange-correlation      = PBE ( 1  4  3  4 0 0)

     celldm(1)=   8.899346  celldm(2)=   0.000000  celldm(3)=   0.000000
     celldm(4)=   0.000000  celldm(5)=   0.000000  celldm(6)=   0.000000

     crystal axes: (cart. coord. in units of alat)
               a(1) = (   0.000000   0.707107   0.707107 )  
               a(2) = (   0.707107   0.000000   0.707107 )  
               a(3) = (   0.707107   0.707107   0.000000 )  

     reciprocal axes: (cart. coord. in units 2 pi/alat)
               b(1) = ( -0.707107  0.707107  0.707107 )  
               b(2) = (  0.707107 -0.707107  0.707107 )  
               b(3) = (  0.707107  0.707107 -0.707107 )  


     PseudoPot. # 1 for Sn read from file:
     ../PseudopotentialDatabase/Sn_ONCV_PBE_FR-1.1.upf
     MD5 check sum: 6dd2180f739ea5ae1610ead5e1628a0e
     Pseudo is Norm-conserving, Zval = 14.0
     Generated using ONCVPSP code by D. R. Hamann
     Using radial grid of  602 points,  6 beta functions with: 
                l(1) =   0
                l(2) =   0
                l(3) =   1
                l(4) =   1
                l(5) =   2
                l(6) =   2

     atomic species   valence    mass     pseudopotential
        Sn            14.00   118.71000     Sn( 1.00)

     24 Sym. Ops. (no inversion) found
          (note: 24 additional sym.ops. were found but ignored
           their fractional translations are incommensurate with FFT grid)

                                    s                        frac. trans.

      isym =  1     identity                                     

 cryst.   s( 1) = (     1          0          0      )
                  (     0          1          0      )
                  (     0          0          1      )

 cart.    s( 1) = (  1.0000000  0.0000000  0.0000000 )
                  (  0.0000000  1.0000000  0.0000000 )
                  (  0.0000000  0.0000000  1.0000000 )


      isym =  2     180 deg rotation - cart. axis [0,0,1]        

 cryst.   s( 2) = (     0          1         -1      )
                  (     1          0         -1      )
                  (     0          0         -1      )

 cart.    s( 2) = ( -1.0000000  0.0000000  0.0000000 )
                  (  0.0000000 -1.0000000  0.0000000 )
                  (  0.0000000  0.0000000  1.0000000 )


      isym =  3     180 deg rotation - cart. axis [0,1,0]        

 cryst.   s( 3) = (     0         -1          1      )
                  (     0         -1          0      )
                  (     1         -1          0      )

 cart.    s( 3) = ( -1.0000000  0.0000000  0.0000000 )
                  (  0.0000000  1.0000000  0.0000000 )
                  (  0.0000000  0.0000000 -1.0000000 )


      isym =  4     180 deg rotation - cart. axis [1,0,0]        

 cryst.   s( 4) = (    -1          0          0      )
                  (    -1          0          1      )
                  (    -1          1          0      )

 cart.    s( 4) = (  1.0000000  0.0000000  0.0000000 )
                  (  0.0000000 -1.0000000  0.0000000 )
                  (  0.0000000  0.0000000 -1.0000000 )


      isym =  5     120 deg rotation - cart. axis [-1,-1,-1]     

 cryst.   s( 5) = (     0          0          1      )
                  (     1          0          0      )
                  (     0          1          0      )

 cart.    s( 5) = (  0.0000000  1.0000000  0.0000000 )
                  (  0.0000000  0.0000000  1.0000000 )
                  (  1.0000000  0.0000000  0.0000000 )


      isym =  6     120 deg rotation - cart. axis [-1,1,1]       

 cryst.   s( 6) = (     1         -1          0      )
                  (     0         -1          1      )
                  (     0         -1          0      )

 cart.    s( 6) = (  0.0000000 -1.0000000  0.0000000 )
                  (  0.0000000  0.0000000  1.0000000 )
                  ( -1.0000000  0.0000000  0.0000000 )


      isym =  7     120 deg rotation - cart. axis [1,1,-1]       

 cryst.   s( 7) = (    -1          1          0      )
                  (    -1          0          0      )
                  (    -1          0          1      )

 cart.    s( 7) = (  0.0000000  1.0000000  0.0000000 )
                  (  0.0000000  0.0000000 -1.0000000 )
                  ( -1.0000000  0.0000000  0.0000000 )


      isym =  8     120 deg rotation - cart. axis [1,-1,1]       

 cryst.   s( 8) = (     0          0         -1      )
                  (     0          1         -1      )
                  (     1          0         -1      )

 cart.    s( 8) = (  0.0000000 -1.0000000  0.0000000 )
                  (  0.0000000  0.0000000 -1.0000000 )
                  (  1.0000000  0.0000000  0.0000000 )


      isym =  9     120 deg rotation - cart. axis [1,1,1]        

 cryst.   s( 9) = (     0          1          0      )
                  (     0          0          1      )
                  (     1          0          0      )

 cart.    s( 9) = (  0.0000000  0.0000000  1.0000000 )
                  (  1.0000000  0.0000000  0.0000000 )
                  (  0.0000000  1.0000000  0.0000000 )


      isym = 10     120 deg rotation - cart. axis [-1,1,-1]      

 cryst.   s(10) = (    -1          0          1      )
                  (    -1          1          0      )
                  (    -1          0          0      )

 cart.    s(10) = (  0.0000000  0.0000000  1.0000000 )
                  ( -1.0000000  0.0000000  0.0000000 )
                  (  0.0000000 -1.0000000  0.0000000 )


      isym = 11     120 deg rotation - cart. axis [1,-1,-1]      

 cryst.   s(11) = (     1          0         -1      )
                  (     0          0         -1      )
                  (     0          1         -1      )

 cart.    s(11) = (  0.0000000  0.0000000 -1.0000000 )
                  ( -1.0000000  0.0000000  0.0000000 )
                  (  0.0000000  1.0000000  0.0000000 )


      isym = 12     120 deg rotation - cart. axis [-1,-1,1]      

 cryst.   s(12) = (     0         -1          0      )
                  (     1         -1          0      )
                  (     0         -1          1      )

 cart.    s(12) = (  0.0000000  0.0000000 -1.0000000 )
                  (  1.0000000  0.0000000  0.0000000 )
                  (  0.0000000 -1.0000000  0.0000000 )


      isym = 13     inv. 180 deg rotation - cart. axis [1,1,0]   

 cryst.   s(13) = (     1          0         -1      )
                  (     0          1         -1      )
                  (     0          0         -1      )

 cart.    s(13) = (  0.0000000 -1.0000000  0.0000000 )
                  ( -1.0000000  0.0000000  0.0000000 )
                  (  0.0000000  0.0000000  1.0000000 )


      isym = 14     inv. 180 deg rotation - cart. axis [1,-1,0]  

 cryst.   s(14) = (     0          1          0      )
                  (     1          0          0      )
                  (     0          0          1      )

 cart.    s(14) = (  0.0000000  1.0000000  0.0000000 )
                  (  1.0000000  0.0000000  0.0000000 )
                  (  0.0000000  0.0000000  1.0000000 )


      isym = 15     inv.  90 deg rotation - cart. axis [0,0,-1]  

 cryst.   s(15) = (     0         -1          0      )
                  (     0         -1          1      )
                  (     1         -1          0      )

 cart.    s(15) = (  0.0000000 -1.0000000  0.0000000 )
                  (  1.0000000  0.0000000  0.0000000 )
                  (  0.0000000  0.0000000 -1.0000000 )


      isym = 16     inv.  90 deg rotation - cart. axis [0,0,1]   

 cryst.   s(16) = (    -1          0          1      )
                  (    -1          0          0      )
                  (    -1          1          0      )

 cart.    s(16) = (  0.0000000  1.0000000  0.0000000 )
                  ( -1.0000000  0.0000000  0.0000000 )
                  (  0.0000000  0.0000000 -1.0000000 )


      isym = 17     inv. 180 deg rotation - cart. axis [1,0,1]   

 cryst.   s(17) = (     1         -1          0      )
                  (     0         -1          0      )
                  (     0         -1          1      )

 cart.    s(17) = (  0.0000000  0.0000000 -1.0000000 )
                  (  0.0000000  1.0000000  0.0000000 )
                  ( -1.0000000  0.0000000  0.0000000 )


      isym = 18     inv. 180 deg rotation - cart. axis [-1,0,1]  

 cryst.   s(18) = (     0          0          1      )
                  (     0          1          0      )
                  (     1          0          0      )

 cart.    s(18) = (  0.0000000  0.0000000  1.0000000 )
                  (  0.0000000  1.0000000  0.0000000 )
                  (  1.0000000  0.0000000  0.0000000 )


      isym = 19     inv.  90 deg rotation - cart. axis [0,1,0]   

 cryst.   s(19) = (     0          0         -1      )
                  (     1          0         -1      )
                  (     0          1         -1      )

 cart.    s(19) = (  0.0000000  0.0000000 -1.0000000 )
                  (  0.0000000 -1.0000000  0.0000000 )
                  (  1.0000000  0.0000000  0.0000000 )


      isym = 20     inv.  90 deg rotation - cart. axis [0,-1,0]  

 cryst.   s(20) = (    -1          1          0      )
                  (    -1          0          1      )
                  (    -1          0          0      )

 cart.    s(20) = (  0.0000000  0.0000000  1.0000000 )
                  (  0.0000000 -1.0000000  0.0000000 )
                  ( -1.0000000  0.0000000  0.0000000 )


      isym = 21     inv. 180 deg rotation - cart. axis [0,1,1]   

 cryst.   s(21) = (    -1          0          0      )
                  (    -1          1          0      )
                  (    -1          0          1      )

 cart.    s(21) = (  1.0000000  0.0000000  0.0000000 )
                  (  0.0000000  0.0000000 -1.0000000 )
                  (  0.0000000 -1.0000000  0.0000000 )


      isym = 22     inv. 180 deg rotation - cart. axis [0,1,-1]  

 cryst.   s(22) = (     1          0          0      )
                  (     0          0          1      )
                  (     0          1          0      )

 cart.    s(22) = (  1.0000000  0.0000000  0.0000000 )
                  (  0.0000000  0.0000000  1.0000000 )
                  (  0.0000000  1.0000000  0.0000000 )


      isym = 23     inv.  90 deg rotation - cart. axis [-1,0,0]  

 cryst.   s(23) = (     0          1         -1      )
                  (     0          0         -1      )
                  (     1          0         -1      )

 cart.    s(23) = ( -1.0000000  0.0000000  0.0000000 )
                  (  0.0000000  0.0000000 -1.0000000 )
                  (  0.0000000  1.0000000  0.0000000 )


      isym = 24     inv.  90 deg rotation - cart. axis [1,0,0]   

 cryst.   s(24) = (     0         -1          1      )
                  (     1         -1          0      )
                  (     0         -1          0      )

 cart.    s(24) = ( -1.0000000  0.0000000  0.0000000 )
                  (  0.0000000  0.0000000  1.0000000 )
                  (  0.0000000 -1.0000000  0.0000000 )


   Cartesian axes

     site n.     atom                  positions (alat units)
         1           Sn  tau(   1) = (   0.0000000   0.0000000   0.0000000  )
         2           Sn  tau(   2) = (   0.3535534   0.3535534   0.3535534  )

   Crystallographic axes

     site n.     atom                  positions (cryst. coord.)
         1           Sn  tau(   1) = (  0.0000000  0.0000000  0.0000000  )
         2           Sn  tau(   2) = (  0.2500000  0.2500000  0.2500000  )

     number of k points=    47  gaussian smearing, width (Ry)=  0.0100
                       cart. coord. in units 2pi/alat
        k(    1) = (   0.0000000   0.0000000   0.0000000), wk =   0.0020000
        k(    2) = (   0.0707107   0.0707107  -0.0707107), wk =   0.0160000
        k(    3) = (   0.1414214   0.1414214  -0.1414214), wk =   0.0160000
        k(    4) = (   0.2121320   0.2121320  -0.2121320), wk =   0.0160000
        k(    5) = (   0.2828427   0.2828427  -0.2828427), wk =   0.0160000
        k(    6) = (  -0.3535534  -0.3535534   0.3535534), wk =   0.0080000
        k(    7) = (   0.1414214   0.0000000   0.0000000), wk =   0.0120000
        k(    8) = (   0.2121320   0.0707107  -0.0707107), wk =   0.0480000
        k(    9) = (   0.2828427   0.1414214  -0.1414214), wk =   0.0480000
        k(   10) = (   0.3535534   0.2121320  -0.2121320), wk =   0.0480000
        k(   11) = (  -0.2828427  -0.4242641   0.4242641), wk =   0.0480000
        k(   12) = (  -0.2121320  -0.3535534   0.3535534), wk =   0.0480000
        k(   13) = (  -0.1414214  -0.2828427   0.2828427), wk =   0.0480000
        k(   14) = (  -0.0707107  -0.2121320   0.2121320), wk =   0.0480000
        k(   15) = (   0.0000000  -0.1414214   0.1414214), wk =   0.0240000
        k(   16) = (   0.2828427   0.0000000   0.0000000), wk =   0.0120000
        k(   17) = (   0.3535534   0.0707107  -0.0707107), wk =   0.0480000
        k(   18) = (   0.4242641   0.1414214  -0.1414214), wk =   0.0480000
        k(   19) = (  -0.2121320  -0.4949747   0.4949747), wk =   0.0480000
        k(   20) = (  -0.1414214  -0.4242641   0.4242641), wk =   0.0480000
        k(   21) = (  -0.0707107  -0.3535534   0.3535534), wk =   0.0480000
        k(   22) = (   0.0000000  -0.2828427   0.2828427), wk =   0.0240000
        k(   23) = (   0.4242641   0.0000000   0.0000000), wk =   0.0120000
        k(   24) = (   0.4949747   0.0707107  -0.0707107), wk =   0.0480000
        k(   25) = (  -0.1414214  -0.5656854   0.5656854), wk =   0.0480000
        k(   26) = (  -0.0707107  -0.4949747   0.4949747), wk =   0.0480000
        k(   27) = (  -0.0000000  -0.4242641   0.4242641), wk =   0.0240000
        k(   28) = (   0.5656854   0.0000000   0.0000000), wk =   0.0120000
        k(   29) = (  -0.0707107  -0.6363961   0.6363961), wk =   0.0480000
        k(   30) = (   0.0000000  -0.5656854   0.5656854), wk =   0.0240000
        k(   31) = (  -0.7071068   0.0000000   0.0000000), wk =   0.0060000
        k(   32) = (   0.2828427   0.1414214   0.0000000), wk =   0.0480000
        k(   33) = (   0.3535534   0.2121320  -0.0707107), wk =   0.0960000
        k(   34) = (  -0.2828427  -0.4242641   0.5656854), wk =   0.0960000
        k(   35) = (  -0.2121320  -0.3535534   0.4949747), wk =   0.0480000
        k(   36) = (   0.4242641   0.1414214  -0.0000000), wk =   0.0480000
        k(   37) = (  -0.2121320  -0.4949747   0.6363961), wk =   0.0960000
        k(   38) = (  -0.1414214  -0.4242641   0.5656854), wk =   0.0960000
        k(   39) = (  -0.0707107  -0.3535534   0.4949747), wk =   0.0960000
        k(   40) = (   0.0000000  -0.2828427   0.4242641), wk =   0.0480000
        k(   41) = (  -0.1414214  -0.5656854   0.7071068), wk =   0.0480000
        k(   42) = (  -0.0707107  -0.4949747   0.6363961), wk =   0.0960000
        k(   43) = (  -0.0000000  -0.4242641   0.5656854), wk =   0.0480000
        k(   44) = (  -0.7071068   0.1414214   0.0000000), wk =   0.0240000
        k(   45) = (  -0.1414214  -0.4242641   0.7071068), wk =   0.0480000
        k(   46) = (  -0.0707107  -0.3535534   0.6363961), wk =   0.0480000
        k(   47) = (  -0.7071068   0.2828427   0.0000000), wk =   0.0240000

                       cryst. coord.
        k(    1) = (   0.0000000   0.0000000   0.0000000), wk =   0.0020000
        k(    2) = (   0.0000000   0.0000000   0.1000000), wk =   0.0160000
        k(    3) = (   0.0000000   0.0000000   0.2000000), wk =   0.0160000
        k(    4) = (   0.0000000   0.0000000   0.3000000), wk =   0.0160000
        k(    5) = (   0.0000000   0.0000000   0.4000000), wk =   0.0160000
        k(    6) = (   0.0000000   0.0000000  -0.5000000), wk =   0.0080000
        k(    7) = (   0.0000000   0.1000000   0.1000000), wk =   0.0120000
        k(    8) = (   0.0000000   0.1000000   0.2000000), wk =   0.0480000
        k(    9) = (   0.0000000   0.1000000   0.3000000), wk =   0.0480000
        k(   10) = (   0.0000000   0.1000000   0.4000000), wk =   0.0480000
        k(   11) = (   0.0000000   0.1000000  -0.5000000), wk =   0.0480000
        k(   12) = (   0.0000000   0.1000000  -0.4000000), wk =   0.0480000
        k(   13) = (   0.0000000   0.1000000  -0.3000000), wk =   0.0480000
        k(   14) = (   0.0000000   0.1000000  -0.2000000), wk =   0.0480000
        k(   15) = (   0.0000000   0.1000000  -0.1000000), wk =   0.0240000
        k(   16) = (   0.0000000   0.2000000   0.2000000), wk =   0.0120000
        k(   17) = (   0.0000000   0.2000000   0.3000000), wk =   0.0480000
        k(   18) = (   0.0000000   0.2000000   0.4000000), wk =   0.0480000
        k(   19) = (   0.0000000   0.2000000  -0.5000000), wk =   0.0480000
        k(   20) = (   0.0000000   0.2000000  -0.4000000), wk =   0.0480000
        k(   21) = (   0.0000000   0.2000000  -0.3000000), wk =   0.0480000
        k(   22) = (   0.0000000   0.2000000  -0.2000000), wk =   0.0240000
        k(   23) = (   0.0000000   0.3000000   0.3000000), wk =   0.0120000
        k(   24) = (   0.0000000   0.3000000   0.4000000), wk =   0.0480000
        k(   25) = (   0.0000000   0.3000000  -0.5000000), wk =   0.0480000
        k(   26) = (   0.0000000   0.3000000  -0.4000000), wk =   0.0480000
        k(   27) = (   0.0000000   0.3000000  -0.3000000), wk =   0.0240000
        k(   28) = (   0.0000000   0.4000000   0.4000000), wk =   0.0120000
        k(   29) = (   0.0000000   0.4000000  -0.5000000), wk =   0.0480000
        k(   30) = (   0.0000000   0.4000000  -0.4000000), wk =   0.0240000
        k(   31) = (   0.0000000  -0.5000000  -0.5000000), wk =   0.0060000
        k(   32) = (   0.1000000   0.2000000   0.3000000), wk =   0.0480000
        k(   33) = (   0.1000000   0.2000000   0.4000000), wk =   0.0960000
        k(   34) = (   0.1000000   0.2000000  -0.5000000), wk =   0.0960000
        k(   35) = (   0.1000000   0.2000000  -0.4000000), wk =   0.0480000
        k(   36) = (   0.1000000   0.3000000   0.4000000), wk =   0.0480000
        k(   37) = (   0.1000000   0.3000000  -0.5000000), wk =   0.0960000
        k(   38) = (   0.1000000   0.3000000  -0.4000000), wk =   0.0960000
        k(   39) = (   0.1000000   0.3000000  -0.3000000), wk =   0.0960000
        k(   40) = (   0.1000000   0.3000000  -0.2000000), wk =   0.0480000
        k(   41) = (   0.1000000   0.4000000  -0.5000000), wk =   0.0480000
        k(   42) = (   0.1000000   0.4000000  -0.4000000), wk =   0.0960000
        k(   43) = (   0.1000000   0.4000000  -0.3000000), wk =   0.0480000
        k(   44) = (   0.1000000  -0.5000000  -0.4000000), wk =   0.0240000
        k(   45) = (   0.2000000   0.4000000  -0.4000000), wk =   0.0480000
        k(   46) = (   0.2000000   0.4000000  -0.3000000), wk =   0.0480000
        k(   47) = (   0.2000000  -0.5000000  -0.3000000), wk =   0.0240000

     Dense  grid:    30923 G-vectors     FFT dimensions: (  45,  45,  45)

     Largest allocated arrays     est. size (Mb)     dimensions
        Kohn-Sham Wavefunctions         0.07 Mb     (     252,   18)
        NL pseudopotentials             0.14 Mb     (     252,   36)
        Each V/rho on FFT grid          0.09 Mb     (    6075)
        Each G-vector array             0.01 Mb     (    1932)
        G-vector shells                 0.00 Mb     (     313)
     Largest temporary arrays     est. size (Mb)     dimensions
        Auxiliary wavefunctions         0.28 Mb     (     252,   72)
        Each subspace H/S matrix        0.08 Mb     (      72,   72)
        Each <psi_i|beta_j> matrix      0.01 Mb     (      36,   18)
        Arrays for rho mixing           0.74 Mb     (    6075,    8)

     Initial potential from superposition of free atoms

     starting charge   27.82601, renormalised to   28.00000
     Starting wfc are random

     total cpu time spent up to now is        0.8 secs

     Self-consistent Calculation

     iteration #  1     ecut=    60.00 Ry     beta=0.70
     Davidson diagonalization with overlap
     ethr =  1.00E-02,  avg # of iterations =  7.0

     total cpu time spent up to now is        4.9 secs

     total energy              =    -233.14004715 Ry
     Harris-Foulkes estimate   =    -234.57570890 Ry
     estimated scf accuracy    <       2.29139164 Ry

     iteration #  2     ecut=    60.00 Ry     beta=0.70
     Davidson diagonalization with overlap
     ethr =  8.18E-03,  avg # of iterations =  2.0

     total cpu time spent up to now is        6.6 secs

     total energy              =    -233.44527112 Ry
     Harris-Foulkes estimate   =    -233.46958045 Ry
     estimated scf accuracy    <       0.06235062 Ry

     iteration #  3     ecut=    60.00 Ry     beta=0.70
     Davidson diagonalization with overlap
     ethr =  2.23E-04,  avg # of iterations =  2.2

     total cpu time spent up to now is        8.0 secs

     total energy              =    -233.44816736 Ry
     Harris-Foulkes estimate   =    -233.44903495 Ry
     estimated scf accuracy    <       0.00284849 Ry

     iteration #  4     ecut=    60.00 Ry     beta=0.70
     Davidson diagonalization with overlap
     ethr =  1.02E-05,  avg # of iterations =  2.1

     total cpu time spent up to now is        9.4 secs

     total energy              =    -233.44831938 Ry
     Harris-Foulkes estimate   =    -233.44831731 Ry
     estimated scf accuracy    <       0.00002795 Ry

     iteration #  5     ecut=    60.00 Ry     beta=0.70
     Davidson diagonalization with overlap
     ethr =  9.98E-08,  avg # of iterations =  2.8

     total cpu time spent up to now is       11.0 secs

     End of self-consistent calculation

          k = 0.0000 0.0000 0.0000 (  3839 PWs)   bands (ev):

   -12.3724 -12.3724 -12.3724 -12.3207 -12.3207 -12.1083 -12.1083 -12.1083
   -12.0986 -12.0986  -2.3996   5.2268   8.6190   8.6190   8.6190  10.8768
    10.8768  10.8768

     occupation numbers 
     1.0000   1.0000   1.0000   1.0000   1.0000   1.0000   1.0000   1.0000
     1.0000   1.0000   1.0000   1.0000   0.0019   0.0019   0.0019   0.0000
     0.0000   0.0000

          k = 0.0707 0.0707-0.0707 (  3876 PWs)   bands (ev):

   -12.3771 -12.3771 -12.3706 -12.3139 -12.3139 -12.1184 -12.1184 -12.1107
   -12.0897 -12.0897  -2.3149   4.8248   8.4507   8.4507   8.5414  11.0943
    11.0943  11.1043

     occupation numbers 
     1.0000   1.0000   1.0000   1.0000   1.0000   1.0000   1.0000   1.0000
     1.0000   1.0000   1.0000   1.0000   0.1253   0.1253   0.0182   0.0000
     0.0000   0.0000

          k = 0.1414 0.1414-0.1414 (  3897 PWs)   bands (ev):

   -12.3858 -12.3858 -12.3660 -12.3003 -12.3003 -12.1311 -12.1311 -12.1169
   -12.0801 -12.0801  -2.0680   3.9091   8.1104   8.1104   8.2725  11.5338
    11.5338  11.8874

     occupation numbers 
     1.0000   1.0000   1.0000   1.0000   1.0000   1.0000   1.0000   1.0000
     1.0000   1.0000   1.0000   1.0000   0.9915   0.9915   0.7588   0.0000
     0.0000   0.0000

          k = 0.2121 0.2121-0.2121 (  3891 PWs)   bands (ev):

   -12.3927 -12.3927 -12.3601 -12.2880 -12.2880 -12.1406 -12.1406 -12.1249
   -12.0737 -12.0737  -1.6886   2.8824   7.7939   7.7939   7.9696  11.8954
    11.8954  13.0739

     occupation numbers 
     1.0000   1.0000   1.0000   1.0000   1.0000   1.0000   1.0000   1.0000
     1.0000   1.0000   1.0000   1.0000   1.0000   1.0000   0.9999   0.0000
     0.0000   0.0000

          k = 0.2828 0.2828-0.2828 (  3882 PWs)   bands (ev):

   -12.3966 -12.3966 -12.3550 -12.2805 -12.2805 -12.1455 -12.1455 -12.1316
   -12.0704 -12.0704  -1.2674   2.0225   7.5843   7.5843   7.7625  12.0681
    12.0681  14.3205

     occupation numbers 
     1.0000   1.0000   1.0000   1.0000   1.0000   1.0000   1.0000   1.0000
     1.0000   1.0000   1.0000   1.0000   1.0000   1.0000   1.0000   0.0000
     0.0000   0.0000

          k =-0.3536-0.3536 0.3536 (  3852 PWs)   bands (ev):

   -12.3978 -12.3978 -12.3530 -12.2782 -12.2782 -12.1468 -12.1468 -12.1342
   -12.0694 -12.0694  -1.0503   1.6522   7.5119   7.5119   7.6910  12.1097
    12.1097  14.5179

     occupation numbers 
     1.0000   1.0000   1.0000   1.0000   1.0000   1.0000   1.0000   1.0000
     1.0000   1.0000   1.0000   1.0000   1.0000   1.0000   1.0000   0.0000
     0.0000   0.0000

          k = 0.1414 0.0000 0.0000 (  3871 PWs)   bands (ev):

   -12.3764 -12.3764 -12.3751 -12.3151 -12.3071 -12.1347 -12.1039 -12.1028
   -12.1028 -12.0852  -2.2862   4.7198   8.1834   8.1834   9.0626  10.4980
    11.4534  11.4534

     occupation numbers 
     1.0000   1.0000   1.0000   1.0000   1.0000   1.0000   1.0000   1.0000
     1.0000   1.0000   1.0000   1.0000   0.9484   0.9484   0.0000   0.0000
     0.0000   0.0000

          k = 0.2121 0.0707-0.0707 (  3889 PWs)   bands (ev):

   -12.3864 -12.3828 -12.3696 -12.3053 -12.2925 -12.1514 -12.1177 -12.1043
   -12.0901 -12.0774  -2.0916   4.0299   7.7480   7.8238   9.2064  10.5620
    11.9683  12.0712

     occupation numbers 
     1.0000   1.0000   1.0000   1.0000   1.0000   1.0000   1.0000   1.0000
     1.0000   1.0000   1.0000   1.0000   1.0000   1.0000   0.0000   0.0000
     0.0000   0.0000

          k = 0.2828 0.1414-0.1414 (  3890 PWs)   bands (ev):

   -12.3965 -12.3903 -12.3601 -12.2925 -12.2786 -12.1632 -12.1307 -12.1150
   -12.0800 -12.0683  -1.7508   3.0904   7.2559   7.5299   9.0386  11.1113
    12.3583  12.8164

     occupation numbers 
     1.0000   1.0000   1.0000   1.0000   1.0000   1.0000   1.0000   1.0000
     1.0000   1.0000   1.0000   1.0000   1.0000   1.0000   0.0000   0.0000
     0.0000   0.0000

          k = 0.3536 0.2121-0.2121 (  3898 PWs)   bands (ev):

   -12.4033 -12.3959 -12.3497 -12.2814 -12.2712 -12.1665 -12.1417 -12.1282
   -12.0727 -12.0622  -1.3248   2.1930   6.8714   7.3667   8.8205  11.6221
    12.4896  13.6582

     occupation numbers 
     1.0000   1.0000   1.0000   1.0000   1.0000   1.0000   1.0000   1.0000
     1.0000   1.0000   1.0000   1.0000   1.0000   1.0000   0.0000   0.0000
     0.0000   0.0000

          k =-0.2828-0.4243 0.4243 (  3915 PWs)   bands (ev):

   -12.4061 -12.3993 -12.3428 -12.2735 -12.2718 -12.1602 -12.1508 -12.1391
   -12.0676 -12.0602  -0.9982   1.6345   6.6510   7.3557   8.6764  11.8940
    12.4215  14.3981

     occupation numbers 
     1.0000   1.0000   1.0000   1.0000   1.0000   1.0000   1.0000   1.0000
     1.0000   1.0000   1.0000   1.0000   1.0000   1.0000   0.0002   0.0000
     0.0000   0.0000

          k =-0.2121-0.3536 0.3536 (  3908 PWs)   bands (ev):

   -12.4047 -12.4003 -12.3426 -12.2778 -12.2701 -12.1568 -12.1472 -12.1442
   -12.0650 -12.0630  -1.0777   1.7623   6.6134   7.4956   8.6429  12.0380
    12.2433  14.3142

     occupation numbers 
     1.0000   1.0000   1.0000   1.0000   1.0000   1.0000   1.0000   1.0000
     1.0000   1.0000   1.0000   1.0000   1.0000   1.0000   0.0008   0.0000
     0.0000   0.0000

          k =-0.1414-0.2828 0.2828 (  3903 PWs)   bands (ev):

   -12.3992 -12.3984 -12.3494 -12.2864 -12.2739 -12.1566 -12.1441 -12.1295
   -12.0704 -12.0654  -1.4716   2.4756   6.7736   7.7655   8.7123  11.9549
    12.0234  13.3682

     occupation numbers 
     1.0000   1.0000   1.0000   1.0000   1.0000   1.0000   1.0000   1.0000
     1.0000   1.0000   1.0000   1.0000   1.0000   1.0000   0.0001   0.0000
     0.0000   0.0000

          k =-0.0707-0.2121 0.2121 (  3910 PWs)   bands (ev):

   -12.3931 -12.3904 -12.3596 -12.2970 -12.2856 -12.1484 -12.1377 -12.1123
   -12.0821 -12.0697  -1.8804   3.4103   7.1492   8.1125   8.8192  11.5420
    11.5878  12.6028

     occupation numbers 
     1.0000   1.0000   1.0000   1.0000   1.0000   1.0000   1.0000   1.0000
     1.0000   1.0000   1.0000   1.0000   1.0000   0.9910   0.0000   0.0000
     0.0000   0.0000

          k = 0.0000-0.1414 0.1414 (  3885 PWs)   bands (ev):

   -12.3849 -12.3807 -12.3682 -12.3081 -12.3013 -12.1345 -12.1270 -12.0986
   -12.0969 -12.0780  -2.1755   4.2923   7.7463   8.4123   8.7872  11.1001
    11.1531  11.9338

     occupation numbers 
     1.0000   1.0000   1.0000   1.0000   1.0000   1.0000   1.0000   1.0000
     1.0000   1.0000   1.0000   1.0000   1.0000   0.2264   0.0000   0.0000
     0.0000   0.0000

          k = 0.2828 0.0000 0.0000 (  3903 PWs)   bands (ev):

   -12.3863 -12.3863 -12.3748 -12.2990 -12.2759 -12.1749 -12.1193 -12.0888
   -12.0888 -12.0824  -1.9491   3.6642   7.4570   7.4570   9.7909   9.9155
    12.5880  12.5881

     occupation numbers 
     1.0000   1.0000   1.0000   1.0000   1.0000   1.0000   1.0000   1.0000
     1.0000   1.0000   1.0000   1.0000   1.0000   1.0000   0.0000   0.0000
     0.0000   0.0000

          k = 0.3536 0.0707-0.0707 (  3921 PWs)   bands (ev):

   -12.3970 -12.3926 -12.3641 -12.2866 -12.2587 -12.1936 -12.1323 -12.1001
   -12.0792 -12.0700  -1.6520   2.9596   6.9858   7.1611   9.7978  10.1508
    13.0482  13.1034

     occupation numbers 
     1.0000   1.0000   1.0000   1.0000   1.0000   1.0000   1.0000   1.0000
     1.0000   1.0000   1.0000   1.0000   1.0000   1.0000   0.0000   0.0000
     0.0000   0.0000

          k = 0.4243 0.1414-0.1414 (  3917 PWs)   bands (ev):

   -12.4085 -12.3985 -12.3467 -12.2731 -12.2484 -12.2026 -12.1470 -12.1202
   -12.0702 -12.0570  -1.2398   2.1621   6.4459   7.0036   9.6268  10.9074
    13.1635  13.3096

     occupation numbers 
     1.0000   1.0000   1.0000   1.0000   1.0000   1.0000   1.0000   1.0000
     1.0000   1.0000   1.0000   1.0000   1.0000   1.0000   0.0000   0.0000
     0.0000   0.0000

          k =-0.2121-0.4950 0.4950 (  3917 PWs)   bands (ev):

   -12.4159 -12.4027 -12.3307 -12.2610 -12.2500 -12.1979 -12.1612 -12.1386
   -12.0635 -12.0491  -0.8394   1.5266   6.0501   7.0081   9.4752  11.6472
    13.2127  13.4954

     occupation numbers 
     1.0000   1.0000   1.0000   1.0000   1.0000   1.0000   1.0000   1.0000
     1.0000   1.0000   1.0000   1.0000   1.0000   1.0000   0.0000   0.0000
     0.0000   0.0000

          k =-0.1414-0.4243 0.4243 (  3911 PWs)   bands (ev):

   -12.4175 -12.4047 -12.3233 -12.2617 -12.2531 -12.1817 -12.1723 -12.1484
   -12.0596 -12.0482  -0.7722   1.4307   5.8788   7.1726   9.3998  12.0476
    12.9248  13.8843

     occupation numbers 
     1.0000   1.0000   1.0000   1.0000   1.0000   1.0000   1.0000   1.0000
     1.0000   1.0000   1.0000   1.0000   1.0000   1.0000   0.0000   0.0000
     0.0000   0.0000

          k =-0.0707-0.3536 0.3536 (  3911 PWs)   bands (ev):

   -12.4126 -12.4040 -12.3285 -12.2766 -12.2549 -12.1743 -12.1599 -12.1468
   -12.0590 -12.0550  -1.1196   1.9539   5.9770   7.4700   9.3697  12.2200
    12.4906  13.2123

     occupation numbers 
     1.0000   1.0000   1.0000   1.0000   1.0000   1.0000   1.0000   1.0000
     1.0000   1.0000   1.0000   1.0000   1.0000   1.0000   0.0000   0.0000
     0.0000   0.0000

          k = 0.0000-0.2828 0.2828 (  3911 PWs)   bands (ev):

   -12.4023 -12.4000 -12.3439 -12.2884 -12.2680 -12.1646 -12.1479 -12.1279
   -12.0684 -12.0624  -1.5463   2.7035   6.3923   7.8322   9.2444  11.8970
    11.9592  12.8306

     occupation numbers 
     1.0000   1.0000   1.0000   1.0000   1.0000   1.0000   1.0000   1.0000
     1.0000   1.0000   1.0000   1.0000   1.0000   1.0000   0.0000   0.0000
     0.0000   0.0000

          k = 0.4243 0.0000 0.0000 (  3936 PWs)   bands (ev):

   -12.3975 -12.3975 -12.3640 -12.2740 -12.2365 -12.2205 -12.1435 -12.0942
   -12.0725 -12.0725  -1.3974   2.4872   6.8485   6.8485   9.5141  10.0481
    13.8263  13.8264

     occupation numbers 
     1.0000   1.0000   1.0000   1.0000   1.0000   1.0000   1.0000   1.0000
     1.0000   1.0000   1.0000   1.0000   1.0000   1.0000   0.0000   0.0000
     0.0000   0.0000

          k = 0.4950 0.0707-0.0707 (  3927 PWs)   bands (ev):

   -12.4069 -12.4024 -12.3478 -12.2591 -12.2388 -12.2191 -12.1588 -12.1136
   -12.0651 -12.0594  -1.0106   1.8467   6.4289   6.6704   9.6308  10.1541
    13.8584  14.2359

     occupation numbers 
     1.0000   1.0000   1.0000   1.0000   1.0000   1.0000   1.0000   1.0000
     1.0000   1.0000   1.0000   1.0000   1.0000   1.0000   0.0000   0.0000
     0.0000   0.0000

          k =-0.1414-0.5657 0.5657 (  3923 PWs)   bands (ev):

   -12.4177 -12.4060 -12.3253 -12.2442 -12.2437 -12.2133 -12.1753 -12.1379
   -12.0593 -12.0467  -0.5702   1.2367   5.9133   6.6572   9.6337  11.0014
    13.6157  14.2072

     occupation numbers 
     1.0000   1.0000   1.0000   1.0000   1.0000   1.0000   1.0000   1.0000
     1.0000   1.0000   1.0000   1.0000   1.0000   1.0000   0.0000   0.0000
     0.0000   0.0000

          k =-0.0707-0.4950 0.4950 (  3925 PWs)   bands (ev):

   -12.4236 -12.4079 -12.3121 -12.2332 -12.2328 -12.2225 -12.1892 -12.1514
   -12.0560 -12.0405  -0.3746   0.9988   5.5852   6.8102   9.6228  12.0863
    13.4469  13.8309

     occupation numbers 
     1.0000   1.0000   1.0000   1.0000   1.0000   1.0000   1.0000   1.0000
     1.0000   1.0000   1.0000   1.0000   1.0000   1.0000   0.0000   0.0000
     0.0000   0.0000

          k =-0.0000-0.4243 0.4243 (  3917 PWs)   bands (ev):

   -12.4219 -12.4073 -12.3137 -12.2557 -12.2372 -12.1940 -12.1887 -12.1523
   -12.0558 -12.0433  -0.6868   1.3827   5.5814   7.1038   9.6102  12.7194
    13.0436  13.2092

     occupation numbers 
     1.0000   1.0000   1.0000   1.0000   1.0000   1.0000   1.0000   1.0000
     1.0000   1.0000   1.0000   1.0000   1.0000   1.0000   0.0000   0.0000
     0.0000   0.0000

          k = 0.5657 0.0000 0.0000 (  3940 PWs)   bands (ev):

   -12.4059 -12.4059 -12.3415 -12.2665 -12.2428 -12.1942 -12.1741 -12.1189
   -12.0600 -12.0600  -0.6480   1.3346   6.4610   6.4610   9.3726   9.7972
    14.9333  14.9334

     occupation numbers 
     1.0000   1.0000   1.0000   1.0000   1.0000   1.0000   1.0000   1.0000
     1.0000   1.0000   1.0000   1.0000   1.0000   1.0000   0.0000   0.0000
     0.0000   0.0000

          k =-0.0707-0.6364 0.6364 (  3917 PWs)   bands (ev):

   -12.4128 -12.4082 -12.3205 -12.2815 -12.2261 -12.1913 -12.1794 -12.1411
   -12.0564 -12.0516  -0.1928   0.7820   6.1395   6.4143   9.5227   9.9888
    14.7566  15.0845

     occupation numbers 
     1.0000   1.0000   1.0000   1.0000   1.0000   1.0000   1.0000   1.0000
     1.0000   1.0000   1.0000   1.0000   1.0000   1.0000   0.0000   0.0000
     0.0000   0.0000

          k = 0.0000-0.5657 0.5657 (  3905 PWs)   bands (ev):

   -12.4211 -12.4090 -12.3077 -12.2671 -12.2160 -12.2035 -12.1929 -12.1539
   -12.0549 -12.0426   0.0270   0.5542   5.7284   6.5375   9.5733  11.0126
    14.1624  14.6498

     occupation numbers 
     1.0000   1.0000   1.0000   1.0000   1.0000   1.0000   1.0000   1.0000
     1.0000   1.0000   1.0000   1.0000   1.0000   1.0000   0.0000   0.0000
     0.0000   0.0000

          k =-0.7071 0.0000 0.0000 (  3892 PWs)   bands (ev):

   -12.4090 -12.4090 -12.3081 -12.3080 -12.2085 -12.2081 -12.1536 -12.1535
   -12.0553 -12.0553   0.2742   0.2743   6.3288   6.3288   9.4904   9.4905
    15.4510  15.4511

     occupation numbers 
     1.0000   1.0000   1.0000   1.0000   1.0000   1.0000   1.0000   1.0000
     1.0000   1.0000   1.0000   1.0000   1.0000   1.0000   0.0000   0.0000
     0.0000   0.0000

          k = 0.2828 0.1414 0.0000 (  3913 PWs)   bands (ev):

   -12.3935 -12.3912 -12.3622 -12.2957 -12.2764 -12.1694 -12.1278 -12.1068
   -12.0826 -12.0702  -1.8469   3.3730   7.0428   7.6983   9.4924  10.5742
    12.3716  12.6734

     occupation numbers 
     1.0000   1.0000   1.0000   1.0000   1.0000   1.0000   1.0000   1.0000
     1.0000   1.0000   1.0000   1.0000   1.0000   1.0000   0.0000   0.0000
     0.0000   0.0000

          k = 0.3536 0.2121-0.0707 (  3894 PWs)   bands (ev):

   -12.4035 -12.3988 -12.3473 -12.2839 -12.2622 -12.1814 -12.1393 -12.1253
   -12.0697 -12.0619  -1.4684   2.5514   6.4978   7.4363   9.5027  11.1082
    12.7533  12.9906

     occupation numbers 
     1.0000   1.0000   1.0000   1.0000   1.0000   1.0000   1.0000   1.0000
     1.0000   1.0000   1.0000   1.0000   1.0000   1.0000   0.0000   0.0000
     0.0000   0.0000

          k =-0.2828-0.4243 0.5657 (  3917 PWs)   bands (ev):

   -12.4116 -12.4027 -12.3335 -12.2726 -12.2562 -12.1835 -12.1511 -12.1428
   -12.0631 -12.0543  -1.0408   1.7996   6.1829   7.2086   9.4062  11.6378
    12.8316  13.5862

     occupation numbers 
     1.0000   1.0000   1.0000   1.0000   1.0000   1.0000   1.0000   1.0000
     1.0000   1.0000   1.0000   1.0000   1.0000   1.0000   0.0000   0.0000
     0.0000   0.0000

          k =-0.2121-0.3536 0.4950 (  3910 PWs)   bands (ev):

   -12.4146 -12.4039 -12.3278 -12.2653 -12.2580 -12.1790 -12.1623 -12.1473
   -12.0613 -12.0512  -0.8136   1.4551   6.0817   7.1231   9.3617  11.7886
    12.8778  14.0626

     occupation numbers 
     1.0000   1.0000   1.0000   1.0000   1.0000   1.0000   1.0000   1.0000
     1.0000   1.0000   1.0000   1.0000   1.0000   1.0000   0.0000   0.0000
     0.0000   0.0000

          k = 0.4243 0.1414-0.0000 (  3921 PWs)   bands (ev):

   -12.4026 -12.4023 -12.3507 -12.2736 -12.2411 -12.2125 -12.1455 -12.1142
   -12.0665 -12.0633  -1.3121   2.3226   6.4878   6.9507  10.0792  10.1519
    13.1163  13.7103

     occupation numbers 
     1.0000   1.0000   1.0000   1.0000   1.0000   1.0000   1.0000   1.0000
     1.0000   1.0000   1.0000   1.0000   1.0000   1.0000   0.0000   0.0000
     0.0000   0.0000

          k =-0.2121-0.4950 0.6364 (  3918 PWs)   bands (ev):

   -12.4141 -12.4066 -12.3296 -12.2599 -12.2318 -12.2203 -12.1612 -12.1369
   -12.0590 -12.0512  -0.8789   1.6436   6.0339   6.7504  10.0076  10.9577
    12.9728  13.9987

     occupation numbers 
     1.0000   1.0000   1.0000   1.0000   1.0000   1.0000   1.0000   1.0000
     1.0000   1.0000   1.0000   1.0000   1.0000   1.0000   0.0000   0.0000
     0.0000   0.0000

          k =-0.1414-0.4243 0.5657 (  3909 PWs)   bands (ev):

   -12.4209 -12.4088 -12.3137 -12.2493 -12.2339 -12.2150 -12.1769 -12.1521
   -12.0556 -12.0436  -0.5334   1.1785   5.7408   6.7145   9.9536  11.7421
    13.1533  13.7486

     occupation numbers 
     1.0000   1.0000   1.0000   1.0000   1.0000   1.0000   1.0000   1.0000
     1.0000   1.0000   1.0000   1.0000   1.0000   1.0000   0.0000   0.0000
     0.0000   0.0000

          k =-0.0707-0.3536 0.4950 (  3903 PWs)   bands (ev):

   -12.4206 -12.4089 -12.3128 -12.2561 -12.2359 -12.2055 -12.1768 -12.1542
   -12.0548 -12.0445  -0.6463   1.3243   5.6847   6.8694   9.9426  11.9365
    13.0657  13.6047

     occupation numbers 
     1.0000   1.0000   1.0000   1.0000   1.0000   1.0000   1.0000   1.0000
     1.0000   1.0000   1.0000   1.0000   1.0000   1.0000   0.0000   0.0000
     0.0000   0.0000

          k = 0.0000-0.2828 0.4243 (  3917 PWs)   bands (ev):

   -12.4133 -12.4062 -12.3270 -12.2720 -12.2449 -12.1966 -12.1524 -12.1479
   -12.0571 -12.0539  -1.0657   1.9080   5.9270   7.1585   9.8608  11.5137
    12.7693  13.3969

     occupation numbers 
     1.0000   1.0000   1.0000   1.0000   1.0000   1.0000   1.0000   1.0000
     1.0000   1.0000   1.0000   1.0000   1.0000   1.0000   0.0000   0.0000
     0.0000   0.0000

          k =-0.1414-0.5657 0.7071 (  3940 PWs)   bands (ev):

   -12.4108 -12.4100 -12.3287 -12.2564 -12.2434 -12.2023 -12.1751 -12.1336
   -12.0547 -12.0546  -0.5918   1.2712   6.1807   6.4165   9.9521  10.1267
    13.8147  14.7510

     occupation numbers 
     1.0000   1.0000   1.0000   1.0000   1.0000   1.0000   1.0000   1.0000
     1.0000   1.0000   1.0000   1.0000   1.0000   1.0000   0.0000   0.0000
     0.0000   0.0000

          k =-0.0707-0.4950 0.6364 (  3923 PWs)   bands (ev):

   -12.4200 -12.4121 -12.3052 -12.2595 -12.2286 -12.1986 -12.1925 -12.1567
   -12.0519 -12.0439  -0.1644   0.7701   5.8054   6.3564  10.0382  11.0153
    13.5593  14.3328

     occupation numbers 
     1.0000   1.0000   1.0000   1.0000   1.0000   1.0000   1.0000   1.0000
     1.0000   1.0000   1.0000   1.0000   1.0000   1.0000   0.0000   0.0000
     0.0000   0.0000

          k =-0.0000-0.4243 0.5657 (  3920 PWs)   bands (ev):

   -12.4241 -12.4118 -12.3011 -12.2360 -12.2309 -12.2151 -12.1982 -12.1602
   -12.0517 -12.0398  -0.2182   0.8353   5.5721   6.5397  10.0678  12.0570
    13.2398  13.5719

     occupation numbers 
     1.0000   1.0000   1.0000   1.0000   1.0000   1.0000   1.0000   1.0000
     1.0000   1.0000   1.0000   1.0000   1.0000   1.0000   0.0000   0.0000
     0.0000   0.0000

          k =-0.7071 0.1414 0.0000 (  3914 PWs)   bands (ev):

   -12.4134 -12.4134 -12.2964 -12.2963 -12.2094 -12.2090 -12.1648 -12.1647
   -12.0506 -12.0505   0.2831   0.2832   6.1543   6.1543   9.9764   9.9765
    14.6939  14.6939

     occupation numbers 
     1.0000   1.0000   1.0000   1.0000   1.0000   1.0000   1.0000   1.0000
     1.0000   1.0000   1.0000   1.0000   1.0000   1.0000   0.0000   0.0000
     0.0000   0.0000

          k =-0.1414-0.4243 0.7071 (  3899 PWs)   bands (ev):

   -12.4196 -12.4138 -12.3051 -12.2449 -12.2364 -12.2144 -12.1815 -12.1587
   -12.0499 -12.0449  -0.4368   1.0919   5.7569   6.4154  10.6028  11.2260
    12.7753  14.0637

     occupation numbers 
     1.0000   1.0000   1.0000   1.0000   1.0000   1.0000   1.0000   1.0000
     1.0000   1.0000   1.0000   1.0000   1.0000   1.0000   0.0000   0.0000
     0.0000   0.0000

          k =-0.0707-0.3536 0.6364 (  3914 PWs)   bands (ev):

   -12.4227 -12.4157 -12.2920 -12.2440 -12.2315 -12.2106 -12.1951 -12.1684
   -12.0479 -12.0411  -0.1460   0.7618   5.6760   6.2611  10.7156  11.6823
    12.9410  13.3800

     occupation numbers 
     1.0000   1.0000   1.0000   1.0000   1.0000   1.0000   1.0000   1.0000
     1.0000   1.0000   1.0000   1.0000   1.0000   1.0000   0.0000   0.0000
     0.0000   0.0000

          k =-0.7071 0.2828 0.0000 (  3920 PWs)   bands (ev):

   -12.4195 -12.4195 -12.2742 -12.2741 -12.2136 -12.2132 -12.1833 -12.1832
   -12.0441 -12.0441   0.2976   0.2977   5.9211   5.9211  11.0116  11.0117
    13.3517  13.3518

     occupation numbers 
     1.0000   1.0000   1.0000   1.0000   1.0000   1.0000   1.0000   1.0000
     1.0000   1.0000   1.0000   1.0000   1.0000   1.0000   0.0000   0.0000
     0.0000   0.0000

     the Fermi energy is     8.3401 ev

!    total energy              =    -233.44832371 Ry
     Harris-Foulkes estimate   =    -233.44832388 Ry
     estimated scf accuracy    <       0.00000042 Ry

     The total energy is the sum of the following terms:

     one-electron contribution =     -95.31695866 Ry
     hartree contribution      =      58.35643269 Ry
     xc contribution           =     -28.70628503 Ry
     ewald contribution        =    -167.78134162 Ry
     smearing contrib. (-TS)   =      -0.00017110 Ry

     convergence has been achieved in   5 iterations

     Writing output data file Sn.save
 
     init_run     :      0.60s CPU      0.67s WALL (       1 calls)
     electrons    :      9.91s CPU     10.24s WALL (       1 calls)

     Called by init_run:
     wfcinit      :      0.42s CPU      0.44s WALL (       1 calls)
     potinit      :      0.01s CPU      0.01s WALL (       1 calls)

     Called by electrons:
     c_bands      :      8.99s CPU      9.27s WALL (       5 calls)
     sum_band     :      0.87s CPU      0.90s WALL (       5 calls)
     v_of_rho     :      0.04s CPU      0.04s WALL (       6 calls)
     v_h          :      0.00s CPU      0.00s WALL (       6 calls)
     v_xc         :      0.04s CPU      0.04s WALL (       6 calls)
     mix_rho      :      0.00s CPU      0.00s WALL (       5 calls)

     Called by c_bands:
     init_us_2    :      0.06s CPU      0.06s WALL (     517 calls)
     cegterg      :      8.59s CPU      8.84s WALL (     235 calls)

     Called by sum_band:

     Called by *egterg:
     h_psi        :      6.39s CPU      6.61s WALL (    1034 calls)
     g_psi        :      0.02s CPU      0.02s WALL (     752 calls)
     cdiaghg      :      0.93s CPU      0.94s WALL (     987 calls)
     cegterg:over :      0.81s CPU      0.82s WALL (     752 calls)
     cegterg:upda :      0.14s CPU      0.14s WALL (     752 calls)
     cegterg:last :      0.07s CPU      0.07s WALL (     282 calls)

     Called by h_psi:
     h_psi:vloc   :      5.77s CPU      5.97s WALL (    1034 calls)
     h_psi:vnl    :      0.61s CPU      0.63s WALL (    1034 calls)
     add_vuspsi   :      0.14s CPU      0.14s WALL (    1034 calls)

     General routines
     calbec       :      0.47s CPU      0.48s WALL (    1034 calls)
     fft          :      0.04s CPU      0.04s WALL (      65 calls)
     fftw         :      6.16s CPU      6.37s WALL (   33230 calls)
     davcio       :      0.00s CPU      0.02s WALL (      47 calls)
 
     Parallel routines
     fft_scatter  :      3.36s CPU      3.49s WALL (   33295 calls)
 
     PWSCF        :    10.73s CPU        11.22s WALL

 
   This run was terminated on:   0:52: 6  21Feb2020            

=------------------------------------------------------------------------------=
   JOB DONE.
=------------------------------------------------------------------------------=
