
     Program PWSCF v.5.4.0 starts on 15Mar2020 at 19:52: 7 

     This program is part of the open-source Quantum ESPRESSO suite
     for quantum simulation of materials; please cite
         "P. Giannozzi et al., J. Phys.:Condens. Matter 21 395502 (2009);
          URL http://www.quantum-espresso.org", 
     in publications or presentations arising from this work. More details at
     http://www.quantum-espresso.org/quote

     Parallel version (MPI & OpenMP), running on      16 processor cores
     Number of MPI processes:                16
     Threads/MPI process:                     1
     R & G space division:  proc/nbgrp/npool/nimage =      16
     Waiting for input...
     Reading input from standard input
Warning: card &IONS ignored
Warning: card / ignored
Warning: card &CELL ignored
Warning: card / ignored

     Current dimensions of program PWSCF are:
     Max number of different atomic species (ntypx) = 10
     Max number of k-points (npk) =  40000
     Max angular momentum in pseudopotentials (lmaxx) =  3
               file Sn.rel-pbe-dn-rrkjus_psl.1.0.0.UPF: wavefunction(s)  5S 4D 4D renormalized

     Subspace diagonalization in iterative solution of the eigenvalue problem:
     a serial algorithm will be used

 
     Parallelization info
     --------------------
     sticks:   dense  smooth     PW     G-vecs:    dense   smooth      PW
     Min          47      47     15                  878      878     151
     Max          49      49     16                  880      880     153
     Sum         769     769    241                14067    14067    2421
 

     Title: 
     Sn                                                                         


     bravais-lattice index     =            0
     lattice parameter (alat)  =       8.9127  a.u.
     unit-cell volume          =     500.6268 (a.u.)^3
     number of atoms/cell      =            2
     number of atomic types    =            1
     number of electrons       =        28.00
     number of Kohn-Sham states=           36
     kinetic-energy cutoff     =      35.0000  Ry
     charge density cutoff     =     140.0000  Ry
     convergence threshold     =      1.0E-06
     mixing beta               =       0.7000
     number of iterations used =            8  plain     mixing
     Exchange-correlation      = PBE ( 1  4  3  4 0 0)
     Non magnetic calculation with spin-orbit


     celldm(1)=   8.912709  celldm(2)=   0.000000  celldm(3)=   0.000000
     celldm(4)=   0.000000  celldm(5)=   0.000000  celldm(6)=   0.000000

     crystal axes: (cart. coord. in units of alat)
               a(1) = (   0.000000   0.707107   0.707107 )  
               a(2) = (   0.707107   0.000000   0.707107 )  
               a(3) = (   0.707107   0.707107   0.000000 )  

     reciprocal axes: (cart. coord. in units 2 pi/alat)
               b(1) = ( -0.707107  0.707107  0.707107 )  
               b(2) = (  0.707107 -0.707107  0.707107 )  
               b(3) = (  0.707107  0.707107 -0.707107 )  


     PseudoPot. # 1 for Sn read from file:
     ../PseudopotentialDatabase/Sn.rel-pbe-dn-rrkjus_psl.1.0.0.UPF
     MD5 check sum: e9415cc9ba1036dfb73502962f03961a
     Pseudo is Ultrasoft + core correction, Zval = 14.0
     Generated using "atomic" code by A. Dal Corso  v.6.3
     Using radial grid of 1243 points, 10 beta functions with: 
                l(1) =   0
                l(2) =   0
                l(3) =   1
                l(4) =   1
                l(5) =   1
                l(6) =   1
                l(7) =   2
                l(8) =   2
                l(9) =   2
               l(10) =   2
     Q(r) pseudized with 0 coefficients 


     atomic species   valence    mass     pseudopotential
        Sn            14.00   118.71000     Sn( 1.00)

     48 Sym. Ops., with inversion, found (24 have fractional translation)


                                    s                        frac. trans.

      isym =  1     identity                                     

 cryst.   s( 1) = (     1          0          0      )
                  (     0          1          0      )
                  (     0          0          1      )

 cart.    s( 1) = (  1.0000000  0.0000000  0.0000000 )
                  (  0.0000000  1.0000000  0.0000000 )
                  (  0.0000000  0.0000000  1.0000000 )


      isym =  2     180 deg rotation - cart. axis [0,0,1]        

 cryst.   s( 2) = (     0          1         -1      )
                  (     1          0         -1      )
                  (     0          0         -1      )

 cart.    s( 2) = ( -1.0000000  0.0000000  0.0000000 )
                  (  0.0000000 -1.0000000  0.0000000 )
                  (  0.0000000  0.0000000  1.0000000 )


      isym =  3     180 deg rotation - cart. axis [0,1,0]        

 cryst.   s( 3) = (     0         -1          1      )
                  (     0         -1          0      )
                  (     1         -1          0      )

 cart.    s( 3) = ( -1.0000000  0.0000000  0.0000000 )
                  (  0.0000000  1.0000000  0.0000000 )
                  (  0.0000000  0.0000000 -1.0000000 )


      isym =  4     180 deg rotation - cart. axis [1,0,0]        

 cryst.   s( 4) = (    -1          0          0      )
                  (    -1          0          1      )
                  (    -1          1          0      )

 cart.    s( 4) = (  1.0000000  0.0000000  0.0000000 )
                  (  0.0000000 -1.0000000  0.0000000 )
                  (  0.0000000  0.0000000 -1.0000000 )


      isym =  5     180 deg rotation - cart. axis [1,1,0]        

 cryst.   s( 5) = (    -1          0          1      )    f =( -0.2500000 )
                  (     0         -1          1      )       ( -0.2500000 )
                  (     0          0          1      )       ( -0.2500000 )

 cart.    s( 5) = (  0.0000000  1.0000000  0.0000000 )    f =( -0.3535534 )
                  (  1.0000000  0.0000000  0.0000000 )       ( -0.3535534 )
                  (  0.0000000  0.0000000 -1.0000000 )       ( -0.3535534 )


      isym =  6     180 deg rotation - cart. axis [1,-1,0]       

 cryst.   s( 6) = (     0         -1          0      )    f =( -0.2500000 )
                  (    -1          0          0      )       ( -0.2500000 )
                  (     0          0         -1      )       ( -0.2500000 )

 cart.    s( 6) = (  0.0000000 -1.0000000  0.0000000 )    f =( -0.3535534 )
                  ( -1.0000000  0.0000000  0.0000000 )       ( -0.3535534 )
                  (  0.0000000  0.0000000 -1.0000000 )       ( -0.3535534 )


      isym =  7      90 deg rotation - cart. axis [0,0,-1]       

 cryst.   s( 7) = (     0          1          0      )    f =( -0.2500000 )
                  (     0          1         -1      )       ( -0.2500000 )
                  (    -1          1          0      )       ( -0.2500000 )

 cart.    s( 7) = (  0.0000000  1.0000000  0.0000000 )    f =( -0.3535534 )
                  ( -1.0000000  0.0000000  0.0000000 )       ( -0.3535534 )
                  (  0.0000000  0.0000000  1.0000000 )       ( -0.3535534 )


      isym =  8      90 deg rotation - cart. axis [0,0,1]        

 cryst.   s( 8) = (     1          0         -1      )    f =( -0.2500000 )
                  (     1          0          0      )       ( -0.2500000 )
                  (     1         -1          0      )       ( -0.2500000 )

 cart.    s( 8) = (  0.0000000 -1.0000000  0.0000000 )    f =( -0.3535534 )
                  (  1.0000000  0.0000000  0.0000000 )       ( -0.3535534 )
                  (  0.0000000  0.0000000  1.0000000 )       ( -0.3535534 )


      isym =  9     180 deg rotation - cart. axis [1,0,1]        

 cryst.   s( 9) = (    -1          1          0      )    f =( -0.2500000 )
                  (     0          1          0      )       ( -0.2500000 )
                  (     0          1         -1      )       ( -0.2500000 )

 cart.    s( 9) = (  0.0000000  0.0000000  1.0000000 )    f =( -0.3535534 )
                  (  0.0000000 -1.0000000  0.0000000 )       ( -0.3535534 )
                  (  1.0000000  0.0000000  0.0000000 )       ( -0.3535534 )


      isym = 10     180 deg rotation - cart. axis [-1,0,1]       

 cryst.   s(10) = (     0          0         -1      )    f =( -0.2500000 )
                  (     0         -1          0      )       ( -0.2500000 )
                  (    -1          0          0      )       ( -0.2500000 )

 cart.    s(10) = (  0.0000000  0.0000000 -1.0000000 )    f =( -0.3535534 )
                  (  0.0000000 -1.0000000  0.0000000 )       ( -0.3535534 )
                  ( -1.0000000  0.0000000  0.0000000 )       ( -0.3535534 )


      isym = 11      90 deg rotation - cart. axis [0,1,0]        

 cryst.   s(11) = (     0          0          1      )    f =( -0.2500000 )
                  (    -1          0          1      )       ( -0.2500000 )
                  (     0         -1          1      )       ( -0.2500000 )

 cart.    s(11) = (  0.0000000  0.0000000  1.0000000 )    f =( -0.3535534 )
                  (  0.0000000  1.0000000  0.0000000 )       ( -0.3535534 )
                  ( -1.0000000  0.0000000  0.0000000 )       ( -0.3535534 )


      isym = 12      90 deg rotation - cart. axis [0,-1,0]       

 cryst.   s(12) = (     1         -1          0      )    f =( -0.2500000 )
                  (     1          0         -1      )       ( -0.2500000 )
                  (     1          0          0      )       ( -0.2500000 )

 cart.    s(12) = (  0.0000000  0.0000000 -1.0000000 )    f =( -0.3535534 )
                  (  0.0000000  1.0000000  0.0000000 )       ( -0.3535534 )
                  (  1.0000000  0.0000000  0.0000000 )       ( -0.3535534 )


      isym = 13     180 deg rotation - cart. axis [0,1,1]        

 cryst.   s(13) = (     1          0          0      )    f =( -0.2500000 )
                  (     1         -1          0      )       ( -0.2500000 )
                  (     1          0         -1      )       ( -0.2500000 )

 cart.    s(13) = ( -1.0000000  0.0000000  0.0000000 )    f =( -0.3535534 )
                  (  0.0000000  0.0000000  1.0000000 )       ( -0.3535534 )
                  (  0.0000000  1.0000000  0.0000000 )       ( -0.3535534 )


      isym = 14     180 deg rotation - cart. axis [0,1,-1]       

 cryst.   s(14) = (    -1          0          0      )    f =( -0.2500000 )
                  (     0          0         -1      )       ( -0.2500000 )
                  (     0         -1          0      )       ( -0.2500000 )

 cart.    s(14) = ( -1.0000000  0.0000000  0.0000000 )    f =( -0.3535534 )
                  (  0.0000000  0.0000000 -1.0000000 )       ( -0.3535534 )
                  (  0.0000000 -1.0000000  0.0000000 )       ( -0.3535534 )


      isym = 15      90 deg rotation - cart. axis [-1,0,0]       

 cryst.   s(15) = (     0         -1          1      )    f =( -0.2500000 )
                  (     0          0          1      )       ( -0.2500000 )
                  (    -1          0          1      )       ( -0.2500000 )

 cart.    s(15) = (  1.0000000  0.0000000  0.0000000 )    f =( -0.3535534 )
                  (  0.0000000  0.0000000  1.0000000 )       ( -0.3535534 )
                  (  0.0000000 -1.0000000  0.0000000 )       ( -0.3535534 )


      isym = 16      90 deg rotation - cart. axis [1,0,0]        

 cryst.   s(16) = (     0          1         -1      )    f =( -0.2500000 )
                  (    -1          1          0      )       ( -0.2500000 )
                  (     0          1          0      )       ( -0.2500000 )

 cart.    s(16) = (  1.0000000  0.0000000  0.0000000 )    f =( -0.3535534 )
                  (  0.0000000  0.0000000 -1.0000000 )       ( -0.3535534 )
                  (  0.0000000  1.0000000  0.0000000 )       ( -0.3535534 )


      isym = 17     120 deg rotation - cart. axis [-1,-1,-1]     

 cryst.   s(17) = (     0          0          1      )
                  (     1          0          0      )
                  (     0          1          0      )

 cart.    s(17) = (  0.0000000  1.0000000  0.0000000 )
                  (  0.0000000  0.0000000  1.0000000 )
                  (  1.0000000  0.0000000  0.0000000 )


      isym = 18     120 deg rotation - cart. axis [-1,1,1]       

 cryst.   s(18) = (     1         -1          0      )
                  (     0         -1          1      )
                  (     0         -1          0      )

 cart.    s(18) = (  0.0000000 -1.0000000  0.0000000 )
                  (  0.0000000  0.0000000  1.0000000 )
                  ( -1.0000000  0.0000000  0.0000000 )


      isym = 19     120 deg rotation - cart. axis [1,1,-1]       

 cryst.   s(19) = (    -1          1          0      )
                  (    -1          0          0      )
                  (    -1          0          1      )

 cart.    s(19) = (  0.0000000  1.0000000  0.0000000 )
                  (  0.0000000  0.0000000 -1.0000000 )
                  ( -1.0000000  0.0000000  0.0000000 )


      isym = 20     120 deg rotation - cart. axis [1,-1,1]       

 cryst.   s(20) = (     0          0         -1      )
                  (     0          1         -1      )
                  (     1          0         -1      )

 cart.    s(20) = (  0.0000000 -1.0000000  0.0000000 )
                  (  0.0000000  0.0000000 -1.0000000 )
                  (  1.0000000  0.0000000  0.0000000 )


      isym = 21     120 deg rotation - cart. axis [1,1,1]        

 cryst.   s(21) = (     0          1          0      )
                  (     0          0          1      )
                  (     1          0          0      )

 cart.    s(21) = (  0.0000000  0.0000000  1.0000000 )
                  (  1.0000000  0.0000000  0.0000000 )
                  (  0.0000000  1.0000000  0.0000000 )


      isym = 22     120 deg rotation - cart. axis [-1,1,-1]      

 cryst.   s(22) = (    -1          0          1      )
                  (    -1          1          0      )
                  (    -1          0          0      )

 cart.    s(22) = (  0.0000000  0.0000000  1.0000000 )
                  ( -1.0000000  0.0000000  0.0000000 )
                  (  0.0000000 -1.0000000  0.0000000 )


      isym = 23     120 deg rotation - cart. axis [1,-1,-1]      

 cryst.   s(23) = (     1          0         -1      )
                  (     0          0         -1      )
                  (     0          1         -1      )

 cart.    s(23) = (  0.0000000  0.0000000 -1.0000000 )
                  ( -1.0000000  0.0000000  0.0000000 )
                  (  0.0000000  1.0000000  0.0000000 )


      isym = 24     120 deg rotation - cart. axis [-1,-1,1]      

 cryst.   s(24) = (     0         -1          0      )
                  (     1         -1          0      )
                  (     0         -1          1      )

 cart.    s(24) = (  0.0000000  0.0000000 -1.0000000 )
                  (  1.0000000  0.0000000  0.0000000 )
                  (  0.0000000 -1.0000000  0.0000000 )


      isym = 25     inversion                                    

 cryst.   s(25) = (    -1          0          0      )    f =( -0.2500000 )
                  (     0         -1          0      )       ( -0.2500000 )
                  (     0          0         -1      )       ( -0.2500000 )

 cart.    s(25) = ( -1.0000000  0.0000000  0.0000000 )    f =( -0.3535534 )
                  (  0.0000000 -1.0000000  0.0000000 )       ( -0.3535534 )
                  (  0.0000000  0.0000000 -1.0000000 )       ( -0.3535534 )


      isym = 26     inv. 180 deg rotation - cart. axis [0,0,1]   

 cryst.   s(26) = (     0         -1          1      )    f =( -0.2500000 )
                  (    -1          0          1      )       ( -0.2500000 )
                  (     0          0          1      )       ( -0.2500000 )

 cart.    s(26) = (  1.0000000  0.0000000  0.0000000 )    f =( -0.3535534 )
                  (  0.0000000  1.0000000  0.0000000 )       ( -0.3535534 )
                  (  0.0000000  0.0000000 -1.0000000 )       ( -0.3535534 )


      isym = 27     inv. 180 deg rotation - cart. axis [0,1,0]   

 cryst.   s(27) = (     0          1         -1      )    f =( -0.2500000 )
                  (     0          1          0      )       ( -0.2500000 )
                  (    -1          1          0      )       ( -0.2500000 )

 cart.    s(27) = (  1.0000000  0.0000000  0.0000000 )    f =( -0.3535534 )
                  (  0.0000000 -1.0000000  0.0000000 )       ( -0.3535534 )
                  (  0.0000000  0.0000000  1.0000000 )       ( -0.3535534 )


      isym = 28     inv. 180 deg rotation - cart. axis [1,0,0]   

 cryst.   s(28) = (     1          0          0      )    f =( -0.2500000 )
                  (     1          0         -1      )       ( -0.2500000 )
                  (     1         -1          0      )       ( -0.2500000 )

 cart.    s(28) = ( -1.0000000  0.0000000  0.0000000 )    f =( -0.3535534 )
                  (  0.0000000  1.0000000  0.0000000 )       ( -0.3535534 )
                  (  0.0000000  0.0000000  1.0000000 )       ( -0.3535534 )


      isym = 29     inv. 180 deg rotation - cart. axis [1,1,0]   

 cryst.   s(29) = (     1          0         -1      )
                  (     0          1         -1      )
                  (     0          0         -1      )

 cart.    s(29) = (  0.0000000 -1.0000000  0.0000000 )
                  ( -1.0000000  0.0000000  0.0000000 )
                  (  0.0000000  0.0000000  1.0000000 )


      isym = 30     inv. 180 deg rotation - cart. axis [1,-1,0]  

 cryst.   s(30) = (     0          1          0      )
                  (     1          0          0      )
                  (     0          0          1      )

 cart.    s(30) = (  0.0000000  1.0000000  0.0000000 )
                  (  1.0000000  0.0000000  0.0000000 )
                  (  0.0000000  0.0000000  1.0000000 )


      isym = 31     inv.  90 deg rotation - cart. axis [0,0,-1]  

 cryst.   s(31) = (     0         -1          0      )
                  (     0         -1          1      )
                  (     1         -1          0      )

 cart.    s(31) = (  0.0000000 -1.0000000  0.0000000 )
                  (  1.0000000  0.0000000  0.0000000 )
                  (  0.0000000  0.0000000 -1.0000000 )


      isym = 32     inv.  90 deg rotation - cart. axis [0,0,1]   

 cryst.   s(32) = (    -1          0          1      )
                  (    -1          0          0      )
                  (    -1          1          0      )

 cart.    s(32) = (  0.0000000  1.0000000  0.0000000 )
                  ( -1.0000000  0.0000000  0.0000000 )
                  (  0.0000000  0.0000000 -1.0000000 )


      isym = 33     inv. 180 deg rotation - cart. axis [1,0,1]   

 cryst.   s(33) = (     1         -1          0      )
                  (     0         -1          0      )
                  (     0         -1          1      )

 cart.    s(33) = (  0.0000000  0.0000000 -1.0000000 )
                  (  0.0000000  1.0000000  0.0000000 )
                  ( -1.0000000  0.0000000  0.0000000 )


      isym = 34     inv. 180 deg rotation - cart. axis [-1,0,1]  

 cryst.   s(34) = (     0          0          1      )
                  (     0          1          0      )
                  (     1          0          0      )

 cart.    s(34) = (  0.0000000  0.0000000  1.0000000 )
                  (  0.0000000  1.0000000  0.0000000 )
                  (  1.0000000  0.0000000  0.0000000 )


      isym = 35     inv.  90 deg rotation - cart. axis [0,1,0]   

 cryst.   s(35) = (     0          0         -1      )
                  (     1          0         -1      )
                  (     0          1         -1      )

 cart.    s(35) = (  0.0000000  0.0000000 -1.0000000 )
                  (  0.0000000 -1.0000000  0.0000000 )
                  (  1.0000000  0.0000000  0.0000000 )


      isym = 36     inv.  90 deg rotation - cart. axis [0,-1,0]  

 cryst.   s(36) = (    -1          1          0      )
                  (    -1          0          1      )
                  (    -1          0          0      )

 cart.    s(36) = (  0.0000000  0.0000000  1.0000000 )
                  (  0.0000000 -1.0000000  0.0000000 )
                  ( -1.0000000  0.0000000  0.0000000 )


      isym = 37     inv. 180 deg rotation - cart. axis [0,1,1]   

 cryst.   s(37) = (    -1          0          0      )
                  (    -1          1          0      )
                  (    -1          0          1      )

 cart.    s(37) = (  1.0000000  0.0000000  0.0000000 )
                  (  0.0000000  0.0000000 -1.0000000 )
                  (  0.0000000 -1.0000000  0.0000000 )


      isym = 38     inv. 180 deg rotation - cart. axis [0,1,-1]  

 cryst.   s(38) = (     1          0          0      )
                  (     0          0          1      )
                  (     0          1          0      )

 cart.    s(38) = (  1.0000000  0.0000000  0.0000000 )
                  (  0.0000000  0.0000000  1.0000000 )
                  (  0.0000000  1.0000000  0.0000000 )


      isym = 39     inv.  90 deg rotation - cart. axis [-1,0,0]  

 cryst.   s(39) = (     0          1         -1      )
                  (     0          0         -1      )
                  (     1          0         -1      )

 cart.    s(39) = ( -1.0000000  0.0000000  0.0000000 )
                  (  0.0000000  0.0000000 -1.0000000 )
                  (  0.0000000  1.0000000  0.0000000 )


      isym = 40     inv.  90 deg rotation - cart. axis [1,0,0]   

 cryst.   s(40) = (     0         -1          1      )
                  (     1         -1          0      )
                  (     0         -1          0      )

 cart.    s(40) = ( -1.0000000  0.0000000  0.0000000 )
                  (  0.0000000  0.0000000  1.0000000 )
                  (  0.0000000 -1.0000000  0.0000000 )


      isym = 41     inv. 120 deg rotation - cart. axis [-1,-1,-1]

 cryst.   s(41) = (     0          0         -1      )    f =( -0.2500000 )
                  (    -1          0          0      )       ( -0.2500000 )
                  (     0         -1          0      )       ( -0.2500000 )

 cart.    s(41) = (  0.0000000 -1.0000000  0.0000000 )    f =( -0.3535534 )
                  (  0.0000000  0.0000000 -1.0000000 )       ( -0.3535534 )
                  ( -1.0000000  0.0000000  0.0000000 )       ( -0.3535534 )


      isym = 42     inv. 120 deg rotation - cart. axis [-1,1,1]  

 cryst.   s(42) = (    -1          1          0      )    f =( -0.2500000 )
                  (     0          1         -1      )       ( -0.2500000 )
                  (     0          1          0      )       ( -0.2500000 )

 cart.    s(42) = (  0.0000000  1.0000000  0.0000000 )    f =( -0.3535534 )
                  (  0.0000000  0.0000000 -1.0000000 )       ( -0.3535534 )
                  (  1.0000000  0.0000000  0.0000000 )       ( -0.3535534 )


      isym = 43     inv. 120 deg rotation - cart. axis [1,1,-1]  

 cryst.   s(43) = (     1         -1          0      )    f =( -0.2500000 )
                  (     1          0          0      )       ( -0.2500000 )
                  (     1          0         -1      )       ( -0.2500000 )

 cart.    s(43) = (  0.0000000 -1.0000000  0.0000000 )    f =( -0.3535534 )
                  (  0.0000000  0.0000000  1.0000000 )       ( -0.3535534 )
                  (  1.0000000  0.0000000  0.0000000 )       ( -0.3535534 )


      isym = 44     inv. 120 deg rotation - cart. axis [1,-1,1]  

 cryst.   s(44) = (     0          0          1      )    f =( -0.2500000 )
                  (     0         -1          1      )       ( -0.2500000 )
                  (    -1          0          1      )       ( -0.2500000 )

 cart.    s(44) = (  0.0000000  1.0000000  0.0000000 )    f =( -0.3535534 )
                  (  0.0000000  0.0000000  1.0000000 )       ( -0.3535534 )
                  ( -1.0000000  0.0000000  0.0000000 )       ( -0.3535534 )


      isym = 45     inv. 120 deg rotation - cart. axis [1,1,1]   

 cryst.   s(45) = (     0         -1          0      )    f =( -0.2500000 )
                  (     0          0         -1      )       ( -0.2500000 )
                  (    -1          0          0      )       ( -0.2500000 )

 cart.    s(45) = (  0.0000000  0.0000000 -1.0000000 )    f =( -0.3535534 )
                  ( -1.0000000  0.0000000  0.0000000 )       ( -0.3535534 )
                  (  0.0000000 -1.0000000  0.0000000 )       ( -0.3535534 )


      isym = 46     inv. 120 deg rotation - cart. axis [-1,1,-1] 

 cryst.   s(46) = (     1          0         -1      )    f =( -0.2500000 )
                  (     1         -1          0      )       ( -0.2500000 )
                  (     1          0          0      )       ( -0.2500000 )

 cart.    s(46) = (  0.0000000  0.0000000 -1.0000000 )    f =( -0.3535534 )
                  (  1.0000000  0.0000000  0.0000000 )       ( -0.3535534 )
                  (  0.0000000  1.0000000  0.0000000 )       ( -0.3535534 )


      isym = 47     inv. 120 deg rotation - cart. axis [1,-1,-1] 

 cryst.   s(47) = (    -1          0          1      )    f =( -0.2500000 )
                  (     0          0          1      )       ( -0.2500000 )
                  (     0         -1          1      )       ( -0.2500000 )

 cart.    s(47) = (  0.0000000  0.0000000  1.0000000 )    f =( -0.3535534 )
                  (  1.0000000  0.0000000  0.0000000 )       ( -0.3535534 )
                  (  0.0000000 -1.0000000  0.0000000 )       ( -0.3535534 )


      isym = 48     inv. 120 deg rotation - cart. axis [-1,-1,1] 

 cryst.   s(48) = (     0          1          0      )    f =( -0.2500000 )
                  (    -1          1          0      )       ( -0.2500000 )
                  (     0          1         -1      )       ( -0.2500000 )

 cart.    s(48) = (  0.0000000  0.0000000  1.0000000 )    f =( -0.3535534 )
                  ( -1.0000000  0.0000000  0.0000000 )       ( -0.3535534 )
                  (  0.0000000  1.0000000  0.0000000 )       ( -0.3535534 )


   Cartesian axes

     site n.     atom                  positions (alat units)
         1           Sn  tau(   1) = (   0.0000000   0.0000000   0.0000000  )
         2           Sn  tau(   2) = (   0.3535534   0.3535534   0.3535534  )

   Crystallographic axes

     site n.     atom                  positions (cryst. coord.)
         1           Sn  tau(   1) = (  0.0000000  0.0000000  0.0000000  )
         2           Sn  tau(   2) = (  0.2500000  0.2500000  0.2500000  )

     number of k points=   145  gaussian smearing, width (Ry)=  0.0001
                       cart. coord. in units 2pi/alat
        k(    1) = (   0.0000000   0.0000000   0.0000000), wk =   0.0002441
        k(    2) = (   0.0441942   0.0441942  -0.0441942), wk =   0.0019531
        k(    3) = (   0.0883883   0.0883883  -0.0883883), wk =   0.0019531
        k(    4) = (   0.1325825   0.1325825  -0.1325825), wk =   0.0019531
        k(    5) = (   0.1767767   0.1767767  -0.1767767), wk =   0.0019531
        k(    6) = (   0.2209709   0.2209709  -0.2209709), wk =   0.0019531
        k(    7) = (   0.2651650   0.2651650  -0.2651650), wk =   0.0019531
        k(    8) = (   0.3093592   0.3093592  -0.3093592), wk =   0.0019531
        k(    9) = (  -0.3535534  -0.3535534   0.3535534), wk =   0.0009766
        k(   10) = (   0.0883883   0.0000000   0.0000000), wk =   0.0014648
        k(   11) = (   0.1325825   0.0441942  -0.0441942), wk =   0.0058594
        k(   12) = (   0.1767767   0.0883883  -0.0883883), wk =   0.0058594
        k(   13) = (   0.2209709   0.1325825  -0.1325825), wk =   0.0058594
        k(   14) = (   0.2651650   0.1767767  -0.1767767), wk =   0.0058594
        k(   15) = (   0.3093592   0.2209709  -0.2209709), wk =   0.0058594
        k(   16) = (   0.3535534   0.2651650  -0.2651650), wk =   0.0058594
        k(   17) = (  -0.3093592  -0.3977476   0.3977476), wk =   0.0058594
        k(   18) = (  -0.2651650  -0.3535534   0.3535534), wk =   0.0058594
        k(   19) = (  -0.2209709  -0.3093592   0.3093592), wk =   0.0058594
        k(   20) = (  -0.1767767  -0.2651650   0.2651650), wk =   0.0058594
        k(   21) = (  -0.1325825  -0.2209709   0.2209709), wk =   0.0058594
        k(   22) = (  -0.0883883  -0.1767767   0.1767767), wk =   0.0058594
        k(   23) = (  -0.0441942  -0.1325825   0.1325825), wk =   0.0058594
        k(   24) = (   0.0000000  -0.0883883   0.0883883), wk =   0.0029297
        k(   25) = (   0.1767767   0.0000000   0.0000000), wk =   0.0014648
        k(   26) = (   0.2209709   0.0441942  -0.0441942), wk =   0.0058594
        k(   27) = (   0.2651650   0.0883883  -0.0883883), wk =   0.0058594
        k(   28) = (   0.3093592   0.1325825  -0.1325825), wk =   0.0058594
        k(   29) = (   0.3535534   0.1767767  -0.1767767), wk =   0.0058594
        k(   30) = (   0.3977476   0.2209709  -0.2209709), wk =   0.0058594
        k(   31) = (  -0.2651650  -0.4419417   0.4419417), wk =   0.0058594
        k(   32) = (  -0.2209709  -0.3977476   0.3977476), wk =   0.0058594
        k(   33) = (  -0.1767767  -0.3535534   0.3535534), wk =   0.0058594
        k(   34) = (  -0.1325825  -0.3093592   0.3093592), wk =   0.0058594
        k(   35) = (  -0.0883883  -0.2651650   0.2651650), wk =   0.0058594
        k(   36) = (  -0.0441942  -0.2209709   0.2209709), wk =   0.0058594
        k(   37) = (   0.0000000  -0.1767767   0.1767767), wk =   0.0029297
        k(   38) = (   0.2651650   0.0000000   0.0000000), wk =   0.0014648
        k(   39) = (   0.3093592   0.0441942  -0.0441942), wk =   0.0058594
        k(   40) = (   0.3535534   0.0883883  -0.0883883), wk =   0.0058594
        k(   41) = (   0.3977476   0.1325825  -0.1325825), wk =   0.0058594
        k(   42) = (   0.4419417   0.1767767  -0.1767767), wk =   0.0058594
        k(   43) = (  -0.2209709  -0.4861359   0.4861359), wk =   0.0058594
        k(   44) = (  -0.1767767  -0.4419417   0.4419417), wk =   0.0058594
        k(   45) = (  -0.1325825  -0.3977476   0.3977476), wk =   0.0058594
        k(   46) = (  -0.0883883  -0.3535534   0.3535534), wk =   0.0058594
        k(   47) = (  -0.0441942  -0.3093592   0.3093592), wk =   0.0058594
        k(   48) = (   0.0000000  -0.2651650   0.2651650), wk =   0.0029297
        k(   49) = (   0.3535534   0.0000000   0.0000000), wk =   0.0014648
        k(   50) = (   0.3977476   0.0441942  -0.0441942), wk =   0.0058594
        k(   51) = (   0.4419417   0.0883883  -0.0883883), wk =   0.0058594
        k(   52) = (   0.4861359   0.1325825  -0.1325825), wk =   0.0058594
        k(   53) = (  -0.1767767  -0.5303301   0.5303301), wk =   0.0058594
        k(   54) = (  -0.1325825  -0.4861359   0.4861359), wk =   0.0058594
        k(   55) = (  -0.0883883  -0.4419417   0.4419417), wk =   0.0058594
        k(   56) = (  -0.0441942  -0.3977476   0.3977476), wk =   0.0058594
        k(   57) = (   0.0000000  -0.3535534   0.3535534), wk =   0.0029297
        k(   58) = (   0.4419417   0.0000000   0.0000000), wk =   0.0014648
        k(   59) = (   0.4861359   0.0441942  -0.0441942), wk =   0.0058594
        k(   60) = (   0.5303301   0.0883883  -0.0883883), wk =   0.0058594
        k(   61) = (  -0.1325825  -0.5745243   0.5745243), wk =   0.0058594
        k(   62) = (  -0.0883883  -0.5303301   0.5303301), wk =   0.0058594
        k(   63) = (  -0.0441942  -0.4861359   0.4861359), wk =   0.0058594
        k(   64) = (   0.0000000  -0.4419417   0.4419417), wk =   0.0029297
        k(   65) = (   0.5303301   0.0000000   0.0000000), wk =   0.0014648
        k(   66) = (   0.5745243   0.0441942  -0.0441942), wk =   0.0058594
        k(   67) = (  -0.0883883  -0.6187184   0.6187184), wk =   0.0058594
        k(   68) = (  -0.0441942  -0.5745243   0.5745243), wk =   0.0058594
        k(   69) = (   0.0000000  -0.5303301   0.5303301), wk =   0.0029297
        k(   70) = (   0.6187184   0.0000000   0.0000000), wk =   0.0014648
        k(   71) = (  -0.0441942  -0.6629126   0.6629126), wk =   0.0058594
        k(   72) = (   0.0000000  -0.6187184   0.6187184), wk =   0.0029297
        k(   73) = (  -0.7071068   0.0000000   0.0000000), wk =   0.0007324
        k(   74) = (   0.1767767   0.0883883   0.0000000), wk =   0.0058594
        k(   75) = (   0.2209709   0.1325825  -0.0441942), wk =   0.0117188
        k(   76) = (   0.2651650   0.1767767  -0.0883883), wk =   0.0117188
        k(   77) = (   0.3093592   0.2209709  -0.1325825), wk =   0.0117188
        k(   78) = (   0.3535534   0.2651650  -0.1767767), wk =   0.0117188
        k(   79) = (  -0.3093592  -0.3977476   0.4861359), wk =   0.0117188
        k(   80) = (  -0.2651650  -0.3535534   0.4419417), wk =   0.0058594
        k(   81) = (   0.2651650   0.0883883   0.0000000), wk =   0.0058594
        k(   82) = (   0.3093592   0.1325825  -0.0441942), wk =   0.0117188
        k(   83) = (   0.3535534   0.1767767  -0.0883883), wk =   0.0117188
        k(   84) = (   0.3977476   0.2209709  -0.1325825), wk =   0.0117188
        k(   85) = (  -0.2651650  -0.4419417   0.5303301), wk =   0.0117188
        k(   86) = (  -0.2209709  -0.3977476   0.4861359), wk =   0.0117188
        k(   87) = (  -0.1767767  -0.3535534   0.4419417), wk =   0.0117188
        k(   88) = (  -0.1325825  -0.3093592   0.3977476), wk =   0.0117188
        k(   89) = (  -0.0883883  -0.2651650   0.3535534), wk =   0.0117188
        k(   90) = (  -0.0441942  -0.2209709   0.3093592), wk =   0.0117188
        k(   91) = (   0.0000000  -0.1767767   0.2651650), wk =   0.0058594
        k(   92) = (   0.3535534   0.0883883   0.0000000), wk =   0.0058594
        k(   93) = (   0.3977476   0.1325825  -0.0441942), wk =   0.0117188
        k(   94) = (   0.4419417   0.1767767  -0.0883883), wk =   0.0117188
        k(   95) = (  -0.2209709  -0.4861359   0.5745243), wk =   0.0117188
        k(   96) = (  -0.1767767  -0.4419417   0.5303301), wk =   0.0117188
        k(   97) = (  -0.1325825  -0.3977476   0.4861359), wk =   0.0117188
        k(   98) = (  -0.0883883  -0.3535534   0.4419417), wk =   0.0117188
        k(   99) = (  -0.0441942  -0.3093592   0.3977476), wk =   0.0117188
        k(  100) = (   0.0000000  -0.2651650   0.3535534), wk =   0.0058594
        k(  101) = (   0.4419417   0.0883883   0.0000000), wk =   0.0058594
        k(  102) = (   0.4861359   0.1325825  -0.0441942), wk =   0.0117188
        k(  103) = (  -0.1767767  -0.5303301   0.6187184), wk =   0.0117188
        k(  104) = (  -0.1325825  -0.4861359   0.5745243), wk =   0.0117188
        k(  105) = (  -0.0883883  -0.4419417   0.5303301), wk =   0.0117188
        k(  106) = (  -0.0441942  -0.3977476   0.4861359), wk =   0.0117188
        k(  107) = (   0.0000000  -0.3535534   0.4419417), wk =   0.0058594
        k(  108) = (   0.5303301   0.0883883   0.0000000), wk =   0.0058594
        k(  109) = (  -0.1325825  -0.5745243   0.6629126), wk =   0.0117188
        k(  110) = (  -0.0883883  -0.5303301   0.6187184), wk =   0.0117188
        k(  111) = (  -0.0441942  -0.4861359   0.5745243), wk =   0.0117188
        k(  112) = (   0.0000000  -0.4419417   0.5303301), wk =   0.0058594
        k(  113) = (  -0.0883883  -0.6187184   0.7071068), wk =   0.0058594
        k(  114) = (  -0.0441942  -0.5745243   0.6629126), wk =   0.0117188
        k(  115) = (  -0.0000000  -0.5303301   0.6187184), wk =   0.0058594
        k(  116) = (  -0.7071068   0.0883883   0.0000000), wk =   0.0029297
        k(  117) = (   0.3535534   0.1767767   0.0000000), wk =   0.0058594
        k(  118) = (   0.3977476   0.2209709  -0.0441942), wk =   0.0117188
        k(  119) = (  -0.2651650  -0.4419417   0.6187184), wk =   0.0117188
        k(  120) = (  -0.2209709  -0.3977476   0.5745243), wk =   0.0117188
        k(  121) = (  -0.1767767  -0.3535534   0.5303301), wk =   0.0058594
        k(  122) = (   0.4419417   0.1767767   0.0000000), wk =   0.0058594
        k(  123) = (  -0.2209709  -0.4861359   0.6629126), wk =   0.0117188
        k(  124) = (  -0.1767767  -0.4419417   0.6187184), wk =   0.0117188
        k(  125) = (  -0.1325825  -0.3977476   0.5745243), wk =   0.0117188
        k(  126) = (  -0.0883883  -0.3535534   0.5303301), wk =   0.0117188
        k(  127) = (  -0.0441942  -0.3093592   0.4861359), wk =   0.0117188
        k(  128) = (   0.0000000  -0.2651650   0.4419417), wk =   0.0058594
        k(  129) = (  -0.1767767  -0.5303301   0.7071068), wk =   0.0058594
        k(  130) = (  -0.1325825  -0.4861359   0.6629126), wk =   0.0117188
        k(  131) = (  -0.0883883  -0.4419417   0.6187184), wk =   0.0117188
        k(  132) = (  -0.0441942  -0.3977476   0.5745243), wk =   0.0117188
        k(  133) = (   0.0000000  -0.3535534   0.5303301), wk =   0.0058594
        k(  134) = (  -0.0883883  -0.5303301   0.7071068), wk =   0.0058594
        k(  135) = (  -0.0441942  -0.4861359   0.6629126), wk =   0.0117188
        k(  136) = (   0.0000000  -0.4419417   0.6187184), wk =   0.0058594
        k(  137) = (  -0.7071068   0.1767767   0.0000000), wk =   0.0029297
        k(  138) = (  -0.1767767  -0.4419417   0.7071068), wk =   0.0058594
        k(  139) = (  -0.1325825  -0.3977476   0.6629126), wk =   0.0117188
        k(  140) = (  -0.0883883  -0.3535534   0.6187184), wk =   0.0058594
        k(  141) = (  -0.0883883  -0.4419417   0.7071068), wk =   0.0058594
        k(  142) = (  -0.0441942  -0.3977476   0.6629126), wk =   0.0117188
        k(  143) = (  -0.0000000  -0.3535534   0.6187184), wk =   0.0058594
        k(  144) = (  -0.7071068   0.2651650   0.0000000), wk =   0.0029297
        k(  145) = (  -0.7071068   0.3535534   0.0000000), wk =   0.0014648

                       cryst. coord.
        k(    1) = (   0.0000000   0.0000000   0.0000000), wk =   0.0002441
        k(    2) = (   0.0000000   0.0000000   0.0625000), wk =   0.0019531
        k(    3) = (   0.0000000   0.0000000   0.1250000), wk =   0.0019531
        k(    4) = (   0.0000000   0.0000000   0.1875000), wk =   0.0019531
        k(    5) = (   0.0000000   0.0000000   0.2500000), wk =   0.0019531
        k(    6) = (   0.0000000   0.0000000   0.3125000), wk =   0.0019531
        k(    7) = (   0.0000000   0.0000000   0.3750000), wk =   0.0019531
        k(    8) = (   0.0000000   0.0000000   0.4375000), wk =   0.0019531
        k(    9) = (   0.0000000   0.0000000  -0.5000000), wk =   0.0009766
        k(   10) = (   0.0000000   0.0625000   0.0625000), wk =   0.0014648
        k(   11) = (   0.0000000   0.0625000   0.1250000), wk =   0.0058594
        k(   12) = (   0.0000000   0.0625000   0.1875000), wk =   0.0058594
        k(   13) = (   0.0000000   0.0625000   0.2500000), wk =   0.0058594
        k(   14) = (   0.0000000   0.0625000   0.3125000), wk =   0.0058594
        k(   15) = (   0.0000000   0.0625000   0.3750000), wk =   0.0058594
        k(   16) = (   0.0000000   0.0625000   0.4375000), wk =   0.0058594
        k(   17) = (   0.0000000   0.0625000  -0.5000000), wk =   0.0058594
        k(   18) = (   0.0000000   0.0625000  -0.4375000), wk =   0.0058594
        k(   19) = (   0.0000000   0.0625000  -0.3750000), wk =   0.0058594
        k(   20) = (   0.0000000   0.0625000  -0.3125000), wk =   0.0058594
        k(   21) = (   0.0000000   0.0625000  -0.2500000), wk =   0.0058594
        k(   22) = (   0.0000000   0.0625000  -0.1875000), wk =   0.0058594
        k(   23) = (   0.0000000   0.0625000  -0.1250000), wk =   0.0058594
        k(   24) = (   0.0000000   0.0625000  -0.0625000), wk =   0.0029297
        k(   25) = (   0.0000000   0.1250000   0.1250000), wk =   0.0014648
        k(   26) = (   0.0000000   0.1250000   0.1875000), wk =   0.0058594
        k(   27) = (   0.0000000   0.1250000   0.2500000), wk =   0.0058594
        k(   28) = (   0.0000000   0.1250000   0.3125000), wk =   0.0058594
        k(   29) = (   0.0000000   0.1250000   0.3750000), wk =   0.0058594
        k(   30) = (   0.0000000   0.1250000   0.4375000), wk =   0.0058594
        k(   31) = (   0.0000000   0.1250000  -0.5000000), wk =   0.0058594
        k(   32) = (   0.0000000   0.1250000  -0.4375000), wk =   0.0058594
        k(   33) = (   0.0000000   0.1250000  -0.3750000), wk =   0.0058594
        k(   34) = (   0.0000000   0.1250000  -0.3125000), wk =   0.0058594
        k(   35) = (   0.0000000   0.1250000  -0.2500000), wk =   0.0058594
        k(   36) = (   0.0000000   0.1250000  -0.1875000), wk =   0.0058594
        k(   37) = (   0.0000000   0.1250000  -0.1250000), wk =   0.0029297
        k(   38) = (   0.0000000   0.1875000   0.1875000), wk =   0.0014648
        k(   39) = (   0.0000000   0.1875000   0.2500000), wk =   0.0058594
        k(   40) = (   0.0000000   0.1875000   0.3125000), wk =   0.0058594
        k(   41) = (   0.0000000   0.1875000   0.3750000), wk =   0.0058594
        k(   42) = (   0.0000000   0.1875000   0.4375000), wk =   0.0058594
        k(   43) = (   0.0000000   0.1875000  -0.5000000), wk =   0.0058594
        k(   44) = (   0.0000000   0.1875000  -0.4375000), wk =   0.0058594
        k(   45) = (   0.0000000   0.1875000  -0.3750000), wk =   0.0058594
        k(   46) = (   0.0000000   0.1875000  -0.3125000), wk =   0.0058594
        k(   47) = (   0.0000000   0.1875000  -0.2500000), wk =   0.0058594
        k(   48) = (   0.0000000   0.1875000  -0.1875000), wk =   0.0029297
        k(   49) = (   0.0000000   0.2500000   0.2500000), wk =   0.0014648
        k(   50) = (   0.0000000   0.2500000   0.3125000), wk =   0.0058594
        k(   51) = (   0.0000000   0.2500000   0.3750000), wk =   0.0058594
        k(   52) = (   0.0000000   0.2500000   0.4375000), wk =   0.0058594
        k(   53) = (   0.0000000   0.2500000  -0.5000000), wk =   0.0058594
        k(   54) = (   0.0000000   0.2500000  -0.4375000), wk =   0.0058594
        k(   55) = (   0.0000000   0.2500000  -0.3750000), wk =   0.0058594
        k(   56) = (   0.0000000   0.2500000  -0.3125000), wk =   0.0058594
        k(   57) = (   0.0000000   0.2500000  -0.2500000), wk =   0.0029297
        k(   58) = (   0.0000000   0.3125000   0.3125000), wk =   0.0014648
        k(   59) = (   0.0000000   0.3125000   0.3750000), wk =   0.0058594
        k(   60) = (   0.0000000   0.3125000   0.4375000), wk =   0.0058594
        k(   61) = (   0.0000000   0.3125000  -0.5000000), wk =   0.0058594
        k(   62) = (   0.0000000   0.3125000  -0.4375000), wk =   0.0058594
        k(   63) = (   0.0000000   0.3125000  -0.3750000), wk =   0.0058594
        k(   64) = (   0.0000000   0.3125000  -0.3125000), wk =   0.0029297
        k(   65) = (   0.0000000   0.3750000   0.3750000), wk =   0.0014648
        k(   66) = (   0.0000000   0.3750000   0.4375000), wk =   0.0058594
        k(   67) = (   0.0000000   0.3750000  -0.5000000), wk =   0.0058594
        k(   68) = (   0.0000000   0.3750000  -0.4375000), wk =   0.0058594
        k(   69) = (   0.0000000   0.3750000  -0.3750000), wk =   0.0029297
        k(   70) = (   0.0000000   0.4375000   0.4375000), wk =   0.0014648
        k(   71) = (   0.0000000   0.4375000  -0.5000000), wk =   0.0058594
        k(   72) = (   0.0000000   0.4375000  -0.4375000), wk =   0.0029297
        k(   73) = (   0.0000000  -0.5000000  -0.5000000), wk =   0.0007324
        k(   74) = (   0.0625000   0.1250000   0.1875000), wk =   0.0058594
        k(   75) = (   0.0625000   0.1250000   0.2500000), wk =   0.0117188
        k(   76) = (   0.0625000   0.1250000   0.3125000), wk =   0.0117188
        k(   77) = (   0.0625000   0.1250000   0.3750000), wk =   0.0117188
        k(   78) = (   0.0625000   0.1250000   0.4375000), wk =   0.0117188
        k(   79) = (   0.0625000   0.1250000  -0.5000000), wk =   0.0117188
        k(   80) = (   0.0625000   0.1250000  -0.4375000), wk =   0.0058594
        k(   81) = (   0.0625000   0.1875000   0.2500000), wk =   0.0058594
        k(   82) = (   0.0625000   0.1875000   0.3125000), wk =   0.0117188
        k(   83) = (   0.0625000   0.1875000   0.3750000), wk =   0.0117188
        k(   84) = (   0.0625000   0.1875000   0.4375000), wk =   0.0117188
        k(   85) = (   0.0625000   0.1875000  -0.5000000), wk =   0.0117188
        k(   86) = (   0.0625000   0.1875000  -0.4375000), wk =   0.0117188
        k(   87) = (   0.0625000   0.1875000  -0.3750000), wk =   0.0117188
        k(   88) = (   0.0625000   0.1875000  -0.3125000), wk =   0.0117188
        k(   89) = (   0.0625000   0.1875000  -0.2500000), wk =   0.0117188
        k(   90) = (   0.0625000   0.1875000  -0.1875000), wk =   0.0117188
        k(   91) = (   0.0625000   0.1875000  -0.1250000), wk =   0.0058594
        k(   92) = (   0.0625000   0.2500000   0.3125000), wk =   0.0058594
        k(   93) = (   0.0625000   0.2500000   0.3750000), wk =   0.0117188
        k(   94) = (   0.0625000   0.2500000   0.4375000), wk =   0.0117188
        k(   95) = (   0.0625000   0.2500000  -0.5000000), wk =   0.0117188
        k(   96) = (   0.0625000   0.2500000  -0.4375000), wk =   0.0117188
        k(   97) = (   0.0625000   0.2500000  -0.3750000), wk =   0.0117188
        k(   98) = (   0.0625000   0.2500000  -0.3125000), wk =   0.0117188
        k(   99) = (   0.0625000   0.2500000  -0.2500000), wk =   0.0117188
        k(  100) = (   0.0625000   0.2500000  -0.1875000), wk =   0.0058594
        k(  101) = (   0.0625000   0.3125000   0.3750000), wk =   0.0058594
        k(  102) = (   0.0625000   0.3125000   0.4375000), wk =   0.0117188
        k(  103) = (   0.0625000   0.3125000  -0.5000000), wk =   0.0117188
        k(  104) = (   0.0625000   0.3125000  -0.4375000), wk =   0.0117188
        k(  105) = (   0.0625000   0.3125000  -0.3750000), wk =   0.0117188
        k(  106) = (   0.0625000   0.3125000  -0.3125000), wk =   0.0117188
        k(  107) = (   0.0625000   0.3125000  -0.2500000), wk =   0.0058594
        k(  108) = (   0.0625000   0.3750000   0.4375000), wk =   0.0058594
        k(  109) = (   0.0625000   0.3750000  -0.5000000), wk =   0.0117188
        k(  110) = (   0.0625000   0.3750000  -0.4375000), wk =   0.0117188
        k(  111) = (   0.0625000   0.3750000  -0.3750000), wk =   0.0117188
        k(  112) = (   0.0625000   0.3750000  -0.3125000), wk =   0.0058594
        k(  113) = (   0.0625000   0.4375000  -0.5000000), wk =   0.0058594
        k(  114) = (   0.0625000   0.4375000  -0.4375000), wk =   0.0117188
        k(  115) = (   0.0625000   0.4375000  -0.3750000), wk =   0.0058594
        k(  116) = (   0.0625000  -0.5000000  -0.4375000), wk =   0.0029297
        k(  117) = (   0.1250000   0.2500000   0.3750000), wk =   0.0058594
        k(  118) = (   0.1250000   0.2500000   0.4375000), wk =   0.0117188
        k(  119) = (   0.1250000   0.2500000  -0.5000000), wk =   0.0117188
        k(  120) = (   0.1250000   0.2500000  -0.4375000), wk =   0.0117188
        k(  121) = (   0.1250000   0.2500000  -0.3750000), wk =   0.0058594
        k(  122) = (   0.1250000   0.3125000   0.4375000), wk =   0.0058594
        k(  123) = (   0.1250000   0.3125000  -0.5000000), wk =   0.0117188
        k(  124) = (   0.1250000   0.3125000  -0.4375000), wk =   0.0117188
        k(  125) = (   0.1250000   0.3125000  -0.3750000), wk =   0.0117188
        k(  126) = (   0.1250000   0.3125000  -0.3125000), wk =   0.0117188
        k(  127) = (   0.1250000   0.3125000  -0.2500000), wk =   0.0117188
        k(  128) = (   0.1250000   0.3125000  -0.1875000), wk =   0.0058594
        k(  129) = (   0.1250000   0.3750000  -0.5000000), wk =   0.0058594
        k(  130) = (   0.1250000   0.3750000  -0.4375000), wk =   0.0117188
        k(  131) = (   0.1250000   0.3750000  -0.3750000), wk =   0.0117188
        k(  132) = (   0.1250000   0.3750000  -0.3125000), wk =   0.0117188
        k(  133) = (   0.1250000   0.3750000  -0.2500000), wk =   0.0058594
        k(  134) = (   0.1250000   0.4375000  -0.4375000), wk =   0.0058594
        k(  135) = (   0.1250000   0.4375000  -0.3750000), wk =   0.0117188
        k(  136) = (   0.1250000   0.4375000  -0.3125000), wk =   0.0058594
        k(  137) = (   0.1250000  -0.5000000  -0.3750000), wk =   0.0029297
        k(  138) = (   0.1875000   0.3750000  -0.4375000), wk =   0.0058594
        k(  139) = (   0.1875000   0.3750000  -0.3750000), wk =   0.0117188
        k(  140) = (   0.1875000   0.3750000  -0.3125000), wk =   0.0058594
        k(  141) = (   0.1875000   0.4375000  -0.3750000), wk =   0.0058594
        k(  142) = (   0.1875000   0.4375000  -0.3125000), wk =   0.0117188
        k(  143) = (   0.1875000   0.4375000  -0.2500000), wk =   0.0058594
        k(  144) = (   0.1875000  -0.5000000  -0.3125000), wk =   0.0029297
        k(  145) = (   0.2500000  -0.5000000  -0.2500000), wk =   0.0014648

     Dense  grid:    14067 G-vectors     FFT dimensions: (  36,  36,  36)

     Largest allocated arrays     est. size (Mb)     dimensions
        Kohn-Sham Wavefunctions         0.12 Mb     (     224,   36)
        NL pseudopotentials             0.12 Mb     (     112,   68)
        Each V/rho on FFT grid          0.06 Mb     (    3888)
        Each G-vector array             0.01 Mb     (     879)
        G-vector shells                 0.00 Mb     (     166)
     Largest temporary arrays     est. size (Mb)     dimensions
        Auxiliary wavefunctions         0.49 Mb     (     224,  144)
        Each subspace H/S matrix        0.32 Mb     (     144,  144)
        Each <psi_i|beta_j> matrix      0.07 Mb     (      68,   2,   36)
        Arrays for rho mixing           0.47 Mb     (    3888,    8)

     Check: negative/imaginary core charge=   -0.000014    0.000000

     Initial potential from superposition of free atoms

     starting charge   27.99781, renormalised to   28.00000
     Starting wfc are   36 randomized atomic wfcs

     total cpu time spent up to now is        6.0 secs

     Self-consistent Calculation

     iteration #  1     ecut=    35.00 Ry     beta=0.70
     Davidson diagonalization with overlap
     ethr =  1.00E-02,  avg # of iterations =  3.4

     Threshold (ethr) on eigenvalues was too large:
     Diagonalizing with lowered threshold

     Davidson diagonalization with overlap
     ethr =  6.89E-05,  avg # of iterations =  3.3

     total cpu time spent up to now is       43.9 secs

     total energy              =    -325.57798600 Ry
     Harris-Foulkes estimate   =    -325.58087978 Ry
     estimated scf accuracy    <       0.02448163 Ry

     iteration #  2     ecut=    35.00 Ry     beta=0.70
     Davidson diagonalization with overlap
     ethr =  8.74E-05,  avg # of iterations =  2.0

     total cpu time spent up to now is       60.6 secs

     total energy              =    -325.58114263 Ry
     Harris-Foulkes estimate   =    -325.58130964 Ry
     estimated scf accuracy    <       0.00226572 Ry

     iteration #  3     ecut=    35.00 Ry     beta=0.70
     Davidson diagonalization with overlap
     ethr =  8.09E-06,  avg # of iterations =  2.1

     total cpu time spent up to now is       78.6 secs

     total energy              =    -325.58153166 Ry
     Harris-Foulkes estimate   =    -325.58154406 Ry
     estimated scf accuracy    <       0.00020936 Ry

     iteration #  4     ecut=    35.00 Ry     beta=0.70
     Davidson diagonalization with overlap
     ethr =  7.48E-07,  avg # of iterations =  2.1

     total cpu time spent up to now is       95.5 secs

     total energy              =    -325.58156814 Ry
     Harris-Foulkes estimate   =    -325.58156586 Ry
     estimated scf accuracy    <       0.00000291 Ry

     iteration #  5     ecut=    35.00 Ry     beta=0.70
     Davidson diagonalization with overlap
     ethr =  1.04E-08,  avg # of iterations =  2.6

     total cpu time spent up to now is      111.0 secs

     End of self-consistent calculation

          k = 0.0000 0.0000 0.0000 (  1807 PWs)   bands (ev):

   -15.0653 -15.0653 -15.0653 -15.0653 -15.0384 -15.0384 -15.0384 -15.0384
   -14.1340 -14.1340 -14.0193 -14.0193 -14.0193 -14.0193 -13.9318 -13.9318
   -13.9318 -13.9318 -13.9005 -13.9005  -3.1759  -3.1759   5.7247   5.7247
     6.5389   6.5389   7.1810   7.1810   7.1810   7.1810   8.7245   8.7245
     9.1902   9.1902   9.1902   9.1902

     occupation numbers 
     1.0000   1.0000   1.0000   1.0000   1.0000   1.0000   1.0000   1.0000
     1.0000   1.0000   1.0000   1.0000   1.0000   1.0000   1.0000   1.0000
     1.0000   1.0000   1.0000   1.0000   1.0000   1.0000   1.0000   1.0000
     1.0000   1.0000   0.0000   0.0000   0.0000   0.0000   0.0000   0.0000
     0.0000   0.0000   0.0000   0.0000

          k = 0.0442 0.0442-0.0442 (  1786 PWs)   bands (ev):

   -15.0634 -15.0634 -15.0495 -15.0495 -15.0251 -15.0251 -15.0014 -15.0014
   -14.1236 -14.1236 -14.0045 -14.0045 -13.9897 -13.9897 -13.9227 -13.9227
   -13.9225 -13.9225 -13.8734 -13.8734  -3.1412  -3.1412   5.3124   5.3124
     6.5856   6.5856   7.1066   7.1066   7.2471   7.2471   8.8809   8.8809
     9.2738   9.2738   9.2871   9.2871

     occupation numbers 
     1.0000   1.0000   1.0000   1.0000   1.0000   1.0000   1.0000   1.0000
     1.0000   1.0000   1.0000   1.0000   1.0000   1.0000   1.0000   1.0000
     1.0000   1.0000   1.0000   1.0000   1.0000   1.0000   1.0000   1.0000
     1.0000   1.0000   0.0000   0.0000   0.0000   0.0000   0.0000   0.0000
     0.0000   0.0000   0.0000   0.0000

          k = 0.0884 0.0884-0.0884 (  1768 PWs)   bands (ev):

   -15.0540 -15.0540 -15.0358 -15.0358 -15.0026 -15.0026 -14.9896 -14.9896
   -14.1086 -14.1086 -13.9945 -13.9945 -13.9734 -13.9734 -13.9117 -13.9117
   -13.9052 -13.9052 -13.8611 -13.8611  -3.0378  -3.0378   4.5471   4.5471
     6.4780   6.4780   6.9254   6.9254   7.3000   7.3000   9.2065   9.2065
     9.5242   9.5242   9.6298   9.6298

     occupation numbers 
     1.0000   1.0000   1.0000   1.0000   1.0000   1.0000   1.0000   1.0000
     1.0000   1.0000   1.0000   1.0000   1.0000   1.0000   1.0000   1.0000
     1.0000   1.0000   1.0000   1.0000   1.0000   1.0000   1.0000   1.0000
     1.0000   1.0000   1.0000   1.0000   0.0000   0.0000   0.0000   0.0000
     0.0000   0.0000   0.0000   0.0000

          k = 0.1326 0.1326-0.1326 (  1760 PWs)   bands (ev):

   -15.0475 -15.0475 -15.0397 -15.0397 -14.9845 -14.9845 -14.9822 -14.9822
   -14.0953 -14.0953 -13.9997 -13.9997 -13.9661 -13.9661 -13.9117 -13.9117
   -13.8896 -13.8896 -13.8540 -13.8540  -2.8686  -2.8686   3.7181   3.7181
     6.2823   6.2823   6.7075   6.7075   7.2241   7.2241   9.4930   9.4930
     9.7987   9.7987  10.2988  10.2988

     occupation numbers 
     1.0000   1.0000   1.0000   1.0000   1.0000   1.0000   1.0000   1.0000
     1.0000   1.0000   1.0000   1.0000   1.0000   1.0000   1.0000   1.0000
     1.0000   1.0000   1.0000   1.0000   1.0000   1.0000   1.0000   1.0000
     1.0000   1.0000   1.0000   1.0000   0.0000   0.0000   0.0000   0.0000
     0.0000   0.0000   0.0000   0.0000

          k = 0.1768 0.1768-0.1768 (  1760 PWs)   bands (ev):

   -15.0518 -15.0518 -15.0350 -15.0350 -14.9851 -14.9851 -14.9822 -14.9822
   -14.0858 -14.0858 -14.0034 -14.0034 -13.9803 -13.9803 -13.9036 -13.9036
   -13.8869 -13.8869 -13.8522 -13.8522  -2.6401  -2.6401   2.9077   2.9077
     6.0822   6.0822   6.4989   6.4989   7.0866   7.0866   9.7252   9.7252
    10.0213  10.0213  11.1082  11.1082

     occupation numbers 
     1.0000   1.0000   1.0000   1.0000   1.0000   1.0000   1.0000   1.0000
     1.0000   1.0000   1.0000   1.0000   1.0000   1.0000   1.0000   1.0000
     1.0000   1.0000   1.0000   1.0000   1.0000   1.0000   1.0000   1.0000
     1.0000   1.0000   1.0000   1.0000   0.0000   0.0000   0.0000   0.0000
     0.0000   0.0000   0.0000   0.0000

          k = 0.2210 0.2210-0.2210 (  1754 PWs)   bands (ev):

   -15.0361 -15.0361 -15.0288 -15.0288 -14.9872 -14.9872 -14.9811 -14.9811
   -14.0693 -14.0693 -14.0097 -14.0097 -13.9770 -13.9770 -13.8970 -13.8970
   -13.8842 -13.8842 -13.8466 -13.8466  -2.3652  -2.3652   2.1606   2.1606
     5.9105   5.9105   6.3232   6.3232   6.9482   6.9482   9.8756   9.8756
    10.1477  10.1477  11.9696  11.9696

     occupation numbers 
     1.0000   1.0000   1.0000   1.0000   1.0000   1.0000   1.0000   1.0000
     1.0000   1.0000   1.0000   1.0000   1.0000   1.0000   1.0000   1.0000
     1.0000   1.0000   1.0000   1.0000   1.0000   1.0000   1.0000   1.0000
     1.0000   1.0000   1.0000   1.0000   0.1250   0.1250   0.0000   0.0000
     0.0000   0.0000   0.0000   0.0000

          k = 0.2652 0.2652-0.2652 (  1745 PWs)   bands (ev):

   -15.0306 -15.0306 -15.0273 -15.0273 -14.9770 -14.9770 -14.9750 -14.9750
   -14.0630 -14.0630 -14.0124 -14.0124 -13.9688 -13.9688 -13.8770 -13.8770
   -13.8733 -13.8733 -13.8460 -13.8460  -2.0719  -2.0719   1.5212   1.5212
     5.7813   5.7813   6.1920   6.1920   6.8378   6.8378   9.9463   9.9463
    10.1915  10.1915  12.6273  12.6274

     occupation numbers 
     1.0000   1.0000   1.0000   1.0000   1.0000   1.0000   1.0000   1.0000
     1.0000   1.0000   1.0000   1.0000   1.0000   1.0000   1.0000   1.0000
     1.0000   1.0000   1.0000   1.0000   1.0000   1.0000   1.0000   1.0000
     1.0000   1.0000   1.0000   1.0000   1.0000   1.0000   0.0000   0.0000
     0.0000   0.0000   0.0000   0.0000

          k = 0.3094 0.3094-0.3094 (  1748 PWs)   bands (ev):

   -15.0308 -15.0308 -15.0237 -15.0237 -14.9905 -14.9905 -14.9818 -14.9818
   -14.0661 -14.0661 -14.0179 -14.0179 -13.9786 -13.9786 -13.8723 -13.8723
   -13.8676 -13.8676 -13.8586 -13.8586  -1.8205  -1.8205   1.0588   1.0588
     5.7017   5.7017   6.1114   6.1114   6.7681   6.7681   9.9685   9.9685
    10.1949  10.1949  12.6552  12.6553

     occupation numbers 
     1.0000   1.0000   1.0000   1.0000   1.0000   1.0000   1.0000   1.0000
     1.0000   1.0000   1.0000   1.0000   1.0000   1.0000   1.0000   1.0000
     1.0000   1.0000   1.0000   1.0000   1.0000   1.0000   1.0000   1.0000
     1.0000   1.0000   1.0000   1.0000   1.0000   1.0000   0.0000   0.0000
     0.0000   0.0000   0.0000   0.0000

          k =-0.3536-0.3536 0.3536 (  1772 PWs)   bands (ev):

   -15.0784 -15.0784 -15.0185 -15.0185 -15.0180 -15.0180 -14.9900 -14.9900
   -14.0637 -14.0637 -14.0622 -14.0622 -14.0119 -14.0119 -13.8900 -13.8900
   -13.8746 -13.8746 -13.8740 -13.8740  -1.7141  -1.7141   0.8818   0.8818
     5.6745   5.6745   6.0839   6.0839   6.7446   6.7446   9.9721   9.9721
    10.1920  10.1920  12.6306  12.6306

     occupation numbers 
     1.0000   1.0000   1.0000   1.0000   1.0000   1.0000   1.0000   1.0000
     1.0000   1.0000   1.0000   1.0000   1.0000   1.0000   1.0000   1.0000
     1.0000   1.0000   1.0000   1.0000   1.0000   1.0000   1.0000   1.0000
     1.0000   1.0000   1.0000   1.0000   1.0000   1.0000   0.0000   0.0000
     0.0000   0.0000   0.0000   0.0000

          k = 0.0884 0.0000 0.0000 (  1779 PWs)   bands (ev):

   -15.0583 -15.0583 -15.0487 -15.0487 -15.0142 -15.0142 -14.9953 -14.9953
   -14.1200 -14.1200 -13.9999 -13.9999 -13.9784 -13.9784 -13.9260 -13.9260
   -13.9148 -13.9148 -13.8643 -13.8643  -3.1295  -3.1295   5.2315   5.2315
     6.5178   6.5178   6.9275   6.9275   7.5037   7.5037   8.7985   8.7985
     9.2873   9.2873   9.4214   9.4214

     occupation numbers 
     1.0000   1.0000   1.0000   1.0000   1.0000   1.0000   1.0000   1.0000
     1.0000   1.0000   1.0000   1.0000   1.0000   1.0000   1.0000   1.0000
     1.0000   1.0000   1.0000   1.0000   1.0000   1.0000   1.0000   1.0000
     1.0000   1.0000   1.0000   1.0000   0.0000   0.0000   0.0000   0.0000
     0.0000   0.0000   0.0000   0.0000

          k = 0.1326 0.0442-0.0442 (  1769 PWs)   bands (ev):

   -15.0539 -15.0539 -15.0501 -15.0501 -14.9969 -14.9969 -14.9853 -14.9853
   -14.1160 -14.1160 -13.9875 -13.9875 -13.9718 -13.9718 -13.9167 -13.9167
   -13.9119 -13.9119 -13.8541 -13.8541  -3.0488  -3.0488   4.6642   4.6642
     6.3780   6.3780   6.7180   6.7180   7.7099   7.7099   8.8651   8.8651
     9.5736   9.5736   9.7230   9.7230

     occupation numbers 
     1.0000   1.0000   1.0000   1.0000   1.0000   1.0000   1.0000   1.0000
     1.0000   1.0000   1.0000   1.0000   1.0000   1.0000   1.0000   1.0000
     1.0000   1.0000   1.0000   1.0000   1.0000   1.0000   1.0000   1.0000
     1.0000   1.0000   1.0000   1.0000   0.0000   0.0000   0.0000   0.0000
     0.0000   0.0000   0.0000   0.0000

          k = 0.1768 0.0884-0.0884 (  1761 PWs)   bands (ev):

   -15.0442 -15.0442 -15.0326 -15.0326 -14.9940 -14.9940 -14.9885 -14.9885
   -14.0945 -14.0945 -13.9952 -13.9952 -13.9752 -13.9752 -13.9038 -13.9038
   -13.8950 -13.8950 -13.8573 -13.8573  -2.9012  -2.9012   3.9110   3.9110
     6.1736   6.1736   6.5006   6.5006   7.7077   7.7077   9.1079   9.1079
     9.9064   9.9064  10.2366  10.2366

     occupation numbers 
     1.0000   1.0000   1.0000   1.0000   1.0000   1.0000   1.0000   1.0000
     1.0000   1.0000   1.0000   1.0000   1.0000   1.0000   1.0000   1.0000
     1.0000   1.0000   1.0000   1.0000   1.0000   1.0000   1.0000   1.0000
     1.0000   1.0000   1.0000   1.0000   0.0000   0.0000   0.0000   0.0000
     0.0000   0.0000   0.0000   0.0000

          k = 0.2210 0.1326-0.1326 (  1765 PWs)   bands (ev):

   -15.0505 -15.0505 -15.0358 -15.0358 -14.9969 -14.9969 -14.9873 -14.9873
   -14.0888 -14.0888 -14.0070 -14.0070 -13.9828 -13.9828 -13.9081 -13.9081
   -13.8956 -13.8956 -13.8552 -13.8552  -2.6915  -2.6915   3.1238   3.1238
     5.9582   5.9582   6.2833   6.2833   7.5917   7.5917   9.4128   9.4128
    10.1614  10.1614  10.8755  10.8755

     occupation numbers 
     1.0000   1.0000   1.0000   1.0000   1.0000   1.0000   1.0000   1.0000
     1.0000   1.0000   1.0000   1.0000   1.0000   1.0000   1.0000   1.0000
     1.0000   1.0000   1.0000   1.0000   1.0000   1.0000   1.0000   1.0000
     1.0000   1.0000   1.0000   1.0000   0.0000   0.0000   0.0000   0.0000
     0.0000   0.0000   0.0000   0.0000

          k = 0.2652 0.1768-0.1768 (  1757 PWs)   bands (ev):

   -15.0451 -15.0451 -15.0205 -15.0205 -14.9935 -14.9935 -14.9863 -14.9863
   -14.0721 -14.0721 -14.0127 -14.0127 -13.9817 -13.9817 -13.8936 -13.8936
   -13.8871 -13.8871 -13.8474 -13.8474  -2.4299  -2.4299   2.3711   2.3711
     5.7640   5.7640   6.0973   6.0973   7.4490   7.4490   9.6667   9.6667
    10.3020  10.3020  11.5523  11.5523

     occupation numbers 
     1.0000   1.0000   1.0000   1.0000   1.0000   1.0000   1.0000   1.0000
     1.0000   1.0000   1.0000   1.0000   1.0000   1.0000   1.0000   1.0000
     1.0000   1.0000   1.0000   1.0000   1.0000   1.0000   1.0000   1.0000
     1.0000   1.0000   1.0000   1.0000   0.0000   0.0000   0.0000   0.0000
     0.0000   0.0000   0.0000   0.0000

          k = 0.3094 0.2210-0.2210 (  1754 PWs)   bands (ev):

   -15.0428 -15.0428 -15.0232 -15.0232 -14.9923 -14.9923 -14.9823 -14.9823
   -14.0691 -14.0691 -14.0150 -14.0150 -13.9836 -13.9836 -13.8886 -13.8886
   -13.8764 -13.8764 -13.8487 -13.8487  -2.1379  -2.1379   1.7013   1.7013
     5.6040   5.6040   5.9628   5.9628   7.3217   7.3217   9.8240   9.8240
    10.3349  10.3349  12.2165  12.2166

     occupation numbers 
     1.0000   1.0000   1.0000   1.0000   1.0000   1.0000   1.0000   1.0000
     1.0000   1.0000   1.0000   1.0000   1.0000   1.0000   1.0000   1.0000
     1.0000   1.0000   1.0000   1.0000   1.0000   1.0000   1.0000   1.0000
     1.0000   1.0000   1.0000   1.0000   0.0000   0.0000   0.0000   0.0000
     0.0000   0.0000   0.0000   0.0000

          k = 0.3536 0.2652-0.2652 (  1747 PWs)   bands (ev):

   -15.0310 -15.0310 -15.0233 -15.0233 -14.9912 -14.9912 -14.9756 -14.9756
   -14.0610 -14.0610 -14.0172 -14.0172 -13.9782 -13.9782 -13.8802 -13.8802
   -13.8677 -13.8677 -13.8518 -13.8518  -1.8623  -1.8623   1.1756   1.1756
     5.4858   5.4858   5.8886   5.8886   7.2289   7.2289   9.9088   9.9088
    10.3048  10.3048  12.6464  12.6464

     occupation numbers 
     1.0000   1.0000   1.0000   1.0000   1.0000   1.0000   1.0000   1.0000
     1.0000   1.0000   1.0000   1.0000   1.0000   1.0000   1.0000   1.0000
     1.0000   1.0000   1.0000   1.0000   1.0000   1.0000   1.0000   1.0000
     1.0000   1.0000   1.0000   1.0000   0.0000   0.0000   0.0000   0.0000
     0.0000   0.0000   0.0000   0.0000

          k =-0.3094-0.3977 0.3977 (  1749 PWs)   bands (ev):

   -15.0360 -15.0360 -15.0164 -15.0164 -14.9948 -14.9948 -14.9848 -14.9848
   -14.0604 -14.0604 -14.0222 -14.0222 -13.9824 -13.9824 -13.8832 -13.8832
   -13.8692 -13.8692 -13.8555 -13.8555  -1.6944  -1.6944   0.8929   0.8929
     5.4152   5.4152   5.8763   5.8763   7.1789   7.1789   9.9610   9.9610
    10.2563  10.2563  12.7414  12.7414

     occupation numbers 
     1.0000   1.0000   1.0000   1.0000   1.0000   1.0000   1.0000   1.0000
     1.0000   1.0000   1.0000   1.0000   1.0000   1.0000   1.0000   1.0000
     1.0000   1.0000   1.0000   1.0000   1.0000   1.0000   1.0000   1.0000
     1.0000   1.0000   1.0000   1.0000   0.0000   0.0000   0.0000   0.0000
     0.0000   0.0000   0.0000   0.0000

          k =-0.2652-0.3536 0.3536 (  1745 PWs)   bands (ev):

   -15.0316 -15.0316 -15.0135 -15.0135 -14.9915 -14.9915 -14.9802 -14.9802
   -14.0559 -14.0559 -14.0186 -14.0186 -13.9784 -13.9784 -13.8795 -13.8795
   -13.8699 -13.8699 -13.8525 -13.8525  -1.7314  -1.7314   0.9532   0.9532
     5.3970   5.3970   5.9243   5.9243   7.1748   7.1748   9.9956   9.9956
    10.2193  10.2193  12.7539  12.7539

     occupation numbers 
     1.0000   1.0000   1.0000   1.0000   1.0000   1.0000   1.0000   1.0000
     1.0000   1.0000   1.0000   1.0000   1.0000   1.0000   1.0000   1.0000
     1.0000   1.0000   1.0000   1.0000   1.0000   1.0000   1.0000   1.0000
     1.0000   1.0000   1.0000   1.0000   0.0000   0.0000   0.0000   0.0000
     0.0000   0.0000   0.0000   0.0000

          k =-0.2210-0.3094 0.3094 (  1751 PWs)   bands (ev):

   -15.0346 -15.0346 -15.0251 -15.0251 -14.9946 -14.9946 -14.9814 -14.9814
   -14.0677 -14.0677 -14.0164 -14.0164 -13.9817 -13.9817 -13.8819 -13.8819
   -13.8751 -13.8751 -13.8507 -13.8507  -1.9483  -1.9483   1.3307   1.3307
     5.4347   5.4347   6.0280   6.0280   7.2160   7.2160   9.9898   9.9898
    10.2092  10.2092  12.6383  12.6383

     occupation numbers 
     1.0000   1.0000   1.0000   1.0000   1.0000   1.0000   1.0000   1.0000
     1.0000   1.0000   1.0000   1.0000   1.0000   1.0000   1.0000   1.0000
     1.0000   1.0000   1.0000   1.0000   1.0000   1.0000   1.0000   1.0000
     1.0000   1.0000   1.0000   1.0000   0.0000   0.0000   0.0000   0.0000
     0.0000   0.0000   0.0000   0.0000

          k =-0.1768-0.2652 0.2652 (  1765 PWs)   bands (ev):

   -15.0547 -15.0547 -15.0320 -15.0320 -14.9974 -14.9974 -14.9907 -14.9907
   -14.0794 -14.0794 -14.0226 -14.0226 -13.9891 -13.9891 -13.8986 -13.8986
   -13.8928 -13.8928 -13.8512 -13.8512  -2.2370  -2.2370   1.9131   1.9131
     5.5304   5.5304   6.1809   6.1809   7.2980   7.2980   9.9138   9.9138
    10.1985  10.1985  12.0717  12.0717

     occupation numbers 
     1.0000   1.0000   1.0000   1.0000   1.0000   1.0000   1.0000   1.0000
     1.0000   1.0000   1.0000   1.0000   1.0000   1.0000   1.0000   1.0000
     1.0000   1.0000   1.0000   1.0000   1.0000   1.0000   1.0000   1.0000
     1.0000   1.0000   1.0000   1.0000   0.0000   0.0000   0.0000   0.0000
     0.0000   0.0000   0.0000   0.0000

          k =-0.1326-0.2210 0.2210 (  1759 PWs)   bands (ev):

   -15.0530 -15.0530 -15.0246 -15.0246 -14.9897 -14.9897 -14.9857 -14.9857
   -14.0782 -14.0782 -14.0106 -14.0106 -13.9833 -13.9833 -13.8996 -13.8996
   -13.8869 -13.8869 -13.8480 -13.8480  -2.5224  -2.5224   2.6152   2.6152
     5.6847   5.6847   6.3730   6.3730   7.4087   7.4087   9.7556   9.7556
    10.1036  10.1036  11.3460  11.3460

     occupation numbers 
     1.0000   1.0000   1.0000   1.0000   1.0000   1.0000   1.0000   1.0000
     1.0000   1.0000   1.0000   1.0000   1.0000   1.0000   1.0000   1.0000
     1.0000   1.0000   1.0000   1.0000   1.0000   1.0000   1.0000   1.0000
     1.0000   1.0000   1.0000   1.0000   0.0000   0.0000   0.0000   0.0000
     0.0000   0.0000   0.0000   0.0000

          k =-0.0884-0.1768 0.1768 (  1762 PWs)   bands (ev):

   -15.0491 -15.0491 -15.0336 -15.0336 -14.9946 -14.9946 -14.9850 -14.9850
   -14.0903 -14.0903 -14.0057 -14.0057 -13.9750 -13.9750 -13.9049 -13.9049
   -13.8903 -13.8903 -13.8595 -13.8595  -2.7682  -2.7682   3.3819   3.3819
     5.8959   5.8959   6.5868   6.5868   7.5196   7.5196   9.5223   9.5223
     9.8510   9.8510  10.6920  10.6920

     occupation numbers 
     1.0000   1.0000   1.0000   1.0000   1.0000   1.0000   1.0000   1.0000
     1.0000   1.0000   1.0000   1.0000   1.0000   1.0000   1.0000   1.0000
     1.0000   1.0000   1.0000   1.0000   1.0000   1.0000   1.0000   1.0000
     1.0000   1.0000   1.0000   1.0000   0.0000   0.0000   0.0000   0.0000
     0.0000   0.0000   0.0000   0.0000

          k =-0.0442-0.1326 0.1326 (  1763 PWs)   bands (ev):

   -15.0539 -15.0539 -15.0355 -15.0355 -14.9921 -14.9921 -14.9840 -14.9840
   -14.1026 -14.1026 -13.9927 -13.9927 -13.9710 -13.9710 -13.9089 -13.9089
   -13.9023 -13.9023 -13.8553 -13.8553  -2.9579  -2.9579   4.1601   4.1601
     6.1574   6.1574   6.7922   6.7922   7.5683   7.5683   9.2554   9.2554
     9.5071   9.5071  10.1254  10.1254

     occupation numbers 
     1.0000   1.0000   1.0000   1.0000   1.0000   1.0000   1.0000   1.0000
     1.0000   1.0000   1.0000   1.0000   1.0000   1.0000   1.0000   1.0000
     1.0000   1.0000   1.0000   1.0000   1.0000   1.0000   1.0000   1.0000
     1.0000   1.0000   1.0000   1.0000   0.0000   0.0000   0.0000   0.0000
     0.0000   0.0000   0.0000   0.0000

          k = 0.0000-0.0884 0.0884 (  1765 PWs)   bands (ev):

   -15.0538 -15.0538 -15.0450 -15.0450 -14.9909 -14.9909 -14.9836 -14.9836
   -14.1146 -14.1146 -13.9802 -13.9802 -13.9720 -13.9720 -13.9150 -13.9150
   -13.9041 -13.9041 -13.8509 -13.8509  -3.0835  -3.0835   4.8633   4.8633
     6.4387   6.4387   6.9539   6.9539   7.4594   7.4594   9.0142   9.0142
     9.2927   9.2927   9.6250   9.6250

     occupation numbers 
     1.0000   1.0000   1.0000   1.0000   1.0000   1.0000   1.0000   1.0000
     1.0000   1.0000   1.0000   1.0000   1.0000   1.0000   1.0000   1.0000
     1.0000   1.0000   1.0000   1.0000   1.0000   1.0000   1.0000   1.0000
     1.0000   1.0000   0.0000   0.0000   0.0000   0.0000   0.0000   0.0000
     0.0000   0.0000   0.0000   0.0000

          k = 0.1768 0.0000 0.0000 (  1768 PWs)   bands (ev):

   -15.0581 -15.0581 -15.0473 -15.0473 -14.9930 -14.9930 -14.9848 -14.9848
   -14.1150 -14.1150 -13.9878 -13.9878 -13.9738 -13.9738 -13.9176 -13.9176
   -13.9057 -13.9057 -13.8515 -13.8515  -2.9908  -2.9908   4.4149   4.4149
     6.1873   6.1873   6.4402   6.4402   8.1745   8.1745   8.5603   8.5603
     9.8745   9.8745   9.9773   9.9773

     occupation numbers 
     1.0000   1.0000   1.0000   1.0000   1.0000   1.0000   1.0000   1.0000
     1.0000   1.0000   1.0000   1.0000   1.0000   1.0000   1.0000   1.0000
     1.0000   1.0000   1.0000   1.0000   1.0000   1.0000   1.0000   1.0000
     1.0000   1.0000   1.0000   1.0000   0.0000   0.0000   0.0000   0.0000
     0.0000   0.0000   0.0000   0.0000

          k = 0.2210 0.0442-0.0442 (  1762 PWs)   bands (ev):

   -15.0479 -15.0479 -15.0308 -15.0308 -14.9998 -14.9998 -14.9860 -14.9860
   -14.0943 -14.0943 -13.9917 -13.9917 -13.9848 -13.9848 -13.9025 -13.9025
   -13.8979 -13.8979 -13.8539 -13.8539  -2.8649  -2.8649   3.8725   3.8725
     5.9681   5.9681   6.1994   6.1994   8.3226   8.3226   8.5889   8.5889
    10.2454  10.2454  10.3723  10.3723

     occupation numbers 
     1.0000   1.0000   1.0000   1.0000   1.0000   1.0000   1.0000   1.0000
     1.0000   1.0000   1.0000   1.0000   1.0000   1.0000   1.0000   1.0000
     1.0000   1.0000   1.0000   1.0000   1.0000   1.0000   1.0000   1.0000
     1.0000   1.0000   1.0000   1.0000   0.0000   0.0000   0.0000   0.0000
     0.0000   0.0000   0.0000   0.0000

          k = 0.2652 0.0884-0.0884 (  1762 PWs)   bands (ev):

   -15.0396 -15.0396 -15.0293 -15.0293 -15.0082 -15.0082 -14.9866 -14.9866
   -14.0811 -14.0811 -14.0075 -14.0075 -13.9859 -13.9859 -13.9022 -13.9022
   -13.8917 -13.8917 -13.8563 -13.8563  -2.6751  -2.6751   3.1976   3.1976
     5.7188   5.7188   5.9778   5.9778   8.2502   8.2502   8.8771   8.8771
    10.5414  10.5414  10.7965  10.7965

     occupation numbers 
     1.0000   1.0000   1.0000   1.0000   1.0000   1.0000   1.0000   1.0000
     1.0000   1.0000   1.0000   1.0000   1.0000   1.0000   1.0000   1.0000
     1.0000   1.0000   1.0000   1.0000   1.0000   1.0000   1.0000   1.0000
     1.0000   1.0000   1.0000   1.0000   0.0000   0.0000   0.0000   0.0000
     0.0000   0.0000   0.0000   0.0000

          k = 0.3094 0.1326-0.1326 (  1748 PWs)   bands (ev):

   -15.0384 -15.0384 -15.0173 -15.0173 -14.9872 -14.9872 -14.9742 -14.9742
   -14.0661 -14.0661 -14.0071 -14.0071 -13.9709 -13.9709 -13.8944 -13.8944
   -13.8830 -13.8830 -13.8362 -13.8362  -2.4291  -2.4291   2.4966   2.4966
     5.4644   5.4644   5.8009   5.8009   8.1162   8.1162   9.2491   9.2491
    10.7134  10.7134  11.1167  11.1167

     occupation numbers 
     1.0000   1.0000   1.0000   1.0000   1.0000   1.0000   1.0000   1.0000
     1.0000   1.0000   1.0000   1.0000   1.0000   1.0000   1.0000   1.0000
     1.0000   1.0000   1.0000   1.0000   1.0000   1.0000   1.0000   1.0000
     1.0000   1.0000   1.0000   1.0000   0.0000   0.0000   0.0000   0.0000
     0.0000   0.0000   0.0000   0.0000

          k = 0.3536 0.1768-0.1768 (  1762 PWs)   bands (ev):

   -15.0494 -15.0494 -15.0299 -15.0299 -14.9982 -14.9982 -14.9905 -14.9905
   -14.0726 -14.0726 -14.0238 -14.0238 -13.9894 -13.9894 -13.9066 -13.9066
   -13.8841 -13.8841 -13.8500 -13.8500  -2.1432  -2.1432   1.8362   1.8362
     5.2319   5.2319   5.6872   5.6872   7.9776   7.9776   9.5678   9.5678
    10.7517  10.7517  11.4741  11.4741

     occupation numbers 
     1.0000   1.0000   1.0000   1.0000   1.0000   1.0000   1.0000   1.0000
     1.0000   1.0000   1.0000   1.0000   1.0000   1.0000   1.0000   1.0000
     1.0000   1.0000   1.0000   1.0000   1.0000   1.0000   1.0000   1.0000
     1.0000   1.0000   1.0000   1.0000   0.0000   0.0000   0.0000   0.0000
     0.0000   0.0000   0.0000   0.0000

          k = 0.3977 0.2210-0.2210 (  1752 PWs)   bands (ev):

   -15.0440 -15.0440 -15.0264 -15.0264 -14.9931 -14.9931 -14.9781 -14.9781
   -14.0664 -14.0664 -14.0206 -14.0206 -13.9788 -13.9788 -13.8988 -13.8988
   -13.8750 -13.8750 -13.8428 -13.8428  -1.8529  -1.8529   1.2784   1.2784
     5.0420   5.0420   5.6389   5.6389   7.8640   7.8640   9.7661   9.7661
    10.6982  10.6982  11.9878  11.9878

     occupation numbers 
     1.0000   1.0000   1.0000   1.0000   1.0000   1.0000   1.0000   1.0000
     1.0000   1.0000   1.0000   1.0000   1.0000   1.0000   1.0000   1.0000
     1.0000   1.0000   1.0000   1.0000   1.0000   1.0000   1.0000   1.0000
     1.0000   1.0000   1.0000   1.0000   0.0000   0.0000   0.0000   0.0000
     0.0000   0.0000   0.0000   0.0000

          k =-0.2652-0.4419 0.4419 (  1750 PWs)   bands (ev):

   -15.0441 -15.0441 -15.0190 -15.0190 -14.9963 -14.9963 -14.9763 -14.9763
   -14.0554 -14.0554 -14.0271 -14.0271 -13.9838 -13.9838 -13.8957 -13.8957
   -13.8721 -13.8721 -13.8478 -13.8478  -1.6346  -1.6346   0.9133   0.9133
     4.9068   4.9068   5.6545   5.6545   7.7891   7.7891   9.8851   9.8851
    10.6010  10.6010  12.5509  12.5509

     occupation numbers 
     1.0000   1.0000   1.0000   1.0000   1.0000   1.0000   1.0000   1.0000
     1.0000   1.0000   1.0000   1.0000   1.0000   1.0000   1.0000   1.0000
     1.0000   1.0000   1.0000   1.0000   1.0000   1.0000   1.0000   1.0000
     1.0000   1.0000   1.0000   1.0000   0.0000   0.0000   0.0000   0.0000
     0.0000   0.0000   0.0000   0.0000

          k =-0.2210-0.3977 0.3977 (  1748 PWs)   bands (ev):

   -15.0374 -15.0374 -15.0145 -15.0145 -14.9962 -14.9962 -14.9800 -14.9800
   -14.0567 -14.0567 -14.0203 -14.0203 -13.9803 -13.9803 -13.8984 -13.8984
   -13.8720 -13.8720 -13.8472 -13.8472  -1.5992  -1.5992   0.8581   0.8581
     4.8340   4.8340   5.7310   5.7310   7.7573   7.7573   9.9815   9.9815
    10.4893  10.4893  12.8542  12.8542

     occupation numbers 
     1.0000   1.0000   1.0000   1.0000   1.0000   1.0000   1.0000   1.0000
     1.0000   1.0000   1.0000   1.0000   1.0000   1.0000   1.0000   1.0000
     1.0000   1.0000   1.0000   1.0000   1.0000   1.0000   1.0000   1.0000
     1.0000   1.0000   1.0000   1.0000   0.0000   0.0000   0.0000   0.0000
     0.0000   0.0000   0.0000   0.0000

          k =-0.1768-0.3536 0.3536 (  1756 PWs)   bands (ev):

   -15.0452 -15.0452 -15.0277 -15.0277 -15.0006 -15.0006 -14.9829 -14.9829
   -14.0698 -14.0698 -14.0246 -14.0246 -13.9850 -13.9850 -13.8999 -13.8999
   -13.8781 -13.8781 -13.8464 -13.8464  -1.7712  -1.7712   1.1374   1.1374
     4.8299   4.8299   5.8627   5.8627   7.7677   7.7677  10.0713  10.0713
    10.3721  10.3721  12.6002  12.6002

     occupation numbers 
     1.0000   1.0000   1.0000   1.0000   1.0000   1.0000   1.0000   1.0000
     1.0000   1.0000   1.0000   1.0000   1.0000   1.0000   1.0000   1.0000
     1.0000   1.0000   1.0000   1.0000   1.0000   1.0000   1.0000   1.0000
     1.0000   1.0000   1.0000   1.0000   0.0000   0.0000   0.0000   0.0000
     0.0000   0.0000   0.0000   0.0000

          k =-0.1326-0.3094 0.3094 (  1760 PWs)   bands (ev):

   -15.0503 -15.0503 -15.0308 -15.0308 -14.9989 -14.9989 -14.9836 -14.9836
   -14.0745 -14.0745 -14.0235 -14.0235 -13.9823 -13.9823 -13.9017 -13.9017
   -13.8895 -13.8895 -13.8455 -13.8455  -2.0493  -2.0493   1.6440   1.6440
     4.9012   4.9012   6.0413   6.0413   7.8132   7.8132  10.0938  10.0939
    10.2699  10.2699  11.9539  11.9539

     occupation numbers 
     1.0000   1.0000   1.0000   1.0000   1.0000   1.0000   1.0000   1.0000
     1.0000   1.0000   1.0000   1.0000   1.0000   1.0000   1.0000   1.0000
     1.0000   1.0000   1.0000   1.0000   1.0000   1.0000   1.0000   1.0000
     1.0000   1.0000   1.0000   1.0000   0.0000   0.0000   0.0000   0.0000
     0.0000   0.0000   0.0000   0.0000

          k =-0.0884-0.2652 0.2652 (  1754 PWs)   bands (ev):

   -15.0464 -15.0464 -15.0189 -15.0189 -14.9937 -14.9937 -14.9818 -14.9818
   -14.0733 -14.0733 -14.0111 -14.0111 -13.9757 -13.9757 -13.8956 -13.8956
   -13.8882 -13.8882 -13.8398 -13.8398  -2.3416  -2.3416   2.2716   2.2716
     5.0572   5.0572   6.2530   6.2530   7.8748   7.8748   9.9355   9.9355
    10.1836  10.1836  11.3485  11.3485

     occupation numbers 
     1.0000   1.0000   1.0000   1.0000   1.0000   1.0000   1.0000   1.0000
     1.0000   1.0000   1.0000   1.0000   1.0000   1.0000   1.0000   1.0000
     1.0000   1.0000   1.0000   1.0000   1.0000   1.0000   1.0000   1.0000
     1.0000   1.0000   1.0000   1.0000   0.0000   0.0000   0.0000   0.0000
     0.0000   0.0000   0.0000   0.0000

          k =-0.0442-0.2210 0.2210 (  1759 PWs)   bands (ev):

   -15.0509 -15.0509 -15.0246 -15.0246 -14.9964 -14.9964 -14.9841 -14.9841
   -14.0833 -14.0833 -14.0079 -14.0079 -13.9790 -13.9790 -13.9008 -13.9008
   -13.8911 -13.8911 -13.8466 -13.8466  -2.6025  -2.6025   2.9468   2.9468
     5.3119   5.3119   6.4744   6.4744   7.9086   7.9086   9.6846   9.6846
     9.9189   9.9189  10.9649  10.9649

     occupation numbers 
     1.0000   1.0000   1.0000   1.0000   1.0000   1.0000   1.0000   1.0000
     1.0000   1.0000   1.0000   1.0000   1.0000   1.0000   1.0000   1.0000
     1.0000   1.0000   1.0000   1.0000   1.0000   1.0000   1.0000   1.0000
     1.0000   1.0000   1.0000   1.0000   0.0000   0.0000   0.0000   0.0000
     0.0000   0.0000   0.0000   0.0000

          k = 0.0000-0.1768 0.1768 (  1755 PWs)   bands (ev):

   -15.0421 -15.0421 -15.0263 -15.0263 -14.9914 -14.9914 -14.9791 -14.9791
   -14.0854 -14.0854 -13.9902 -13.9902 -13.9758 -13.9758 -13.9023 -13.9023
   -13.8895 -13.8895 -13.8536 -13.8536  -2.8112  -2.8112   3.6014   3.6014
     5.6828   5.6828   6.6676   6.6676   7.8292   7.8292   9.4272   9.4272
     9.6162   9.6162  10.6237  10.6237

     occupation numbers 
[...]

   -15.0520 -15.0520 -15.0286 -15.0286 -15.0019 -15.0019 -14.9719 -14.9719
   -14.0633 -14.0633 -14.0179 -14.0179 -13.9856 -13.9856 -13.9344 -13.9344
   -13.8726 -13.8726 -13.8337 -13.8337  -1.3105  -1.3105   0.7533   0.7533
     4.1289   4.1289   5.0028   5.0028   8.8041   8.8041   9.9049   9.9049
    10.8392  10.8392  12.3707  12.3707

     occupation numbers 
     1.0000   1.0000   1.0000   1.0000   1.0000   1.0000   1.0000   1.0000
     1.0000   1.0000   1.0000   1.0000   1.0000   1.0000   1.0000   1.0000
     1.0000   1.0000   1.0000   1.0000   1.0000   1.0000   1.0000   1.0000
     1.0000   1.0000   1.0000   1.0000   0.0000   0.0000   0.0000   0.0000
     0.0000   0.0000   0.0000   0.0000

          k =-0.1326-0.3977 0.5745 (  1749 PWs)   bands (ev):

   -15.0473 -15.0473 -15.0170 -15.0170 -15.0024 -15.0024 -14.9662 -14.9662
   -14.0512 -14.0512 -14.0161 -14.0161 -13.9824 -13.9824 -13.9312 -13.9312
   -13.8704 -13.8704 -13.8301 -13.8301  -1.1288  -1.1288   0.5198   0.5198
     4.0095   4.0095   4.9850   4.9850   8.8253   8.8253  10.0802  10.0802
    11.3431  11.3431  12.0545  12.0545

     occupation numbers 
     1.0000   1.0000   1.0000   1.0000   1.0000   1.0000   1.0000   1.0000
     1.0000   1.0000   1.0000   1.0000   1.0000   1.0000   1.0000   1.0000
     1.0000   1.0000   1.0000   1.0000   1.0000   1.0000   1.0000   1.0000
     1.0000   1.0000   1.0000   1.0000   0.0000   0.0000   0.0000   0.0000
     0.0000   0.0000   0.0000   0.0000

          k =-0.0884-0.3536 0.5303 (  1749 PWs)   bands (ev):

   -15.0466 -15.0466 -15.0174 -15.0174 -15.0025 -15.0025 -14.9684 -14.9684
   -14.0555 -14.0555 -14.0146 -14.0146 -13.9785 -13.9785 -13.9321 -13.9321
   -13.8705 -13.8705 -13.8288 -13.8288  -1.1834  -1.1834   0.5891   0.5891
     3.9771   3.9771   5.0533   5.0533   8.8690   8.8690  10.0738  10.0738
    11.4008  11.4008  12.0208  12.0208

     occupation numbers 
     1.0000   1.0000   1.0000   1.0000   1.0000   1.0000   1.0000   1.0000
     1.0000   1.0000   1.0000   1.0000   1.0000   1.0000   1.0000   1.0000
     1.0000   1.0000   1.0000   1.0000   1.0000   1.0000   1.0000   1.0000
     1.0000   1.0000   1.0000   1.0000   0.0000   0.0000   0.0000   0.0000
     0.0000   0.0000   0.0000   0.0000

          k =-0.0442-0.3094 0.4861 (  1753 PWs)   bands (ev):

   -15.0500 -15.0500 -15.0269 -15.0269 -15.0001 -15.0001 -14.9697 -14.9697
   -14.0609 -14.0609 -14.0200 -14.0200 -13.9810 -13.9810 -13.9316 -13.9316
   -13.8697 -13.8697 -13.8332 -13.8332  -1.4270  -1.4270   0.9082   0.9082
     4.0482   4.0482   5.1950   5.1950   8.9164   8.9164   9.9615   9.9615
    10.8429  10.8429  12.2266  12.2266

     occupation numbers 
     1.0000   1.0000   1.0000   1.0000   1.0000   1.0000   1.0000   1.0000
     1.0000   1.0000   1.0000   1.0000   1.0000   1.0000   1.0000   1.0000
     1.0000   1.0000   1.0000   1.0000   1.0000   1.0000   1.0000   1.0000
     1.0000   1.0000   1.0000   1.0000   0.0000   0.0000   0.0000   0.0000
     0.0000   0.0000   0.0000   0.0000

          k = 0.0000-0.2652 0.4419 (  1746 PWs)   bands (ev):

   -15.0441 -15.0441 -15.0179 -15.0179 -14.9924 -14.9924 -14.9679 -14.9679
   -14.0594 -14.0594 -14.0118 -14.0118 -13.9722 -13.9722 -13.9177 -13.9177
   -13.8659 -13.8659 -13.8289 -13.8289  -1.7250  -1.7250   1.3271   1.3271
     4.2418   4.2418   5.3849   5.3849   8.9068   8.9068   9.6183   9.6183
    10.6695  10.6695  11.9986  11.9986

     occupation numbers 
     1.0000   1.0000   1.0000   1.0000   1.0000   1.0000   1.0000   1.0000
     1.0000   1.0000   1.0000   1.0000   1.0000   1.0000   1.0000   1.0000
     1.0000   1.0000   1.0000   1.0000   1.0000   1.0000   1.0000   1.0000
     1.0000   1.0000   1.0000   1.0000   0.0000   0.0000   0.0000   0.0000
     0.0000   0.0000   0.0000   0.0000

          k =-0.1768-0.5303 0.7071 (  1753 PWs)   bands (ev):

   -15.0479 -15.0479 -15.0267 -15.0267 -14.9954 -14.9954 -14.9768 -14.9768
   -14.0559 -14.0559 -14.0235 -14.0235 -13.9762 -13.9762 -13.9417 -13.9417
   -13.8662 -13.8662 -13.8334 -13.8334  -1.4339  -1.4339   0.9462   0.9462
     4.4062   4.4062   4.8619   4.8619   8.5596   8.5596   8.9532   8.9532
    11.3517  11.3517  12.9477  12.9477

     occupation numbers 
     1.0000   1.0000   1.0000   1.0000   1.0000   1.0000   1.0000   1.0000
     1.0000   1.0000   1.0000   1.0000   1.0000   1.0000   1.0000   1.0000
     1.0000   1.0000   1.0000   1.0000   1.0000   1.0000   1.0000   1.0000
     1.0000   1.0000   1.0000   1.0000   0.0000   0.0000   0.0000   0.0000
     0.0000   0.0000   0.0000   0.0000

          k =-0.1326-0.4861 0.6629 (  1744 PWs)   bands (ev):

   -15.0439 -15.0439 -15.0193 -15.0193 -14.9913 -14.9913 -14.9635 -14.9635
   -14.0470 -14.0470 -14.0145 -14.0145 -13.9723 -13.9723 -13.9338 -13.9338
   -13.8631 -13.8631 -13.8249 -13.8249  -1.1301  -1.1301   0.5626   0.5626
     4.1790   4.1790   4.7400   4.7400   8.7315   8.7315   9.4170   9.4170
    11.1800  11.1800  12.9049  12.9049

     occupation numbers 
     1.0000   1.0000   1.0000   1.0000   1.0000   1.0000   1.0000   1.0000
     1.0000   1.0000   1.0000   1.0000   1.0000   1.0000   1.0000   1.0000
     1.0000   1.0000   1.0000   1.0000   1.0000   1.0000   1.0000   1.0000
     1.0000   1.0000   1.0000   1.0000   0.0000   0.0000   0.0000   0.0000
     0.0000   0.0000   0.0000   0.0000

          k =-0.0884-0.4419 0.6187 (  1742 PWs)   bands (ev):

   -15.0406 -15.0406 -15.0129 -15.0129 -14.9962 -14.9962 -14.9601 -14.9601
   -14.0453 -14.0453 -14.0081 -14.0081 -13.9734 -13.9734 -13.9371 -13.9371
   -13.8620 -13.8620 -13.8240 -13.8240  -0.8922  -0.8922   0.2874   0.2874
     3.9842   3.9842   4.7287   4.7287   8.7908   8.7908  10.1299  10.1299
    11.0816  11.0816  12.3361  12.3361

     occupation numbers 
     1.0000   1.0000   1.0000   1.0000   1.0000   1.0000   1.0000   1.0000
     1.0000   1.0000   1.0000   1.0000   1.0000   1.0000   1.0000   1.0000
     1.0000   1.0000   1.0000   1.0000   1.0000   1.0000   1.0000   1.0000
     1.0000   1.0000   1.0000   1.0000   0.0000   0.0000   0.0000   0.0000
     0.0000   0.0000   0.0000   0.0000

          k =-0.0442-0.3977 0.5745 (  1745 PWs)   bands (ev):

   -15.0423 -15.0423 -15.0097 -15.0097 -15.0045 -15.0045 -14.9618 -14.9618
   -14.0483 -14.0483 -14.0087 -14.0087 -13.9762 -13.9762 -13.9389 -13.9389
   -13.8647 -13.8647 -13.8292 -13.8292  -0.8943  -0.8943   0.2922   0.2922
     3.8734   3.8734   4.8160   4.8160   8.8673   8.8673  10.5882  10.5882
    11.2902  11.2902  11.6273  11.6273

     occupation numbers 
     1.0000   1.0000   1.0000   1.0000   1.0000   1.0000   1.0000   1.0000
     1.0000   1.0000   1.0000   1.0000   1.0000   1.0000   1.0000   1.0000
     1.0000   1.0000   1.0000   1.0000   1.0000   1.0000   1.0000   1.0000
     1.0000   1.0000   1.0000   1.0000   0.0000   0.0000   0.0000   0.0000
     0.0000   0.0000   0.0000   0.0000

          k = 0.0000-0.3536 0.5303 (  1748 PWs)   bands (ev):

   -15.0473 -15.0473 -15.0192 -15.0192 -14.9992 -14.9992 -14.9641 -14.9641
   -14.0539 -14.0539 -14.0152 -14.0152 -13.9732 -13.9732 -13.9388 -13.9388
   -13.8665 -13.8665 -13.8280 -13.8280  -1.1296  -1.1296   0.5609   0.5609
     3.8864   3.8864   4.9804   4.9804   8.9423   8.9423  10.4540  10.4540
    10.9215  10.9215  12.0972  12.0972

     occupation numbers 
     1.0000   1.0000   1.0000   1.0000   1.0000   1.0000   1.0000   1.0000
     1.0000   1.0000   1.0000   1.0000   1.0000   1.0000   1.0000   1.0000
     1.0000   1.0000   1.0000   1.0000   1.0000   1.0000   1.0000   1.0000
     1.0000   1.0000   1.0000   1.0000   0.0000   0.0000   0.0000   0.0000
     0.0000   0.0000   0.0000   0.0000

          k =-0.0884-0.5303 0.7071 (  1746 PWs)   bands (ev):

   -15.0425 -15.0425 -15.0239 -15.0239 -14.9915 -14.9915 -14.9697 -14.9697
   -14.0466 -14.0466 -14.0188 -14.0188 -13.9722 -13.9722 -13.9445 -13.9445
   -13.8606 -13.8606 -13.8290 -13.8290  -0.9079  -0.9079   0.2955   0.2955
     4.3250   4.3250   4.5806   4.5806   8.5251   8.5251   8.7796   8.7796
    12.0183  12.0183  13.2397  13.2397

     occupation numbers 
     1.0000   1.0000   1.0000   1.0000   1.0000   1.0000   1.0000   1.0000
     1.0000   1.0000   1.0000   1.0000   1.0000   1.0000   1.0000   1.0000
     1.0000   1.0000   1.0000   1.0000   1.0000   1.0000   1.0000   1.0000
     1.0000   1.0000   1.0000   1.0000   0.0000   0.0000   0.0000   0.0000
     0.0000   0.0000   0.0000   0.0000

          k =-0.0442-0.4861 0.6629 (  1742 PWs)   bands (ev):

   -15.0372 -15.0372 -15.0146 -15.0146 -14.9939 -14.9939 -14.9646 -14.9646
   -14.0415 -14.0415 -14.0138 -14.0138 -13.9647 -13.9647 -13.9431 -13.9431
   -13.8611 -13.8611 -13.8289 -13.8289  -0.6245  -0.6245  -0.0039  -0.0039
     4.1223   4.1223   4.5338   4.5338   8.6823   8.6823   9.3631   9.3631
    11.8368  11.8368  12.5543  12.5544

     occupation numbers 
     1.0000   1.0000   1.0000   1.0000   1.0000   1.0000   1.0000   1.0000
     1.0000   1.0000   1.0000   1.0000   1.0000   1.0000   1.0000   1.0000
     1.0000   1.0000   1.0000   1.0000   1.0000   1.0000   1.0000   1.0000
     1.0000   1.0000   1.0000   1.0000   0.0000   0.0000   0.0000   0.0000
     0.0000   0.0000   0.0000   0.0000

          k = 0.0000-0.4419 0.6187 (  1747 PWs)   bands (ev):

   -15.0440 -15.0440 -15.0147 -15.0147 -15.0020 -15.0020 -14.9646 -14.9646
   -14.0468 -14.0468 -14.0182 -14.0182 -13.9706 -13.9706 -13.9445 -13.9445
   -13.8639 -13.8639 -13.8352 -13.8352  -0.6266  -0.6266   0.0075   0.0075
     3.9353   3.9353   4.6333   4.6333   8.7720   8.7720  10.1676  10.1676
    11.6455  11.6455  11.7440  11.7440

     occupation numbers 
     1.0000   1.0000   1.0000   1.0000   1.0000   1.0000   1.0000   1.0000
     1.0000   1.0000   1.0000   1.0000   1.0000   1.0000   1.0000   1.0000
     1.0000   1.0000   1.0000   1.0000   1.0000   1.0000   1.0000   1.0000
     1.0000   1.0000   1.0000   1.0000   0.0000   0.0000   0.0000   0.0000
     0.0000   0.0000   0.0000   0.0000

          k =-0.7071 0.1768 0.0000 (  1744 PWs)   bands (ev):

   -15.0383 -15.0383 -15.0203 -15.0203 -14.9934 -14.9934 -14.9699 -14.9699
   -14.0446 -14.0446 -14.0215 -14.0215 -13.9579 -13.9579 -13.9517 -13.9517
   -13.8553 -13.8553 -13.8315 -13.8315  -0.3424  -0.3424  -0.3118  -0.3118
     4.3233   4.3233   4.4600   4.4600   8.5426   8.5426   8.6810   8.6810
    12.6594  12.6594  12.8202  12.8202

     occupation numbers 
     1.0000   1.0000   1.0000   1.0000   1.0000   1.0000   1.0000   1.0000
     1.0000   1.0000   1.0000   1.0000   1.0000   1.0000   1.0000   1.0000
     1.0000   1.0000   1.0000   1.0000   1.0000   1.0000   1.0000   1.0000
     1.0000   1.0000   1.0000   1.0000   0.0000   0.0000   0.0000   0.0000
     0.0000   0.0000   0.0000   0.0000

          k =-0.1768-0.4419 0.7071 (  1743 PWs)   bands (ev):

   -15.0408 -15.0408 -15.0168 -15.0168 -14.9909 -14.9909 -14.9629 -14.9629
   -14.0494 -14.0494 -14.0102 -14.0102 -13.9722 -13.9722 -13.9290 -13.9290
   -13.8629 -13.8629 -13.8256 -13.8256  -1.3002  -1.3002   0.7736   0.7736
     4.1026   4.1026   4.8958   4.8958   9.2552   9.2552   9.5307   9.5307
    10.6256  10.6257  12.6817  12.6818

     occupation numbers 
     1.0000   1.0000   1.0000   1.0000   1.0000   1.0000   1.0000   1.0000
     1.0000   1.0000   1.0000   1.0000   1.0000   1.0000   1.0000   1.0000
     1.0000   1.0000   1.0000   1.0000   1.0000   1.0000   1.0000   1.0000
     1.0000   1.0000   1.0000   1.0000   0.0000   0.0000   0.0000   0.0000
     0.0000   0.0000   0.0000   0.0000

          k =-0.1326-0.3977 0.6629 (  1747 PWs)   bands (ev):

   -15.0454 -15.0454 -15.0172 -15.0172 -14.9997 -14.9997 -14.9638 -14.9638
   -14.0524 -14.0524 -14.0099 -14.0099 -13.9774 -13.9774 -13.9396 -13.9396
   -13.8664 -13.8664 -13.8250 -13.8250  -1.0168  -1.0168   0.4351   0.4351
     3.9754   3.9754   4.7415   4.7415   9.3263   9.3263   9.9739   9.9739
    10.7356  10.7356  12.2232  12.2232

     occupation numbers 
     1.0000   1.0000   1.0000   1.0000   1.0000   1.0000   1.0000   1.0000
     1.0000   1.0000   1.0000   1.0000   1.0000   1.0000   1.0000   1.0000
     1.0000   1.0000   1.0000   1.0000   1.0000   1.0000   1.0000   1.0000
     1.0000   1.0000   1.0000   1.0000   0.0000   0.0000   0.0000   0.0000
     0.0000   0.0000   0.0000   0.0000

          k =-0.0884-0.3536 0.6187 (  1740 PWs)   bands (ev):

   -15.0392 -15.0392 -15.0047 -15.0047 -15.0006 -15.0006 -14.9563 -14.9563
   -14.0425 -14.0425 -14.0068 -14.0068 -13.9709 -13.9709 -13.9370 -13.9370
   -13.8591 -13.8591 -13.8240 -13.8240  -0.8789  -0.8789   0.2778   0.2778
     3.9350   3.9350   4.6851   4.6851   9.3313   9.3313  10.0933  10.0933
    11.2358  11.2358  11.5681  11.5681

     occupation numbers 
     1.0000   1.0000   1.0000   1.0000   1.0000   1.0000   1.0000   1.0000
     1.0000   1.0000   1.0000   1.0000   1.0000   1.0000   1.0000   1.0000
     1.0000   1.0000   1.0000   1.0000   1.0000   1.0000   1.0000   1.0000
     1.0000   1.0000   1.0000   1.0000   0.0000   0.0000   0.0000   0.0000
     0.0000   0.0000   0.0000   0.0000

          k =-0.0884-0.4419 0.7071 (  1743 PWs)   bands (ev):

   -15.0426 -15.0426 -15.0143 -15.0143 -14.9938 -14.9938 -14.9607 -14.9607
   -14.0454 -14.0454 -14.0118 -14.0118 -13.9668 -13.9668 -13.9434 -13.9434
   -13.8624 -13.8624 -13.8269 -13.8269  -0.8245  -0.8245   0.2257   0.2257
     4.0859   4.0859   4.5103   4.5103   9.3142   9.3142   9.5275   9.5275
    11.0037  11.0037  12.3896  12.3896

     occupation numbers 
     1.0000   1.0000   1.0000   1.0000   1.0000   1.0000   1.0000   1.0000
     1.0000   1.0000   1.0000   1.0000   1.0000   1.0000   1.0000   1.0000
     1.0000   1.0000   1.0000   1.0000   1.0000   1.0000   1.0000   1.0000
     1.0000   1.0000   1.0000   1.0000   0.0000   0.0000   0.0000   0.0000
     0.0000   0.0000   0.0000   0.0000

          k =-0.0442-0.3977 0.6629 (  1749 PWs)   bands (ev):

   -15.0505 -15.0505 -15.0162 -15.0162 -15.0033 -15.0033 -14.9610 -14.9610
   -14.0481 -14.0481 -14.0189 -14.0189 -13.9728 -13.9728 -13.9506 -13.9506
   -13.8651 -13.8651 -13.8345 -13.8345  -0.6050  -0.6050  -0.0030  -0.0030
     4.0041   4.0041   4.4311   4.4311   9.4557   9.4557  10.1631  10.1631
    10.9283  10.9283  11.5415  11.5415

     occupation numbers 
     1.0000   1.0000   1.0000   1.0000   1.0000   1.0000   1.0000   1.0000
     1.0000   1.0000   1.0000   1.0000   1.0000   1.0000   1.0000   1.0000
     1.0000   1.0000   1.0000   1.0000   1.0000   1.0000   1.0000   1.0000
     1.0000   1.0000   1.0000   1.0000   0.0000   0.0000   0.0000   0.0000
     0.0000   0.0000   0.0000   0.0000

          k =-0.0000-0.3536 0.6187 (  1751 PWs)   bands (ev):

   -15.0486 -15.0486 -15.0160 -15.0160 -15.0068 -15.0068 -14.9656 -14.9656
   -14.0512 -14.0512 -14.0163 -14.0163 -13.9750 -13.9750 -13.9512 -13.9512
   -13.8693 -13.8693 -13.8353 -13.8353  -0.7267  -0.7267   0.1265   0.1265
     3.9435   3.9435   4.5304   4.5304   9.5044   9.5044  10.3442  10.3442
    10.8161  10.8161  11.4491  11.4491

     occupation numbers 
     1.0000   1.0000   1.0000   1.0000   1.0000   1.0000   1.0000   1.0000
     1.0000   1.0000   1.0000   1.0000   1.0000   1.0000   1.0000   1.0000
     1.0000   1.0000   1.0000   1.0000   1.0000   1.0000   1.0000   1.0000
     1.0000   1.0000   1.0000   1.0000   0.0000   0.0000   0.0000   0.0000
     0.0000   0.0000   0.0000   0.0000

          k =-0.7071 0.2652 0.0000 (  1746 PWs)   bands (ev):

   -15.0441 -15.0441 -15.0162 -15.0162 -14.9978 -14.9978 -14.9630 -14.9630
   -14.0454 -14.0454 -14.0187 -14.0187 -13.9618 -13.9618 -13.9518 -13.9518
   -13.8645 -13.8645 -13.8347 -13.8347  -0.3314  -0.3314  -0.2906  -0.2906
     4.1477   4.1477   4.3105   4.3105   9.3134   9.3134   9.5081   9.5081
    11.6171  11.6171  11.7227  11.7227

     occupation numbers 
     1.0000   1.0000   1.0000   1.0000   1.0000   1.0000   1.0000   1.0000
     1.0000   1.0000   1.0000   1.0000   1.0000   1.0000   1.0000   1.0000
     1.0000   1.0000   1.0000   1.0000   1.0000   1.0000   1.0000   1.0000
     1.0000   1.0000   1.0000   1.0000   0.0000   0.0000   0.0000   0.0000
     0.0000   0.0000   0.0000   0.0000

          k =-0.7071 0.3536 0.0000 (  1744 PWs)   bands (ev):

   -15.0452 -15.0452 -15.0093 -15.0093 -15.0008 -15.0008 -14.9576 -14.9576
   -14.0431 -14.0431 -14.0147 -14.0147 -13.9618 -13.9618 -13.9544 -13.9544
   -13.8632 -13.8632 -13.8347 -13.8347  -0.3265  -0.3265  -0.2820  -0.2820
     4.0820   4.0820   4.2527   4.2527   9.9091   9.9091  10.2284  10.2284
    10.9062  10.9062  10.9268  10.9268

     occupation numbers 
     1.0000   1.0000   1.0000   1.0000   1.0000   1.0000   1.0000   1.0000
     1.0000   1.0000   1.0000   1.0000   1.0000   1.0000   1.0000   1.0000
     1.0000   1.0000   1.0000   1.0000   1.0000   1.0000   1.0000   1.0000
     1.0000   1.0000   1.0000   1.0000   0.0000   0.0000   0.0000   0.0000
     0.0000   0.0000   0.0000   0.0000

     the Fermi energy is     6.9471 ev

!    total energy              =    -325.58156879 Ry
     Harris-Foulkes estimate   =    -325.58156873 Ry
     estimated scf accuracy    <       0.00000008 Ry

     The total energy is the sum of the following terms:

     one-electron contribution =    -157.40930951 Ry
     hartree contribution      =      95.39449502 Ry
     xc contribution           =     -96.03695889 Ry
     ewald contribution        =    -167.52979535 Ry
     smearing contrib. (-TS)   =      -0.00000006 Ry

     convergence has been achieved in   5 iterations

     Writing output data file Sn.save
 
     init_run     :      4.52s CPU      4.97s WALL (       1 calls)
     electrons    :    101.07s CPU    105.08s WALL (       1 calls)

     Called by init_run:
     wfcinit      :      4.24s CPU      4.49s WALL (       1 calls)
     potinit      :      0.01s CPU      0.02s WALL (       1 calls)

     Called by electrons:
     c_bands      :     85.61s CPU     89.08s WALL (       6 calls)
     sum_band     :     15.14s CPU     15.60s WALL (       6 calls)
     v_of_rho     :      0.03s CPU      0.03s WALL (       6 calls)
     v_h          :      0.00s CPU      0.00s WALL (       6 calls)
     v_xc         :      0.03s CPU      0.03s WALL (       6 calls)
     newd         :      0.33s CPU      0.35s WALL (       6 calls)
     mix_rho      :      0.01s CPU      0.02s WALL (       6 calls)

     Called by c_bands:
     init_us_2    :      0.18s CPU      0.23s WALL (    1885 calls)
     cegterg      :     82.15s CPU     85.40s WALL (     870 calls)

     Called by sum_band:
     sum_band:bec :      2.94s CPU      2.97s WALL (     870 calls)
     addusdens    :      0.13s CPU      0.17s WALL (       6 calls)

     Called by *egterg:
     h_psi        :     60.24s CPU     62.30s WALL (    3266 calls)
     s_psi        :      2.58s CPU      2.61s WALL (    3266 calls)
     g_psi        :      0.17s CPU      0.17s WALL (    2251 calls)
     cdiaghg      :     12.86s CPU     13.16s WALL (    2976 calls)
     cegterg:over :      4.52s CPU      4.56s WALL (    2251 calls)
     cegterg:upda :      1.54s CPU      1.55s WALL (    2251 calls)
     cegterg:last :      0.79s CPU      0.80s WALL (     870 calls)

     Called by h_psi:
     h_psi:vloc   :     53.82s CPU     55.77s WALL (    3266 calls)
     h_psi:vnl    :      6.27s CPU      6.37s WALL (    3266 calls)
     add_vuspsi   :      2.95s CPU      2.98s WALL (    3266 calls)

     General routines
     calbec       :      4.38s CPU      4.47s WALL (    4136 calls)
     fft          :      0.04s CPU      0.08s WALL (     116 calls)
     fftw         :     59.78s CPU     61.94s WALL (  410292 calls)
     davcio       :      0.02s CPU      0.15s WALL (     145 calls)
 
     Parallel routines
     fft_scatter  :     36.11s CPU     37.66s WALL (  410408 calls)
 
     PWSCF        :  1m46.71s CPU     1m51.55s WALL

 
   This run was terminated on:  19:53:58  15Mar2020            

=------------------------------------------------------------------------------=
   JOB DONE.
=------------------------------------------------------------------------------=
