
     Program PWSCF v.5.4.0 starts on 27Feb2020 at 21:23:36 

     This program is part of the open-source Quantum ESPRESSO suite
     for quantum simulation of materials; please cite
         "P. Giannozzi et al., J. Phys.:Condens. Matter 21 395502 (2009);
          URL http://www.quantum-espresso.org", 
     in publications or presentations arising from this work. More details at
     http://www.quantum-espresso.org/quote

     Parallel version (MPI & OpenMP), running on      16 processor cores
     Number of MPI processes:                16
     Threads/MPI process:                     1
     R & G space division:  proc/nbgrp/npool/nimage =      16
     Waiting for input...
     Reading input from standard input
Warning: card &IONS ignored
Warning: card / ignored
Warning: card &CELL ignored
Warning: card / ignored

     Current dimensions of program PWSCF are:
     Max number of different atomic species (ntypx) = 10
     Max number of k-points (npk) =  40000
     Max angular momentum in pseudopotentials (lmaxx) =  3

     Subspace diagonalization in iterative solution of the eigenvalue problem:
     a serial algorithm will be used

 
     Parallelization info
     --------------------
     sticks:   dense  smooth     PW     G-vecs:    dense   smooth      PW
     Min         244     244     66                10145    10145    1465
     Max         249     249     67                10146    10146    1470
     Sum        3919    3919   1069               162321   162321   23505
 

     Title: 
     Sn                                                                         


     bravais-lattice index     =            0
     lattice parameter (alat)  =       8.8993  a.u.
     unit-cell volume          =     498.3785 (a.u.)^3
     number of atoms/cell      =            2
     number of atomic types    =            1
     number of electrons       =        28.00
     number of Kohn-Sham states=           18
     kinetic-energy cutoff     =     180.0000  Ry
     charge density cutoff     =     720.0000  Ry
     convergence threshold     =      1.0E-06
     mixing beta               =       0.7000
     number of iterations used =            8  plain     mixing
     Exchange-correlation      = PBE ( 1  4  3  4 0 0)

     celldm(1)=   8.899346  celldm(2)=   0.000000  celldm(3)=   0.000000
     celldm(4)=   0.000000  celldm(5)=   0.000000  celldm(6)=   0.000000

     crystal axes: (cart. coord. in units of alat)
               a(1) = (   0.000000   0.707107   0.707107 )  
               a(2) = (   0.707107   0.000000   0.707107 )  
               a(3) = (   0.707107   0.707107   0.000000 )  

     reciprocal axes: (cart. coord. in units 2 pi/alat)
               b(1) = ( -0.707107  0.707107  0.707107 )  
               b(2) = (  0.707107 -0.707107  0.707107 )  
               b(3) = (  0.707107  0.707107 -0.707107 )  


     PseudoPot. # 1 for Sn read from file:
     ../PseudopotentialDatabase/Sn_ONCV_PBE_FR-1.1.upf
     MD5 check sum: 6dd2180f739ea5ae1610ead5e1628a0e
     Pseudo is Norm-conserving, Zval = 14.0
     Generated using ONCVPSP code by D. R. Hamann
     Using radial grid of  602 points,  6 beta functions with: 
                l(1) =   0
                l(2) =   0
                l(3) =   1
                l(4) =   1
                l(5) =   2
                l(6) =   2

     atomic species   valence    mass     pseudopotential
        Sn            14.00   118.71000     Sn( 1.00)

     48 Sym. Ops., with inversion, found (24 have fractional translation)


                                    s                        frac. trans.

      isym =  1     identity                                     

 cryst.   s( 1) = (     1          0          0      )
                  (     0          1          0      )
                  (     0          0          1      )

 cart.    s( 1) = (  1.0000000  0.0000000  0.0000000 )
                  (  0.0000000  1.0000000  0.0000000 )
                  (  0.0000000  0.0000000  1.0000000 )


      isym =  2     180 deg rotation - cart. axis [0,0,1]        

 cryst.   s( 2) = (     0          1         -1      )
                  (     1          0         -1      )
                  (     0          0         -1      )

 cart.    s( 2) = ( -1.0000000  0.0000000  0.0000000 )
                  (  0.0000000 -1.0000000  0.0000000 )
                  (  0.0000000  0.0000000  1.0000000 )


      isym =  3     180 deg rotation - cart. axis [0,1,0]        

 cryst.   s( 3) = (     0         -1          1      )
                  (     0         -1          0      )
                  (     1         -1          0      )

 cart.    s( 3) = ( -1.0000000  0.0000000  0.0000000 )
                  (  0.0000000  1.0000000  0.0000000 )
                  (  0.0000000  0.0000000 -1.0000000 )


      isym =  4     180 deg rotation - cart. axis [1,0,0]        

 cryst.   s( 4) = (    -1          0          0      )
                  (    -1          0          1      )
                  (    -1          1          0      )

 cart.    s( 4) = (  1.0000000  0.0000000  0.0000000 )
                  (  0.0000000 -1.0000000  0.0000000 )
                  (  0.0000000  0.0000000 -1.0000000 )


      isym =  5     180 deg rotation - cart. axis [1,1,0]        

 cryst.   s( 5) = (    -1          0          1      )    f =( -0.2500000 )
                  (     0         -1          1      )       ( -0.2500000 )
                  (     0          0          1      )       ( -0.2500000 )

 cart.    s( 5) = (  0.0000000  1.0000000  0.0000000 )    f =( -0.3535534 )
                  (  1.0000000  0.0000000  0.0000000 )       ( -0.3535534 )
                  (  0.0000000  0.0000000 -1.0000000 )       ( -0.3535534 )


      isym =  6     180 deg rotation - cart. axis [1,-1,0]       

 cryst.   s( 6) = (     0         -1          0      )    f =( -0.2500000 )
                  (    -1          0          0      )       ( -0.2500000 )
                  (     0          0         -1      )       ( -0.2500000 )

 cart.    s( 6) = (  0.0000000 -1.0000000  0.0000000 )    f =( -0.3535534 )
                  ( -1.0000000  0.0000000  0.0000000 )       ( -0.3535534 )
                  (  0.0000000  0.0000000 -1.0000000 )       ( -0.3535534 )


      isym =  7      90 deg rotation - cart. axis [0,0,-1]       

 cryst.   s( 7) = (     0          1          0      )    f =( -0.2500000 )
                  (     0          1         -1      )       ( -0.2500000 )
                  (    -1          1          0      )       ( -0.2500000 )

 cart.    s( 7) = (  0.0000000  1.0000000  0.0000000 )    f =( -0.3535534 )
                  ( -1.0000000  0.0000000  0.0000000 )       ( -0.3535534 )
                  (  0.0000000  0.0000000  1.0000000 )       ( -0.3535534 )


      isym =  8      90 deg rotation - cart. axis [0,0,1]        

 cryst.   s( 8) = (     1          0         -1      )    f =( -0.2500000 )
                  (     1          0          0      )       ( -0.2500000 )
                  (     1         -1          0      )       ( -0.2500000 )

 cart.    s( 8) = (  0.0000000 -1.0000000  0.0000000 )    f =( -0.3535534 )
                  (  1.0000000  0.0000000  0.0000000 )       ( -0.3535534 )
                  (  0.0000000  0.0000000  1.0000000 )       ( -0.3535534 )


      isym =  9     180 deg rotation - cart. axis [1,0,1]        

 cryst.   s( 9) = (    -1          1          0      )    f =( -0.2500000 )
                  (     0          1          0      )       ( -0.2500000 )
                  (     0          1         -1      )       ( -0.2500000 )

 cart.    s( 9) = (  0.0000000  0.0000000  1.0000000 )    f =( -0.3535534 )
                  (  0.0000000 -1.0000000  0.0000000 )       ( -0.3535534 )
                  (  1.0000000  0.0000000  0.0000000 )       ( -0.3535534 )


      isym = 10     180 deg rotation - cart. axis [-1,0,1]       

 cryst.   s(10) = (     0          0         -1      )    f =( -0.2500000 )
                  (     0         -1          0      )       ( -0.2500000 )
                  (    -1          0          0      )       ( -0.2500000 )

 cart.    s(10) = (  0.0000000  0.0000000 -1.0000000 )    f =( -0.3535534 )
                  (  0.0000000 -1.0000000  0.0000000 )       ( -0.3535534 )
                  ( -1.0000000  0.0000000  0.0000000 )       ( -0.3535534 )


      isym = 11      90 deg rotation - cart. axis [0,1,0]        

 cryst.   s(11) = (     0          0          1      )    f =( -0.2500000 )
                  (    -1          0          1      )       ( -0.2500000 )
                  (     0         -1          1      )       ( -0.2500000 )

 cart.    s(11) = (  0.0000000  0.0000000  1.0000000 )    f =( -0.3535534 )
                  (  0.0000000  1.0000000  0.0000000 )       ( -0.3535534 )
                  ( -1.0000000  0.0000000  0.0000000 )       ( -0.3535534 )


      isym = 12      90 deg rotation - cart. axis [0,-1,0]       

 cryst.   s(12) = (     1         -1          0      )    f =( -0.2500000 )
                  (     1          0         -1      )       ( -0.2500000 )
                  (     1          0          0      )       ( -0.2500000 )

 cart.    s(12) = (  0.0000000  0.0000000 -1.0000000 )    f =( -0.3535534 )
                  (  0.0000000  1.0000000  0.0000000 )       ( -0.3535534 )
                  (  1.0000000  0.0000000  0.0000000 )       ( -0.3535534 )


      isym = 13     180 deg rotation - cart. axis [0,1,1]        

 cryst.   s(13) = (     1          0          0      )    f =( -0.2500000 )
                  (     1         -1          0      )       ( -0.2500000 )
                  (     1          0         -1      )       ( -0.2500000 )

 cart.    s(13) = ( -1.0000000  0.0000000  0.0000000 )    f =( -0.3535534 )
                  (  0.0000000  0.0000000  1.0000000 )       ( -0.3535534 )
                  (  0.0000000  1.0000000  0.0000000 )       ( -0.3535534 )


      isym = 14     180 deg rotation - cart. axis [0,1,-1]       

 cryst.   s(14) = (    -1          0          0      )    f =( -0.2500000 )
                  (     0          0         -1      )       ( -0.2500000 )
                  (     0         -1          0      )       ( -0.2500000 )

 cart.    s(14) = ( -1.0000000  0.0000000  0.0000000 )    f =( -0.3535534 )
                  (  0.0000000  0.0000000 -1.0000000 )       ( -0.3535534 )
                  (  0.0000000 -1.0000000  0.0000000 )       ( -0.3535534 )


      isym = 15      90 deg rotation - cart. axis [-1,0,0]       

 cryst.   s(15) = (     0         -1          1      )    f =( -0.2500000 )
                  (     0          0          1      )       ( -0.2500000 )
                  (    -1          0          1      )       ( -0.2500000 )

 cart.    s(15) = (  1.0000000  0.0000000  0.0000000 )    f =( -0.3535534 )
                  (  0.0000000  0.0000000  1.0000000 )       ( -0.3535534 )
                  (  0.0000000 -1.0000000  0.0000000 )       ( -0.3535534 )


      isym = 16      90 deg rotation - cart. axis [1,0,0]        

 cryst.   s(16) = (     0          1         -1      )    f =( -0.2500000 )
                  (    -1          1          0      )       ( -0.2500000 )
                  (     0          1          0      )       ( -0.2500000 )

 cart.    s(16) = (  1.0000000  0.0000000  0.0000000 )    f =( -0.3535534 )
                  (  0.0000000  0.0000000 -1.0000000 )       ( -0.3535534 )
                  (  0.0000000  1.0000000  0.0000000 )       ( -0.3535534 )


      isym = 17     120 deg rotation - cart. axis [-1,-1,-1]     

 cryst.   s(17) = (     0          0          1      )
                  (     1          0          0      )
                  (     0          1          0      )

 cart.    s(17) = (  0.0000000  1.0000000  0.0000000 )
                  (  0.0000000  0.0000000  1.0000000 )
                  (  1.0000000  0.0000000  0.0000000 )


      isym = 18     120 deg rotation - cart. axis [-1,1,1]       

 cryst.   s(18) = (     1         -1          0      )
                  (     0         -1          1      )
                  (     0         -1          0      )

 cart.    s(18) = (  0.0000000 -1.0000000  0.0000000 )
                  (  0.0000000  0.0000000  1.0000000 )
                  ( -1.0000000  0.0000000  0.0000000 )


      isym = 19     120 deg rotation - cart. axis [1,1,-1]       

 cryst.   s(19) = (    -1          1          0      )
                  (    -1          0          0      )
                  (    -1          0          1      )

 cart.    s(19) = (  0.0000000  1.0000000  0.0000000 )
                  (  0.0000000  0.0000000 -1.0000000 )
                  ( -1.0000000  0.0000000  0.0000000 )


      isym = 20     120 deg rotation - cart. axis [1,-1,1]       

 cryst.   s(20) = (     0          0         -1      )
                  (     0          1         -1      )
                  (     1          0         -1      )

 cart.    s(20) = (  0.0000000 -1.0000000  0.0000000 )
                  (  0.0000000  0.0000000 -1.0000000 )
                  (  1.0000000  0.0000000  0.0000000 )


      isym = 21     120 deg rotation - cart. axis [1,1,1]        

 cryst.   s(21) = (     0          1          0      )
                  (     0          0          1      )
                  (     1          0          0      )

 cart.    s(21) = (  0.0000000  0.0000000  1.0000000 )
                  (  1.0000000  0.0000000  0.0000000 )
                  (  0.0000000  1.0000000  0.0000000 )


      isym = 22     120 deg rotation - cart. axis [-1,1,-1]      

 cryst.   s(22) = (    -1          0          1      )
                  (    -1          1          0      )
                  (    -1          0          0      )

 cart.    s(22) = (  0.0000000  0.0000000  1.0000000 )
                  ( -1.0000000  0.0000000  0.0000000 )
                  (  0.0000000 -1.0000000  0.0000000 )


      isym = 23     120 deg rotation - cart. axis [1,-1,-1]      

 cryst.   s(23) = (     1          0         -1      )
                  (     0          0         -1      )
                  (     0          1         -1      )

 cart.    s(23) = (  0.0000000  0.0000000 -1.0000000 )
                  ( -1.0000000  0.0000000  0.0000000 )
                  (  0.0000000  1.0000000  0.0000000 )


      isym = 24     120 deg rotation - cart. axis [-1,-1,1]      

 cryst.   s(24) = (     0         -1          0      )
                  (     1         -1          0      )
                  (     0         -1          1      )

 cart.    s(24) = (  0.0000000  0.0000000 -1.0000000 )
                  (  1.0000000  0.0000000  0.0000000 )
                  (  0.0000000 -1.0000000  0.0000000 )


      isym = 25     inversion                                    

 cryst.   s(25) = (    -1          0          0      )    f =( -0.2500000 )
                  (     0         -1          0      )       ( -0.2500000 )
                  (     0          0         -1      )       ( -0.2500000 )

 cart.    s(25) = ( -1.0000000  0.0000000  0.0000000 )    f =( -0.3535534 )
                  (  0.0000000 -1.0000000  0.0000000 )       ( -0.3535534 )
                  (  0.0000000  0.0000000 -1.0000000 )       ( -0.3535534 )


      isym = 26     inv. 180 deg rotation - cart. axis [0,0,1]   

 cryst.   s(26) = (     0         -1          1      )    f =( -0.2500000 )
                  (    -1          0          1      )       ( -0.2500000 )
                  (     0          0          1      )       ( -0.2500000 )

 cart.    s(26) = (  1.0000000  0.0000000  0.0000000 )    f =( -0.3535534 )
                  (  0.0000000  1.0000000  0.0000000 )       ( -0.3535534 )
                  (  0.0000000  0.0000000 -1.0000000 )       ( -0.3535534 )


      isym = 27     inv. 180 deg rotation - cart. axis [0,1,0]   

 cryst.   s(27) = (     0          1         -1      )    f =( -0.2500000 )
                  (     0          1          0      )       ( -0.2500000 )
                  (    -1          1          0      )       ( -0.2500000 )

 cart.    s(27) = (  1.0000000  0.0000000  0.0000000 )    f =( -0.3535534 )
                  (  0.0000000 -1.0000000  0.0000000 )       ( -0.3535534 )
                  (  0.0000000  0.0000000  1.0000000 )       ( -0.3535534 )


      isym = 28     inv. 180 deg rotation - cart. axis [1,0,0]   

 cryst.   s(28) = (     1          0          0      )    f =( -0.2500000 )
                  (     1          0         -1      )       ( -0.2500000 )
                  (     1         -1          0      )       ( -0.2500000 )

 cart.    s(28) = ( -1.0000000  0.0000000  0.0000000 )    f =( -0.3535534 )
                  (  0.0000000  1.0000000  0.0000000 )       ( -0.3535534 )
                  (  0.0000000  0.0000000  1.0000000 )       ( -0.3535534 )


      isym = 29     inv. 180 deg rotation - cart. axis [1,1,0]   

 cryst.   s(29) = (     1          0         -1      )
                  (     0          1         -1      )
                  (     0          0         -1      )

 cart.    s(29) = (  0.0000000 -1.0000000  0.0000000 )
                  ( -1.0000000  0.0000000  0.0000000 )
                  (  0.0000000  0.0000000  1.0000000 )


      isym = 30     inv. 180 deg rotation - cart. axis [1,-1,0]  

 cryst.   s(30) = (     0          1          0      )
                  (     1          0          0      )
                  (     0          0          1      )

 cart.    s(30) = (  0.0000000  1.0000000  0.0000000 )
                  (  1.0000000  0.0000000  0.0000000 )
                  (  0.0000000  0.0000000  1.0000000 )


      isym = 31     inv.  90 deg rotation - cart. axis [0,0,-1]  

 cryst.   s(31) = (     0         -1          0      )
                  (     0         -1          1      )
                  (     1         -1          0      )

 cart.    s(31) = (  0.0000000 -1.0000000  0.0000000 )
                  (  1.0000000  0.0000000  0.0000000 )
                  (  0.0000000  0.0000000 -1.0000000 )


      isym = 32     inv.  90 deg rotation - cart. axis [0,0,1]   

 cryst.   s(32) = (    -1          0          1      )
                  (    -1          0          0      )
                  (    -1          1          0      )

 cart.    s(32) = (  0.0000000  1.0000000  0.0000000 )
                  ( -1.0000000  0.0000000  0.0000000 )
                  (  0.0000000  0.0000000 -1.0000000 )


      isym = 33     inv. 180 deg rotation - cart. axis [1,0,1]   

 cryst.   s(33) = (     1         -1          0      )
                  (     0         -1          0      )
                  (     0         -1          1      )

 cart.    s(33) = (  0.0000000  0.0000000 -1.0000000 )
                  (  0.0000000  1.0000000  0.0000000 )
                  ( -1.0000000  0.0000000  0.0000000 )


      isym = 34     inv. 180 deg rotation - cart. axis [-1,0,1]  

 cryst.   s(34) = (     0          0          1      )
                  (     0          1          0      )
                  (     1          0          0      )

 cart.    s(34) = (  0.0000000  0.0000000  1.0000000 )
                  (  0.0000000  1.0000000  0.0000000 )
                  (  1.0000000  0.0000000  0.0000000 )


      isym = 35     inv.  90 deg rotation - cart. axis [0,1,0]   

 cryst.   s(35) = (     0          0         -1      )
                  (     1          0         -1      )
                  (     0          1         -1      )

 cart.    s(35) = (  0.0000000  0.0000000 -1.0000000 )
                  (  0.0000000 -1.0000000  0.0000000 )
                  (  1.0000000  0.0000000  0.0000000 )


      isym = 36     inv.  90 deg rotation - cart. axis [0,-1,0]  

 cryst.   s(36) = (    -1          1          0      )
                  (    -1          0          1      )
                  (    -1          0          0      )

 cart.    s(36) = (  0.0000000  0.0000000  1.0000000 )
                  (  0.0000000 -1.0000000  0.0000000 )
                  ( -1.0000000  0.0000000  0.0000000 )


      isym = 37     inv. 180 deg rotation - cart. axis [0,1,1]   

 cryst.   s(37) = (    -1          0          0      )
                  (    -1          1          0      )
                  (    -1          0          1      )

 cart.    s(37) = (  1.0000000  0.0000000  0.0000000 )
                  (  0.0000000  0.0000000 -1.0000000 )
                  (  0.0000000 -1.0000000  0.0000000 )


      isym = 38     inv. 180 deg rotation - cart. axis [0,1,-1]  

 cryst.   s(38) = (     1          0          0      )
                  (     0          0          1      )
                  (     0          1          0      )

 cart.    s(38) = (  1.0000000  0.0000000  0.0000000 )
                  (  0.0000000  0.0000000  1.0000000 )
                  (  0.0000000  1.0000000  0.0000000 )


      isym = 39     inv.  90 deg rotation - cart. axis [-1,0,0]  

 cryst.   s(39) = (     0          1         -1      )
                  (     0          0         -1      )
                  (     1          0         -1      )

 cart.    s(39) = ( -1.0000000  0.0000000  0.0000000 )
                  (  0.0000000  0.0000000 -1.0000000 )
                  (  0.0000000  1.0000000  0.0000000 )


      isym = 40     inv.  90 deg rotation - cart. axis [1,0,0]   

 cryst.   s(40) = (     0         -1          1      )
                  (     1         -1          0      )
                  (     0         -1          0      )

 cart.    s(40) = ( -1.0000000  0.0000000  0.0000000 )
                  (  0.0000000  0.0000000  1.0000000 )
                  (  0.0000000 -1.0000000  0.0000000 )


      isym = 41     inv. 120 deg rotation - cart. axis [-1,-1,-1]

 cryst.   s(41) = (     0          0         -1      )    f =( -0.2500000 )
                  (    -1          0          0      )       ( -0.2500000 )
                  (     0         -1          0      )       ( -0.2500000 )

 cart.    s(41) = (  0.0000000 -1.0000000  0.0000000 )    f =( -0.3535534 )
                  (  0.0000000  0.0000000 -1.0000000 )       ( -0.3535534 )
                  ( -1.0000000  0.0000000  0.0000000 )       ( -0.3535534 )


      isym = 42     inv. 120 deg rotation - cart. axis [-1,1,1]  

 cryst.   s(42) = (    -1          1          0      )    f =( -0.2500000 )
                  (     0          1         -1      )       ( -0.2500000 )
                  (     0          1          0      )       ( -0.2500000 )

 cart.    s(42) = (  0.0000000  1.0000000  0.0000000 )    f =( -0.3535534 )
                  (  0.0000000  0.0000000 -1.0000000 )       ( -0.3535534 )
                  (  1.0000000  0.0000000  0.0000000 )       ( -0.3535534 )


      isym = 43     inv. 120 deg rotation - cart. axis [1,1,-1]  

 cryst.   s(43) = (     1         -1          0      )    f =( -0.2500000 )
                  (     1          0          0      )       ( -0.2500000 )
                  (     1          0         -1      )       ( -0.2500000 )

 cart.    s(43) = (  0.0000000 -1.0000000  0.0000000 )    f =( -0.3535534 )
                  (  0.0000000  0.0000000  1.0000000 )       ( -0.3535534 )
                  (  1.0000000  0.0000000  0.0000000 )       ( -0.3535534 )


      isym = 44     inv. 120 deg rotation - cart. axis [1,-1,1]  

 cryst.   s(44) = (     0          0          1      )    f =( -0.2500000 )
                  (     0         -1          1      )       ( -0.2500000 )
                  (    -1          0          1      )       ( -0.2500000 )

 cart.    s(44) = (  0.0000000  1.0000000  0.0000000 )    f =( -0.3535534 )
                  (  0.0000000  0.0000000  1.0000000 )       ( -0.3535534 )
                  ( -1.0000000  0.0000000  0.0000000 )       ( -0.3535534 )


      isym = 45     inv. 120 deg rotation - cart. axis [1,1,1]   

 cryst.   s(45) = (     0         -1          0      )    f =( -0.2500000 )
                  (     0          0         -1      )       ( -0.2500000 )
                  (    -1          0          0      )       ( -0.2500000 )

 cart.    s(45) = (  0.0000000  0.0000000 -1.0000000 )    f =( -0.3535534 )
                  ( -1.0000000  0.0000000  0.0000000 )       ( -0.3535534 )
                  (  0.0000000 -1.0000000  0.0000000 )       ( -0.3535534 )


      isym = 46     inv. 120 deg rotation - cart. axis [-1,1,-1] 

 cryst.   s(46) = (     1          0         -1      )    f =( -0.2500000 )
                  (     1         -1          0      )       ( -0.2500000 )
                  (     1          0          0      )       ( -0.2500000 )

 cart.    s(46) = (  0.0000000  0.0000000 -1.0000000 )    f =( -0.3535534 )
                  (  1.0000000  0.0000000  0.0000000 )       ( -0.3535534 )
                  (  0.0000000  1.0000000  0.0000000 )       ( -0.3535534 )


      isym = 47     inv. 120 deg rotation - cart. axis [1,-1,-1] 

 cryst.   s(47) = (    -1          0          1      )    f =( -0.2500000 )
                  (     0          0          1      )       ( -0.2500000 )
                  (     0         -1          1      )       ( -0.2500000 )

 cart.    s(47) = (  0.0000000  0.0000000  1.0000000 )    f =( -0.3535534 )
                  (  1.0000000  0.0000000  0.0000000 )       ( -0.3535534 )
                  (  0.0000000 -1.0000000  0.0000000 )       ( -0.3535534 )


      isym = 48     inv. 120 deg rotation - cart. axis [-1,-1,1] 

 cryst.   s(48) = (     0          1          0      )    f =( -0.2500000 )
                  (    -1          1          0      )       ( -0.2500000 )
                  (     0          1         -1      )       ( -0.2500000 )

 cart.    s(48) = (  0.0000000  0.0000000  1.0000000 )    f =( -0.3535534 )
                  ( -1.0000000  0.0000000  0.0000000 )       ( -0.3535534 )
                  (  0.0000000  1.0000000  0.0000000 )       ( -0.3535534 )


   Cartesian axes

     site n.     atom                  positions (alat units)
         1           Sn  tau(   1) = (   0.0000000   0.0000000   0.0000000  )
         2           Sn  tau(   2) = (   0.3535534   0.3535534   0.3535534  )

   Crystallographic axes

     site n.     atom                  positions (cryst. coord.)
         1           Sn  tau(   1) = (  0.0000000  0.0000000  0.0000000  )
         2           Sn  tau(   2) = (  0.2500000  0.2500000  0.2500000  )

     number of k points=  3107  gaussian smearing, width (Ry)=  0.0001
                       cart. coord. in units 2pi/alat
        k(    1) = (   0.0000000   0.0000000   0.0000000), wk =   0.0000160
        k(    2) = (   0.0141421   0.0141421  -0.0141421), wk =   0.0001280
        k(    3) = (   0.0282843   0.0282843  -0.0282843), wk =   0.0001280
        k(    4) = (   0.0424264   0.0424264  -0.0424264), wk =   0.0001280
        k(    5) = (   0.0565685   0.0565685  -0.0565685), wk =   0.0001280
        k(    6) = (   0.0707107   0.0707107  -0.0707107), wk =   0.0001280
        k(    7) = (   0.0848528   0.0848528  -0.0848528), wk =   0.0001280
        k(    8) = (   0.0989949   0.0989949  -0.0989949), wk =   0.0001280
        k(    9) = (   0.1131371   0.1131371  -0.1131371), wk =   0.0001280
        k(   10) = (   0.1272792   0.1272792  -0.1272792), wk =   0.0001280
        k(   11) = (   0.1414214   0.1414214  -0.1414214), wk =   0.0001280
        k(   12) = (   0.1555635   0.1555635  -0.1555635), wk =   0.0001280
        k(   13) = (   0.1697056   0.1697056  -0.1697056), wk =   0.0001280
        k(   14) = (   0.1838478   0.1838478  -0.1838478), wk =   0.0001280
        k(   15) = (   0.1979899   0.1979899  -0.1979899), wk =   0.0001280
        k(   16) = (   0.2121320   0.2121320  -0.2121320), wk =   0.0001280
        k(   17) = (   0.2262742   0.2262742  -0.2262742), wk =   0.0001280
        k(   18) = (   0.2404163   0.2404163  -0.2404163), wk =   0.0001280
        k(   19) = (   0.2545584   0.2545584  -0.2545584), wk =   0.0001280
        k(   20) = (   0.2687006   0.2687006  -0.2687006), wk =   0.0001280
        k(   21) = (   0.2828427   0.2828427  -0.2828427), wk =   0.0001280
        k(   22) = (   0.2969848   0.2969848  -0.2969848), wk =   0.0001280
        k(   23) = (   0.3111270   0.3111270  -0.3111270), wk =   0.0001280
        k(   24) = (   0.3252691   0.3252691  -0.3252691), wk =   0.0001280
        k(   25) = (   0.3394113   0.3394113  -0.3394113), wk =   0.0001280
        k(   26) = (  -0.3535534  -0.3535534   0.3535534), wk =   0.0000640
        k(   27) = (   0.0282843   0.0000000   0.0000000), wk =   0.0000960
        k(   28) = (   0.0424264   0.0141421  -0.0141421), wk =   0.0003840
        k(   29) = (   0.0565685   0.0282843  -0.0282843), wk =   0.0003840
        k(   30) = (   0.0707107   0.0424264  -0.0424264), wk =   0.0003840
        k(   31) = (   0.0848528   0.0565685  -0.0565685), wk =   0.0003840
        k(   32) = (   0.0989949   0.0707107  -0.0707107), wk =   0.0003840
        k(   33) = (   0.1131371   0.0848528  -0.0848528), wk =   0.0003840
        k(   34) = (   0.1272792   0.0989949  -0.0989949), wk =   0.0003840
        k(   35) = (   0.1414214   0.1131371  -0.1131371), wk =   0.0003840
        k(   36) = (   0.1555635   0.1272792  -0.1272792), wk =   0.0003840
        k(   37) = (   0.1697056   0.1414214  -0.1414214), wk =   0.0003840
        k(   38) = (   0.1838478   0.1555635  -0.1555635), wk =   0.0003840
        k(   39) = (   0.1979899   0.1697056  -0.1697056), wk =   0.0003840
        k(   40) = (   0.2121320   0.1838478  -0.1838478), wk =   0.0003840
        k(   41) = (   0.2262742   0.1979899  -0.1979899), wk =   0.0003840
        k(   42) = (   0.2404163   0.2121320  -0.2121320), wk =   0.0003840
        k(   43) = (   0.2545584   0.2262742  -0.2262742), wk =   0.0003840
        k(   44) = (   0.2687006   0.2404163  -0.2404163), wk =   0.0003840
        k(   45) = (   0.2828427   0.2545584  -0.2545584), wk =   0.0003840
        k(   46) = (   0.2969848   0.2687006  -0.2687006), wk =   0.0003840
        k(   47) = (   0.3111270   0.2828427  -0.2828427), wk =   0.0003840
        k(   48) = (   0.3252691   0.2969848  -0.2969848), wk =   0.0003840
        k(   49) = (   0.3394113   0.3111270  -0.3111270), wk =   0.0003840
        k(   50) = (   0.3535534   0.3252691  -0.3252691), wk =   0.0003840
        k(   51) = (  -0.3394113  -0.3676955   0.3676955), wk =   0.0003840
        k(   52) = (  -0.3252691  -0.3535534   0.3535534), wk =   0.0003840
        k(   53) = (  -0.3111270  -0.3394113   0.3394113), wk =   0.0003840
        k(   54) = (  -0.2969848  -0.3252691   0.3252691), wk =   0.0003840
        k(   55) = (  -0.2828427  -0.3111270   0.3111270), wk =   0.0003840
        k(   56) = (  -0.2687006  -0.2969848   0.2969848), wk =   0.0003840
        k(   57) = (  -0.2545584  -0.2828427   0.2828427), wk =   0.0003840
        k(   58) = (  -0.2404163  -0.2687006   0.2687006), wk =   0.0003840
        k(   59) = (  -0.2262742  -0.2545584   0.2545584), wk =   0.0003840
        k(   60) = (  -0.2121320  -0.2404163   0.2404163), wk =   0.0003840
        k(   61) = (  -0.1979899  -0.2262742   0.2262742), wk =   0.0003840
        k(   62) = (  -0.1838478  -0.2121320   0.2121320), wk =   0.0003840
        k(   63) = (  -0.1697056  -0.1979899   0.1979899), wk =   0.0003840
        k(   64) = (  -0.1555635  -0.1838478   0.1838478), wk =   0.0003840
        k(   65) = (  -0.1414214  -0.1697056   0.1697056), wk =   0.0003840
        k(   66) = (  -0.1272792  -0.1555635   0.1555635), wk =   0.0003840
        k(   67) = (  -0.1131371  -0.1414214   0.1414214), wk =   0.0003840
        k(   68) = (  -0.0989949  -0.1272792   0.1272792), wk =   0.0003840
        k(   69) = (  -0.0848528  -0.1131371   0.1131371), wk =   0.0003840
        k(   70) = (  -0.0707107  -0.0989949   0.0989949), wk =   0.0003840
        k(   71) = (  -0.0565685  -0.0848528   0.0848528), wk =   0.0003840
        k(   72) = (  -0.0424264  -0.0707107   0.0707107), wk =   0.0003840
        k(   73) = (  -0.0282843  -0.0565685   0.0565685), wk =   0.0003840
        k(   74) = (  -0.0141421  -0.0424264   0.0424264), wk =   0.0003840
        k(   75) = (  -0.0000000  -0.0282843   0.0282843), wk =   0.0001920
        k(   76) = (   0.0565685   0.0000000   0.0000000), wk =   0.0000960
        k(   77) = (   0.0707107   0.0141421  -0.0141421), wk =   0.0003840
        k(   78) = (   0.0848528   0.0282843  -0.0282843), wk =   0.0003840
        k(   79) = (   0.0989949   0.0424264  -0.0424264), wk =   0.0003840
        k(   80) = (   0.1131371   0.0565685  -0.0565685), wk =   0.0003840
        k(   81) = (   0.1272792   0.0707107  -0.0707107), wk =   0.0003840
        k(   82) = (   0.1414214   0.0848528  -0.0848528), wk =   0.0003840
        k(   83) = (   0.1555635   0.0989949  -0.0989949), wk =   0.0003840
        k(   84) = (   0.1697056   0.1131371  -0.1131371), wk =   0.0003840
        k(   85) = (   0.1838478   0.1272792  -0.1272792), wk =   0.0003840
        k(   86) = (   0.1979899   0.1414214  -0.1414214), wk =   0.0003840
        k(   87) = (   0.2121320   0.1555635  -0.1555635), wk =   0.0003840
        k(   88) = (   0.2262742   0.1697056  -0.1697056), wk =   0.0003840
        k(   89) = (   0.2404163   0.1838478  -0.1838478), wk =   0.0003840
        k(   90) = (   0.2545584   0.1979899  -0.1979899), wk =   0.0003840
        k(   91) = (   0.2687006   0.2121320  -0.2121320), wk =   0.0003840
        k(   92) = (   0.2828427   0.2262742  -0.2262742), wk =   0.0003840
        k(   93) = (   0.2969848   0.2404163  -0.2404163), wk =   0.0003840
        k(   94) = (   0.3111270   0.2545584  -0.2545584), wk =   0.0003840
        k(   95) = (   0.3252691   0.2687006  -0.2687006), wk =   0.0003840
        k(   96) = (   0.3394113   0.2828427  -0.2828427), wk =   0.0003840
        k(   97) = (   0.3535534   0.2969848  -0.2969848), wk =   0.0003840
        k(   98) = (   0.3676955   0.3111270  -0.3111270), wk =   0.0003840
        k(   99) = (  -0.3252691  -0.3818377   0.3818377), wk =   0.0003840
        k(  100) = (  -0.3111270  -0.3676955   0.3676955), wk =   0.0003840
        k(  101) = (  -0.2969848  -0.3535534   0.3535534), wk =   0.0003840
        k(  102) = (  -0.2828427  -0.3394113   0.3394113), wk =   0.0003840
        k(  103) = (  -0.2687006  -0.3252691   0.3252691), wk =   0.0003840
        k(  104) = (  -0.2545584  -0.3111270   0.3111270), wk =   0.0003840
        k(  105) = (  -0.2404163  -0.2969848   0.2969848), wk =   0.0003840
        k(  106) = (  -0.2262742  -0.2828427   0.2828427), wk =   0.0003840
        k(  107) = (  -0.2121320  -0.2687006   0.2687006), wk =   0.0003840
        k(  108) = (  -0.1979899  -0.2545584   0.2545584), wk =   0.0003840
        k(  109) = (  -0.1838478  -0.2404163   0.2404163), wk =   0.0003840
        k(  110) = (  -0.1697056  -0.2262742   0.2262742), wk =   0.0003840
        k(  111) = (  -0.1555635  -0.2121320   0.2121320), wk =   0.0003840
        k(  112) = (  -0.1414214  -0.1979899   0.1979899), wk =   0.0003840
        k(  113) = (  -0.1272792  -0.1838478   0.1838478), wk =   0.0003840
        k(  114) = (  -0.1131371  -0.1697056   0.1697056), wk =   0.0003840
        k(  115) = (  -0.0989949  -0.1555635   0.1555635), wk =   0.0003840
        k(  116) = (  -0.0848528  -0.1414214   0.1414214), wk =   0.0003840
        k(  117) = (  -0.0707107  -0.1272792   0.1272792), wk =   0.0003840
        k(  118) = (  -0.0565685  -0.1131371   0.1131371), wk =   0.0003840
        k(  119) = (  -0.0424264  -0.0989949   0.0989949), wk =   0.0003840
        k(  120) = (  -0.0282843  -0.0848528   0.0848528), wk =   0.0003840
        k(  121) = (  -0.0141421  -0.0707107   0.0707107), wk =   0.0003840
        k(  122) = (  -0.0000000  -0.0565685   0.0565685), wk =   0.0001920
        k(  123) = (   0.0848528   0.0000000   0.0000000), wk =   0.0000960
        k(  124) = (   0.0989949   0.0141421  -0.0141421), wk =   0.0003840
        k(  125) = (   0.1131371   0.0282843  -0.0282843), wk =   0.0003840
        k(  126) = (   0.1272792   0.0424264  -0.0424264), wk =   0.0003840
        k(  127) = (   0.1414214   0.0565685  -0.0565685), wk =   0.0003840
        k(  128) = (   0.1555635   0.0707107  -0.0707107), wk =   0.0003840
        k(  129) = (   0.1697056   0.0848528  -0.0848528), wk =   0.0003840
        k(  130) = (   0.1838478   0.0989949  -0.0989949), wk =   0.0003840
        k(  131) = (   0.1979899   0.1131371  -0.1131371), wk =   0.0003840
        k(  132) = (   0.2121320   0.1272792  -0.1272792), wk =   0.0003840
        k(  133) = (   0.2262742   0.1414214  -0.1414214), wk =   0.0003840
        k(  134) = (   0.2404163   0.1555635  -0.1555635), wk =   0.0003840
        k(  135) = (   0.2545584   0.1697056  -0.1697056), wk =   0.0003840
        k(  136) = (   0.2687006   0.1838478  -0.1838478), wk =   0.0003840
        k(  137) = (   0.2828427   0.1979899  -0.1979899), wk =   0.0003840
        k(  138) = (   0.2969848   0.2121320  -0.2121320), wk =   0.0003840
        k(  139) = (   0.3111270   0.2262742  -0.2262742), wk =   0.0003840
        k(  140) = (   0.3252691   0.2404163  -0.2404163), wk =   0.0003840
        k(  141) = (   0.3394113   0.2545584  -0.2545584), wk =   0.0003840
        k(  142) = (   0.3535534   0.2687006  -0.2687006), wk =   0.0003840
        k(  143) = (   0.3676955   0.2828427  -0.2828427), wk =   0.0003840
        k(  144) = (   0.3818377   0.2969848  -0.2969848), wk =   0.0003840
        k(  145) = (  -0.3111270  -0.3959798   0.3959798), wk =   0.0003840
        k(  146) = (  -0.2969848  -0.3818377   0.3818377), wk =   0.0003840
        k(  147) = (  -0.2828427  -0.3676955   0.3676955), wk =   0.0003840
        k(  148) = (  -0.2687006  -0.3535534   0.3535534), wk =   0.0003840
        k(  149) = (  -0.2545584  -0.3394113   0.3394113), wk =   0.0003840
        k(  150) = (  -0.2404163  -0.3252691   0.3252691), wk =   0.0003840
        k(  151) = (  -0.2262742  -0.3111270   0.3111270), wk =   0.0003840
        k(  152) = (  -0.2121320  -0.2969848   0.2969848), wk =   0.0003840
        k(  153) = (  -0.1979899  -0.2828427   0.2828427), wk =   0.0003840
        k(  154) = (  -0.1838478  -0.2687006   0.2687006), wk =   0.0003840
        k(  155) = (  -0.1697056  -0.2545584   0.2545584), wk =   0.0003840
        k(  156) = (  -0.1555635  -0.2404163   0.2404163), wk =   0.0003840
        k(  157) = (  -0.1414214  -0.2262742   0.2262742), wk =   0.0003840
        k(  158) = (  -0.1272792  -0.2121320   0.2121320), wk =   0.0003840
        k(  159) = (  -0.1131371  -0.1979899   0.1979899), wk =   0.0003840
        k(  160) = (  -0.0989949  -0.1838478   0.1838478), wk =   0.0003840
        k(  161) = (  -0.0848528  -0.1697056   0.1697056), wk =   0.0003840
        k(  162) = (  -0.0707107  -0.1555635   0.1555635), wk =   0.0003840
        k(  163) = (  -0.0565685  -0.1414214   0.1414214), wk =   0.0003840
        k(  164) = (  -0.0424264  -0.1272792   0.1272792), wk =   0.0003840
        k(  165) = (  -0.0282843  -0.1131371   0.1131371), wk =   0.0003840
        k(  166) = (  -0.0141421  -0.0989949   0.0989949), wk =   0.0003840
        k(  167) = (  -0.0000000  -0.0848528   0.0848528), wk =   0.0001920
        k(  168) = (   0.1131371   0.0000000   0.0000000), wk =   0.0000960
        k(  169) = (   0.1272792   0.0141421  -0.0141421), wk =   0.0003840
        k(  170) = (   0.1414214   0.0282843  -0.0282843), wk =   0.0003840
        k(  171) = (   0.1555635   0.0424264  -0.0424264), wk =   0.0003840
        k(  172) = (   0.1697056   0.0565685  -0.0565685), wk =   0.0003840
        k(  173) = (   0.1838478   0.0707107  -0.0707107), wk =   0.0003840
        k(  174) = (   0.1979899   0.0848528  -0.0848528), wk =   0.0003840
        k(  175) = (   0.2121320   0.0989949  -0.0989949), wk =   0.0003840
        k(  176) = (   0.2262742   0.1131371  -0.1131371), wk =   0.0003840
        k(  177) = (   0.2404163   0.1272792  -0.1272792), wk =   0.0003840
        k(  178) = (   0.2545584   0.1414214  -0.1414214), wk =   0.0003840
        k(  179) = (   0.2687006   0.1555635  -0.1555635), wk =   0.0003840
        k(  180) = (   0.2828427   0.1697056  -0.1697056), wk =   0.0003840
        k(  181) = (   0.2969848   0.1838478  -0.1838478), wk =   0.0003840
        k(  182) = (   0.3111270   0.1979899  -0.1979899), wk =   0.0003840
        k(  183) = (   0.3252691   0.2121320  -0.2121320), wk =   0.0003840
        k(  184) = (   0.3394113   0.2262742  -0.2262742), wk =   0.0003840
        k(  185) = (   0.3535534   0.2404163  -0.2404163), wk =   0.0003840
        k(  186) = (   0.3676955   0.2545584  -0.2545584), wk =   0.0003840
        k(  187) = (   0.3818377   0.2687006  -0.2687006), wk =   0.0003840
        k(  188) = (   0.3959798   0.2828427  -0.2828427), wk =   0.0003840
        k(  189) = (  -0.2969848  -0.4101219   0.4101219), wk =   0.0003840
        k(  190) = (  -0.2828427  -0.3959798   0.3959798), wk =   0.0003840
        k(  191) = (  -0.2687006  -0.3818377   0.3818377), wk =   0.0003840
        k(  192) = (  -0.2545584  -0.3676955   0.3676955), wk =   0.0003840
        k(  193) = (  -0.2404163  -0.3535534   0.3535534), wk =   0.0003840
        k(  194) = (  -0.2262742  -0.3394113   0.3394113), wk =   0.0003840
        k(  195) = (  -0.2121320  -0.3252691   0.3252691), wk =   0.0003840
        k(  196) = (  -0.1979899  -0.3111270   0.3111270), wk =   0.0003840
        k(  197) = (  -0.1838478  -0.2969848   0.2969848), wk =   0.0003840
        k(  198) = (  -0.1697056  -0.2828427   0.2828427), wk =   0.0003840
        k(  199) = (  -0.1555635  -0.2687006   0.2687006), wk =   0.0003840
        k(  200) = (  -0.1414214  -0.2545584   0.2545584), wk =   0.0003840
        k(  201) = (  -0.1272792  -0.2404163   0.2404163), wk =   0.0003840
        k(  202) = (  -0.1131371  -0.2262742   0.2262742), wk =   0.0003840
        k(  203) = (  -0.0989949  -0.2121320   0.2121320), wk =   0.0003840
        k(  204) = (  -0.0848528  -0.1979899   0.1979899), wk =   0.0003840
        k(  205) = (  -0.0707107  -0.1838478   0.1838478), wk =   0.0003840
        k(  206) = (  -0.0565685  -0.1697056   0.1697056), wk =   0.0003840
        k(  207) = (  -0.0424264  -0.1555635   0.1555635), wk =   0.0003840
        k(  208) = (  -0.0282843  -0.1414214   0.1414214), wk =   0.0003840
        k(  209) = (  -0.0141421  -0.1272792   0.1272792), wk =   0.0003840
        k(  210) = (   0.0000000  -0.1131371   0.1131371), wk =   0.0001920
        k(  211) = (   0.1414214   0.0000000   0.0000000), wk =   0.0000960
        k(  212) = (   0.1555635   0.0141421  -0.0141421), wk =   0.0003840
        k(  213) = (   0.1697056   0.0282843  -0.0282843), wk =   0.0003840
        k(  214) = (   0.1838478   0.0424264  -0.0424264), wk =   0.0003840
        k(  215) = (   0.1979899   0.0565685  -0.0565685), wk =   0.0003840
        k(  216) = (   0.2121320   0.0707107  -0.0707107), wk =   0.0003840
        k(  217) = (   0.2262742   0.0848528  -0.0848528), wk =   0.0003840
        k(  218) = (   0.2404163   0.0989949  -0.0989949), wk =   0.0003840
        k(  219) = (   0.2545584   0.1131371  -0.1131371), wk =   0.0003840
        k(  220) = (   0.2687006   0.1272792  -0.1272792), wk =   0.0003840
        k(  221) = (   0.2828427   0.1414214  -0.1414214), wk =   0.0003840
        k(  222) = (   0.2969848   0.1555635  -0.1555635), wk =   0.0003840
        k(  223) = (   0.3111270   0.1697056  -0.1697056), wk =   0.0003840
        k(  224) = (   0.3252691   0.1838478  -0.1838478), wk =   0.0003840
        k(  225) = (   0.3394113   0.1979899  -0.1979899), wk =   0.0003840
        k(  226) = (   0.3535534   0.2121320  -0.2121320), wk =   0.0003840
        k(  227) = (   0.3676955   0.2262742  -0.2262742), wk =   0.0003840
        k(  228) = (   0.3818377   0.2404163  -0.2404163), wk =   0.0003840
        k(  229) = (   0.3959798   0.2545584  -0.2545584), wk =   0.0003840
        k(  230) = (   0.4101219   0.2687006  -0.2687006), wk =   0.0003840
        k(  231) = (  -0.2828427  -0.4242641   0.4242641), wk =   0.0003840
        k(  232) = (  -0.2687006  -0.4101219   0.4101219), wk =   0.0003840
        k(  233) = (  -0.2545584  -0.3959798   0.3959798), wk =   0.0003840
        k(  234) = (  -0.2404163  -0.3818377   0.3818377), wk =   0.0003840
        k(  235) = (  -0.2262742  -0.3676955   0.3676955), wk =   0.0003840
        k(  236) = (  -0.2121320  -0.3535534   0.3535534), wk =   0.0003840
        k(  237) = (  -0.1979899  -0.3394113   0.3394113), wk =   0.0003840
        k(  238) = (  -0.1838478  -0.3252691   0.3252691), wk =   0.0003840
        k(  239) = (  -0.1697056  -0.3111270   0.3111270), wk =   0.0003840
        k(  240) = (  -0.1555635  -0.2969848   0.2969848), wk =   0.0003840
        k(  241) = (  -0.1414214  -0.2828427   0.2828427), wk =   0.0003840
        k(  242) = (  -0.1272792  -0.2687006   0.2687006), wk =   0.0003840
        k(  243) = (  -0.1131371  -0.2545584   0.2545584), wk =   0.0003840
        k(  244) = (  -0.0989949  -0.2404163   0.2404163), wk =   0.0003840
        k(  245) = (  -0.0848528  -0.2262742   0.2262742), wk =   0.0003840
        k(  246) = (  -0.0707107  -0.2121320   0.2121320), wk =   0.0003840
        k(  247) = (  -0.0565685  -0.1979899   0.1979899), wk =   0.0003840
        k(  248) = (  -0.0424264  -0.1838478   0.1838478), wk =   0.0003840
        k(  249) = (  -0.0282843  -0.1697056   0.1697056), wk =   0.0003840
        k(  250) = (  -0.0141421  -0.1555635   0.1555635), wk =   0.0003840
        k(  251) = (   0.0000000  -0.1414214   0.1414214), wk =   0.0001920
        k(  252) = (   0.1697056   0.0000000   0.0000000), wk =   0.0000960
        k(  253) = (   0.1838478   0.0141421  -0.0141421), wk =   0.0003840
        k(  254) = (   0.1979899   0.0282843  -0.0282843), wk =   0.0003840
        k(  255) = (   0.2121320   0.0424264  -0.0424264), wk =   0.0003840
        k(  256) = (   0.2262742   0.0565685  -0.0565685), wk =   0.0003840
        k(  257) = (   0.2404163   0.0707107  -0.0707107), wk =   0.0003840
        k(  258) = (   0.2545584   0.0848528  -0.0848528), wk =   0.0003840
        k(  259) = (   0.2687006   0.0989949  -0.0989949), wk =   0.0003840
        k(  260) = (   0.2828427   0.1131371  -0.1131371), wk =   0.0003840
        k(  261) = (   0.2969848   0.1272792  -0.1272792), wk =   0.0003840
        k(  262) = (   0.3111270   0.1414214  -0.1414214), wk =   0.0003840
        k(  263) = (   0.3252691   0.1555635  -0.1555635), wk =   0.0003840
        k(  264) = (   0.3394113   0.1697056  -0.1697056), wk =   0.0003840
        k(  265) = (   0.3535534   0.1838478  -0.1838478), wk =   0.0003840
        k(  266) = (   0.3676955   0.1979899  -0.1979899), wk =   0.0003840
        k(  267) = (   0.3818377   0.2121320  -0.2121320), wk =   0.0003840
        k(  268) = (   0.3959798   0.2262742  -0.2262742), wk =   0.0003840
        k(  269) = (   0.4101219   0.2404163  -0.2404163), wk =   0.0003840
        k(  270) = (   0.4242641   0.2545584  -0.2545584), wk =   0.0003840
        k(  271) = (  -0.2687006  -0.4384062   0.4384062), wk =   0.0003840
        k(  272) = (  -0.2545584  -0.4242641   0.4242641), wk =   0.0003840
        k(  273) = (  -0.2404163  -0.4101219   0.4101219), wk =   0.0003840
        k(  274) = (  -0.2262742  -0.3959798   0.3959798), wk =   0.0003840
        k(  275) = (  -0.2121320  -0.3818377   0.3818377), wk =   0.0003840
        k(  276) = (  -0.1979899  -0.3676955   0.3676955), wk =   0.0003840
        k(  277) = (  -0.1838478  -0.3535534   0.3535534), wk =   0.0003840
        k(  278) = (  -0.1697056  -0.3394113   0.3394113), wk =   0.0003840
        k(  279) = (  -0.1555635  -0.3252691   0.3252691), wk =   0.0003840
        k(  280) = (  -0.1414214  -0.3111270   0.3111270), wk =   0.0003840
        k(  281) = (  -0.1272792  -0.2969848   0.2969848), wk =   0.0003840
        k(  282) = (  -0.1131371  -0.2828427   0.2828427), wk =   0.0003840
        k(  283) = (  -0.0989949  -0.2687006   0.2687006), wk =   0.0003840
        k(  284) = (  -0.0848528  -0.2545584   0.2545584), wk =   0.0003840
        k(  285) = (  -0.0707107  -0.2404163   0.2404163), wk =   0.0003840
        k(  286) = (  -0.0565685  -0.2262742   0.2262742), wk =   0.0003840
        k(  287) = (  -0.0424264  -0.2121320   0.2121320), wk =   0.0003840
        k(  288) = (  -0.0282843  -0.1979899   0.1979899), wk =   0.0003840
        k(  289) = (  -0.0141421  -0.1838478   0.1838478), wk =   0.0003840
        k(  290) = (   0.0000000  -0.1697056   0.1697056), wk =   0.0001920
        k(  291) = (   0.1979899   0.0000000   0.0000000), wk =   0.0000960
        k(  292) = (   0.2121320   0.0141421  -0.0141421), wk =   0.0003840
        k(  293) = (   0.2262742   0.0282843  -0.0282843), wk =   0.0003840
        k(  294) = (   0.2404163   0.0424264  -0.0424264), wk =   0.0003840
        k(  295) = (   0.2545584   0.0565685  -0.0565685), wk =   0.0003840
        k(  296) = (   0.2687006   0.0707107  -0.0707107), wk =   0.0003840
        k(  297) = (   0.2828427   0.0848528  -0.0848528), wk =   0.0003840
        k(  298) = (   0.2969848   0.0989949  -0.0989949), wk =   0.0003840
        k(  299) = (   0.3111270   0.1131371  -0.1131371), wk =   0.0003840
        k(  300) = (   0.3252691   0.1272792  -0.1272792), wk =   0.0003840
        k(  301) = (   0.3394113   0.1414214  -0.1414214), wk =   0.0003840
        k(  302) = (   0.3535534   0.1555635  -0.1555635), wk =   0.0003840
        k(  303) = (   0.3676955   0.1697056  -0.1697056), wk =   0.0003840
        k(  304) = (   0.3818377   0.1838478  -0.1838478), wk =   0.0003840
        k(  305) = (   0.3959798   0.1979899  -0.1979899), wk =   0.0003840
        k(  306) = (   0.4101219   0.2121320  -0.2121320), wk =   0.0003840
        k(  307) = (   0.4242641   0.2262742  -0.2262742), wk =   0.0003840
        k(  308) = (   0.4384062   0.2404163  -0.2404163), wk =   0.0003840
        k(  309) = (  -0.2545584  -0.4525483   0.4525483), wk =   0.0003840
        k(  310) = (  -0.2404163  -0.4384062   0.4384062), wk =   0.0003840
        k(  311) = (  -0.2262742  -0.4242641   0.4242641), wk =   0.0003840
        k(  312) = (  -0.2121320  -0.4101219   0.4101219), wk =   0.0003840
        k(  313) = (  -0.1979899  -0.3959798   0.3959798), wk =   0.0003840
        k(  314) = (  -0.1838478  -0.3818377   0.3818377), wk =   0.0003840
        k(  315) = (  -0.1697056  -0.3676955   0.3676955), wk =   0.0003840
        k(  316) = (  -0.1555635  -0.3535534   0.3535534), wk =   0.0003840
        k(  317) = (  -0.1414214  -0.3394113   0.3394113), wk =   0.0003840
        k(  318) = (  -0.1272792  -0.3252691   0.3252691), wk =   0.0003840
        k(  319) = (  -0.1131371  -0.3111270   0.3111270), wk =   0.0003840
        k(  320) = (  -0.0989949  -0.2969848   0.2969848), wk =   0.0003840
        k(  321) = (  -0.0848528  -0.2828427   0.2828427), wk =   0.0003840
        k(  322) = (  -0.0707107  -0.2687006   0.2687006), wk =   0.0003840
        k(  323) = (  -0.0565685  -0.2545584   0.2545584), wk =   0.0003840
        k(  324) = (  -0.0424264  -0.2404163   0.2404163), wk =   0.0003840
        k(  325) = (  -0.0282843  -0.2262742   0.2262742), wk =   0.0003840
        k(  326) = (  -0.0141421  -0.2121320   0.2121320), wk =   0.0003840
        k(  327) = (   0.0000000  -0.1979899   0.1979899), wk =   0.0001920
        k(  328) = (   0.2262742   0.0000000   0.0000000), wk =   0.0000960
        k(  329) = (   0.2404163   0.0141421  -0.0141421), wk =   0.0003840
        k(  330) = (   0.2545584   0.0282843  -0.0282843), wk =   0.0003840
        k(  331) = (   0.2687006   0.0424264  -0.0424264), wk =   0.0003840
        k(  332) = (   0.2828427   0.0565685  -0.0565685), wk =   0.0003840
        k(  333) = (   0.2969848   0.0707107  -0.0707107), wk =   0.0003840
        k(  334) = (   0.3111270   0.0848528  -0.0848528), wk =   0.0003840
        k(  335) = (   0.3252691   0.0989949  -0.0989949), wk =   0.0003840
        k(  336) = (   0.3394113   0.1131371  -0.1131371), wk =   0.0003840
        k(  337) = (   0.3535534   0.1272792  -0.1272792), wk =   0.0003840
        k(  338) = (   0.3676955   0.1414214  -0.1414214), wk =   0.0003840
        k(  339) = (   0.3818377   0.1555635  -0.1555635), wk =   0.0003840
        k(  340) = (   0.3959798   0.1697056  -0.1697056), wk =   0.0003840
        k(  341) = (   0.4101219   0.1838478  -0.1838478), wk =   0.0003840
        k(  342) = (   0.4242641   0.1979899  -0.1979899), wk =   0.0003840
        k(  343) = (   0.4384062   0.2121320  -0.2121320), wk =   0.0003840
        k(  344) = (   0.4525483   0.2262742  -0.2262742), wk =   0.0003840
        k(  345) = (  -0.2404163  -0.4666905   0.4666905), wk =   0.0003840
        k(  346) = (  -0.2262742  -0.4525483   0.4525483), wk =   0.0003840
        k(  347) = (  -0.2121320  -0.4384062   0.4384062), wk =   0.0003840
        k(  348) = (  -0.1979899  -0.4242641   0.4242641), wk =   0.0003840
        k(  349) = (  -0.1838478  -0.4101219   0.4101219), wk =   0.0003840
        k(  350) = (  -0.1697056  -0.3959798   0.3959798), wk =   0.0003840
        k(  351) = (  -0.1555635  -0.3818377   0.3818377), wk =   0.0003840
        k(  352) = (  -0.1414214  -0.3676955   0.3676955), wk =   0.0003840
        k(  353) = (  -0.1272792  -0.3535534   0.3535534), wk =   0.0003840
        k(  354) = (  -0.1131371  -0.3394113   0.3394113), wk =   0.0003840
        k(  355) = (  -0.0989949  -0.3252691   0.3252691), wk =   0.0003840
        k(  356) = (  -0.0848528  -0.3111270   0.3111270), wk =   0.0003840
        k(  357) = (  -0.0707107  -0.2969848   0.2969848), wk =   0.0003840
        k(  358) = (  -0.0565685  -0.2828427   0.2828427), wk =   0.0003840
        k(  359) = (  -0.0424264  -0.2687006   0.2687006), wk =   0.0003840
        k(  360) = (  -0.0282843  -0.2545584   0.2545584), wk =   0.0003840
        k(  361) = (  -0.0141421  -0.2404163   0.2404163), wk =   0.0003840
        k(  362) = (  -0.0000000  -0.2262742   0.2262742), wk =   0.0001920
        k(  363) = (   0.2545584   0.0000000   0.0000000), wk =   0.0000960
        k(  364) = (   0.2687006   0.0141421  -0.0141421), wk =   0.0003840
        k(  365) = (   0.2828427   0.0282843  -0.0282843), wk =   0.0003840
        k(  366) = (   0.2969848   0.0424264  -0.0424264), wk =   0.0003840
        k(  367) = (   0.3111270   0.0565685  -0.0565685), wk =   0.0003840
        k(  368) = (   0.3252691   0.0707107  -0.0707107), wk =   0.0003840
        k(  369) = (   0.3394113   0.0848528  -0.0848528), wk =   0.0003840
        k(  370) = (   0.3535534   0.0989949  -0.0989949), wk =   0.0003840
        k(  371) = (   0.3676955   0.1131371  -0.1131371), wk =   0.0003840
        k(  372) = (   0.3818377   0.1272792  -0.1272792), wk =   0.0003840
        k(  373) = (   0.3959798   0.1414214  -0.1414214), wk =   0.0003840
        k(  374) = (   0.4101219   0.1555635  -0.1555635), wk =   0.0003840
        k(  375) = (   0.4242641   0.1697056  -0.1697056), wk =   0.0003840
        k(  376) = (   0.4384062   0.1838478  -0.1838478), wk =   0.0003840
        k(  377) = (   0.4525483   0.1979899  -0.1979899), wk =   0.0003840
        k(  378) = (   0.4666905   0.2121320  -0.2121320), wk =   0.0003840
        k(  379) = (  -0.2262742  -0.4808326   0.4808326), wk =   0.0003840
        k(  380) = (  -0.2121320  -0.4666905   0.4666905), wk =   0.0003840
        k(  381) = (  -0.1979899  -0.4525483   0.4525483), wk =   0.0003840
        k(  382) = (  -0.1838478  -0.4384062   0.4384062), wk =   0.0003840
        k(  383) = (  -0.1697056  -0.4242641   0.4242641), wk =   0.0003840
        k(  384) = (  -0.1555635  -0.4101219   0.4101219), wk =   0.0003840
        k(  385) = (  -0.1414214  -0.3959798   0.3959798), wk =   0.0003840
        k(  386) = (  -0.1272792  -0.3818377   0.3818377), wk =   0.0003840
        k(  387) = (  -0.1131371  -0.3676955   0.3676955), wk =   0.0003840
        k(  388) = (  -0.0989949  -0.3535534   0.3535534), wk =   0.0003840
        k(  389) = (  -0.0848528  -0.3394113   0.3394113), wk =   0.0003840
        k(  390) = (  -0.0707107  -0.3252691   0.3252691), wk =   0.0003840
        k(  391) = (  -0.0565685  -0.3111270   0.3111270), wk =   0.0003840
        k(  392) = (  -0.0424264  -0.2969848   0.2969848), wk =   0.0003840
        k(  393) = (  -0.0282843  -0.2828427   0.2828427), wk =   0.0003840
        k(  394) = (  -0.0141421  -0.2687006   0.2687006), wk =   0.0003840
        k(  395) = (  -0.0000000  -0.2545584   0.2545584), wk =   0.0001920
        k(  396) = (   0.2828427   0.0000000   0.0000000), wk =   0.0000960
        k(  397) = (   0.2969848   0.0141421  -0.0141421), wk =   0.0003840
        k(  398) = (   0.3111270   0.0282843  -0.0282843), wk =   0.0003840
        k(  399) = (   0.3252691   0.0424264  -0.0424264), wk =   0.0003840
        k(  400) = (   0.3394113   0.0565685  -0.0565685), wk =   0.0003840
        k(  401) = (   0.3535534   0.0707107  -0.0707107), wk =   0.0003840
        k(  402) = (   0.3676955   0.0848528  -0.0848528), wk =   0.0003840
        k(  403) = (   0.3818377   0.0989949  -0.0989949), wk =   0.0003840
        k(  404) = (   0.3959798   0.1131371  -0.1131371), wk =   0.0003840
        k(  405) = (   0.4101219   0.1272792  -0.1272792), wk =   0.0003840
        k(  406) = (   0.4242641   0.1414214  -0.1414214), wk =   0.0003840
        k(  407) = (   0.4384062   0.1555635  -0.1555635), wk =   0.0003840
        k(  408) = (   0.4525483   0.1697056  -0.1697056), wk =   0.0003840
        k(  409) = (   0.4666905   0.1838478  -0.1838478), wk =   0.0003840
        k(  410) = (   0.4808326   0.1979899  -0.1979899), wk =   0.0003840
        k(  411) = (  -0.2121320  -0.4949747   0.4949747), wk =   0.0003840
        k(  412) = (  -0.1979899  -0.4808326   0.4808326), wk =   0.0003840
        k(  413) = (  -0.1838478  -0.4666905   0.4666905), wk =   0.0003840
        k(  414) = (  -0.1697056  -0.4525483   0.4525483), wk =   0.0003840
        k(  415) = (  -0.1555635  -0.4384062   0.4384062), wk =   0.0003840
        k(  416) = (  -0.1414214  -0.4242641   0.4242641), wk =   0.0003840
        k(  417) = (  -0.1272792  -0.4101219   0.4101219), wk =   0.0003840
        k(  418) = (  -0.1131371  -0.3959798   0.3959798), wk =   0.0003840
        k(  419) = (  -0.0989949  -0.3818377   0.3818377), wk =   0.0003840
        k(  420) = (  -0.0848528  -0.3676955   0.3676955), wk =   0.0003840
        k(  421) = (  -0.0707107  -0.3535534   0.3535534), wk =   0.0003840
        k(  422) = (  -0.0565685  -0.3394113   0.3394113), wk =   0.0003840
        k(  423) = (  -0.0424264  -0.3252691   0.3252691), wk =   0.0003840
        k(  424) = (  -0.0282843  -0.3111270   0.3111270), wk =   0.0003840
        k(  425) = (  -0.0141421  -0.2969848   0.2969848), wk =   0.0003840
        k(  426) = (   0.0000000  -0.2828427   0.2828427), wk =   0.0001920
        k(  427) = (   0.3111270   0.0000000   0.0000000), wk =   0.0000960
        k(  428) = (   0.3252691   0.0141421  -0.0141421), wk =   0.0003840
        k(  429) = (   0.3394113   0.0282843  -0.0282843), wk =   0.0003840
        k(  430) = (   0.3535534   0.0424264  -0.0424264), wk =   0.0003840
        k(  431) = (   0.3676955   0.0565685  -0.0565685), wk =   0.0003840
        k(  432) = (   0.3818377   0.0707107  -0.0707107), wk =   0.0003840
        k(  433) = (   0.3959798   0.0848528  -0.0848528), wk =   0.0003840
        k(  434) = (   0.4101219   0.0989949  -0.0989949), wk =   0.0003840
        k(  435) = (   0.4242641   0.1131371  -0.1131371), wk =   0.0003840
        k(  436) = (   0.4384062   0.1272792  -0.1272792), wk =   0.0003840
        k(  437) = (   0.4525483   0.1414214  -0.1414214), wk =   0.0003840
        k(  438) = (   0.4666905   0.1555635  -0.1555635), wk =   0.0003840
        k(  439) = (   0.4808326   0.1697056  -0.1697056), wk =   0.0003840
        k(  440) = (   0.4949747   0.1838478  -0.1838478), wk =   0.0003840
        k(  441) = (  -0.1979899  -0.5091169   0.5091169), wk =   0.0003840
        k(  442) = (  -0.1838478  -0.4949747   0.4949747), wk =   0.0003840
        k(  443) = (  -0.1697056  -0.4808326   0.4808326), wk =   0.0003840
        k(  444) = (  -0.1555635  -0.4666905   0.4666905), wk =   0.0003840
        k(  445) = (  -0.1414214  -0.4525483   0.4525483), wk =   0.0003840
        k(  446) = (  -0.1272792  -0.4384062   0.4384062), wk =   0.0003840
        k(  447) = (  -0.1131371  -0.4242641   0.4242641), wk =   0.0003840
        k(  448) = (  -0.0989949  -0.4101219   0.4101219), wk =   0.0003840
        k(  449) = (  -0.0848528  -0.3959798   0.3959798), wk =   0.0003840
        k(  450) = (  -0.0707107  -0.3818377   0.3818377), wk =   0.0003840
        k(  451) = (  -0.0565685  -0.3676955   0.3676955), wk =   0.0003840
        k(  452) = (  -0.0424264  -0.3535534   0.3535534), wk =   0.0003840
        k(  453) = (  -0.0282843  -0.3394113   0.3394113), wk =   0.0003840
        k(  454) = (  -0.0141421  -0.3252691   0.3252691), wk =   0.0003840
        k(  455) = (   0.0000000  -0.3111270   0.3111270), wk =   0.0001920
        k(  456) = (   0.3394113   0.0000000   0.0000000), wk =   0.0000960
        k(  457) = (   0.3535534   0.0141421  -0.0141421), wk =   0.0003840
        k(  458) = (   0.3676955   0.0282843  -0.0282843), wk =   0.0003840
        k(  459) = (   0.3818377   0.0424264  -0.0424264), wk =   0.0003840
        k(  460) = (   0.3959798   0.0565685  -0.0565685), wk =   0.0003840
        k(  461) = (   0.4101219   0.0707107  -0.0707107), wk =   0.0003840
        k(  462) = (   0.4242641   0.0848528  -0.0848528), wk =   0.0003840
        k(  463) = (   0.4384062   0.0989949  -0.0989949), wk =   0.0003840
        k(  464) = (   0.4525483   0.1131371  -0.1131371), wk =   0.0003840
        k(  465) = (   0.4666905   0.1272792  -0.1272792), wk =   0.0003840
        k(  466) = (   0.4808326   0.1414214  -0.1414214), wk =   0.0003840
        k(  467) = (   0.4949747   0.1555635  -0.1555635), wk =   0.0003840
        k(  468) = (   0.5091169   0.1697056  -0.1697056), wk =   0.0003840
        k(  469) = (  -0.1838478  -0.5232590   0.5232590), wk =   0.0003840
        k(  470) = (  -0.1697056  -0.5091169   0.5091169), wk =   0.0003840
        k(  471) = (  -0.1555635  -0.4949747   0.4949747), wk =   0.0003840
        k(  472) = (  -0.1414214  -0.4808326   0.4808326), wk =   0.0003840
        k(  473) = (  -0.1272792  -0.4666905   0.4666905), wk =   0.0003840
        k(  474) = (  -0.1131371  -0.4525483   0.4525483), wk =   0.0003840
        k(  475) = (  -0.0989949  -0.4384062   0.4384062), wk =   0.0003840
        k(  476) = (  -0.0848528  -0.4242641   0.4242641), wk =   0.0003840
        k(  477) = (  -0.0707107  -0.4101219   0.4101219), wk =   0.0003840
        k(  478) = (  -0.0565685  -0.3959798   0.3959798), wk =   0.0003840
        k(  479) = (  -0.0424264  -0.3818377   0.3818377), wk =   0.0003840
        k(  480) = (  -0.0282843  -0.3676955   0.3676955), wk =   0.0003840
        k(  481) = (  -0.0141421  -0.3535534   0.3535534), wk =   0.0003840
        k(  482) = (   0.0000000  -0.3394113   0.3394113), wk =   0.0001920
        k(  483) = (   0.3676955   0.0000000   0.0000000), wk =   0.0000960
        k(  484) = (   0.3818377   0.0141421  -0.0141421), wk =   0.0003840
        k(  485) = (   0.3959798   0.0282843  -0.0282843), wk =   0.0003840
        k(  486) = (   0.4101219   0.0424264  -0.0424264), wk =   0.0003840
        k(  487) = (   0.4242641   0.0565685  -0.0565685), wk =   0.0003840
        k(  488) = (   0.4384062   0.0707107  -0.0707107), wk =   0.0003840
        k(  489) = (   0.4525483   0.0848528  -0.0848528), wk =   0.0003840
        k(  490) = (   0.4666905   0.0989949  -0.0989949), wk =   0.0003840
        k(  491) = (   0.4808326   0.1131371  -0.1131371), wk =   0.0003840
        k(  492) = (   0.4949747   0.1272792  -0.1272792), wk =   0.0003840
        k(  493) = (   0.5091169   0.1414214  -0.1414214), wk =   0.0003840
        k(  494) = (   0.5232590   0.1555635  -0.1555635), wk =   0.0003840
        k(  495) = (  -0.1697056  -0.5374012   0.5374012), wk =   0.0003840
        k(  496) = (  -0.1555635  -0.5232590   0.5232590), wk =   0.0003840
        k(  497) = (  -0.1414214  -0.5091169   0.5091169), wk =   0.0003840
        k(  498) = (  -0.1272792  -0.4949747   0.4949747), wk =   0.0003840
        k(  499) = (  -0.1131371  -0.4808326   0.4808326), wk =   0.0003840
        k(  500) = (  -0.0989949  -0.4666905   0.4666905), wk =   0.0003840
        k(  501) = (  -0.0848528  -0.4525483   0.4525483), wk =   0.0003840
        k(  502) = (  -0.0707107  -0.4384062   0.4384062), wk =   0.0003840
        k(  503) = (  -0.0565685  -0.4242641   0.4242641), wk =   0.0003840
        k(  504) = (  -0.0424264  -0.4101219   0.4101219), wk =   0.0003840
        k(  505) = (  -0.0282843  -0.3959798   0.3959798), wk =   0.0003840
        k(  506) = (  -0.0141421  -0.3818377   0.3818377), wk =   0.0003840
        k(  507) = (   0.0000000  -0.3676955   0.3676955), wk =   0.0001920
        k(  508) = (   0.3959798   0.0000000   0.0000000), wk =   0.0000960
        k(  509) = (   0.4101219   0.0141421  -0.0141421), wk =   0.0003840
        k(  510) = (   0.4242641   0.0282843  -0.0282843), wk =   0.0003840
        k(  511) = (   0.4384062   0.0424264  -0.0424264), wk =   0.0003840
        k(  512) = (   0.4525483   0.0565685  -0.0565685), wk =   0.0003840
        k(  513) = (   0.4666905   0.0707107  -0.0707107), wk =   0.0003840
        k(  514) = (   0.4808326   0.0848528  -0.0848528), wk =   0.0003840
        k(  515) = (   0.4949747   0.0989949  -0.0989949), wk =   0.0003840
        k(  516) = (   0.5091169   0.1131371  -0.1131371), wk =   0.0003840
        k(  517) = (   0.5232590   0.1272792  -0.1272792), wk =   0.0003840
        k(  518) = (   0.5374012   0.1414214  -0.1414214), wk =   0.0003840
        k(  519) = (  -0.1555635  -0.5515433   0.5515433), wk =   0.0003840
        k(  520) = (  -0.1414214  -0.5374012   0.5374012), wk =   0.0003840
        k(  521) = (  -0.1272792  -0.5232590   0.5232590), wk =   0.0003840
        k(  522) = (  -0.1131371  -0.5091169   0.5091169), wk =   0.0003840
        k(  523) = (  -0.0989949  -0.4949747   0.4949747), wk =   0.0003840
        k(  524) = (  -0.0848528  -0.4808326   0.4808326), wk =   0.0003840
        k(  525) = (  -0.0707107  -0.4666905   0.4666905), wk =   0.0003840
        k(  526) = (  -0.0565685  -0.4525483   0.4525483), wk =   0.0003840
        k(  527) = (  -0.0424264  -0.4384062   0.4384062), wk =   0.0003840
        k(  528) = (  -0.0282843  -0.4242641   0.4242641), wk =   0.0003840
        k(  529) = (  -0.0141421  -0.4101219   0.4101219), wk =   0.0003840
        k(  530) = (   0.0000000  -0.3959798   0.3959798), wk =   0.0001920
        k(  531) = (   0.4242641   0.0000000   0.0000000), wk =   0.0000960
        k(  532) = (   0.4384062   0.0141421  -0.0141421), wk =   0.0003840
        k(  533) = (   0.4525483   0.0282843  -0.0282843), wk =   0.0003840
        k(  534) = (   0.4666905   0.0424264  -0.0424264), wk =   0.0003840
        k(  535) = (   0.4808326   0.0565685  -0.0565685), wk =   0.0003840
        k(  536) = (   0.4949747   0.0707107  -0.0707107), wk =   0.0003840
        k(  537) = (   0.5091169   0.0848528  -0.0848528), wk =   0.0003840
        k(  538) = (   0.5232590   0.0989949  -0.0989949), wk =   0.0003840
        k(  539) = (   0.5374012   0.1131371  -0.1131371), wk =   0.0003840
        k(  540) = (   0.5515433   0.1272792  -0.1272792), wk =   0.0003840
        k(  541) = (  -0.1414214  -0.5656854   0.5656854), wk =   0.0003840
        k(  542) = (  -0.1272792  -0.5515433   0.5515433), wk =   0.0003840
        k(  543) = (  -0.1131371  -0.5374012   0.5374012), wk =   0.0003840
        k(  544) = (  -0.0989949  -0.5232590   0.5232590), wk =   0.0003840
        k(  545) = (  -0.0848528  -0.5091169   0.5091169), wk =   0.0003840
        k(  546) = (  -0.0707107  -0.4949747   0.4949747), wk =   0.0003840
        k(  547) = (  -0.0565685  -0.4808326   0.4808326), wk =   0.0003840
        k(  548) = (  -0.0424264  -0.4666905   0.4666905), wk =   0.0003840
        k(  549) = (  -0.0282843  -0.4525483   0.4525483), wk =   0.0003840
        k(  550) = (  -0.0141421  -0.4384062   0.4384062), wk =   0.0003840
        k(  551) = (  -0.0000000  -0.4242641   0.4242641), wk =   0.0001920
        k(  552) = (   0.4525483   0.0000000   0.0000000), wk =   0.0000960
        k(  553) = (   0.4666905   0.0141421  -0.0141421), wk =   0.0003840
        k(  554) = (   0.4808326   0.0282843  -0.0282843), wk =   0.0003840
        k(  555) = (   0.4949747   0.0424264  -0.0424264), wk =   0.0003840
        k(  556) = (   0.5091169   0.0565685  -0.0565685), wk =   0.0003840
        k(  557) = (   0.5232590   0.0707107  -0.0707107), wk =   0.0003840
        k(  558) = (   0.5374012   0.0848528  -0.0848528), wk =   0.0003840
        k(  559) = (   0.5515433   0.0989949  -0.0989949), wk =   0.0003840
        k(  560) = (   0.5656854   0.1131371  -0.1131371), wk =   0.0003840
        k(  561) = (  -0.1272792  -0.5798276   0.5798276), wk =   0.0003840
        k(  562) = (  -0.1131371  -0.5656854   0.5656854), wk =   0.0003840
        k(  563) = (  -0.0989949  -0.5515433   0.5515433), wk =   0.0003840
        k(  564) = (  -0.0848528  -0.5374012   0.5374012), wk =   0.0003840
        k(  565) = (  -0.0707107  -0.5232590   0.5232590), wk =   0.0003840
        k(  566) = (  -0.0565685  -0.5091169   0.5091169), wk =   0.0003840
        k(  567) = (  -0.0424264  -0.4949747   0.4949747), wk =   0.0003840
        k(  568) = (  -0.0282843  -0.4808326   0.4808326), wk =   0.0003840
        k(  569) = (  -0.0141421  -0.4666905   0.4666905), wk =   0.0003840
        k(  570) = (   0.0000000  -0.4525483   0.4525483), wk =   0.0001920
        k(  571) = (   0.4808326   0.0000000   0.0000000), wk =   0.0000960
        k(  572) = (   0.4949747   0.0141421  -0.0141421), wk =   0.0003840
        k(  573) = (   0.5091169   0.0282843  -0.0282843), wk =   0.0003840
        k(  574) = (   0.5232590   0.0424264  -0.0424264), wk =   0.0003840
        k(  575) = (   0.5374012   0.0565685  -0.0565685), wk =   0.0003840
        k(  576) = (   0.5515433   0.0707107  -0.0707107), wk =   0.0003840
        k(  577) = (   0.5656854   0.0848528  -0.0848528), wk =   0.0003840
        k(  578) = (   0.5798276   0.0989949  -0.0989949), wk =   0.0003840
        k(  579) = (  -0.1131371  -0.5939697   0.5939697), wk =   0.0003840
        k(  580) = (  -0.0989949  -0.5798276   0.5798276), wk =   0.0003840
        k(  581) = (  -0.0848528  -0.5656854   0.5656854), wk =   0.0003840
        k(  582) = (  -0.0707107  -0.5515433   0.5515433), wk =   0.0003840
        k(  583) = (  -0.0565685  -0.5374012   0.5374012), wk =   0.0003840
        k(  584) = (  -0.0424264  -0.5232590   0.5232590), wk =   0.0003840
        k(  585) = (  -0.0282843  -0.5091169   0.5091169), wk =   0.0003840
        k(  586) = (  -0.0141421  -0.4949747   0.4949747), wk =   0.0003840
        k(  587) = (   0.0000000  -0.4808326   0.4808326), wk =   0.0001920
        k(  588) = (   0.5091169   0.0000000   0.0000000), wk =   0.0000960
        k(  589) = (   0.5232590   0.0141421  -0.0141421), wk =   0.0003840
        k(  590) = (   0.5374012   0.0282843  -0.0282843), wk =   0.0003840
        k(  591) = (   0.5515433   0.0424264  -0.0424264), wk =   0.0003840
        k(  592) = (   0.5656854   0.0565685  -0.0565685), wk =   0.0003840
        k(  593) = (   0.5798276   0.0707107  -0.0707107), wk =   0.0003840
        k(  594) = (   0.5939697   0.0848528  -0.0848528), wk =   0.0003840
        k(  595) = (  -0.0989949  -0.6081118   0.6081118), wk =   0.0003840
        k(  596) = (  -0.0848528  -0.5939697   0.5939697), wk =   0.0003840
        k(  597) = (  -0.0707107  -0.5798276   0.5798276), wk =   0.0003840
        k(  598) = (  -0.0565685  -0.5656854   0.5656854), wk =   0.0003840
        k(  599) = (  -0.0424264  -0.5515433   0.5515433), wk =   0.0003840
        k(  600) = (  -0.0282843  -0.5374012   0.5374012), wk =   0.0003840
        k(  601) = (  -0.0141421  -0.5232590   0.5232590), wk =   0.0003840
        k(  602) = (   0.0000000  -0.5091169   0.5091169), wk =   0.0001920
        k(  603) = (   0.5374012   0.0000000   0.0000000), wk =   0.0000960
        k(  604) = (   0.5515433   0.0141421  -0.0141421), wk =   0.0003840
        k(  605) = (   0.5656854   0.0282843  -0.0282843), wk =   0.0003840
        k(  606) = (   0.5798276   0.0424264  -0.0424264), wk =   0.0003840
        k(  607) = (   0.5939697   0.0565685  -0.0565685), wk =   0.0003840
        k(  608) = (   0.6081118   0.0707107  -0.0707107), wk =   0.0003840
        k(  609) = (  -0.0848528  -0.6222540   0.6222540), wk =   0.0003840
        k(  610) = (  -0.0707107  -0.6081118   0.6081118), wk =   0.0003840
        k(  611) = (  -0.0565685  -0.5939697   0.5939697), wk =   0.0003840
        k(  612) = (  -0.0424264  -0.5798276   0.5798276), wk =   0.0003840
        k(  613) = (  -0.0282843  -0.5656854   0.5656854), wk =   0.0003840
        k(  614) = (  -0.0141421  -0.5515433   0.5515433), wk =   0.0003840
        k(  615) = (   0.0000000  -0.5374012   0.5374012), wk =   0.0001920
        k(  616) = (   0.5656854   0.0000000   0.0000000), wk =   0.0000960
        k(  617) = (   0.5798276   0.0141421  -0.0141421), wk =   0.0003840
        k(  618) = (   0.5939697   0.0282843  -0.0282843), wk =   0.0003840
        k(  619) = (   0.6081118   0.0424264  -0.0424264), wk =   0.0003840
        k(  620) = (   0.6222540   0.0565685  -0.0565685), wk =   0.0003840
        k(  621) = (  -0.0707107  -0.6363961   0.6363961), wk =   0.0003840
        k(  622) = (  -0.0565685  -0.6222540   0.6222540), wk =   0.0003840
        k(  623) = (  -0.0424264  -0.6081118   0.6081118), wk =   0.0003840
        k(  624) = (  -0.0282843  -0.5939697   0.5939697), wk =   0.0003840
        k(  625) = (  -0.0141421  -0.5798276   0.5798276), wk =   0.0003840
        k(  626) = (   0.0000000  -0.5656854   0.5656854), wk =   0.0001920
        k(  627) = (   0.5939697   0.0000000   0.0000000), wk =   0.0000960
        k(  628) = (   0.6081118   0.0141421  -0.0141421), wk =   0.0003840
        k(  629) = (   0.6222540   0.0282843  -0.0282843), wk =   0.0003840
        k(  630) = (   0.6363961   0.0424264  -0.0424264), wk =   0.0003840
        k(  631) = (  -0.0565685  -0.6505382   0.6505382), wk =   0.0003840
        k(  632) = (  -0.0424264  -0.6363961   0.6363961), wk =   0.0003840
        k(  633) = (  -0.0282843  -0.6222540   0.6222540), wk =   0.0003840
        k(  634) = (  -0.0141421  -0.6081118   0.6081118), wk =   0.0003840
        k(  635) = (  -0.0000000  -0.5939697   0.5939697), wk =   0.0001920
        k(  636) = (   0.6222540   0.0000000   0.0000000), wk =   0.0000960
        k(  637) = (   0.6363961   0.0141421  -0.0141421), wk =   0.0003840
        k(  638) = (   0.6505382   0.0282843  -0.0282843), wk =   0.0003840
        k(  639) = (  -0.0424264  -0.6646804   0.6646804), wk =   0.0003840
        k(  640) = (  -0.0282843  -0.6505382   0.6505382), wk =   0.0003840
        k(  641) = (  -0.0141421  -0.6363961   0.6363961), wk =   0.0003840
        k(  642) = (   0.0000000  -0.6222540   0.6222540), wk =   0.0001920
        k(  643) = (   0.6505382   0.0000000   0.0000000), wk =   0.0000960
        k(  644) = (   0.6646804   0.0141421  -0.0141421), wk =   0.0003840
        k(  645) = (  -0.0282843  -0.6788225   0.6788225), wk =   0.0003840
        k(  646) = (  -0.0141421  -0.6646804   0.6646804), wk =   0.0003840
        k(  647) = (   0.0000000  -0.6505382   0.6505382), wk =   0.0001920
        k(  648) = (   0.6788225   0.0000000   0.0000000), wk =   0.0000960
        k(  649) = (  -0.0141421  -0.6929646   0.6929646), wk =   0.0003840
        k(  650) = (   0.0000000  -0.6788225   0.6788225), wk =   0.0001920
        k(  651) = (  -0.7071068   0.0000000   0.0000000), wk =   0.0000480
        k(  652) = (   0.0565685   0.0282843   0.0000000), wk =   0.0003840
        k(  653) = (   0.0707107   0.0424264  -0.0141421), wk =   0.0007680
        k(  654) = (   0.0848528   0.0565685  -0.0282843), wk =   0.0007680
        k(  655) = (   0.0989949   0.0707107  -0.0424264), wk =   0.0007680
        k(  656) = (   0.1131371   0.0848528  -0.0565685), wk =   0.0007680
        k(  657) = (   0.1272792   0.0989949  -0.0707107), wk =   0.0007680
        k(  658) = (   0.1414214   0.1131371  -0.0848528), wk =   0.0007680
        k(  659) = (   0.1555635   0.1272792  -0.0989949), wk =   0.0007680
        k(  660) = (   0.1697056   0.1414214  -0.1131371), wk =   0.0007680
        k(  661) = (   0.1838478   0.1555635  -0.1272792), wk =   0.0007680
        k(  662) = (   0.1979899   0.1697056  -0.1414214), wk =   0.0007680
        k(  663) = (   0.2121320   0.1838478  -0.1555635), wk =   0.0007680
        k(  664) = (   0.2262742   0.1979899  -0.1697056), wk =   0.0007680
        k(  665) = (   0.2404163   0.2121320  -0.1838478), wk =   0.0007680
        k(  666) = (   0.2545584   0.2262742  -0.1979899), wk =   0.0007680
        k(  667) = (   0.2687006   0.2404163  -0.2121320), wk =   0.0007680
        k(  668) = (   0.2828427   0.2545584  -0.2262742), wk =   0.0007680
        k(  669) = (   0.2969848   0.2687006  -0.2404163), wk =   0.0007680
        k(  670) = (   0.3111270   0.2828427  -0.2545584), wk =   0.0007680
        k(  671) = (   0.3252691   0.2969848  -0.2687006), wk =   0.0007680
        k(  672) = (   0.3394113   0.3111270  -0.2828427), wk =   0.0007680
        k(  673) = (   0.3535534   0.3252691  -0.2969848), wk =   0.0007680
        k(  674) = (  -0.3394113  -0.3676955   0.3959798), wk =   0.0007680
        k(  675) = (  -0.3252691  -0.3535534   0.3818377), wk =   0.0003840
        k(  676) = (   0.0848528   0.0282843   0.0000000), wk =   0.0003840
        k(  677) = (   0.0989949   0.0424264  -0.0141421), wk =   0.0007680
        k(  678) = (   0.1131371   0.0565685  -0.0282843), wk =   0.0007680
        k(  679) = (   0.1272792   0.0707107  -0.0424264), wk =   0.0007680
        k(  680) = (   0.1414214   0.0848528  -0.0565685), wk =   0.0007680
        k(  681) = (   0.1555635   0.0989949  -0.0707107), wk =   0.0007680
        k(  682) = (   0.1697056   0.1131371  -0.0848528), wk =   0.0007680
        k(  683) = (   0.1838478   0.1272792  -0.0989949), wk =   0.0007680
        k(  684) = (   0.1979899   0.1414214  -0.1131371), wk =   0.0007680
        k(  685) = (   0.2121320   0.1555635  -0.1272792), wk =   0.0007680
        k(  686) = (   0.2262742   0.1697056  -0.1414214), wk =   0.0007680
        k(  687) = (   0.2404163   0.1838478  -0.1555635), wk =   0.0007680
        k(  688) = (   0.2545584   0.1979899  -0.1697056), wk =   0.0007680
        k(  689) = (   0.2687006   0.2121320  -0.1838478), wk =   0.0007680
        k(  690) = (   0.2828427   0.2262742  -0.1979899), wk =   0.0007680
        k(  691) = (   0.2969848   0.2404163  -0.2121320), wk =   0.0007680
        k(  692) = (   0.3111270   0.2545584  -0.2262742), wk =   0.0007680
        k(  693) = (   0.3252691   0.2687006  -0.2404163), wk =   0.0007680
        k(  694) = (   0.3394113   0.2828427  -0.2545584), wk =   0.0007680
        k(  695) = (   0.3535534   0.2969848  -0.2687006), wk =   0.0007680
        k(  696) = (   0.3676955   0.3111270  -0.2828427), wk =   0.0007680
        k(  697) = (  -0.3252691  -0.3818377   0.4101219), wk =   0.0007680
        k(  698) = (  -0.3111270  -0.3676955   0.3959798), wk =   0.0007680
        k(  699) = (  -0.2969848  -0.3535534   0.3818377), wk =   0.0007680
        k(  700) = (  -0.2828427  -0.3394113   0.3676955), wk =   0.0007680
        k(  701) = (  -0.2687006  -0.3252691   0.3535534), wk =   0.0007680
        k(  702) = (  -0.2545584  -0.3111270   0.3394113), wk =   0.0007680
        k(  703) = (  -0.2404163  -0.2969848   0.3252691), wk =   0.0007680
        k(  704) = (  -0.2262742  -0.2828427   0.3111270), wk =   0.0007680
[...]

   -12.4235 -12.4168 -12.2958 -12.2441 -12.2360 -12.2114 -12.1943 -12.1680
   -12.0496 -12.0432  -0.2069   0.8286   5.6878   6.2871  10.7036  11.5845
    12.8425  13.5897

     occupation numbers 
     1.0000   1.0000   1.0000   1.0000   1.0000   1.0000   1.0000   1.0000
     1.0000   1.0000   1.0000   1.0000   1.0000   1.0000   0.0000   0.0000
     0.0000   0.0000

          k =-0.0849-0.3677 0.6505 ( 20327 PWs)   bands (ev):

   -12.4239 -12.4170 -12.2940 -12.2450 -12.2337 -12.2117 -12.1960 -12.1693
   -12.0494 -12.0427  -0.1622   0.7792   5.6787   6.2674  10.7126  11.6567
    12.9052  13.4444

     occupation numbers 
     1.0000   1.0000   1.0000   1.0000   1.0000   1.0000   1.0000   1.0000
     1.0000   1.0000   1.0000   1.0000   1.0000   1.0000   0.0000   0.0000
     0.0000   0.0000

          k =-0.0707-0.3536 0.6364 ( 20306 PWs)   bands (ev):

   -12.4240 -12.4170 -12.2933 -12.2454 -12.2328 -12.2120 -12.1965 -12.1697
   -12.0493 -12.0425  -0.1462   0.7616   5.6757   6.2608  10.7154  11.6820
    12.9408  13.3798

     occupation numbers 
     1.0000   1.0000   1.0000   1.0000   1.0000   1.0000   1.0000   1.0000
     1.0000   1.0000   1.0000   1.0000   1.0000   1.0000   0.0000   0.0000
     0.0000   0.0000

          k =-0.1131-0.4243 0.7071 ( 20347 PWs)   bands (ev):

   -12.4215 -12.4166 -12.3010 -12.2457 -12.2402 -12.2093 -12.1891 -12.1641
   -12.0498 -12.0455  -0.2970   0.9300   5.7622   6.2921  10.7160  11.1819
    12.8396  13.9807

     occupation numbers 
     1.0000   1.0000   1.0000   1.0000   1.0000   1.0000   1.0000   1.0000
     1.0000   1.0000   1.0000   1.0000   1.0000   1.0000   0.0000   0.0000
     0.0000   0.0000

          k =-0.0990-0.4101 0.6930 ( 20338 PWs)   bands (ev):

   -12.4223 -12.4173 -12.2966 -12.2477 -12.2370 -12.2073 -12.1934 -12.1675
   -12.0491 -12.0445  -0.2132   0.8364   5.7409   6.2424  10.7741  11.3072
    12.8333  13.8049

     occupation numbers 
     1.0000   1.0000   1.0000   1.0000   1.0000   1.0000   1.0000   1.0000
     1.0000   1.0000   1.0000   1.0000   1.0000   1.0000   0.0000   0.0000
     0.0000   0.0000

          k =-0.0849-0.3960 0.6788 ( 20326 PWs)   bands (ev):

   -12.4230 -12.4177 -12.2930 -12.2493 -12.2340 -12.2064 -12.1967 -12.1702
   -12.0486 -12.0436  -0.1400   0.7561   5.7242   6.2057  10.8050  11.4399
    12.8468  13.6201

     occupation numbers 
     1.0000   1.0000   1.0000   1.0000   1.0000   1.0000   1.0000   1.0000
     1.0000   1.0000   1.0000   1.0000   1.0000   1.0000   0.0000   0.0000
     0.0000   0.0000

          k =-0.0707-0.3818 0.6647 ( 20329 PWs)   bands (ev):

   -12.4235 -12.4180 -12.2905 -12.2502 -12.2315 -12.2069 -12.1986 -12.1720
   -12.0483 -12.0430  -0.0859   0.6976   5.7111   6.1839  10.8201  11.5535
    12.8800  13.4491

     occupation numbers 
     1.0000   1.0000   1.0000   1.0000   1.0000   1.0000   1.0000   1.0000
     1.0000   1.0000   1.0000   1.0000   1.0000   1.0000   0.0000   0.0000
     0.0000   0.0000

          k =-0.0566-0.3677 0.6505 ( 20316 PWs)   bands (ev):

   -12.4238 -12.4181 -12.2893 -12.2503 -12.2303 -12.2079 -12.1992 -12.1728
   -12.0482 -12.0426  -0.0612   0.6712   5.7013   6.1781  10.8249  11.6271
    12.9148  13.3306

     occupation numbers 
     1.0000   1.0000   1.0000   1.0000   1.0000   1.0000   1.0000   1.0000
     1.0000   1.0000   1.0000   1.0000   1.0000   1.0000   0.0000   0.0000
     0.0000   0.0000

          k =-0.0424-0.3536 0.6364 ( 20322 PWs)   bands (ev):

   -12.4239 -12.4180 -12.2897 -12.2494 -12.2309 -12.2079 -12.1995 -12.1725
   -12.0483 -12.0426  -0.0725   0.6836   5.6949   6.1883  10.8208  11.6478
    12.9028  13.3262

     occupation numbers 
     1.0000   1.0000   1.0000   1.0000   1.0000   1.0000   1.0000   1.0000
     1.0000   1.0000   1.0000   1.0000   1.0000   1.0000   0.0000   0.0000
     0.0000   0.0000

          k =-0.0283-0.3394 0.6223 ( 20329 PWs)   bands (ev):

   -12.4237 -12.4177 -12.2914 -12.2476 -12.2331 -12.2076 -12.1987 -12.1712
   -12.0486 -12.0428  -0.1166   0.7313   5.6929   6.2135  10.8065  11.6148
    12.8478  13.4340

     occupation numbers 
     1.0000   1.0000   1.0000   1.0000   1.0000   1.0000   1.0000   1.0000
     1.0000   1.0000   1.0000   1.0000   1.0000   1.0000   0.0000   0.0000
     0.0000   0.0000

          k =-0.0141-0.3253 0.6081 ( 20330 PWs)   bands (ev):

   -12.4233 -12.4173 -12.2942 -12.2453 -12.2363 -12.2086 -12.1961 -12.1692
   -12.0490 -12.0434  -0.1836   0.8045   5.6966   6.2521  10.7784  11.5398
    12.7995  13.5930

     occupation numbers 
     1.0000   1.0000   1.0000   1.0000   1.0000   1.0000   1.0000   1.0000
     1.0000   1.0000   1.0000   1.0000   1.0000   1.0000   0.0000   0.0000
     0.0000   0.0000

          k =-0.0000-0.3111 0.5940 ( 20337 PWs)   bands (ev):

   -12.4228 -12.4167 -12.2979 -12.2427 -12.2397 -12.2108 -12.1920 -12.1665
   -12.0496 -12.0441  -0.2638   0.8934   5.7074   6.3024  10.7301  11.4438
    12.7752  13.7648

     occupation numbers 
     1.0000   1.0000   1.0000   1.0000   1.0000   1.0000   1.0000   1.0000
     1.0000   1.0000   1.0000   1.0000   1.0000   1.0000   0.0000   0.0000
     0.0000   0.0000

          k =-0.0849-0.4243 0.7071 ( 20338 PWs)   bands (ev):

   -12.4217 -12.4179 -12.2952 -12.2534 -12.2339 -12.2030 -12.1954 -12.1686
   -12.0484 -12.0450  -0.1533   0.7694   5.7813   6.1805  10.8123  11.1406
    12.9318  13.8496

     occupation numbers 
     1.0000   1.0000   1.0000   1.0000   1.0000   1.0000   1.0000   1.0000
     1.0000   1.0000   1.0000   1.0000   1.0000   1.0000   0.0000   0.0000
     0.0000   0.0000

          k =-0.0707-0.4101 0.6930 ( 20328 PWs)   bands (ev):

   -12.4224 -12.4186 -12.2907 -12.2553 -12.2310 -12.2016 -12.1990 -12.1721
   -12.0478 -12.0442  -0.0726   0.6828   5.7685   6.1349  10.8736  11.2681
    12.9198  13.6538

     occupation numbers 
     1.0000   1.0000   1.0000   1.0000   1.0000   1.0000   1.0000   1.0000
     1.0000   1.0000   1.0000   1.0000   1.0000   1.0000   0.0000   0.0000
     0.0000   0.0000

          k =-0.0566-0.3960 0.6788 ( 20322 PWs)   bands (ev):

   -12.4230 -12.4189 -12.2873 -12.2563 -12.2284 -12.2042 -12.1990 -12.1746
   -12.0474 -12.0435  -0.0082   0.6148   5.7549   6.1080  10.8989  11.4096
    12.9236  13.4649

     occupation numbers 
     1.0000   1.0000   1.0000   1.0000   1.0000   1.0000   1.0000   1.0000
     1.0000   1.0000   1.0000   1.0000   1.0000   1.0000   0.0000   0.0000
     0.0000   0.0000

          k =-0.0424-0.3818 0.6647 ( 20316 PWs)   bands (ev):

   -12.4234 -12.4190 -12.2856 -12.2561 -12.2268 -12.2066 -12.1989 -12.1758
   -12.0473 -12.0430   0.0259   0.5792   5.7393   6.1019  10.9060  11.5303
    12.9380  13.3104

     occupation numbers 
     1.0000   1.0000   1.0000   1.0000   1.0000   1.0000   1.0000   1.0000
     1.0000   1.0000   1.0000   1.0000   1.0000   1.0000   0.0000   0.0000
     0.0000   0.0000

          k =-0.0283-0.3677 0.6505 ( 20314 PWs)   bands (ev):

   -12.4237 -12.4189 -12.2857 -12.2546 -12.2272 -12.2068 -12.2000 -12.1756
   -12.0474 -12.0427   0.0178   0.5882   5.7228   6.1161  10.9000  11.6067
    12.9311  13.2431

     occupation numbers 
     1.0000   1.0000   1.0000   1.0000   1.0000   1.0000   1.0000   1.0000
     1.0000   1.0000   1.0000   1.0000   1.0000   1.0000   0.0000   0.0000
     0.0000   0.0000

          k =-0.0141-0.3536 0.6364 ( 20324 PWs)   bands (ev):

   -12.4238 -12.4185 -12.2874 -12.2519 -12.2296 -12.2048 -12.2019 -12.1742
   -12.0477 -12.0427  -0.0291   0.6381   5.7083   6.1480  10.8800  11.6273
    12.8792  13.2993

     occupation numbers 
     1.0000   1.0000   1.0000   1.0000   1.0000   1.0000   1.0000   1.0000
     1.0000   1.0000   1.0000   1.0000   1.0000   1.0000   0.0000   0.0000
     0.0000   0.0000

          k =-0.0000-0.3394 0.6223 ( 20316 PWs)   bands (ev):

   -12.4236 -12.4180 -12.2904 -12.2487 -12.2328 -12.2055 -12.2004 -12.1719
   -12.0482 -12.0429  -0.1002   0.7142   5.6988   6.1943  10.8415  11.5980
    12.8273  13.4306

     occupation numbers 
     1.0000   1.0000   1.0000   1.0000   1.0000   1.0000   1.0000   1.0000
     1.0000   1.0000   1.0000   1.0000   1.0000   1.0000   0.0000   0.0000
     0.0000   0.0000

          k =-0.0566-0.4243 0.7071 ( 20327 PWs)   bands (ev):

   -12.4217 -12.4191 -12.2889 -12.2610 -12.2276 -12.2018 -12.1967 -12.1736
   -12.0472 -12.0448  -0.0060   0.6103   5.8141   6.0811  10.8920  11.1000
    13.0505  13.6909

     occupation numbers 
     1.0000   1.0000   1.0000   1.0000   1.0000   1.0000   1.0000   1.0000
     1.0000   1.0000   1.0000   1.0000   1.0000   1.0000   0.0000   0.0000
     0.0000   0.0000

          k =-0.0424-0.4101 0.6930 ( 20322 PWs)   bands (ev):

   -12.4222 -12.4196 -12.2845 -12.2625 -12.2248 -12.2058 -12.1950 -12.1770
   -12.0467 -12.0442   0.0696   0.5320   5.8076   6.0420  10.9493  11.2338
    13.0326  13.4894

     occupation numbers 
     1.0000   1.0000   1.0000   1.0000   1.0000   1.0000   1.0000   1.0000
     1.0000   1.0000   1.0000   1.0000   1.0000   1.0000   0.0000   0.0000
     0.0000   0.0000

          k =-0.0283-0.3960 0.6788 ( 20319 PWs)   bands (ev):

   -12.4228 -12.4197 -12.2820 -12.2624 -12.2230 -12.2088 -12.1949 -12.1787
   -12.0465 -12.0436   0.1149   0.4860   5.7893   6.0331  10.9604  11.3882
    13.0247  13.3110

     occupation numbers 
     1.0000   1.0000   1.0000   1.0000   1.0000   1.0000   1.0000   1.0000
     1.0000   1.0000   1.0000   1.0000   1.0000   1.0000   0.0000   0.0000
     0.0000   0.0000

          k =-0.0141-0.3818 0.6647 ( 20324 PWs)   bands (ev):

   -12.4233 -12.4196 -12.2821 -12.2601 -12.2233 -12.2092 -12.1966 -12.1784
   -12.0467 -12.0431   0.1063   0.4957   5.7614   6.0528  10.9521  11.5175
    13.0055  13.1988

     occupation numbers 
     1.0000   1.0000   1.0000   1.0000   1.0000   1.0000   1.0000   1.0000
     1.0000   1.0000   1.0000   1.0000   1.0000   1.0000   0.0000   0.0000
     0.0000   0.0000

          k =-0.0000-0.3677 0.6505 ( 20318 PWs)   bands (ev):

   -12.4236 -12.4191 -12.2842 -12.2563 -12.2260 -12.2071 -12.1995 -12.1767
   -12.0471 -12.0428   0.0499   0.5548   5.7323   6.0932  10.9267  11.5993
    12.9407  13.2082

     occupation numbers 
     1.0000   1.0000   1.0000   1.0000   1.0000   1.0000   1.0000   1.0000
     1.0000   1.0000   1.0000   1.0000   1.0000   1.0000   0.0000   0.0000
     0.0000   0.0000

          k =-0.0283-0.4243 0.7071 ( 20323 PWs)   bands (ev):

   -12.4214 -12.4201 -12.2824 -12.2684 -12.2212 -12.2083 -12.1905 -12.1789
   -12.0462 -12.0450   0.1443   0.4528   5.8607   5.9944  10.9573  11.0578
    13.1923  13.5208

     occupation numbers 
     1.0000   1.0000   1.0000   1.0000   1.0000   1.0000   1.0000   1.0000
     1.0000   1.0000   1.0000   1.0000   1.0000   1.0000   0.0000   0.0000
     0.0000   0.0000

          k =-0.0141-0.4101 0.6930 ( 20326 PWs)   bands (ev):

   -12.4219 -12.4204 -12.2787 -12.2689 -12.2189 -12.2117 -12.1899 -12.1817
   -12.0459 -12.0444   0.2054   0.3919   5.8501   5.9726  10.9935  11.2105
    13.1679  13.3260

     occupation numbers 
     1.0000   1.0000   1.0000   1.0000   1.0000   1.0000   1.0000   1.0000
     1.0000   1.0000   1.0000   1.0000   1.0000   1.0000   0.0000   0.0000
     0.0000   0.0000

          k =-0.0000-0.3960 0.6788 ( 20324 PWs)   bands (ev):

   -12.4226 -12.4201 -12.2793 -12.2655 -12.2198 -12.2118 -12.1925 -12.1809
   -12.0462 -12.0437   0.1833   0.4157   5.8075   6.0014  10.9821  11.3802
    13.1175  13.1995

     occupation numbers 
     1.0000   1.0000   1.0000   1.0000   1.0000   1.0000   1.0000   1.0000
     1.0000   1.0000   1.0000   1.0000   1.0000   1.0000   0.0000   0.0000
     0.0000   0.0000

          k =-0.7071 0.2828 0.0000 ( 20338 PWs)   bands (ev):

   -12.4208 -12.4208 -12.2755 -12.2755 -12.2147 -12.2147 -12.1846 -12.1846
   -12.0455 -12.0455   0.2974   0.2974   5.9208   5.9208  11.0114  11.0114
    13.3515  13.3515

     occupation numbers 
     1.0000   1.0000   1.0000   1.0000   1.0000   1.0000   1.0000   1.0000
     1.0000   1.0000   1.0000   1.0000   1.0000   1.0000   0.0000   0.0000
     0.0000   0.0000

          k =-0.0849-0.3960 0.7071 ( 20344 PWs)   bands (ev):

   -12.4228 -12.4181 -12.2921 -12.2505 -12.2338 -12.2046 -12.1978 -12.1709
   -12.0482 -12.0438  -0.1272   0.7429   5.7342   6.1830  10.8664  11.3866
    12.8310  13.6213

     occupation numbers 
     1.0000   1.0000   1.0000   1.0000   1.0000   1.0000   1.0000   1.0000
     1.0000   1.0000   1.0000   1.0000   1.0000   1.0000   0.0000   0.0000
     0.0000   0.0000

          k =-0.0707-0.3818 0.6930 ( 20321 PWs)   bands (ev):

   -12.4232 -12.4187 -12.2883 -12.2529 -12.2307 -12.2034 -12.2008 -12.1737
   -12.0476 -12.0433  -0.0510   0.6612   5.7324   6.1367  10.9216  11.4748
    12.8491  13.4431

     occupation numbers 
     1.0000   1.0000   1.0000   1.0000   1.0000   1.0000   1.0000   1.0000
     1.0000   1.0000   1.0000   1.0000   1.0000   1.0000   0.0000   0.0000
     0.0000   0.0000

          k =-0.0566-0.3677 0.6788 ( 20323 PWs)   bands (ev):

   -12.4235 -12.4190 -12.2858 -12.2546 -12.2282 -12.2059 -12.1998 -12.1756
   -12.0472 -12.0430   0.0052   0.6018   5.7331   6.1069  10.9492  11.5444
    12.8850  13.2975

     occupation numbers 
     1.0000   1.0000   1.0000   1.0000   1.0000   1.0000   1.0000   1.0000
     1.0000   1.0000   1.0000   1.0000   1.0000   1.0000   0.0000   0.0000
     0.0000   0.0000

          k =-0.0424-0.3536 0.6647 ( 20312 PWs)   bands (ev):

   -12.4235 -12.4191 -12.2848 -12.2553 -12.2271 -12.2071 -12.1992 -12.1763
   -12.0471 -12.0429   0.0267   0.5792   5.7337   6.0966  10.9575  11.5708
    12.9091  13.2341

     occupation numbers 
     1.0000   1.0000   1.0000   1.0000   1.0000   1.0000   1.0000   1.0000
     1.0000   1.0000   1.0000   1.0000   1.0000   1.0000   0.0000   0.0000
     0.0000   0.0000

          k =-0.0566-0.3960 0.7071 ( 20329 PWs)   bands (ev):

   -12.4226 -12.4194 -12.2859 -12.2580 -12.2278 -12.2038 -12.1984 -12.1757
   -12.0469 -12.0439   0.0123   0.5934   5.7749   6.0754  10.9875  11.3261
    12.9129  13.4621

     occupation numbers 
     1.0000   1.0000   1.0000   1.0000   1.0000   1.0000   1.0000   1.0000
     1.0000   1.0000   1.0000   1.0000   1.0000   1.0000   0.0000   0.0000
     0.0000   0.0000

          k =-0.0424-0.3818 0.6930 ( 20315 PWs)   bands (ev):

   -12.4228 -12.4199 -12.2822 -12.2601 -12.2250 -12.2074 -12.1964 -12.1785
   -12.0463 -12.0435   0.0822   0.5210   5.7804   6.0352  11.0458  11.4072
    12.9230  13.2917

     occupation numbers 
     1.0000   1.0000   1.0000   1.0000   1.0000   1.0000   1.0000   1.0000
     1.0000   1.0000   1.0000   1.0000   1.0000   1.0000   0.0000   0.0000
     0.0000   0.0000

          k =-0.0283-0.3677 0.6788 ( 20318 PWs)   bands (ev):

   -12.4230 -12.4201 -12.2805 -12.2607 -12.2236 -12.2095 -12.1957 -12.1798
   -12.0462 -12.0433   0.1161   0.4863   5.7778   6.0221  11.0612  11.4795
    12.9388  13.1772

     occupation numbers 
     1.0000   1.0000   1.0000   1.0000   1.0000   1.0000   1.0000   1.0000
     1.0000   1.0000   1.0000   1.0000   1.0000   1.0000   0.0000   0.0000
     0.0000   0.0000

          k =-0.0141-0.3536 0.6647 ( 20315 PWs)   bands (ev):

   -12.4232 -12.4199 -12.2814 -12.2593 -12.2246 -12.2087 -12.1969 -12.1790
   -12.0464 -12.0432   0.0945   0.5088   5.7648   6.0388  11.0463  11.5139
    12.9171  13.1799

     occupation numbers 
     1.0000   1.0000   1.0000   1.0000   1.0000   1.0000   1.0000   1.0000
     1.0000   1.0000   1.0000   1.0000   1.0000   1.0000   0.0000   0.0000
     0.0000   0.0000

          k = 0.0000-0.3394 0.6505 ( 20317 PWs)   bands (ev):

   -12.4233 -12.4194 -12.2843 -12.2564 -12.2273 -12.2057 -12.1994 -12.1768
   -12.0468 -12.0432   0.0311   0.5749   5.7474   6.0795  11.0015  11.5065
    12.8739  13.2867

     occupation numbers 
     1.0000   1.0000   1.0000   1.0000   1.0000   1.0000   1.0000   1.0000
     1.0000   1.0000   1.0000   1.0000   1.0000   1.0000   0.0000   0.0000
     0.0000   0.0000

          k =-0.0283-0.3960 0.7071 ( 20314 PWs)   bands (ev):

   -12.4221 -12.4205 -12.2794 -12.2654 -12.2218 -12.2098 -12.1924 -12.1810
   -12.0457 -12.0442   0.1545   0.4454   5.8297   5.9802  11.0925  11.2590
    13.0210  13.3022

     occupation numbers 
     1.0000   1.0000   1.0000   1.0000   1.0000   1.0000   1.0000   1.0000
     1.0000   1.0000   1.0000   1.0000   1.0000   1.0000   0.0000   0.0000
     0.0000   0.0000

          k =-0.0141-0.3818 0.6930 ( 20319 PWs)   bands (ev):

   -12.4223 -12.4208 -12.2764 -12.2665 -12.2198 -12.2126 -12.1913 -12.1832
   -12.0454 -12.0440   0.2070   0.3927   5.8329   5.9557  11.1347  11.3481
    13.0196  13.1532

     occupation numbers 
     1.0000   1.0000   1.0000   1.0000   1.0000   1.0000   1.0000   1.0000
     1.0000   1.0000   1.0000   1.0000   1.0000   1.0000   0.0000   0.0000
     0.0000   0.0000

          k = 0.0000-0.3677 0.6788 ( 20319 PWs)   bands (ev):

   -12.4228 -12.4205 -12.2778 -12.2638 -12.2212 -12.2117 -12.1934 -12.1820
   -12.0457 -12.0435   0.1741   0.4267   5.8027   5.9838  11.1088  11.4484
    12.9798  13.1128

     occupation numbers 
     1.0000   1.0000   1.0000   1.0000   1.0000   1.0000   1.0000   1.0000
     1.0000   1.0000   1.0000   1.0000   1.0000   1.0000   0.0000   0.0000
     0.0000   0.0000

          k =-0.7071 0.3111 0.0000 ( 20316 PWs)   bands (ev):

   -12.4214 -12.4214 -12.2726 -12.2726 -12.2158 -12.2158 -12.1866 -12.1866
   -12.0448 -12.0448   0.2990   0.2990   5.8982   5.8982  11.1822  11.1822
    13.1525  13.1525

     occupation numbers 
     1.0000   1.0000   1.0000   1.0000   1.0000   1.0000   1.0000   1.0000
     1.0000   1.0000   1.0000   1.0000   1.0000   1.0000   0.0000   0.0000
     0.0000   0.0000

          k =-0.0283-0.3677 0.7071 ( 20317 PWs)   bands (ev):

   -12.4226 -12.4207 -12.2778 -12.2638 -12.2219 -12.2110 -12.1934 -12.1820
   -12.0456 -12.0437   0.1645   0.4367   5.8101   5.9767  11.1498  11.4025
    12.9433  13.1526

     occupation numbers 
     1.0000   1.0000   1.0000   1.0000   1.0000   1.0000   1.0000   1.0000
     1.0000   1.0000   1.0000   1.0000   1.0000   1.0000   0.0000   0.0000
     0.0000   0.0000

          k =-0.0141-0.3536 0.6930 ( 20322 PWs)   bands (ev):

   -12.4225 -12.4210 -12.2756 -12.2657 -12.2201 -12.2129 -12.1918 -12.1837
   -12.0453 -12.0438   0.2075   0.3930   5.8271   5.9500  11.1888  11.3994
    12.9673  13.0860

     occupation numbers 
     1.0000   1.0000   1.0000   1.0000   1.0000   1.0000   1.0000   1.0000
     1.0000   1.0000   1.0000   1.0000   1.0000   1.0000   0.0000   0.0000
     0.0000   0.0000

          k =-0.7071 0.3394 0.0000 ( 20330 PWs)   bands (ev):

   -12.4217 -12.4217 -12.2709 -12.2709 -12.2164 -12.2164 -12.1876 -12.1876
   -12.0445 -12.0445   0.2998   0.2998   5.8867   5.8867  11.2839  11.2839
    13.0366  13.0366

     occupation numbers 
     1.0000   1.0000   1.0000   1.0000   1.0000   1.0000   1.0000   1.0000
     1.0000   1.0000   1.0000   1.0000   1.0000   1.0000   0.0000   0.0000
     0.0000   0.0000

     the Fermi energy is     8.2983 ev

!    total energy              =    -233.44840515 Ry
     Harris-Foulkes estimate   =    -233.44840533 Ry
     estimated scf accuracy    <       0.00000045 Ry

     The total energy is the sum of the following terms:

     one-electron contribution =     -95.31653478 Ry
     hartree contribution      =      58.35642700 Ry
     xc contribution           =     -28.70695577 Ry
     ewald contribution        =    -167.78134157 Ry
     smearing contrib. (-TS)   =      -0.00000003 Ry

     convergence has been achieved in   5 iterations

     Writing output data file Sn.save
--------------------------------------------------------------------------
MPI_ABORT was invoked on rank 0 in communicator MPI_COMM_WORLD 
with errorcode 1.

NOTE: invoking MPI_ABORT causes Open MPI to kill all MPI processes.
You may or may not see output from other processes, depending on
exactly when Open MPI kills them.
--------------------------------------------------------------------------
