
     Program PWSCF v.5.4.0 starts on  2Mar2020 at 12:19:11 

     This program is part of the open-source Quantum ESPRESSO suite
     for quantum simulation of materials; please cite
         "P. Giannozzi et al., J. Phys.:Condens. Matter 21 395502 (2009);
          URL http://www.quantum-espresso.org", 
     in publications or presentations arising from this work. More details at
     http://www.quantum-espresso.org/quote

     Parallel version (MPI & OpenMP), running on      16 processor cores
     Number of MPI processes:                16
     Threads/MPI process:                     1
     R & G space division:  proc/nbgrp/npool/nimage =      16
     Waiting for input...
     Reading input from standard input
Warning: card &IONS ignored
Warning: card / ignored
Warning: card &CELL ignored
Warning: card / ignored

     Current dimensions of program PWSCF are:
     Max number of different atomic species (ntypx) = 10
     Max number of k-points (npk) =  40000
     Max angular momentum in pseudopotentials (lmaxx) =  3

     Subspace diagonalization in iterative solution of the eigenvalue problem:
     a serial algorithm will be used

 
     Parallelization info
     --------------------
     sticks:   dense  smooth     PW     G-vecs:    dense   smooth      PW
     Min         110     110     31                 3041     3041     475
     Max         112     112     32                 3043     3043     478
     Sum        1765    1765    511                48671    48671    7631
 

     Title: 
     Sn                                                                         


     bravais-lattice index     =            0
     lattice parameter (alat)  =       8.9261  a.u.
     unit-cell volume          =     502.8819 (a.u.)^3
     number of atoms/cell      =            2
     number of atomic types    =            1
     number of electrons       =        28.00
     number of Kohn-Sham states=           18
     kinetic-energy cutoff     =      80.0000  Ry
     charge density cutoff     =     320.0000  Ry
     convergence threshold     =      1.0E-06
     mixing beta               =       0.7000
     number of iterations used =            8  plain     mixing
     Exchange-correlation      = PBE ( 1  4  3  4 0 0)

     celldm(1)=   8.926071  celldm(2)=   0.000000  celldm(3)=   0.000000
     celldm(4)=   0.000000  celldm(5)=   0.000000  celldm(6)=   0.000000

     crystal axes: (cart. coord. in units of alat)
               a(1) = (   0.000000   0.707107   0.707107 )  
               a(2) = (   0.707107   0.000000   0.707107 )  
               a(3) = (   0.707107   0.707107   0.000000 )  

     reciprocal axes: (cart. coord. in units 2 pi/alat)
               b(1) = ( -0.707107  0.707107  0.707107 )  
               b(2) = (  0.707107 -0.707107  0.707107 )  
               b(3) = (  0.707107  0.707107 -0.707107 )  


     PseudoPot. # 1 for Sn read from file:
     ../PseudopotentialDatabase/Sn_ONCV_PBE-1.0.upf
     MD5 check sum: 4ecdb67ea6112684f1b2ae1cab9d4ca6
     Pseudo is Norm-conserving, Zval = 14.0
     Generated using ONCVPSP code by D. R. Hamann
     Using radial grid of  602 points,  6 beta functions with: 
                l(1) =   0
                l(2) =   0
                l(3) =   1
                l(4) =   1
                l(5) =   2
                l(6) =   2

     atomic species   valence    mass     pseudopotential
        Sn            14.00   118.71000     Sn( 1.00)

     24 Sym. Ops. (no inversion) found
          (note: 24 additional sym.ops. were found but ignored
           their fractional translations are incommensurate with FFT grid)

                                    s                        frac. trans.

      isym =  1     identity                                     

 cryst.   s( 1) = (     1          0          0      )
                  (     0          1          0      )
                  (     0          0          1      )

 cart.    s( 1) = (  1.0000000  0.0000000  0.0000000 )
                  (  0.0000000  1.0000000  0.0000000 )
                  (  0.0000000  0.0000000  1.0000000 )


      isym =  2     180 deg rotation - cart. axis [0,0,1]        

 cryst.   s( 2) = (     0          1         -1      )
                  (     1          0         -1      )
                  (     0          0         -1      )

 cart.    s( 2) = ( -1.0000000  0.0000000  0.0000000 )
                  (  0.0000000 -1.0000000  0.0000000 )
                  (  0.0000000  0.0000000  1.0000000 )


      isym =  3     180 deg rotation - cart. axis [0,1,0]        

 cryst.   s( 3) = (     0         -1          1      )
                  (     0         -1          0      )
                  (     1         -1          0      )

 cart.    s( 3) = ( -1.0000000  0.0000000  0.0000000 )
                  (  0.0000000  1.0000000  0.0000000 )
                  (  0.0000000  0.0000000 -1.0000000 )


      isym =  4     180 deg rotation - cart. axis [1,0,0]        

 cryst.   s( 4) = (    -1          0          0      )
                  (    -1          0          1      )
                  (    -1          1          0      )

 cart.    s( 4) = (  1.0000000  0.0000000  0.0000000 )
                  (  0.0000000 -1.0000000  0.0000000 )
                  (  0.0000000  0.0000000 -1.0000000 )


      isym =  5     120 deg rotation - cart. axis [-1,-1,-1]     

 cryst.   s( 5) = (     0          0          1      )
                  (     1          0          0      )
                  (     0          1          0      )

 cart.    s( 5) = (  0.0000000  1.0000000  0.0000000 )
                  (  0.0000000  0.0000000  1.0000000 )
                  (  1.0000000  0.0000000  0.0000000 )


      isym =  6     120 deg rotation - cart. axis [-1,1,1]       

 cryst.   s( 6) = (     1         -1          0      )
                  (     0         -1          1      )
                  (     0         -1          0      )

 cart.    s( 6) = (  0.0000000 -1.0000000  0.0000000 )
                  (  0.0000000  0.0000000  1.0000000 )
                  ( -1.0000000  0.0000000  0.0000000 )


      isym =  7     120 deg rotation - cart. axis [1,1,-1]       

 cryst.   s( 7) = (    -1          1          0      )
                  (    -1          0          0      )
                  (    -1          0          1      )

 cart.    s( 7) = (  0.0000000  1.0000000  0.0000000 )
                  (  0.0000000  0.0000000 -1.0000000 )
                  ( -1.0000000  0.0000000  0.0000000 )


      isym =  8     120 deg rotation - cart. axis [1,-1,1]       

 cryst.   s( 8) = (     0          0         -1      )
                  (     0          1         -1      )
                  (     1          0         -1      )

 cart.    s( 8) = (  0.0000000 -1.0000000  0.0000000 )
                  (  0.0000000  0.0000000 -1.0000000 )
                  (  1.0000000  0.0000000  0.0000000 )


      isym =  9     120 deg rotation - cart. axis [1,1,1]        

 cryst.   s( 9) = (     0          1          0      )
                  (     0          0          1      )
                  (     1          0          0      )

 cart.    s( 9) = (  0.0000000  0.0000000  1.0000000 )
                  (  1.0000000  0.0000000  0.0000000 )
                  (  0.0000000  1.0000000  0.0000000 )


      isym = 10     120 deg rotation - cart. axis [-1,1,-1]      

 cryst.   s(10) = (    -1          0          1      )
                  (    -1          1          0      )
                  (    -1          0          0      )

 cart.    s(10) = (  0.0000000  0.0000000  1.0000000 )
                  ( -1.0000000  0.0000000  0.0000000 )
                  (  0.0000000 -1.0000000  0.0000000 )


      isym = 11     120 deg rotation - cart. axis [1,-1,-1]      

 cryst.   s(11) = (     1          0         -1      )
                  (     0          0         -1      )
                  (     0          1         -1      )

 cart.    s(11) = (  0.0000000  0.0000000 -1.0000000 )
                  ( -1.0000000  0.0000000  0.0000000 )
                  (  0.0000000  1.0000000  0.0000000 )


      isym = 12     120 deg rotation - cart. axis [-1,-1,1]      

 cryst.   s(12) = (     0         -1          0      )
                  (     1         -1          0      )
                  (     0         -1          1      )

 cart.    s(12) = (  0.0000000  0.0000000 -1.0000000 )
                  (  1.0000000  0.0000000  0.0000000 )
                  (  0.0000000 -1.0000000  0.0000000 )


      isym = 13     inv. 180 deg rotation - cart. axis [1,1,0]   

 cryst.   s(13) = (     1          0         -1      )
                  (     0          1         -1      )
                  (     0          0         -1      )

 cart.    s(13) = (  0.0000000 -1.0000000  0.0000000 )
                  ( -1.0000000  0.0000000  0.0000000 )
                  (  0.0000000  0.0000000  1.0000000 )


      isym = 14     inv. 180 deg rotation - cart. axis [1,-1,0]  

 cryst.   s(14) = (     0          1          0      )
                  (     1          0          0      )
                  (     0          0          1      )

 cart.    s(14) = (  0.0000000  1.0000000  0.0000000 )
                  (  1.0000000  0.0000000  0.0000000 )
                  (  0.0000000  0.0000000  1.0000000 )


      isym = 15     inv.  90 deg rotation - cart. axis [0,0,-1]  

 cryst.   s(15) = (     0         -1          0      )
                  (     0         -1          1      )
                  (     1         -1          0      )

 cart.    s(15) = (  0.0000000 -1.0000000  0.0000000 )
                  (  1.0000000  0.0000000  0.0000000 )
                  (  0.0000000  0.0000000 -1.0000000 )


      isym = 16     inv.  90 deg rotation - cart. axis [0,0,1]   

 cryst.   s(16) = (    -1          0          1      )
                  (    -1          0          0      )
                  (    -1          1          0      )

 cart.    s(16) = (  0.0000000  1.0000000  0.0000000 )
                  ( -1.0000000  0.0000000  0.0000000 )
                  (  0.0000000  0.0000000 -1.0000000 )


      isym = 17     inv. 180 deg rotation - cart. axis [1,0,1]   

 cryst.   s(17) = (     1         -1          0      )
                  (     0         -1          0      )
                  (     0         -1          1      )

 cart.    s(17) = (  0.0000000  0.0000000 -1.0000000 )
                  (  0.0000000  1.0000000  0.0000000 )
                  ( -1.0000000  0.0000000  0.0000000 )


      isym = 18     inv. 180 deg rotation - cart. axis [-1,0,1]  

 cryst.   s(18) = (     0          0          1      )
                  (     0          1          0      )
                  (     1          0          0      )

 cart.    s(18) = (  0.0000000  0.0000000  1.0000000 )
                  (  0.0000000  1.0000000  0.0000000 )
                  (  1.0000000  0.0000000  0.0000000 )


      isym = 19     inv.  90 deg rotation - cart. axis [0,1,0]   

 cryst.   s(19) = (     0          0         -1      )
                  (     1          0         -1      )
                  (     0          1         -1      )

 cart.    s(19) = (  0.0000000  0.0000000 -1.0000000 )
                  (  0.0000000 -1.0000000  0.0000000 )
                  (  1.0000000  0.0000000  0.0000000 )


      isym = 20     inv.  90 deg rotation - cart. axis [0,-1,0]  

 cryst.   s(20) = (    -1          1          0      )
                  (    -1          0          1      )
                  (    -1          0          0      )

 cart.    s(20) = (  0.0000000  0.0000000  1.0000000 )
                  (  0.0000000 -1.0000000  0.0000000 )
                  ( -1.0000000  0.0000000  0.0000000 )


      isym = 21     inv. 180 deg rotation - cart. axis [0,1,1]   

 cryst.   s(21) = (    -1          0          0      )
                  (    -1          1          0      )
                  (    -1          0          1      )

 cart.    s(21) = (  1.0000000  0.0000000  0.0000000 )
                  (  0.0000000  0.0000000 -1.0000000 )
                  (  0.0000000 -1.0000000  0.0000000 )


      isym = 22     inv. 180 deg rotation - cart. axis [0,1,-1]  

 cryst.   s(22) = (     1          0          0      )
                  (     0          0          1      )
                  (     0          1          0      )

 cart.    s(22) = (  1.0000000  0.0000000  0.0000000 )
                  (  0.0000000  0.0000000  1.0000000 )
                  (  0.0000000  1.0000000  0.0000000 )


      isym = 23     inv.  90 deg rotation - cart. axis [-1,0,0]  

 cryst.   s(23) = (     0          1         -1      )
                  (     0          0         -1      )
                  (     1          0         -1      )

 cart.    s(23) = ( -1.0000000  0.0000000  0.0000000 )
                  (  0.0000000  0.0000000 -1.0000000 )
                  (  0.0000000  1.0000000  0.0000000 )


      isym = 24     inv.  90 deg rotation - cart. axis [1,0,0]   

 cryst.   s(24) = (     0         -1          1      )
                  (     1         -1          0      )
                  (     0         -1          0      )

 cart.    s(24) = ( -1.0000000  0.0000000  0.0000000 )
                  (  0.0000000  0.0000000  1.0000000 )
                  (  0.0000000 -1.0000000  0.0000000 )


   Cartesian axes

     site n.     atom                  positions (alat units)
         1           Sn  tau(   1) = (   0.0000000   0.0000000   0.0000000  )
         2           Sn  tau(   2) = (   0.3535534   0.3535534   0.3535534  )

   Crystallographic axes

     site n.     atom                  positions (cryst. coord.)
         1           Sn  tau(   1) = (  0.0000000  0.0000000  0.0000000  )
         2           Sn  tau(   2) = (  0.2500000  0.2500000  0.2500000  )

     number of k points=   120  gaussian smearing, width (Ry)=  0.0001
                       cart. coord. in units 2pi/alat
        k(    1) = (   0.0000000   0.0000000   0.0000000), wk =   0.0005926
        k(    2) = (   0.0471405   0.0471405  -0.0471405), wk =   0.0047407
        k(    3) = (   0.0942809   0.0942809  -0.0942809), wk =   0.0047407
        k(    4) = (   0.1414214   0.1414214  -0.1414214), wk =   0.0047407
        k(    5) = (   0.1885618   0.1885618  -0.1885618), wk =   0.0047407
        k(    6) = (   0.2357023   0.2357023  -0.2357023), wk =   0.0047407
        k(    7) = (   0.2828427   0.2828427  -0.2828427), wk =   0.0047407
        k(    8) = (   0.3299832   0.3299832  -0.3299832), wk =   0.0047407
        k(    9) = (   0.0942809   0.0000000   0.0000000), wk =   0.0035556
        k(   10) = (   0.1414214   0.0471405  -0.0471405), wk =   0.0142222
        k(   11) = (   0.1885618   0.0942809  -0.0942809), wk =   0.0142222
        k(   12) = (   0.2357023   0.1414214  -0.1414214), wk =   0.0142222
        k(   13) = (   0.2828427   0.1885618  -0.1885618), wk =   0.0142222
        k(   14) = (   0.3299832   0.2357023  -0.2357023), wk =   0.0142222
        k(   15) = (   0.3771236   0.2828427  -0.2828427), wk =   0.0142222
        k(   16) = (  -0.2828427  -0.3771236   0.3771236), wk =   0.0142222
        k(   17) = (  -0.2357023  -0.3299832   0.3299832), wk =   0.0142222
        k(   18) = (  -0.1885618  -0.2828427   0.2828427), wk =   0.0142222
        k(   19) = (  -0.1414214  -0.2357023   0.2357023), wk =   0.0142222
        k(   20) = (  -0.0942809  -0.1885618   0.1885618), wk =   0.0142222
        k(   21) = (  -0.0471405  -0.1414214   0.1414214), wk =   0.0142222
        k(   22) = (   0.0000000  -0.0942809   0.0942809), wk =   0.0071111
        k(   23) = (   0.1885618   0.0000000   0.0000000), wk =   0.0035556
        k(   24) = (   0.2357023   0.0471405  -0.0471405), wk =   0.0142222
        k(   25) = (   0.2828427   0.0942809  -0.0942809), wk =   0.0142222
        k(   26) = (   0.3299832   0.1414214  -0.1414214), wk =   0.0142222
        k(   27) = (   0.3771236   0.1885618  -0.1885618), wk =   0.0142222
        k(   28) = (   0.4242641   0.2357023  -0.2357023), wk =   0.0142222
        k(   29) = (  -0.2357023  -0.4242641   0.4242641), wk =   0.0142222
        k(   30) = (  -0.1885618  -0.3771236   0.3771236), wk =   0.0142222
        k(   31) = (  -0.1414214  -0.3299832   0.3299832), wk =   0.0142222
        k(   32) = (  -0.0942809  -0.2828427   0.2828427), wk =   0.0142222
        k(   33) = (  -0.0471405  -0.2357023   0.2357023), wk =   0.0142222
        k(   34) = (   0.0000000  -0.1885618   0.1885618), wk =   0.0071111
        k(   35) = (   0.2828427   0.0000000   0.0000000), wk =   0.0035556
        k(   36) = (   0.3299832   0.0471405  -0.0471405), wk =   0.0142222
        k(   37) = (   0.3771236   0.0942809  -0.0942809), wk =   0.0142222
        k(   38) = (   0.4242641   0.1414214  -0.1414214), wk =   0.0142222
        k(   39) = (   0.4714045   0.1885618  -0.1885618), wk =   0.0142222
        k(   40) = (  -0.1885618  -0.4714045   0.4714045), wk =   0.0142222
        k(   41) = (  -0.1414214  -0.4242641   0.4242641), wk =   0.0142222
        k(   42) = (  -0.0942809  -0.3771236   0.3771236), wk =   0.0142222
        k(   43) = (  -0.0471405  -0.3299832   0.3299832), wk =   0.0142222
        k(   44) = (   0.0000000  -0.2828427   0.2828427), wk =   0.0071111
        k(   45) = (   0.3771236   0.0000000   0.0000000), wk =   0.0035556
        k(   46) = (   0.4242641   0.0471405  -0.0471405), wk =   0.0142222
        k(   47) = (   0.4714045   0.0942809  -0.0942809), wk =   0.0142222
        k(   48) = (   0.5185450   0.1414214  -0.1414214), wk =   0.0142222
        k(   49) = (  -0.1414214  -0.5185450   0.5185450), wk =   0.0142222
        k(   50) = (  -0.0942809  -0.4714045   0.4714045), wk =   0.0142222
        k(   51) = (  -0.0471405  -0.4242641   0.4242641), wk =   0.0142222
        k(   52) = (  -0.0000000  -0.3771236   0.3771236), wk =   0.0071111
        k(   53) = (   0.4714045   0.0000000   0.0000000), wk =   0.0035556
        k(   54) = (   0.5185450   0.0471405  -0.0471405), wk =   0.0142222
        k(   55) = (   0.5656854   0.0942809  -0.0942809), wk =   0.0142222
        k(   56) = (  -0.0942809  -0.5656854   0.5656854), wk =   0.0142222
        k(   57) = (  -0.0471405  -0.5185450   0.5185450), wk =   0.0142222
        k(   58) = (  -0.0000000  -0.4714045   0.4714045), wk =   0.0071111
        k(   59) = (   0.5656854   0.0000000   0.0000000), wk =   0.0035556
        k(   60) = (   0.6128259   0.0471405  -0.0471405), wk =   0.0142222
        k(   61) = (  -0.0471405  -0.6128259   0.6128259), wk =   0.0142222
        k(   62) = (   0.0000000  -0.5656854   0.5656854), wk =   0.0071111
        k(   63) = (   0.6599663   0.0000000   0.0000000), wk =   0.0035556
        k(   64) = (   0.0000000  -0.6599663   0.6599663), wk =   0.0071111
        k(   65) = (   0.1885618   0.0942809  -0.0000000), wk =   0.0142222
        k(   66) = (   0.2357023   0.1414214  -0.0471405), wk =   0.0284444
        k(   67) = (   0.2828427   0.1885618  -0.0942809), wk =   0.0284444
        k(   68) = (   0.3299832   0.2357023  -0.1414214), wk =   0.0284444
        k(   69) = (   0.3771236   0.2828427  -0.1885618), wk =   0.0284444
        k(   70) = (  -0.2828427  -0.3771236   0.4714045), wk =   0.0284444
        k(   71) = (   0.2828427   0.0942809   0.0000000), wk =   0.0142222
        k(   72) = (   0.3299832   0.1414214  -0.0471405), wk =   0.0284444
        k(   73) = (   0.3771236   0.1885618  -0.0942809), wk =   0.0284444
        k(   74) = (   0.4242641   0.2357023  -0.1414214), wk =   0.0284444
        k(   75) = (  -0.2357023  -0.4242641   0.5185450), wk =   0.0284444
        k(   76) = (  -0.1885618  -0.3771236   0.4714045), wk =   0.0284444
        k(   77) = (  -0.1414214  -0.3299832   0.4242641), wk =   0.0284444
        k(   78) = (  -0.0942809  -0.2828427   0.3771236), wk =   0.0284444
        k(   79) = (  -0.0471405  -0.2357023   0.3299832), wk =   0.0284444
        k(   80) = (   0.0000000  -0.1885618   0.2828427), wk =   0.0142222
        k(   81) = (   0.3771236   0.0942809   0.0000000), wk =   0.0142222
        k(   82) = (   0.4242641   0.1414214  -0.0471405), wk =   0.0284444
        k(   83) = (   0.4714045   0.1885618  -0.0942809), wk =   0.0284444
        k(   84) = (  -0.1885618  -0.4714045   0.5656854), wk =   0.0284444
        k(   85) = (  -0.1414214  -0.4242641   0.5185450), wk =   0.0284444
        k(   86) = (  -0.0942809  -0.3771236   0.4714045), wk =   0.0284444
        k(   87) = (  -0.0471405  -0.3299832   0.4242641), wk =   0.0284444
        k(   88) = (   0.0000000  -0.2828427   0.3771236), wk =   0.0142222
        k(   89) = (   0.4714045   0.0942809  -0.0000000), wk =   0.0142222
        k(   90) = (   0.5185450   0.1414214  -0.0471405), wk =   0.0284444
        k(   91) = (  -0.1414214  -0.5185450   0.6128259), wk =   0.0284444
        k(   92) = (  -0.0942809  -0.4714045   0.5656854), wk =   0.0284444
        k(   93) = (  -0.0471405  -0.4242641   0.5185450), wk =   0.0284444
        k(   94) = (  -0.0000000  -0.3771236   0.4714045), wk =   0.0142222
        k(   95) = (   0.5656854   0.0942809   0.0000000), wk =   0.0142222
        k(   96) = (  -0.0942809  -0.5656854   0.6599663), wk =   0.0284444
        k(   97) = (  -0.0471405  -0.5185450   0.6128259), wk =   0.0284444
        k(   98) = (   0.0000000  -0.4714045   0.5656854), wk =   0.0142222
        k(   99) = (  -0.0471405  -0.6128259   0.7071068), wk =   0.0142222
        k(  100) = (   0.0000000  -0.5656854   0.6599663), wk =   0.0142222
        k(  101) = (   0.3771236   0.1885618  -0.0000000), wk =   0.0142222
        k(  102) = (   0.4242641   0.2357023  -0.0471405), wk =   0.0284444
        k(  103) = (  -0.2357023  -0.4242641   0.6128259), wk =   0.0284444
        k(  104) = (  -0.1885618  -0.3771236   0.5656854), wk =   0.0284444
        k(  105) = (   0.4714045   0.1885618  -0.0000000), wk =   0.0142222
        k(  106) = (  -0.1885618  -0.4714045   0.6599663), wk =   0.0284444
        k(  107) = (  -0.1414214  -0.4242641   0.6128259), wk =   0.0284444
        k(  108) = (  -0.0942809  -0.3771236   0.5656854), wk =   0.0284444
        k(  109) = (  -0.0471405  -0.3299832   0.5185450), wk =   0.0284444
        k(  110) = (   0.0000000  -0.2828427   0.4714045), wk =   0.0142222
        k(  111) = (  -0.1414214  -0.5185450   0.7071068), wk =   0.0142222
        k(  112) = (  -0.0942809  -0.4714045   0.6599663), wk =   0.0284444
        k(  113) = (  -0.0471405  -0.4242641   0.6128259), wk =   0.0284444
        k(  114) = (   0.0000000  -0.3771236   0.5656854), wk =   0.0142222
        k(  115) = (  -0.0471405  -0.5185450   0.7071068), wk =   0.0142222
        k(  116) = (   0.0000000  -0.4714045   0.6599663), wk =   0.0142222
        k(  117) = (  -0.1414214  -0.4242641   0.7071068), wk =   0.0142222
        k(  118) = (  -0.0942809  -0.3771236   0.6599663), wk =   0.0284444
        k(  119) = (  -0.0471405  -0.4242641   0.7071068), wk =   0.0142222
        k(  120) = (  -0.0000000  -0.3771236   0.6599663), wk =   0.0142222

                       cryst. coord.
        k(    1) = (   0.0000000   0.0000000   0.0000000), wk =   0.0005926
        k(    2) = (   0.0000000   0.0000000   0.0666667), wk =   0.0047407
        k(    3) = (   0.0000000   0.0000000   0.1333333), wk =   0.0047407
        k(    4) = (   0.0000000   0.0000000   0.2000000), wk =   0.0047407
        k(    5) = (   0.0000000   0.0000000   0.2666667), wk =   0.0047407
        k(    6) = (   0.0000000   0.0000000   0.3333333), wk =   0.0047407
        k(    7) = (   0.0000000   0.0000000   0.4000000), wk =   0.0047407
        k(    8) = (   0.0000000   0.0000000   0.4666667), wk =   0.0047407
        k(    9) = (   0.0000000   0.0666667   0.0666667), wk =   0.0035556
        k(   10) = (   0.0000000   0.0666667   0.1333333), wk =   0.0142222
        k(   11) = (   0.0000000   0.0666667   0.2000000), wk =   0.0142222
        k(   12) = (   0.0000000   0.0666667   0.2666667), wk =   0.0142222
        k(   13) = (   0.0000000   0.0666667   0.3333333), wk =   0.0142222
        k(   14) = (   0.0000000   0.0666667   0.4000000), wk =   0.0142222
        k(   15) = (   0.0000000   0.0666667   0.4666667), wk =   0.0142222
        k(   16) = (   0.0000000   0.0666667  -0.4666667), wk =   0.0142222
        k(   17) = (   0.0000000   0.0666667  -0.4000000), wk =   0.0142222
        k(   18) = (   0.0000000   0.0666667  -0.3333333), wk =   0.0142222
        k(   19) = (   0.0000000   0.0666667  -0.2666667), wk =   0.0142222
        k(   20) = (   0.0000000   0.0666667  -0.2000000), wk =   0.0142222
        k(   21) = (   0.0000000   0.0666667  -0.1333333), wk =   0.0142222
        k(   22) = (   0.0000000   0.0666667  -0.0666667), wk =   0.0071111
        k(   23) = (   0.0000000   0.1333333   0.1333333), wk =   0.0035556
        k(   24) = (   0.0000000   0.1333333   0.2000000), wk =   0.0142222
        k(   25) = (   0.0000000   0.1333333   0.2666667), wk =   0.0142222
        k(   26) = (   0.0000000   0.1333333   0.3333333), wk =   0.0142222
        k(   27) = (   0.0000000   0.1333333   0.4000000), wk =   0.0142222
        k(   28) = (   0.0000000   0.1333333   0.4666667), wk =   0.0142222
        k(   29) = (   0.0000000   0.1333333  -0.4666667), wk =   0.0142222
        k(   30) = (   0.0000000   0.1333333  -0.4000000), wk =   0.0142222
        k(   31) = (   0.0000000   0.1333333  -0.3333333), wk =   0.0142222
        k(   32) = (   0.0000000   0.1333333  -0.2666667), wk =   0.0142222
        k(   33) = (   0.0000000   0.1333333  -0.2000000), wk =   0.0142222
        k(   34) = (   0.0000000   0.1333333  -0.1333333), wk =   0.0071111
        k(   35) = (   0.0000000   0.2000000   0.2000000), wk =   0.0035556
        k(   36) = (   0.0000000   0.2000000   0.2666667), wk =   0.0142222
        k(   37) = (   0.0000000   0.2000000   0.3333333), wk =   0.0142222
        k(   38) = (   0.0000000   0.2000000   0.4000000), wk =   0.0142222
        k(   39) = (   0.0000000   0.2000000   0.4666667), wk =   0.0142222
        k(   40) = (   0.0000000   0.2000000  -0.4666667), wk =   0.0142222
        k(   41) = (   0.0000000   0.2000000  -0.4000000), wk =   0.0142222
        k(   42) = (   0.0000000   0.2000000  -0.3333333), wk =   0.0142222
        k(   43) = (   0.0000000   0.2000000  -0.2666667), wk =   0.0142222
        k(   44) = (   0.0000000   0.2000000  -0.2000000), wk =   0.0071111
        k(   45) = (   0.0000000   0.2666667   0.2666667), wk =   0.0035556
        k(   46) = (   0.0000000   0.2666667   0.3333333), wk =   0.0142222
        k(   47) = (   0.0000000   0.2666667   0.4000000), wk =   0.0142222
        k(   48) = (   0.0000000   0.2666667   0.4666667), wk =   0.0142222
        k(   49) = (   0.0000000   0.2666667  -0.4666667), wk =   0.0142222
        k(   50) = (   0.0000000   0.2666667  -0.4000000), wk =   0.0142222
        k(   51) = (   0.0000000   0.2666667  -0.3333333), wk =   0.0142222
        k(   52) = (   0.0000000   0.2666667  -0.2666667), wk =   0.0071111
        k(   53) = (   0.0000000   0.3333333   0.3333333), wk =   0.0035556
        k(   54) = (   0.0000000   0.3333333   0.4000000), wk =   0.0142222
        k(   55) = (   0.0000000   0.3333333   0.4666667), wk =   0.0142222
        k(   56) = (   0.0000000   0.3333333  -0.4666667), wk =   0.0142222
        k(   57) = (   0.0000000   0.3333333  -0.4000000), wk =   0.0142222
        k(   58) = (   0.0000000   0.3333333  -0.3333333), wk =   0.0071111
        k(   59) = (   0.0000000   0.4000000   0.4000000), wk =   0.0035556
        k(   60) = (   0.0000000   0.4000000   0.4666667), wk =   0.0142222
        k(   61) = (   0.0000000   0.4000000  -0.4666667), wk =   0.0142222
        k(   62) = (   0.0000000   0.4000000  -0.4000000), wk =   0.0071111
        k(   63) = (   0.0000000   0.4666667   0.4666667), wk =   0.0035556
        k(   64) = (   0.0000000   0.4666667  -0.4666667), wk =   0.0071111
        k(   65) = (   0.0666667   0.1333333   0.2000000), wk =   0.0142222
        k(   66) = (   0.0666667   0.1333333   0.2666667), wk =   0.0284444
        k(   67) = (   0.0666667   0.1333333   0.3333333), wk =   0.0284444
        k(   68) = (   0.0666667   0.1333333   0.4000000), wk =   0.0284444
        k(   69) = (   0.0666667   0.1333333   0.4666667), wk =   0.0284444
        k(   70) = (   0.0666667   0.1333333  -0.4666667), wk =   0.0284444
        k(   71) = (   0.0666667   0.2000000   0.2666667), wk =   0.0142222
        k(   72) = (   0.0666667   0.2000000   0.3333333), wk =   0.0284444
        k(   73) = (   0.0666667   0.2000000   0.4000000), wk =   0.0284444
        k(   74) = (   0.0666667   0.2000000   0.4666667), wk =   0.0284444
        k(   75) = (   0.0666667   0.2000000  -0.4666667), wk =   0.0284444
        k(   76) = (   0.0666667   0.2000000  -0.4000000), wk =   0.0284444
        k(   77) = (   0.0666667   0.2000000  -0.3333333), wk =   0.0284444
        k(   78) = (   0.0666667   0.2000000  -0.2666667), wk =   0.0284444
        k(   79) = (   0.0666667   0.2000000  -0.2000000), wk =   0.0284444
        k(   80) = (   0.0666667   0.2000000  -0.1333333), wk =   0.0142222
        k(   81) = (   0.0666667   0.2666667   0.3333333), wk =   0.0142222
        k(   82) = (   0.0666667   0.2666667   0.4000000), wk =   0.0284444
        k(   83) = (   0.0666667   0.2666667   0.4666667), wk =   0.0284444
        k(   84) = (   0.0666667   0.2666667  -0.4666667), wk =   0.0284444
        k(   85) = (   0.0666667   0.2666667  -0.4000000), wk =   0.0284444
        k(   86) = (   0.0666667   0.2666667  -0.3333333), wk =   0.0284444
        k(   87) = (   0.0666667   0.2666667  -0.2666667), wk =   0.0284444
        k(   88) = (   0.0666667   0.2666667  -0.2000000), wk =   0.0142222
        k(   89) = (   0.0666667   0.3333333   0.4000000), wk =   0.0142222
        k(   90) = (   0.0666667   0.3333333   0.4666667), wk =   0.0284444
        k(   91) = (   0.0666667   0.3333333  -0.4666667), wk =   0.0284444
        k(   92) = (   0.0666667   0.3333333  -0.4000000), wk =   0.0284444
        k(   93) = (   0.0666667   0.3333333  -0.3333333), wk =   0.0284444
        k(   94) = (   0.0666667   0.3333333  -0.2666667), wk =   0.0142222
        k(   95) = (   0.0666667   0.4000000   0.4666667), wk =   0.0142222
        k(   96) = (   0.0666667   0.4000000  -0.4666667), wk =   0.0284444
        k(   97) = (   0.0666667   0.4000000  -0.4000000), wk =   0.0284444
        k(   98) = (   0.0666667   0.4000000  -0.3333333), wk =   0.0142222
        k(   99) = (   0.0666667   0.4666667  -0.4666667), wk =   0.0142222
        k(  100) = (   0.0666667   0.4666667  -0.4000000), wk =   0.0142222
        k(  101) = (   0.1333333   0.2666667   0.4000000), wk =   0.0142222
        k(  102) = (   0.1333333   0.2666667   0.4666667), wk =   0.0284444
        k(  103) = (   0.1333333   0.2666667  -0.4666667), wk =   0.0284444
        k(  104) = (   0.1333333   0.2666667  -0.4000000), wk =   0.0284444
        k(  105) = (   0.1333333   0.3333333   0.4666667), wk =   0.0142222
        k(  106) = (   0.1333333   0.3333333  -0.4666667), wk =   0.0284444
        k(  107) = (   0.1333333   0.3333333  -0.4000000), wk =   0.0284444
        k(  108) = (   0.1333333   0.3333333  -0.3333333), wk =   0.0284444
        k(  109) = (   0.1333333   0.3333333  -0.2666667), wk =   0.0284444
        k(  110) = (   0.1333333   0.3333333  -0.2000000), wk =   0.0142222
        k(  111) = (   0.1333333   0.4000000  -0.4666667), wk =   0.0142222
        k(  112) = (   0.1333333   0.4000000  -0.4000000), wk =   0.0284444
        k(  113) = (   0.1333333   0.4000000  -0.3333333), wk =   0.0284444
        k(  114) = (   0.1333333   0.4000000  -0.2666667), wk =   0.0142222
        k(  115) = (   0.1333333   0.4666667  -0.4000000), wk =   0.0142222
        k(  116) = (   0.1333333   0.4666667  -0.3333333), wk =   0.0142222
        k(  117) = (   0.2000000   0.4000000  -0.4000000), wk =   0.0142222
        k(  118) = (   0.2000000   0.4000000  -0.3333333), wk =   0.0284444
        k(  119) = (   0.2000000   0.4666667  -0.3333333), wk =   0.0142222
        k(  120) = (   0.2000000   0.4666667  -0.2666667), wk =   0.0142222

     Dense  grid:    48671 G-vectors     FFT dimensions: (  54,  54,  54)

     Largest allocated arrays     est. size (Mb)     dimensions
        Kohn-Sham Wavefunctions         0.11 Mb     (     384,   18)
        NL pseudopotentials             0.21 Mb     (     384,   36)
        Each V/rho on FFT grid          0.18 Mb     (   11664)
        Each G-vector array             0.02 Mb     (    3043)
        G-vector shells                 0.00 Mb     (     408)
     Largest temporary arrays     est. size (Mb)     dimensions
        Auxiliary wavefunctions         0.42 Mb     (     384,   72)
        Each subspace H/S matrix        0.08 Mb     (      72,   72)
        Each <psi_i|beta_j> matrix      0.01 Mb     (      36,   18)
        Arrays for rho mixing           1.42 Mb     (   11664,    8)

     Initial potential from superposition of free atoms

     starting charge   27.82674, renormalised to   28.00000
     Starting wfc are random

     total cpu time spent up to now is        1.8 secs

     Self-consistent Calculation

     iteration #  1     ecut=    80.00 Ry     beta=0.70
     Davidson diagonalization with overlap
     ethr =  1.00E-02,  avg # of iterations =  7.7

     Threshold (ethr) on eigenvalues was too large:
     Diagonalizing with lowered threshold

     Davidson diagonalization with overlap
     ethr =  1.15E-04,  avg # of iterations =  6.1

     total cpu time spent up to now is       16.1 secs

     total energy              =    -256.21700631 Ry
     Harris-Foulkes estimate   =    -256.22980900 Ry
     estimated scf accuracy    <       0.03176678 Ry

     iteration #  2     ecut=    80.00 Ry     beta=0.70
     Davidson diagonalization with overlap
     ethr =  1.13E-04,  avg # of iterations =  2.2

     total cpu time spent up to now is       19.7 secs

     total energy              =    -256.22146715 Ry
     Harris-Foulkes estimate   =    -256.22170594 Ry
     estimated scf accuracy    <       0.00182423 Ry

     iteration #  3     ecut=    80.00 Ry     beta=0.70
     Davidson diagonalization with overlap
     ethr =  6.52E-06,  avg # of iterations =  2.7

     total cpu time spent up to now is       23.0 secs

     total energy              =    -256.22164231 Ry
     Harris-Foulkes estimate   =    -256.22162424 Ry
     estimated scf accuracy    <       0.00010574 Ry

     iteration #  4     ecut=    80.00 Ry     beta=0.70
     Davidson diagonalization with overlap
     ethr =  3.78E-07,  avg # of iterations =  2.8

     total cpu time spent up to now is       26.2 secs

     End of self-consistent calculation

          k = 0.0000 0.0000 0.0000 (  5985 PWs)   bands (ev):

   -14.1546 -14.1546 -14.1546 -14.1064 -14.1064 -13.8624 -13.8624 -13.8624
   -13.8619 -13.8619  -2.6349   6.1909   7.5060   7.5060   7.5060   9.3113
     9.3134   9.5697

     occupation numbers 
     1.0000   1.0000   1.0000   1.0000   1.0000   1.0000   1.0000   1.0000
     1.0000   1.0000   1.0000   1.0000   0.0000   0.0000   0.0000   0.0000
     0.0000   0.0000

          k = 0.0471 0.0471-0.0471 (  6063 PWs)   bands (ev):

   -14.1575 -14.1575 -14.1537 -14.1026 -14.1026 -13.8733 -13.8733 -13.8634
   -13.8516 -13.8516  -2.5955   5.7621   7.4250   7.4250   7.6955   9.3112
     9.3134   9.6759

     occupation numbers 
     1.0000   1.0000   1.0000   1.0000   1.0000   1.0000   1.0000   1.0000
     1.0000   1.0000   1.0000   1.0000   0.0003   0.0003   0.0000   0.0000
     0.0000   0.0000

          k = 0.0943 0.0943-0.0943 (  6087 PWs)   bands (ev):

   -14.1637 -14.1637 -14.1511 -14.0936 -14.0936 -13.8844 -13.8844 -13.8666
   -13.8423 -13.8423  -2.4785   4.9481   7.2310   7.2310   7.8075   9.3112
     9.3134   9.9324

     occupation numbers 
     1.0000   1.0000   1.0000   1.0000   1.0000   1.0000   1.0000   1.0000
     1.0000   1.0000   1.0000   1.0000   1.0000   1.0000   0.0000   0.0000
     0.0000   0.0000

          k = 0.1414 0.1414-0.1414 (  6069 PWs)   bands (ev):

   -14.1703 -14.1703 -14.1472 -14.0832 -14.0832 -13.8945 -13.8945 -13.8712
   -13.8345 -13.8345  -2.2878   4.0708   7.0030   7.0030   7.7190   9.3112
     9.3134  10.2217

     occupation numbers 
     1.0000   1.0000   1.0000   1.0000   1.0000   1.0000   1.0000   1.0000
     1.0000   1.0000   1.0000   1.0000   1.0000   1.0000   0.0000   0.0000
     0.0000   0.0000

          k = 0.1886 0.1886-0.1886 (  6090 PWs)   bands (ev):

   -14.1758 -14.1758 -14.1425 -14.0736 -14.0736 -13.9029 -13.9029 -13.8767
   -13.8285 -13.8285  -2.0322   3.2240   6.7905   6.7905   7.5653   9.3112
     9.3133  10.4466

     occupation numbers 
     1.0000   1.0000   1.0000   1.0000   1.0000   1.0000   1.0000   1.0000
     1.0000   1.0000   1.0000   1.0000   1.0000   1.0000   0.0000   0.0000
     0.0000   0.0000

          k = 0.2357 0.2357-0.2357 (  6084 PWs)   bands (ev):

   -14.1797 -14.1797 -14.1380 -14.0663 -14.0663 -13.9090 -13.9090 -13.8821
   -13.8243 -13.8243  -1.7307   2.4610   6.6185   6.6185   7.4214   9.3112
     9.3133  10.5666

     occupation numbers 
     1.0000   1.0000   1.0000   1.0000   1.0000   1.0000   1.0000   1.0000
     1.0000   1.0000   1.0000   1.0000   1.0000   1.0000   0.6122   0.0000
     0.0000   0.0000

          k = 0.2828 0.2828-0.2828 (  6113 PWs)   bands (ev):

   -14.1821 -14.1821 -14.1343 -14.0615 -14.0615 -13.9127 -13.9127 -13.8863
   -13.8217 -13.8217  -1.4267   1.8419   6.4990   6.4990   7.3168   9.3113
     9.3133  10.6060

     occupation numbers 
     1.0000   1.0000   1.0000   1.0000   1.0000   1.0000   1.0000   1.0000
     1.0000   1.0000   1.0000   1.0000   1.0000   1.0000   1.0000   0.0000
     0.0000   0.0000

          k = 0.3300 0.3300-0.3300 (  6098 PWs)   bands (ev):

   -14.1832 -14.1832 -14.1323 -14.0593 -14.0593 -13.9144 -13.9144 -13.8887
   -13.8204 -13.8204  -1.2131   1.4688   6.4381   6.4381   7.2625   9.3113
     9.3133  10.6112

     occupation numbers 
     1.0000   1.0000   1.0000   1.0000   1.0000   1.0000   1.0000   1.0000
     1.0000   1.0000   1.0000   1.0000   1.0000   1.0000   1.0000   0.0000
     0.0000   0.0000

          k = 0.0943 0.0000 0.0000 (  6070 PWs)   bands (ev):

   -14.1569 -14.1567 -14.1567 -14.1037 -14.0987 -13.8831 -13.8645 -13.8596
   -13.8596 -13.8475  -2.5823   5.6772   7.2785   7.2785   7.9977   9.3110
     9.3134   9.4074

     occupation numbers 
     1.0000   1.0000   1.0000   1.0000   1.0000   1.0000   1.0000   1.0000
     1.0000   1.0000   1.0000   1.0000   1.0000   1.0000   0.0000   0.0000
     0.0000   0.0000

          k = 0.1414 0.0471-0.0471 (  6074 PWs)   bands (ev):

   -14.1636 -14.1608 -14.1542 -14.0980 -14.0894 -13.8951 -13.8739 -13.8599
   -13.8506 -13.8403  -2.4909   5.0741   7.0537   7.0825   8.2541   9.3108
     9.3134   9.4110

     occupation numbers 
     1.0000   1.0000   1.0000   1.0000   1.0000   1.0000   1.0000   1.0000
     1.0000   1.0000   1.0000   1.0000   1.0000   1.0000   0.0000   0.0000
     0.0000   0.0000

          k = 0.1886 0.0943-0.0943 (  6078 PWs)   bands (ev):

   -14.1712 -14.1669 -14.1496 -14.0888 -14.0783 -13.9062 -13.8845 -13.8644
   -13.8416 -13.8323  -2.3242   4.2753   6.8202   6.8423   8.2502   9.3112
     9.3134   9.6683

     occupation numbers 
     1.0000   1.0000   1.0000   1.0000   1.0000   1.0000   1.0000   1.0000
     1.0000   1.0000   1.0000   1.0000   1.0000   1.0000   0.0000   0.0000
     0.0000   0.0000

          k = 0.2357 0.1414-0.1414 (  6081 PWs)   bands (ev):

   -14.1780 -14.1727 -14.1436 -14.0791 -14.0680 -13.9151 -13.8941 -13.8713
   -13.8341 -13.8253  -2.0888   3.4494   6.5846   6.6174   8.1169   9.3112
     9.3134  10.0027

     occupation numbers 
     1.0000   1.0000   1.0000   1.0000   1.0000   1.0000   1.0000   1.0000
     1.0000   1.0000   1.0000   1.0000   1.0000   1.0000   0.0000   0.0000
     0.0000   0.0000

          k = 0.2828 0.1886-0.1886 (  6085 PWs)   bands (ev):

   -14.1832 -14.1775 -14.1372 -14.0705 -14.0603 -13.9208 -13.9023 -13.8791
   -13.8281 -13.8200  -1.7994   2.6736   6.3517   6.4651   7.9640   9.3113
     9.3135  10.2599

     occupation numbers 
     1.0000   1.0000   1.0000   1.0000   1.0000   1.0000   1.0000   1.0000
     1.0000   1.0000   1.0000   1.0000   1.0000   1.0000   0.0000   0.0000
     0.0000   0.0000

          k = 0.3300 0.2357-0.2357 (  6095 PWs)   bands (ev):

   -14.1865 -14.1810 -14.1313 -14.0635 -14.0560 -13.9227 -13.9091 -13.8865
   -13.8236 -13.8166  -1.4885   2.0094   6.1655   6.3727   7.8369   9.3113
     9.3134  10.4044

     occupation numbers 
     1.0000   1.0000   1.0000   1.0000   1.0000   1.0000   1.0000   1.0000
     1.0000   1.0000   1.0000   1.0000   1.0000   1.0000   0.0000   0.0000
     0.0000   0.0000

          k = 0.3771 0.2828-0.2828 (  6090 PWs)   bands (ev):

   -14.1881 -14.1833 -14.1272 -14.0585 -14.0552 -13.9210 -13.9145 -13.8923
   -13.8204 -13.8151  -1.2297   1.5447   6.0369   6.3440   7.7537   9.3113
     9.3134  10.4852

     occupation numbers 
     1.0000   1.0000   1.0000   1.0000   1.0000   1.0000   1.0000   1.0000
     1.0000   1.0000   1.0000   1.0000   1.0000   1.0000   0.0000   0.0000
     0.0000   0.0000

          k =-0.2828-0.3771 0.3771 (  6093 PWs)   bands (ev):

   -14.1880 -14.1846 -14.1258 -14.0571 -14.0554 -13.9183 -13.9170 -13.8950
   -13.8186 -13.8156  -1.1486   1.4119   5.9717   6.3795   7.7216   9.3113
     9.3134  10.5516

     occupation numbers 
     1.0000   1.0000   1.0000   1.0000   1.0000   1.0000   1.0000   1.0000
     1.0000   1.0000   1.0000   1.0000   1.0000   1.0000   0.0000   0.0000
     0.0000   0.0000

          k =-0.2357-0.3300 0.3300 (  6090 PWs)   bands (ev):

   -14.1863 -14.1847 -14.1274 -14.0609 -14.0548 -13.9202 -13.9125 -13.8932
   -13.8181 -13.8180  -1.3036   1.6709   5.9736   6.4765   7.7424   9.3113
     9.3134  10.6182

     occupation numbers 
     1.0000   1.0000   1.0000   1.0000   1.0000   1.0000   1.0000   1.0000
     1.0000   1.0000   1.0000   1.0000   1.0000   1.0000   0.0000   0.0000
     0.0000   0.0000

          k =-0.1886-0.2828 0.2828 (  6090 PWs)   bands (ev):

   -14.1834 -14.1830 -14.1316 -14.0663 -14.0573 -13.9192 -13.9082 -13.8871
   -13.8223 -13.8191  -1.5919   2.2154   6.0452   6.6295   7.8128   9.3113
     9.3134  10.5576

     occupation numbers 
     1.0000   1.0000   1.0000   1.0000   1.0000   1.0000   1.0000   1.0000
     1.0000   1.0000   1.0000   1.0000   1.0000   1.0000   0.0000   0.0000
     0.0000   0.0000

          k =-0.1414-0.2357 0.2357 (  6079 PWs)   bands (ev):

   -14.1805 -14.1781 -14.1376 -14.0734 -14.0635 -13.9148 -13.9030 -13.8785
   -13.8284 -13.8220  -1.9011   2.9236   6.1879   6.8281   7.9220   9.3113
     9.3134  10.3988

     occupation numbers 
     1.0000   1.0000   1.0000   1.0000   1.0000   1.0000   1.0000   1.0000
     1.0000   1.0000   1.0000   1.0000   1.0000   1.0000   0.0000   0.0000
     0.0000   0.0000

          k =-0.0943-0.1886 0.1886 (  6076 PWs)   bands (ev):

   -14.1758 -14.1719 -14.1440 -14.0819 -14.0728 -13.9070 -13.8960 -13.8696
   -13.8363 -13.8268  -2.1748   3.7196   6.4027   7.0542   8.0420   9.3112
     9.3134  10.1610

     occupation numbers 
     1.0000   1.0000   1.0000   1.0000   1.0000   1.0000   1.0000   1.0000
     1.0000   1.0000   1.0000   1.0000   1.0000   1.0000   0.0000   0.0000
     0.0000   0.0000

          k =-0.0471-0.1414 0.1414 (  6074 PWs)   bands (ev):

   -14.1696 -14.1649 -14.1497 -14.0911 -14.0840 -13.8968 -13.8875 -13.8618
   -13.8457 -13.8335  -2.3882   4.5393   6.6904   7.2728   8.1016   9.3114
     9.3135   9.8898

     occupation numbers 
     1.0000   1.0000   1.0000   1.0000   1.0000   1.0000   1.0000   1.0000
     1.0000   1.0000   1.0000   1.0000   1.0000   1.0000   0.0000   0.0000
     0.0000   0.0000

          k = 0.0000-0.0943 0.0943 (  6075 PWs)   bands (ev):

   -14.1628 -14.1588 -14.1534 -14.0992 -14.0949 -13.8852 -13.8781 -13.8567
   -13.8553 -13.8419  -2.5302   5.2857   7.0523   7.4210   7.9695   9.3112
     9.3134   9.6911

     occupation numbers 
     1.0000   1.0000   1.0000   1.0000   1.0000   1.0000   1.0000   1.0000
     1.0000   1.0000   1.0000   1.0000   1.0000   0.7581   0.0000   0.0000
     0.0000   0.0000

          k = 0.1886 0.0000 0.0000 (  6062 PWs)   bands (ev):

   -14.1623 -14.1623 -14.1599 -14.0956 -14.0797 -13.9094 -13.8722 -13.8518
   -13.8518 -13.8398  -2.4251   4.8095   6.8150   6.8150   8.7542   9.0577
     9.3119   9.3141

     occupation numbers 
     1.0000   1.0000   1.0000   1.0000   1.0000   1.0000   1.0000   1.0000
     1.0000   1.0000   1.0000   1.0000   1.0000   1.0000   0.0000   0.0000
     0.0000   0.0000

          k = 0.2357 0.0471-0.0471 (  6076 PWs)   bands (ev):

   -14.1704 -14.1670 -14.1552 -14.0883 -14.0677 -13.9229 -13.8805 -13.8530
   -13.8445 -13.8337  -2.2828   4.2345   6.5508   6.5772   8.9071   9.0841
     9.3120   9.3146

     occupation numbers 
     1.0000   1.0000   1.0000   1.0000   1.0000   1.0000   1.0000   1.0000
     1.0000   1.0000   1.0000   1.0000   1.0000   1.0000   0.0000   0.0000
     0.0000   0.0000

          k = 0.2828 0.0943-0.0943 (  6075 PWs)   bands (ev):

   -14.1792 -14.1725 -14.1471 -14.0790 -14.0563 -13.9342 -13.8907 -13.8612
   -13.8363 -13.8247  -2.0692   3.5257   6.2436   6.3761   8.8093   9.3100
     9.3132   9.4273

     occupation numbers 
     1.0000   1.0000   1.0000   1.0000   1.0000   1.0000   1.0000   1.0000
     1.0000   1.0000   1.0000   1.0000   1.0000   1.0000   0.0000   0.0000
     0.0000   0.0000

          k = 0.3300 0.1414-0.1414 (  6077 PWs)   bands (ev):

   -14.1868 -14.1776 -14.1374 -14.0694 -14.0475 -13.9417 -13.9007 -13.8722
   -13.8291 -13.8165  -1.7951   2.8002   5.9412   6.2306   8.6592   9.3112
     9.3135   9.8421

     occupation numbers 
     1.0000   1.0000   1.0000   1.0000   1.0000   1.0000   1.0000   1.0000
     1.0000   1.0000   1.0000   1.0000   1.0000   1.0000   0.0000   0.0000
     0.0000   0.0000

          k = 0.3771 0.1886-0.1886 (  6094 PWs)   bands (ev):

   -14.1926 -14.1818 -14.1274 -14.0607 -14.0430 -13.9440 -13.9100 -13.8838
   -13.8232 -13.8103  -1.4848   2.1353   5.6826   6.1500   8.5165   9.3113
     9.3135  10.1685

     occupation numbers 
     1.0000   1.0000   1.0000   1.0000   1.0000   1.0000   1.0000   1.0000
     1.0000   1.0000   1.0000   1.0000   1.0000   1.0000   0.0000   0.0000
     0.0000   0.0000

          k = 0.4243 0.2357-0.2357 (  6084 PWs)   bands (ev):

   -14.1962 -14.1849 -14.1189 -14.0532 -14.0433 -13.9408 -13.9184 -13.8944
   -13.8187 -13.8065  -1.1946   1.6146   5.4862   6.1381   8.4095   9.3113
     9.3135  10.3534

     occupation numbers 
     1.0000   1.0000   1.0000   1.0000   1.0000   1.0000   1.0000   1.0000
     1.0000   1.0000   1.0000   1.0000   1.0000   1.0000   0.0000   0.0000
     0.0000   0.0000

          k =-0.2357-0.4243 0.4243 (  6082 PWs)   bands (ev):

   -14.1974 -14.1871 -14.1136 -14.0477 -14.0474 -13.9326 -13.9255 -13.9024
   -13.8155 -13.8055  -1.0390   1.3664   5.3616   6.1946   8.3497   9.3113
     9.3135  10.4710

     occupation numbers 
     1.0000   1.0000   1.0000   1.0000   1.0000   1.0000   1.0000   1.0000
     1.0000   1.0000   1.0000   1.0000   1.0000   1.0000   0.0000   0.0000
     0.0000   0.0000

          k =-0.1886-0.3771 0.3771 (  6083 PWs)   bands (ev):

   -14.1961 -14.1881 -14.1129 -14.0544 -14.0442 -13.9303 -13.9210 -13.9067
   -13.8139 -13.8074  -1.1246   1.5011   5.3160   6.3157   8.3395   9.3113
     9.3135  10.5806

     occupation numbers 
     1.0000   1.0000   1.0000   1.0000   1.0000   1.0000   1.0000   1.0000
     1.0000   1.0000   1.0000   1.0000   1.0000   1.0000   0.0000   0.0000
     0.0000   0.0000

          k =-0.1414-0.3300 0.3300 (  6079 PWs)   bands (ev):

   -14.1924 -14.1876 -14.1171 -14.0619 -14.0450 -13.9314 -13.9114 -13.9031
   -13.8139 -13.8123  -1.3877   1.9513   5.3572   6.4933   8.3729   9.3113
     9.3135  10.6849

     occupation numbers 
     1.0000   1.0000   1.0000   1.0000   1.0000   1.0000   1.0000   1.0000
     1.0000   1.0000   1.0000   1.0000   1.0000   1.0000   0.0000   0.0000
     0.0000   0.0000

          k =-0.0943-0.2828 0.2828 (  6074 PWs)   bands (ev):

   -14.1866 -14.1855 -14.1252 -14.0693 -14.0505 -13.9279 -13.9079 -13.8893
   -13.8200 -13.8159  -1.6998   2.5745   5.4959   6.7133   8.4321   9.3113
     9.3135  10.6060

     occupation numbers 
     1.0000   1.0000   1.0000   1.0000   1.0000   1.0000   1.0000   1.0000
     1.0000   1.0000   1.0000   1.0000   1.0000   1.0000   0.0000   0.0000
     0.0000   0.0000

          k =-0.0471-0.2357 0.2357 (  6076 PWs)   bands (ev):

   -14.1816 -14.1790 -14.1350 -14.0769 -14.0601 -13.9200 -13.9028 -13.8751
   -13.8299 -13.8199  -1.9886   3.2692   5.7498   6.9503   8.4719   9.3113
     9.3136  10.3287

     occupation numbers 
     1.0000   1.0000   1.0000   1.0000   1.0000   1.0000   1.0000   1.0000
     1.0000   1.0000   1.0000   1.0000   1.0000   1.0000   0.0000   0.0000
     0.0000   0.0000

          k = 0.0000-0.1886 0.1886 (  6071 PWs)   bands (ev):

   -14.1761 -14.1709 -14.1440 -14.0846 -14.0720 -13.9092 -13.8956 -13.8637
   -13.8408 -13.8258  -2.2227   3.9525   6.1443   7.1598   8.3922   9.3113
     9.3135  10.0526

     occupation numbers 
     1.0000   1.0000   1.0000   1.0000   1.0000   1.0000   1.0000   1.0000
     1.0000   1.0000   1.0000   1.0000   1.0000   1.0000   0.0000   0.0000
     0.0000   0.0000

          k = 0.2828 0.0000 0.0000 (  6066 PWs)   bands (ev):

   -14.1703 -14.1703 -14.1591 -14.0826 -14.0544 -13.9397 -13.8847 -13.8408
   -13.8408 -13.8393  -2.1647   3.9031   6.3344   6.3344   8.7010   9.2795
     9.3123   9.3308

     occupation numbers 
     1.0000   1.0000   1.0000   1.0000   1.0000   1.0000   1.0000   1.0000
     1.0000   1.0000   1.0000   1.0000   1.0000   1.0000   0.0000   0.0000
     0.0000   0.0000

          k = 0.3300 0.0471-0.0471 (  6078 PWs)   bands (ev):

   -14.1780 -14.1749 -14.1523 -14.0738 -14.0410 -13.9542 -13.8937 -13.8502
   -13.8340 -13.8280  -1.9734   3.3731   6.0564   6.1286   8.7004   9.3044
     9.3125   9.3836

     occupation numbers 
     1.0000   1.0000   1.0000   1.0000   1.0000   1.0000   1.0000   1.0000
     1.0000   1.0000   1.0000   1.0000   1.0000   1.0000   0.0000   0.0000
     0.0000   0.0000

          k = 0.3771 0.0943-0.0943 (  6082 PWs)   bands (ev):

   -14.1873 -14.1797 -14.1405 -14.0638 -14.0301 -13.9650 -13.9042 -13.8637
   -13.8270 -13.8167  -1.7170   2.7606   5.7088   5.9796   8.8082   9.3100
     9.3130   9.5493

     occupation numbers 
     1.0000   1.0000   1.0000   1.0000   1.0000   1.0000   1.0000   1.0000
     1.0000   1.0000   1.0000   1.0000   1.0000   1.0000   0.0000   0.0000
     0.0000   0.0000

          k = 0.4243 0.1414-0.1414 (  6085 PWs)   bands (ev):

   -14.1955 -14.1840 -14.1269 -14.0538 -14.0238 -13.9702 -13.9150 -13.8789
   -13.8207 -13.8073  -1.4133   2.1507   5.3708   5.8979   8.7814   9.3111
     9.3134   9.9943

     occupation numbers 
     1.0000   1.0000   1.0000   1.0000   1.0000   1.0000   1.0000   1.0000
     1.0000   1.0000   1.0000   1.0000   1.0000   1.0000   0.0000   0.0000
     0.0000   0.0000

          k = 0.4714 0.1886-0.1886 (  6092 PWs)   bands (ev):

   -14.2016 -14.1874 -14.1140 -14.0444 -14.0236 -13.9684 -13.9255 -13.8934
   -13.8157 -13.8005  -1.1037   1.6228   5.0923   5.8878   8.7176   9.3113
     9.3135  10.4455

     occupation numbers 
     1.0000   1.0000   1.0000   1.0000   1.0000   1.0000   1.0000   1.0000
     1.0000   1.0000   1.0000   1.0000   1.0000   1.0000   0.0000   0.0000
     0.0000   0.0000

          k =-0.1886-0.4714 0.4714 (  6081 PWs)   bands (ev):

   -14.2050 -14.1899 -14.1042 -14.0364 -14.0295 -13.9600 -13.9350 -13.9047
   -13.8120 -13.7969  -0.8853   1.2942   4.8963   5.9494   8.6823   9.3113
     9.3135  10.6889

     occupation numbers 
     1.0000   1.0000   1.0000   1.0000   1.0000   1.0000   1.0000   1.0000
     1.0000   1.0000   1.0000   1.0000   1.0000   1.0000   0.0000   0.0000
     0.0000   0.0000

          k =-0.1414-0.4243 0.4243 (  6069 PWs)   bands (ev):

   -14.2053 -14.1913 -14.0996 -14.0397 -14.0312 -13.9462 -13.9421 -13.9115
   -13.8099 -13.7970  -0.8962   1.3107   4.7972   6.0788   8.6876   9.3114
     9.3136  10.8166

     occupation numbers 
     1.0000   1.0000   1.0000   1.0000   1.0000   1.0000   1.0000   1.0000
     1.0000   1.0000   1.0000   1.0000   1.0000   1.0000   0.0000   0.0000
     0.0000   0.0000

          k =-0.0943-0.3771 0.3771 (  6080 PWs)   bands (ev):

   -14.2024 -14.1913 -14.1014 -14.0517 -14.0308 -13.9445 -13.9284 -13.9138
   -13.8096 -13.8009  -1.1267   1.6577   4.8095   6.2669   8.7234   9.3114
     9.3136  10.9332

     occupation numbers 
     1.0000   1.0000   1.0000   1.0000   1.0000   1.0000   1.0000   1.0000
     1.0000   1.0000   1.0000   1.0000   1.0000   1.0000   0.0000   0.0000
     0.0000   0.0000

          k =-0.0471-0.3300 0.3300 (  6067 PWs)   bands (ev):

   -14.1965 -14.1898 -14.1097 -14.0622 -14.0366 -13.9408 -13.9129 -13.9085
   -13.8111 -13.8084  -1.4371   2.1761   4.9541   6.4974   8.7563   9.3114
     9.3137  10.9952

     occupation numbers 
     1.0000   1.0000   1.0000   1.0000   1.0000   1.0000   1.0000   1.0000
     1.0000   1.0000   1.0000   1.0000   1.0000   1.0000   0.0000   0.0000
     0.0000   0.0000

          k = 0.0000-0.2828 0.2828 (  6063 PWs)   bands (ev):

   -14.1882 -14.1865 -14.1222 -14.0704 -14.0472 -13.9319 -13.9088 -13.8899
   -13.8188 -13.8146  -1.7372   2.7402   5.2598   6.7416   8.7105   9.3114
     9.3137  10.6454

     occupation numbers 
     1.0000   1.0000   1.0000   1.0000   1.0000   1.0000   1.0000   1.0000
     1.0000   1.0000   1.0000   1.0000   1.0000   1.0000   0.0000   0.0000
     0.0000   0.0000

          k = 0.3771 0.0000 0.0000 (  6086 PWs)   bands (ev):

   -14.1788 -14.1788 -14.1528 -14.0652 -14.0253 -13.9725 -13.9015 -13.8461
   -13.8288 -13.8288  -1.8038   3.0075   5.9144   5.9144   8.4174   9.3053
     9.3125   9.3807

     occupation numbers 
     1.0000   1.0000   1.0000   1.0000   1.0000   1.0000   1.0000   1.0000
     1.0000   1.0000   1.0000   1.0000   1.0000   1.0000   0.0000   0.0000
     0.0000   0.0000

          k = 0.4243 0.0471-0.0471 (  6080 PWs)   bands (ev):

   -14.1857 -14.1830 -14.1435 -14.0549 -14.0114 -13.9873 -13.9118 -13.8574
   -13.8227 -13.8191  -1.5662   2.5218   5.6496   5.7558   8.4617   9.2947
     9.3124   9.3361

     occupation numbers 
     1.0000   1.0000   1.0000   1.0000   1.0000   1.0000   1.0000   1.0000
     1.0000   1.0000   1.0000   1.0000   1.0000   1.0000   0.0000   0.0000
     0.0000   0.0000

          k = 0.4714 0.0943-0.0943 (  6086 PWs)   bands (ev):

   -14.1948 -14.1868 -14.1285 -14.0440 -14.0030 -13.9956 -13.9232 -13.8741
   -13.8170 -13.8081  -1.2731   1.9988   5.2873   5.6647   8.6136   9.3100
     9.3129   9.5131

     occupation numbers 
     1.0000   1.0000   1.0000   1.0000   1.0000   1.0000   1.0000   1.0000
     1.0000   1.0000   1.0000   1.0000   1.0000   1.0000   0.0000   0.0000
     0.0000   0.0000

          k = 0.5185 0.1414-0.1414 (  6083 PWs)   bands (ev):

   -14.2029 -14.1900 -14.1123 -14.0334 -14.0048 -13.9926 -13.9349 -13.8917
   -13.8123 -13.7988  -0.9544   1.5071   4.9339   5.6467   8.6501   9.3110
     9.3132  10.0787

     occupation numbers 
     1.0000   1.0000   1.0000   1.0000   1.0000   1.0000   1.0000   1.0000
     1.0000   1.0000   1.0000   1.0000   1.0000   1.0000   0.0000   0.0000
     0.0000   0.0000

          k =-0.1414-0.5185 0.5185 (  6069 PWs)   bands (ev):

   -14.2086 -14.1924 -14.0989 -14.0237 -14.0070 -13.9889 -13.9460 -13.9059
   -13.8088 -13.7926  -0.6870   1.1427   4.6565   5.7024   8.6634   9.3112
     9.3134  10.7984

     occupation numbers 
     1.0000   1.0000   1.0000   1.0000   1.0000   1.0000   1.0000   1.0000
     1.0000   1.0000   1.0000   1.0000   1.0000   1.0000   0.0000   0.0000
     0.0000   0.0000

          k =-0.0943-0.4714 0.4714 (  6054 PWs)   bands (ev):

   -14.2110 -14.1938 -14.0915 -14.0169 -14.0166 -13.9772 -13.9547 -13.9140
   -13.8068 -13.7902  -0.6262   1.0666   4.4914   5.8284   8.7082   9.3113
     9.3135  11.3254

     occupation numbers 
     1.0000   1.0000   1.0000   1.0000   1.0000   1.0000   1.0000   1.0000
     1.0000   1.0000   1.0000   1.0000   1.0000   1.0000   0.0000   0.0000
     0.0000   0.0000

          k =-0.0471-0.4243 0.4243 (  6065 PWs)   bands (ev):

   -14.2097 -14.1939 -14.0908 -14.0335 -14.0164 -13.9571 -13.9568 -13.9165
   -13.8065 -13.7922  -0.8243   1.3231   4.4666   6.0160   8.7796   9.3114
     9.3136  11.5145

     occupation numbers 
     1.0000   1.0000   1.0000   1.0000   1.0000   1.0000   1.0000   1.0000
     1.0000   1.0000   1.0000   1.0000   1.0000   1.0000   0.0000   0.0000
     0.0000   0.0000

          k =-0.0000-0.3771 0.3771 (  6077 PWs)   bands (ev):

   -14.2047 -14.1926 -14.0969 -14.0503 -14.0241 -13.9516 -13.9328 -13.9154
   -13.8079 -13.7985  -1.1308   1.7391   4.6117   6.2487   8.8313   9.3114
     9.3138  11.4525

     occupation numbers 
     1.0000   1.0000   1.0000   1.0000   1.0000   1.0000   1.0000   1.0000
     1.0000   1.0000   1.0000   1.0000   1.0000   1.0000   0.0000   0.0000
     0.0000   0.0000

          k = 0.4714 0.0000 0.0000 (  6106 PWs)   bands (ev):

   -14.1865 -14.1865 -14.1406 -14.0442 -14.0065 -13.9942 -13.9219 -13.8597
   -13.8177 -13.8177  -1.3464   2.1405   5.5845   5.5845   8.2396   9.0932
     9.3118   9.3143

     occupation numbers 
     1.0000   1.0000   1.0000   1.0000   1.0000   1.0000   1.0000   1.0000
     1.0000   1.0000   1.0000   1.0000   1.0000   1.0000   0.0000   0.0000
     0.0000   0.0000

          k = 0.5185 0.0471-0.0471 (  6094 PWs)   bands (ev):

   -14.1923 -14.1897 -14.1286 -14.0327 -14.0208 -13.9805 -13.9335 -13.8728
   -13.8130 -13.8102  -1.0662   1.6972   5.3501   5.4796   8.3291   9.0160
     9.3117   9.3139

     occupation numbers 
     1.0000   1.0000   1.0000   1.0000   1.0000   1.0000   1.0000   1.0000
     1.0000   1.0000   1.0000   1.0000   1.0000   1.0000   0.0000   0.0000
     0.0000   0.0000

          k = 0.5657 0.0943-0.0943 (  6083 PWs)   bands (ev):

   -14.2004 -14.1924 -14.1114 -14.0286 -14.0211 -13.9722 -13.9457 -13.8912
   -13.8090 -13.8008  -0.7459   1.2548   4.9992   5.4479   8.4735   9.2974
     9.3124   9.3319

     occupation numbers 
     1.0000   1.0000   1.0000   1.0000   1.0000   1.0000   1.0000   1.0000
     1.0000   1.0000   1.0000   1.0000   1.0000   1.0000   0.0000   0.0000
     0.0000   0.0000

          k =-0.0943-0.5657 0.5657 (  6066 PWs)   bands (ev):

   -14.2077 -14.1943 -14.0953 -14.0266 -14.0101 -13.9732 -13.9579 -13.9078
   -13.8063 -13.7929  -0.4429   0.8864   4.6617   5.4913   8.5272   9.3110
     9.3132  10.0098

     occupation numbers 
     1.0000   1.0000   1.0000   1.0000   1.0000   1.0000   1.0000   1.0000
     1.0000   1.0000   1.0000   1.0000   1.0000   1.0000   0.0000   0.0000
     0.0000   0.0000

          k =-0.0471-0.5185 0.5185 (  6059 PWs)   bands (ev):

   -14.2123 -14.1953 -14.0870 -14.0114 -14.0024 -13.9869 -13.9672 -13.9164
   -13.8048 -13.7882  -0.3275   0.7602   4.4251   5.6069   8.5953   9.3112
     9.3133  10.8791

     occupation numbers 
     1.0000   1.0000   1.0000   1.0000   1.0000   1.0000   1.0000   1.0000
     1.0000   1.0000   1.0000   1.0000   1.0000   1.0000   0.0000   0.0000
     0.0000   0.0000

          k =-0.0000-0.4714 0.4714 (  6051 PWs)   bands (ev):

   -14.2131 -14.1952 -14.0862 -14.0099 -14.0048 -13.9857 -13.9668 -13.9179
   -13.8049 -13.7878  -0.5182   0.9779   4.3458   5.7869   8.6948   9.3113
     9.3134  11.7336

     occupation numbers 
     1.0000   1.0000   1.0000   1.0000   1.0000   1.0000   1.0000   1.0000
     1.0000   1.0000   1.0000   1.0000   1.0000   1.0000   0.0000   0.0000
     0.0000   0.0000

          k = 0.5657 0.0000 0.0000 (  6078 PWs)   bands (ev):

   -14.1922 -14.1922 -14.1225 -14.0398 -14.0206 -13.9627 -13.9451 -13.8792
   -13.8093 -13.8093  -0.7978   1.3147   5.3587   5.3587   8.1815   8.7362
     9.3115   9.3135

     occupation numbers 
     1.0000   1.0000   1.0000   1.0000   1.0000   1.0000   1.0000   1.0000
     1.0000   1.0000   1.0000   1.0000   1.0000   1.0000   0.0000   0.0000
     0.0000   0.0000

          k = 0.6128 0.0471-0.0471 (  6083 PWs)   bands (ev):

   -14.1967 -14.1941 -14.1081 -14.0528 -14.0083 -13.9575 -13.9498 -13.8943
   -13.8065 -13.8040  -0.4805   0.9136   5.1674   5.3105   8.3079   8.7146
     9.3115   9.3135

     occupation numbers 
     1.0000   1.0000   1.0000   1.0000   1.0000   1.0000   1.0000   1.0000
     1.0000   1.0000   1.0000   1.0000   1.0000   1.0000   0.0000   0.0000
     0.0000   0.0000

          k =-0.0471-0.6128 0.6128 (  6059 PWs)   bands (ev):

   -14.2035 -14.1954 -14.0911 -14.0561 -13.9964 -13.9702 -13.9458 -13.9117
   -13.8047 -13.7967  -0.1537   0.5524   4.8534   5.3377   8.4070   9.1767
     9.3119   9.3145

     occupation numbers 
     1.0000   1.0000   1.0000   1.0000   1.0000   1.0000   1.0000   1.0000
     1.0000   1.0000   1.0000   1.0000   1.0000   1.0000   0.0000   0.0000
     0.0000   0.0000

          k = 0.0000-0.5657 0.5657 (  6090 PWs)   bands (ev):

   -14.2094 -14.1958 -14.0849 -14.0399 -13.9909 -13.9770 -13.9607 -13.9180
   -13.8041 -13.7908  -0.0602   0.4674   4.5695   5.4387   8.4818   9.3110
     9.3132   9.9698

     occupation numbers 
     1.0000   1.0000   1.0000   1.0000   1.0000   1.0000   1.0000   1.0000
     1.0000   1.0000   1.0000   1.0000   1.0000   1.0000   0.0000   0.0000
     0.0000   0.0000

          k = 0.6600 0.0000 0.0000 (  6066 PWs)   bands (ev):

   -14.1953 -14.1953 -14.0991 -14.0711 -13.9955 -13.9699 -13.9320 -13.9038
   -13.8048 -13.8048  -0.1653   0.5423   5.2443   5.2443   8.2483   8.4382
     9.3114   9.3134

     occupation numbers 
     1.0000   1.0000   1.0000   1.0000   1.0000   1.0000   1.0000   1.0000
     1.0000   1.0000   1.0000   1.0000   1.0000   1.0000   0.0000   0.0000
     0.0000   0.0000

          k = 0.0000-0.6600 0.6600 (  6056 PWs)   bands (ev):

   -14.1982 -14.1957 -14.0855 -14.0794 -13.9837 -13.9820 -13.9234 -13.9176
   -13.8042 -13.8018   0.1549   0.2117   5.1061   5.2535   8.3464   8.5609
     9.3115   9.3134

     occupation numbers 
     1.0000   1.0000   1.0000   1.0000   1.0000   1.0000   1.0000   1.0000
     1.0000   1.0000   1.0000   1.0000   1.0000   1.0000   0.0000   0.0000
     0.0000   0.0000

          k = 0.1886 0.0943-0.0000 (  6073 PWs)   bands (ev):

   -14.1693 -14.1647 -14.1523 -14.0921 -14.0788 -13.9078 -13.8807 -13.8561
   -13.8488 -13.8337  -2.3743   4.5371   6.5932   7.0218   8.5333   9.3101
     9.3134   9.3751

     occupation numbers 
     1.0000   1.0000   1.0000   1.0000   1.0000   1.0000   1.0000   1.0000
     1.0000   1.0000   1.0000   1.0000   1.0000   1.0000   0.0000   0.0000
     0.0000   0.0000

          k = 0.2357 0.1414-0.0471 (  6077 PWs)   bands (ev):

   -14.1764 -14.1713 -14.1459 -14.0835 -14.0671 -13.9192 -13.8901 -13.8635
   -13.8390 -13.8263  -2.1841   3.8350   6.2063   6.8649   8.5846   9.3112
     9.3136   9.6107

     occupation numbers 
     1.0000   1.0000   1.0000   1.0000   1.0000   1.0000   1.0000   1.0000
     1.0000   1.0000   1.0000   1.0000   1.0000   1.0000   0.0000   0.0000
     0.0000   0.0000

          k = 0.2828 0.1886-0.0943 (  6076 PWs)   bands (ev):

   -14.1829 -14.1776 -14.1374 -14.0746 -14.0569 -13.9280 -13.8987 -13.8742
   -13.8298 -13.8198  -1.9288   3.0885   5.9177   6.6608   8.4903   9.3114
     9.3136   9.9704

     occupation numbers 
     1.0000   1.0000   1.0000   1.0000   1.0000   1.0000   1.0000   1.0000
     1.0000   1.0000   1.0000   1.0000   1.0000   1.0000   0.0000   0.0000
     0.0000   0.0000

          k = 0.3300 0.2357-0.1414 (  6080 PWs)   bands (ev):

   -14.1884 -14.1823 -14.1286 -14.0664 -14.0499 -13.9327 -13.9062 -13.8858
   -13.8228 -13.8146  -1.6271   2.3816   5.7150   6.4704   8.3702   9.3113
     9.3135  10.2521

     occupation numbers 
     1.0000   1.0000   1.0000   1.0000   1.0000   1.0000   1.0000   1.0000
     1.0000   1.0000   1.0000   1.0000   1.0000   1.0000   0.0000   0.0000
     0.0000   0.0000

          k = 0.3771 0.2828-0.1886 (  6082 PWs)   bands (ev):

   -14.1924 -14.1851 -14.1212 -14.0593 -14.0471 -13.9328 -13.9132 -13.8957
   -13.8184 -13.8108  -1.3211   1.7914   5.5870   6.3281   8.2748   9.3113
     9.3135  10.3901

     occupation numbers 
     1.0000   1.0000   1.0000   1.0000   1.0000   1.0000   1.0000   1.0000
     1.0000   1.0000   1.0000   1.0000   1.0000   1.0000   0.0000   0.0000
     0.0000   0.0000

          k =-0.2828-0.3771 0.4714 (  6088 PWs)   bands (ev):

   -14.1944 -14.1865 -14.1170 -14.0536 -14.0481 -13.9288 -13.9203 -13.9012
   -13.8163 -13.8087  -1.1042   1.4288   5.5253   6.2525   8.2237   9.3114
     9.3135  10.4348

     occupation numbers 
     1.0000   1.0000   1.0000   1.0000   1.0000   1.0000   1.0000   1.0000
     1.0000   1.0000   1.0000   1.0000   1.0000   1.0000   0.0000   0.0000
     0.0000   0.0000

          k = 0.2828 0.0943 0.0000 (  6083 PWs)   bands (ev):

   -14.1758 -14.1728 -14.1506 -14.0807 -14.0551 -13.9370 -13.8882 -13.8555
   -13.8378 -13.8281  -2.1164   3.7170   6.1220   6.4833   9.0203   9.1402
     9.3124   9.3161

     occupation numbers 
     1.0000   1.0000   1.0000   1.0000   1.0000   1.0000   1.0000   1.0000
     1.0000   1.0000   1.0000   1.0000   1.0000   1.0000   0.0000   0.0000
     0.0000   0.0000

          k = 0.3300 0.1414-0.0471 (  6083 PWs)   bands (ev):

   -14.1836 -14.1789 -14.1406 -14.0715 -14.0436 -13.9484 -13.8979 -13.8663
   -13.8289 -13.8198  -1.8815   3.0918   5.7504   6.3225   9.0195   9.3095
     9.3135   9.4324

     occupation numbers 
     1.0000   1.0000   1.0000   1.0000   1.0000   1.0000   1.0000   1.0000
     1.0000   1.0000   1.0000   1.0000   1.0000   1.0000   0.0000   0.0000
     0.0000   0.0000

          k = 0.3771 0.1886-0.0943 (  6083 PWs)   bands (ev):

   -14.1915 -14.1835 -14.1285 -14.0622 -14.0352 -13.9554 -13.9077 -13.8800
   -13.8217 -13.8116  -1.5916   2.4458   5.4565   6.1557   8.9113   9.3113
     9.3137   9.8827

     occupation numbers 
     1.0000   1.0000   1.0000   1.0000   1.0000   1.0000   1.0000   1.0000
     1.0000   1.0000   1.0000   1.0000   1.0000   1.0000   0.0000   0.0000
     0.0000   0.0000

          k = 0.4243 0.2357-0.1414 (  6088 PWs)   bands (ev):

   -14.1978 -14.1869 -14.1168 -14.0533 -14.0317 -13.9566 -13.9174 -13.8934
   -13.8166 -13.8049  -1.2779   1.8582   5.2357   6.0398   8.8094   9.3114
     9.3137  10.2321

     occupation numbers 
     1.0000   1.0000   1.0000   1.0000   1.0000   1.0000   1.0000   1.0000
     1.0000   1.0000   1.0000   1.0000   1.0000   1.0000   0.0000   0.0000
     0.0000   0.0000

          k =-0.2357-0.4243 0.5185 (  6078 PWs)   bands (ev):

   -14.2016 -14.1892 -14.1079 -14.0457 -14.0335 -13.9519 -13.9269 -13.9036
   -13.8132 -13.8007  -1.0137   1.4301   5.0849   5.9997   8.7436   9.3114
     9.3137  10.3850

     occupation numbers 
     1.0000   1.0000   1.0000   1.0000   1.0000   1.0000   1.0000   1.0000
     1.0000   1.0000   1.0000   1.0000   1.0000   1.0000   0.0000   0.0000
     0.0000   0.0000

          k =-0.1886-0.3771 0.4714 (  6075 PWs)   bands (ev):

   -14.2026 -14.1903 -14.1039 -14.0437 -14.0357 -13.9448 -13.9326 -13.9091
   -13.8115 -13.7999  -0.9322   1.3086   5.0074   6.0404   8.7232   9.3114
     9.3137  10.4433

     occupation numbers 
     1.0000   1.0000   1.0000   1.0000   1.0000   1.0000   1.0000   1.0000
     1.0000   1.0000   1.0000   1.0000   1.0000   1.0000   0.0000   0.0000
     0.0000   0.0000

          k =-0.1414-0.3300 0.4243 (  6077 PWs)   bands (ev):

   -14.2006 -14.1903 -14.1058 -14.0511 -14.0342 -13.9456 -13.9237 -13.9097
   -13.8114 -13.8024  -1.0960   1.5582   5.0121   6.1560   8.7466   9.3114
     9.3138  10.4642

     occupation numbers 
     1.0000   1.0000   1.0000   1.0000   1.0000   1.0000   1.0000   1.0000
     1.0000   1.0000   1.0000   1.0000   1.0000   1.0000   0.0000   0.0000
     0.0000   0.0000

          k =-0.0943-0.2828 0.3771 (  6085 PWs)   bands (ev):

   -14.1957 -14.1889 -14.1134 -14.0598 -14.0364 -13.9456 -13.9123 -13.9026
   -13.8133 -13.8080  -1.3904   2.0545   5.1132   6.3321   8.8013   9.3114
     9.3139  10.3896

     occupation numbers 
     1.0000   1.0000   1.0000   1.0000   1.0000   1.0000   1.0000   1.0000
     1.0000   1.0000   1.0000   1.0000   1.0000   1.0000   0.0000   0.0000
     0.0000   0.0000

          k =-0.0471-0.2357 0.3300 (  6069 PWs)   bands (ev):

   -14.1886 -14.1859 -14.1246 -14.0682 -14.0438 -13.9405 -13.9056 -13.8873
   -13.8193 -13.8143  -1.7005   2.6592   5.3309   6.5436   8.8536   9.3115
     9.3140  10.1140

     occupation numbers 
     1.0000   1.0000   1.0000   1.0000   1.0000   1.0000   1.0000   1.0000
     1.0000   1.0000   1.0000   1.0000   1.0000   1.0000   0.0000   0.0000
     0.0000   0.0000

          k = 0.0000-0.1886 0.2828 (  6079 PWs)   bands (ev):

   -14.1820 -14.1795 -14.1365 -14.0762 -14.0548 -13.9312 -13.8982 -13.8726
   -13.8296 -13.8199  -1.9728   3.2775   5.6905   6.7460   8.8164   9.3114
     9.3140   9.7698

     occupation numbers 
     1.0000   1.0000   1.0000   1.0000   1.0000   1.0000   1.0000   1.0000
     1.0000   1.0000   1.0000   1.0000   1.0000   1.0000   0.0000   0.0000
     0.0000   0.0000

          k = 0.3771 0.0943 0.0000 (  6073 PWs)   bands (ev):

   -14.1826 -14.1815 -14.1447 -14.0645 -14.0275 -13.9690 -13.9030 -13.8581
   -13.8257 -13.8219  -1.7596   2.8879   5.7169   5.9970   8.7321   9.3066
     9.3126   9.4053

     occupation numbers 
     1.0000   1.0000   1.0000   1.0000   1.0000   1.0000   1.0000   1.0000
     1.0000   1.0000   1.0000   1.0000   1.0000   1.0000   0.0000   0.0000
     0.0000   0.0000

          k = 0.4243 0.1414-0.0471 (  6082 PWs)   bands (ev):

   -14.1913 -14.1861 -14.1312 -14.0543 -14.0166 -13.9796 -13.9136 -13.8729
   -13.8186 -13.8121  -1.4848   2.3426   5.3714   5.8484   8.9033   9.3100
     9.3130   9.5524

     occupation numbers 
     1.0000   1.0000   1.0000   1.0000   1.0000   1.0000   1.0000   1.0000
     1.0000   1.0000   1.0000   1.0000   1.0000   1.0000   0.0000   0.0000
     0.0000   0.0000

          k = 0.4714 0.1886-0.0943 (  6086 PWs)   bands (ev):

   -14.1996 -14.1895 -14.1160 -14.0442 -14.0112 -13.9837 -13.9248 -13.8894
   -13.8135 -13.8027  -1.1715   1.8054   5.0605   5.7439   8.9252   9.3112
     9.3135  10.0464

     occupation numbers 
     1.0000   1.0000   1.0000   1.0000   1.0000   1.0000   1.0000   1.0000
     1.0000   1.0000   1.0000   1.0000   1.0000   1.0000   0.0000   0.0000
     0.0000   0.0000

          k =-0.1886-0.4714 0.5657 (  6077 PWs)   bands (ev):

   -14.2057 -14.1921 -14.1025 -14.0348 -14.0125 -13.9804 -13.9360 -13.9037
   -13.8098 -13.7960  -0.8741   1.3600   4.8125   5.7190   8.9083   9.3113
     9.3136  10.5737

     occupation numbers 
     1.0000   1.0000   1.0000   1.0000   1.0000   1.0000   1.0000   1.0000
     1.0000   1.0000   1.0000   1.0000   1.0000   1.0000   0.0000   0.0000
     0.0000   0.0000

          k =-0.1414-0.4243 0.5185 (  6065 PWs)   bands (ev):

   -14.2086 -14.1936 -14.0941 -14.0291 -14.0178 -13.9716 -13.9452 -13.9128
   -13.8075 -13.7929  -0.7175   1.1468   4.6520   5.7773   8.9214   9.3114
     9.3138  10.7901

     occupation numbers 
     1.0000   1.0000   1.0000   1.0000   1.0000   1.0000   1.0000   1.0000
     1.0000   1.0000   1.0000   1.0000   1.0000   1.0000   0.0000   0.0000
     0.0000   0.0000

          k =-0.0943-0.3771 0.4714 (  6072 PWs)   bands (ev):

   -14.2081 -14.1941 -14.0924 -14.0361 -14.0191 -13.9625 -13.9446 -13.9160
   -13.8067 -13.7938  -0.8226   1.2891   4.5997   5.9111   8.9685   9.3115
     9.3140  10.8281

     occupation numbers 
     1.0000   1.0000   1.0000   1.0000   1.0000   1.0000   1.0000   1.0000
     1.0000   1.0000   1.0000   1.0000   1.0000   1.0000   0.0000   0.0000
     0.0000   0.0000

          k =-0.0471-0.3300 0.4243 (  6079 PWs)   bands (ev):

   -14.2040 -14.1932 -14.0979 -14.0491 -14.0223 -13.9587 -13.9281 -13.9147
   -13.8076 -13.7990  -1.1014   1.6872   4.6782   6.1048   9.0253   9.3116
     9.3144  10.7700

     occupation numbers 
     1.0000   1.0000   1.0000   1.0000   1.0000   1.0000   1.0000   1.0000
     1.0000   1.0000   1.0000   1.0000   1.0000   1.0000   0.0000   0.0000
     0.0000   0.0000

          k = 0.0000-0.2828 0.3771 (  6081 PWs)   bands (ev):

   -14.1969 -14.1907 -14.1099 -14.0600 -14.0313 -13.9514 -13.9120 -13.9059
   -13.8103 -13.8078  -1.4159   2.1765   4.9146   6.3317   9.0269   9.3116
     9.3145  10.4575

     occupation numbers 
     1.0000   1.0000   1.0000   1.0000   1.0000   1.0000   1.0000   1.0000
     1.0000   1.0000   1.0000   1.0000   1.0000   1.0000   0.0000   0.0000
     0.0000   0.0000

          k = 0.4714 0.0943-0.0000 (  6092 PWs)   bands (ev):

   -14.1894 -14.1892 -14.1330 -14.0441 -14.0020 -13.9975 -13.9226 -13.8688
   -13.8148 -13.8138  -1.3082   2.0719   5.4075   5.6050   8.5426   9.2342
     9.3122   9.3172

     occupation numbers 
     1.0000   1.0000   1.0000   1.0000   1.0000   1.0000   1.0000   1.0000
     1.0000   1.0000   1.0000   1.0000   1.0000   1.0000   0.0000   0.0000
     0.0000   0.0000

          k = 0.5185 0.1414-0.0471 (  6085 PWs)   bands (ev):

   -14.1979 -14.1923 -14.1167 -14.0330 -14.0116 -13.9876 -13.9344 -13.8862
   -13.8099 -13.8041  -1.0011   1.6019   5.0898   5.4916   8.7440   9.3092
     9.3128   9.4379

     occupation numbers 
     1.0000   1.0000   1.0000   1.0000   1.0000   1.0000   1.0000   1.0000
     1.0000   1.0000   1.0000   1.0000   1.0000   1.0000   0.0000   0.0000
     0.0000   0.0000

          k =-0.1414-0.5185 0.6128 (  6077 PWs)   bands (ev):

   -14.2056 -14.1947 -14.0997 -14.0223 -14.0139 -13.9841 -13.9466 -13.9038
   -13.8065 -13.7955  -0.6831   1.1747   4.7676   5.4667   8.8050   9.3111
     9.3133  10.0573

     occupation numbers 
     1.0000   1.0000   1.0000   1.0000   1.0000   1.0000   1.0000   1.0000
     1.0000   1.0000   1.0000   1.0000   1.0000   1.0000   0.0000   0.0000
     0.0000   0.0000

          k =-0.0943-0.4714 0.5657 (  6070 PWs)   bands (ev):

   -14.2108 -14.1961 -14.0879 -14.0143 -14.0058 -13.9896 -13.9576 -13.9157
   -13.8045 -13.7900  -0.4632   0.9080   4.5213   5.5283   8.8524   9.3113
     9.3135  10.8515

     occupation numbers 
     1.0000   1.0000   1.0000   1.0000   1.0000   1.0000   1.0000   1.0000
     1.0000   1.0000   1.0000   1.0000   1.0000   1.0000   0.0000   0.0000
     0.0000   0.0000

          k =-0.0471-0.4243 0.5185 (  6058 PWs)   bands (ev):

   -14.2124 -14.1964 -14.0842 -14.0155 -14.0024 -13.9871 -13.9622 -13.9197
   -13.8039 -13.7886  -0.5175   0.9745   4.4009   5.6669   8.9317   9.3114
     9.3137  11.4204

     occupation numbers 
     1.0000   1.0000   1.0000   1.0000   1.0000   1.0000   1.0000   1.0000
     1.0000   1.0000   1.0000   1.0000   1.0000   1.0000   0.0000   0.0000
     0.0000   0.0000

          k =-0.0000-0.3771 0.4714 (  6074 PWs)   bands (ev):

   -14.2100 -14.1956 -14.0877 -14.0325 -14.0099 -13.9716 -13.9508 -13.9186
   -13.8049 -13.7917  -0.7866   1.2984   4.4434   5.8676   9.0186   9.3116
     9.3141  11.3423

     occupation numbers 
     1.0000   1.0000   1.0000   1.0000   1.0000   1.0000   1.0000   1.0000
     1.0000   1.0000   1.0000   1.0000   1.0000   1.0000   0.0000   0.0000
     0.0000   0.0000

          k = 0.5657 0.0943 0.0000 (  6091 PWs)   bands (ev):

   -14.1949 -14.1947 -14.1154 -14.0346 -14.0208 -13.9670 -13.9455 -13.8867
   -13.8066 -13.8066  -0.7688   1.2840   5.2078   5.3248   8.4672   8.9368
     9.3116   9.3137

     occupation numbers 
     1.0000   1.0000   1.0000   1.0000   1.0000   1.0000   1.0000   1.0000
     1.0000   1.0000   1.0000   1.0000   1.0000   1.0000   0.0000   0.0000
     0.0000   0.0000

          k =-0.0943-0.5657 0.6600 (  6079 PWs)   bands (ev):

   -14.2022 -14.1966 -14.0972 -14.0417 -14.0090 -13.9595 -13.9581 -13.9054
   -13.8040 -13.7984  -0.4405   0.8845   4.9165   5.2724   8.6568   9.2504
     9.3123   9.3168

     occupation numbers 
     1.0000   1.0000   1.0000   1.0000   1.0000   1.0000   1.0000   1.0000
     1.0000   1.0000   1.0000   1.0000   1.0000   1.0000   0.0000   0.0000
     0.0000   0.0000

          k =-0.0471-0.5185 0.6128 (  6074 PWs)   bands (ev):

   -14.2088 -14.1976 -14.0831 -14.0363 -13.9985 -13.9704 -13.9634 -13.9194
   -13.8026 -13.7915  -0.1726   0.5940   4.6119   5.3291   8.7264   9.3111
     9.3133   9.9972

     occupation numbers 
     1.0000   1.0000   1.0000   1.0000   1.0000   1.0000   1.0000   1.0000
     1.0000   1.0000   1.0000   1.0000   1.0000   1.0000   0.0000   0.0000
     0.0000   0.0000

          k = 0.0000-0.4714 0.5657 (  6055 PWs)   bands (ev):

   -14.2126 -14.1976 -14.0805 -14.0151 -13.9984 -13.9820 -13.9733 -13.9220
   -13.8025 -13.7879  -0.2304   0.6644   4.4177   5.4653   8.8204   9.3113
     9.3135  10.8910

     occupation numbers 
     1.0000   1.0000   1.0000   1.0000   1.0000   1.0000   1.0000   1.0000
     1.0000   1.0000   1.0000   1.0000   1.0000   1.0000   0.0000   0.0000
     0.0000   0.0000

          k =-0.0471-0.6128 0.7071 (  6058 PWs)   bands (ev):

   -14.1978 -14.1977 -14.0925 -14.0652 -13.9958 -13.9703 -13.9374 -13.9101
   -13.8024 -13.8023  -0.1495   0.5389   5.1253   5.1640   8.5120   8.6746
     9.3115   9.3135

     occupation numbers 
     1.0000   1.0000   1.0000   1.0000   1.0000   1.0000   1.0000   1.0000
     1.0000   1.0000   1.0000   1.0000   1.0000   1.0000   0.0000   0.0000
     0.0000   0.0000

          k = 0.0000-0.5657 0.6600 (  6072 PWs)   bands (ev):

   -14.2038 -14.1981 -14.0794 -14.0631 -13.9859 -13.9812 -13.9386 -13.9232
   -13.8018 -13.7963   0.1088   0.2824   4.8580   5.1988   8.6324   9.1760
     9.3120   9.3145

     occupation numbers 
     1.0000   1.0000   1.0000   1.0000   1.0000   1.0000   1.0000   1.0000
     1.0000   1.0000   1.0000   1.0000   1.0000   1.0000   0.0000   0.0000
     0.0000   0.0000

          k = 0.3771 0.1886-0.0000 (  6067 PWs)   bands (ev):

   -14.1883 -14.1878 -14.1279 -14.0628 -14.0314 -13.9601 -13.9069 -13.8800
   -13.8178 -13.8144  -1.6285   2.5806   5.3127   6.1839   9.2966   9.3113
     9.3491   9.4873

     occupation numbers 
     1.0000   1.0000   1.0000   1.0000   1.0000   1.0000   1.0000   1.0000
     1.0000   1.0000   1.0000   1.0000   1.0000   1.0000   0.0000   0.0000
     0.0000   0.0000

          k = 0.4243 0.2357-0.0471 (  6081 PWs)   bands (ev):

   -14.1970 -14.1912 -14.1134 -14.0535 -14.0220 -13.9680 -13.9169 -13.8961
   -13.8112 -13.8063  -1.3267   2.0422   5.0012   5.9979   9.2854   9.3118
     9.3308   9.9564

     occupation numbers 
     1.0000   1.0000   1.0000   1.0000   1.0000   1.0000   1.0000   1.0000
     1.0000   1.0000   1.0000   1.0000   1.0000   1.0000   0.0000   0.0000
     0.0000   0.0000

          k =-0.2357-0.4243 0.6128 (  6079 PWs)   bands (ev):

   -14.2036 -14.1934 -14.1007 -14.0440 -14.0179 -13.9699 -13.9288 -13.9089
   -13.8082 -13.7987  -1.0145   1.5495   4.8090   5.8393   9.2391   9.3118
     9.3190  10.2953

     occupation numbers 
     1.0000   1.0000   1.0000   1.0000   1.0000   1.0000   1.0000   1.0000
     1.0000   1.0000   1.0000   1.0000   1.0000   1.0000   0.0000   0.0000
     0.0000   0.0000

          k =-0.1886-0.3771 0.5657 (  6078 PWs)   bands (ev):

   -14.2071 -14.1945 -14.0934 -14.0360 -14.0188 -13.9672 -13.9400 -13.9149
   -13.8068 -13.7946  -0.7851   1.2228   4.7187   5.7506   9.2077   9.3118
     9.3171  10.3788

     occupation numbers 
     1.0000   1.0000   1.0000   1.0000   1.0000   1.0000   1.0000   1.0000
     1.0000   1.0000   1.0000   1.0000   1.0000   1.0000   0.0000   0.0000
     0.0000   0.0000

          k = 0.4714 0.1886-0.0000 (  6086 PWs)   bands (ev):

   -14.1959 -14.1938 -14.1157 -14.0441 -14.0049 -13.9908 -13.9246 -13.8893
   -13.8081 -13.8075  -1.1963   1.8821   5.0421   5.6732   9.2796   9.3102
     9.3181   9.5627

     occupation numbers 
     1.0000   1.0000   1.0000   1.0000   1.0000   1.0000   1.0000   1.0000
     1.0000   1.0000   1.0000   1.0000   1.0000   1.0000   0.0000   0.0000
     0.0000   0.0000

          k =-0.1886-0.4714 0.6600 (  6073 PWs)   bands (ev):

   -14.2035 -14.1967 -14.0988 -14.0337 -14.0003 -13.9940 -13.9369 -13.9064
   -13.8047 -13.7982  -0.8775   1.4283   4.7827   5.5125   9.3084   9.3120
     9.4084  10.0465

     occupation numbers 
     1.0000   1.0000   1.0000   1.0000   1.0000   1.0000   1.0000   1.0000
     1.0000   1.0000   1.0000   1.0000   1.0000   1.0000   0.0000   0.0000
     0.0000   0.0000

          k =-0.1414-0.4243 0.6128 (  6069 PWs)   bands (ev):

   -14.2089 -14.1982 -14.0857 -14.0246 -14.0012 -13.9911 -13.9493 -13.9187
   -13.8027 -13.7921  -0.5979   1.0676   4.6010   5.4361   9.3085   9.3123
     9.4254  10.5752

     occupation numbers 
     1.0000   1.0000   1.0000   1.0000   1.0000   1.0000   1.0000   1.0000
     1.0000   1.0000   1.0000   1.0000   1.0000   1.0000   0.0000   0.0000
     0.0000   0.0000

          k =-0.0943-0.3771 0.5657 (  6062 PWs)   bands (ev):

   -14.2108 -14.1987 -14.0807 -14.0222 -14.0008 -13.9885 -13.9554 -13.9232
   -13.8020 -13.7901  -0.5165   0.9692   4.5102   5.4647   9.3092   9.3124
     9.4700  10.6805

     occupation numbers 
     1.0000   1.0000   1.0000   1.0000   1.0000   1.0000   1.0000   1.0000
     1.0000   1.0000   1.0000   1.0000   1.0000   1.0000   0.0000   0.0000
     0.0000   0.0000

          k =-0.0471-0.3300 0.5185 (  6071 PWs)   bands (ev):

   -14.2090 -14.1980 -14.0850 -14.0308 -14.0032 -13.9844 -13.9467 -13.9206
   -13.8027 -13.7925  -0.7095   1.2074   4.5318   5.5890   9.3097   9.3125
     9.5297  10.6046

     occupation numbers 
     1.0000   1.0000   1.0000   1.0000   1.0000   1.0000   1.0000   1.0000
     1.0000   1.0000   1.0000   1.0000   1.0000   1.0000   0.0000   0.0000
     0.0000   0.0000

          k = 0.0000-0.2828 0.4714 (  6078 PWs)   bands (ev):

   -14.2037 -14.1958 -14.0972 -14.0431 -14.0102 -13.9783 -13.9299 -13.9118
   -13.8052 -13.7989  -1.0182   1.6102   4.6898   5.7826   9.3096   9.3124
     9.5425  10.2608

     occupation numbers 
     1.0000   1.0000   1.0000   1.0000   1.0000   1.0000   1.0000   1.0000
     1.0000   1.0000   1.0000   1.0000   1.0000   1.0000   0.0000   0.0000
     0.0000   0.0000

          k =-0.1414-0.5185 0.7071 (  6078 PWs)   bands (ev):

   -14.2012 -14.1991 -14.0986 -14.0217 -14.0215 -13.9772 -13.9470 -13.9045
   -13.8018 -13.8001  -0.6851   1.1928   4.8948   5.2728   9.1831   9.3096
     9.3140   9.4646

     occupation numbers 
     1.0000   1.0000   1.0000   1.0000   1.0000   1.0000   1.0000   1.0000
     1.0000   1.0000   1.0000   1.0000   1.0000   1.0000   0.0000   0.0000
     0.0000   0.0000

          k =-0.0943-0.4714 0.6600 (  6069 PWs)   bands (ev):

   -14.2074 -14.2011 -14.0805 -14.0251 -14.0105 -13.9727 -13.9601 -13.9220
   -13.7994 -13.7932  -0.3704   0.8265   4.6789   5.1687   9.3045   9.3119
     9.3507  10.0607

     occupation numbers 
     1.0000   1.0000   1.0000   1.0000   1.0000   1.0000   1.0000   1.0000
     1.0000   1.0000   1.0000   1.0000   1.0000   1.0000   0.0000   0.0000
     0.0000   0.0000

          k =-0.0471-0.4243 0.6128 (  6069 PWs)   bands (ev):

   -14.2115 -14.2014 -14.0715 -14.0176 -14.0033 -13.9798 -13.9691 -13.9298
   -13.7988 -13.7889  -0.2176   0.6626   4.4964   5.2135   9.3089   9.3123
     9.4216  10.8736

     occupation numbers 
     1.0000   1.0000   1.0000   1.0000   1.0000   1.0000   1.0000   1.0000
     1.0000   1.0000   1.0000   1.0000   1.0000   1.0000   0.0000   0.0000
     0.0000   0.0000

          k = 0.0000-0.3771 0.5657 (  6074 PWs)   bands (ev):

   -14.2120 -14.2005 -14.0744 -14.0140 -14.0008 -13.9892 -13.9650 -13.9276
   -13.7998 -13.7888  -0.3998   0.8640   4.4321   5.3652   9.3099   9.3125
     9.5122  11.1660

     occupation numbers 
     1.0000   1.0000   1.0000   1.0000   1.0000   1.0000   1.0000   1.0000
     1.0000   1.0000   1.0000   1.0000   1.0000   1.0000   0.0000   0.0000
     0.0000   0.0000

          k =-0.0471-0.5185 0.7071 (  6065 PWs)   bands (ev):

   -14.2035 -14.2026 -14.0766 -14.0505 -13.9970 -13.9716 -13.9501 -13.9253
   -13.7975 -13.7968  -0.1065   0.5248   4.8807   5.0062   9.1882   9.2846
     9.3140   9.3226

     occupation numbers 
     1.0000   1.0000   1.0000   1.0000   1.0000   1.0000   1.0000   1.0000
     1.0000   1.0000   1.0000   1.0000   1.0000   1.0000   0.0000   0.0000
     0.0000   0.0000

          k = 0.0000-0.4714 0.6600 (  6066 PWs)   bands (ev):

   -14.2087 -14.2028 -14.0657 -14.0429 -13.9899 -13.9812 -13.9562 -13.9352
   -13.7973 -13.7915   0.0641   0.3612   4.6585   5.0361   9.2963   9.3118
     9.3302  10.0364

     occupation numbers 
     1.0000   1.0000   1.0000   1.0000   1.0000   1.0000   1.0000   1.0000
     1.0000   1.0000   1.0000   1.0000   1.0000   1.0000   0.0000   0.0000
     0.0000   0.0000

          k =-0.1414-0.4243 0.7071 (  6052 PWs)   bands (ev):

   -14.2077 -14.2014 -14.0807 -14.0221 -14.0068 -13.9864 -13.9519 -13.9228
   -13.7992 -13.7933  -0.5569   1.0474   4.6049   5.2799   9.3106   9.3127
     9.9792  10.1426

     occupation numbers 
     1.0000   1.0000   1.0000   1.0000   1.0000   1.0000   1.0000   1.0000
     1.0000   1.0000   1.0000   1.0000   1.0000   1.0000   0.0000   0.0000
     0.0000   0.0000

          k =-0.0943-0.3771 0.6600 (  6065 PWs)   bands (ev):

   -14.2108 -14.2032 -14.0681 -14.0153 -14.0077 -13.9817 -13.9651 -13.9330
   -13.7971 -13.7898  -0.2888   0.7468   4.5253   5.1374   9.3107   9.3128
    10.0219  10.6167

     occupation numbers 
     1.0000   1.0000   1.0000   1.0000   1.0000   1.0000   1.0000   1.0000
     1.0000   1.0000   1.0000   1.0000   1.0000   1.0000   0.0000   0.0000
     0.0000   0.0000

          k =-0.0471-0.4243 0.7071 (  6065 PWs)   bands (ev):

   -14.2085 -14.2061 -14.0595 -14.0344 -13.9991 -13.9753 -13.9624 -13.9404
   -13.7941 -13.7918  -0.0479   0.4917   4.6729   4.9000   9.3108   9.3128
    10.1043  10.1068

     occupation numbers 
     1.0000   1.0000   1.0000   1.0000   1.0000   1.0000   1.0000   1.0000
     1.0000   1.0000   1.0000   1.0000   1.0000   1.0000   0.0000   0.0000
     0.0000   0.0000

          k =-0.0000-0.3771 0.6600 (  6051 PWs)   bands (ev):

   -14.2105 -14.2061 -14.0546 -14.0294 -13.9969 -13.9805 -13.9657 -13.9440
   -13.7940 -13.7898   0.0121   0.4353   4.5895   4.9114   9.3108   9.3128
    10.1660  10.8221

     occupation numbers 
     1.0000   1.0000   1.0000   1.0000   1.0000   1.0000   1.0000   1.0000
     1.0000   1.0000   1.0000   1.0000   1.0000   1.0000   0.0000   0.0000
     0.0000   0.0000

     the Fermi energy is     7.4217 ev

!    total energy              =    -256.22165116 Ry
     Harris-Foulkes estimate   =    -256.22165074 Ry
     estimated scf accuracy    <       0.00000093 Ry

     The total energy is the sum of the following terms:

     one-electron contribution =    -136.99478665 Ry
     hartree contribution      =      79.51822072 Ry
     xc contribution           =     -31.46608272 Ry
     ewald contribution        =    -167.27900223 Ry
     smearing contrib. (-TS)   =      -0.00000029 Ry

     convergence has been achieved in   4 iterations

     Writing output data file Sn.save
 
     init_run     :      1.23s CPU      1.56s WALL (       1 calls)
     electrons    :     21.76s CPU     24.46s WALL (       1 calls)

     Called by init_run:
     wfcinit      :      1.01s CPU      1.19s WALL (       1 calls)
     potinit      :      0.03s CPU      0.03s WALL (       1 calls)

     Called by electrons:
     c_bands      :     19.53s CPU     22.14s WALL (       5 calls)
     sum_band     :      2.19s CPU      2.24s WALL (       5 calls)
     v_of_rho     :      0.04s CPU      0.04s WALL (       5 calls)
     v_h          :      0.00s CPU      0.00s WALL (       5 calls)
     v_xc         :      0.04s CPU      0.04s WALL (       5 calls)
     mix_rho      :      0.00s CPU      0.00s WALL (       5 calls)

     Called by c_bands:
     init_us_2    :      0.14s CPU      0.16s WALL (    1320 calls)
     cegterg      :     18.73s CPU     21.27s WALL (     600 calls)

     Called by sum_band:

     Called by *egterg:
     h_psi        :     15.80s CPU     18.25s WALL (    3295 calls)
     g_psi        :      0.07s CPU      0.07s WALL (    2575 calls)
     cdiaghg      :      2.12s CPU      2.22s WALL (    3055 calls)
     cegterg:over :      0.63s CPU      0.69s WALL (    2575 calls)
     cegterg:upda :      0.26s CPU      0.27s WALL (    2575 calls)
     cegterg:last :      0.13s CPU      0.14s WALL (     840 calls)

     Called by h_psi:
     h_psi:vloc   :     15.14s CPU     17.50s WALL (    3295 calls)
     h_psi:vnl    :      0.61s CPU      0.70s WALL (    3295 calls)
     add_vuspsi   :      0.20s CPU      0.23s WALL (    3295 calls)

     General routines
     calbec       :      0.40s CPU      0.46s WALL (    3295 calls)
     fft          :      0.04s CPU      0.06s WALL (      56 calls)
     fftw         :     15.89s CPU     18.13s WALL (   90784 calls)
     davcio       :      0.00s CPU      0.07s WALL (     120 calls)
 
     Parallel routines
     fft_scatter  :      6.75s CPU      7.70s WALL (   90840 calls)
 
     PWSCF        :    23.19s CPU        26.52s WALL

 
   This run was terminated on:  12:19:38   2Mar2020            

=------------------------------------------------------------------------------=
   JOB DONE.
=------------------------------------------------------------------------------=
