
     Program PWSCF v.5.4.0 starts on 16Mar2020 at 22:54:38 

     This program is part of the open-source Quantum ESPRESSO suite
     for quantum simulation of materials; please cite
         "P. Giannozzi et al., J. Phys.:Condens. Matter 21 395502 (2009);
          URL http://www.quantum-espresso.org", 
     in publications or presentations arising from this work. More details at
     http://www.quantum-espresso.org/quote

     Parallel version (MPI & OpenMP), running on      16 processor cores
     Number of MPI processes:                16
     Threads/MPI process:                     1
     R & G space division:  proc/nbgrp/npool/nimage =      16
     Waiting for input...
     Reading input from standard input
Warning: card &IONS ignored
Warning: card / ignored
Warning: card &CELL ignored
Warning: card / ignored

     Current dimensions of program PWSCF are:
     Max number of different atomic species (ntypx) = 10
     Max number of k-points (npk) =  40000
     Max angular momentum in pseudopotentials (lmaxx) =  3
               file Sn.rel-pbesol-dn-kjpaw_psl.1.0.0.UPF: wavefunction(s)  5S 5P 5P 4D 4D renormalized

     Subspace diagonalization in iterative solution of the eigenvalue problem:
     a serial algorithm will be used

 
     Parallelization info
     --------------------
     sticks:   dense  smooth     PW     G-vecs:    dense   smooth      PW
     Min         109     109     31                 3022     3022     473
     Max         111     111     32                 3024     3024     477
     Sum        1759    1759    511                48359    48359    7583
 

     Title: 
     Sn                                                                         


     bravais-lattice index     =            0
     lattice parameter (alat)  =       8.9127  a.u.
     unit-cell volume          =     500.6268 (a.u.)^3
     number of atoms/cell      =            2
     number of atomic types    =            1
     number of electrons       =        28.00
     number of Kohn-Sham states=           36
     kinetic-energy cutoff     =      80.0000  Ry
     charge density cutoff     =     320.0000  Ry
     convergence threshold     =      1.0E-06
     mixing beta               =       0.7000
     number of iterations used =            8  plain     mixing
     Exchange-correlation      =  SLA  PW   PSX  PSC ( 1  4 10  8 0 0)
     Non magnetic calculation with spin-orbit


     celldm(1)=   8.912709  celldm(2)=   0.000000  celldm(3)=   0.000000
     celldm(4)=   0.000000  celldm(5)=   0.000000  celldm(6)=   0.000000

     crystal axes: (cart. coord. in units of alat)
               a(1) = (   0.000000   0.707107   0.707107 )  
               a(2) = (   0.707107   0.000000   0.707107 )  
               a(3) = (   0.707107   0.707107   0.000000 )  

     reciprocal axes: (cart. coord. in units 2 pi/alat)
               b(1) = ( -0.707107  0.707107  0.707107 )  
               b(2) = (  0.707107 -0.707107  0.707107 )  
               b(3) = (  0.707107  0.707107 -0.707107 )  


     PseudoPot. # 1 for Sn read from file:
     ../PseudopotentialDatabase/Sn.rel-pbesol-dn-kjpaw_psl.1.0.0.UPF
     MD5 check sum: e69eff64f15ae39ad43ef58bacbfdf88
     Pseudo is Projector augmented-wave + core cor, Zval = 14.0
     Generated using "atomic" code by A. Dal Corso  v.6.3
     Shape of augmentation charge: PSQ
     Using radial grid of 1243 points, 10 beta functions with: 
                l(1) =   0
                l(2) =   0
                l(3) =   1
                l(4) =   1
                l(5) =   1
                l(6) =   1
                l(7) =   2
                l(8) =   2
                l(9) =   2
               l(10) =   2
     Q(r) pseudized with 0 coefficients 


     atomic species   valence    mass     pseudopotential
        Sn            14.00   118.71000     Sn( 1.00)

     24 Sym. Ops. (no inversion) found
          (note: 24 additional sym.ops. were found but ignored
           their fractional translations are incommensurate with FFT grid)

                                    s                        frac. trans.

      isym =  1     identity                                     

 cryst.   s( 1) = (     1          0          0      )
                  (     0          1          0      )
                  (     0          0          1      )

 cart.    s( 1) = (  1.0000000  0.0000000  0.0000000 )
                  (  0.0000000  1.0000000  0.0000000 )
                  (  0.0000000  0.0000000  1.0000000 )


      isym =  2     180 deg rotation - cart. axis [0,0,1]        

 cryst.   s( 2) = (     0          1         -1      )
                  (     1          0         -1      )
                  (     0          0         -1      )

 cart.    s( 2) = ( -1.0000000  0.0000000  0.0000000 )
                  (  0.0000000 -1.0000000  0.0000000 )
                  (  0.0000000  0.0000000  1.0000000 )


      isym =  3     180 deg rotation - cart. axis [0,1,0]        

 cryst.   s( 3) = (     0         -1          1      )
                  (     0         -1          0      )
                  (     1         -1          0      )

 cart.    s( 3) = ( -1.0000000  0.0000000  0.0000000 )
                  (  0.0000000  1.0000000  0.0000000 )
                  (  0.0000000  0.0000000 -1.0000000 )


      isym =  4     180 deg rotation - cart. axis [1,0,0]        

 cryst.   s( 4) = (    -1          0          0      )
                  (    -1          0          1      )
                  (    -1          1          0      )

 cart.    s( 4) = (  1.0000000  0.0000000  0.0000000 )
                  (  0.0000000 -1.0000000  0.0000000 )
                  (  0.0000000  0.0000000 -1.0000000 )


      isym =  5     120 deg rotation - cart. axis [-1,-1,-1]     

 cryst.   s( 5) = (     0          0          1      )
                  (     1          0          0      )
                  (     0          1          0      )

 cart.    s( 5) = (  0.0000000  1.0000000  0.0000000 )
                  (  0.0000000  0.0000000  1.0000000 )
                  (  1.0000000  0.0000000  0.0000000 )


      isym =  6     120 deg rotation - cart. axis [-1,1,1]       

 cryst.   s( 6) = (     1         -1          0      )
                  (     0         -1          1      )
                  (     0         -1          0      )

 cart.    s( 6) = (  0.0000000 -1.0000000  0.0000000 )
                  (  0.0000000  0.0000000  1.0000000 )
                  ( -1.0000000  0.0000000  0.0000000 )


      isym =  7     120 deg rotation - cart. axis [1,1,-1]       

 cryst.   s( 7) = (    -1          1          0      )
                  (    -1          0          0      )
                  (    -1          0          1      )

 cart.    s( 7) = (  0.0000000  1.0000000  0.0000000 )
                  (  0.0000000  0.0000000 -1.0000000 )
                  ( -1.0000000  0.0000000  0.0000000 )


      isym =  8     120 deg rotation - cart. axis [1,-1,1]       

 cryst.   s( 8) = (     0          0         -1      )
                  (     0          1         -1      )
                  (     1          0         -1      )

 cart.    s( 8) = (  0.0000000 -1.0000000  0.0000000 )
                  (  0.0000000  0.0000000 -1.0000000 )
                  (  1.0000000  0.0000000  0.0000000 )


      isym =  9     120 deg rotation - cart. axis [1,1,1]        

 cryst.   s( 9) = (     0          1          0      )
                  (     0          0          1      )
                  (     1          0          0      )

 cart.    s( 9) = (  0.0000000  0.0000000  1.0000000 )
                  (  1.0000000  0.0000000  0.0000000 )
                  (  0.0000000  1.0000000  0.0000000 )


      isym = 10     120 deg rotation - cart. axis [-1,1,-1]      

 cryst.   s(10) = (    -1          0          1      )
                  (    -1          1          0      )
                  (    -1          0          0      )

 cart.    s(10) = (  0.0000000  0.0000000  1.0000000 )
                  ( -1.0000000  0.0000000  0.0000000 )
                  (  0.0000000 -1.0000000  0.0000000 )


      isym = 11     120 deg rotation - cart. axis [1,-1,-1]      

 cryst.   s(11) = (     1          0         -1      )
                  (     0          0         -1      )
                  (     0          1         -1      )

 cart.    s(11) = (  0.0000000  0.0000000 -1.0000000 )
                  ( -1.0000000  0.0000000  0.0000000 )
                  (  0.0000000  1.0000000  0.0000000 )


      isym = 12     120 deg rotation - cart. axis [-1,-1,1]      

 cryst.   s(12) = (     0         -1          0      )
                  (     1         -1          0      )
                  (     0         -1          1      )

 cart.    s(12) = (  0.0000000  0.0000000 -1.0000000 )
                  (  1.0000000  0.0000000  0.0000000 )
                  (  0.0000000 -1.0000000  0.0000000 )


      isym = 13     inv. 180 deg rotation - cart. axis [1,1,0]   

 cryst.   s(13) = (     1          0         -1      )
                  (     0          1         -1      )
                  (     0          0         -1      )

 cart.    s(13) = (  0.0000000 -1.0000000  0.0000000 )
                  ( -1.0000000  0.0000000  0.0000000 )
                  (  0.0000000  0.0000000  1.0000000 )


      isym = 14     inv. 180 deg rotation - cart. axis [1,-1,0]  

 cryst.   s(14) = (     0          1          0      )
                  (     1          0          0      )
                  (     0          0          1      )

 cart.    s(14) = (  0.0000000  1.0000000  0.0000000 )
                  (  1.0000000  0.0000000  0.0000000 )
                  (  0.0000000  0.0000000  1.0000000 )


      isym = 15     inv.  90 deg rotation - cart. axis [0,0,-1]  

 cryst.   s(15) = (     0         -1          0      )
                  (     0         -1          1      )
                  (     1         -1          0      )

 cart.    s(15) = (  0.0000000 -1.0000000  0.0000000 )
                  (  1.0000000  0.0000000  0.0000000 )
                  (  0.0000000  0.0000000 -1.0000000 )


      isym = 16     inv.  90 deg rotation - cart. axis [0,0,1]   

 cryst.   s(16) = (    -1          0          1      )
                  (    -1          0          0      )
                  (    -1          1          0      )

 cart.    s(16) = (  0.0000000  1.0000000  0.0000000 )
                  ( -1.0000000  0.0000000  0.0000000 )
                  (  0.0000000  0.0000000 -1.0000000 )


      isym = 17     inv. 180 deg rotation - cart. axis [1,0,1]   

 cryst.   s(17) = (     1         -1          0      )
                  (     0         -1          0      )
                  (     0         -1          1      )

 cart.    s(17) = (  0.0000000  0.0000000 -1.0000000 )
                  (  0.0000000  1.0000000  0.0000000 )
                  ( -1.0000000  0.0000000  0.0000000 )


      isym = 18     inv. 180 deg rotation - cart. axis [-1,0,1]  

 cryst.   s(18) = (     0          0          1      )
                  (     0          1          0      )
                  (     1          0          0      )

 cart.    s(18) = (  0.0000000  0.0000000  1.0000000 )
                  (  0.0000000  1.0000000  0.0000000 )
                  (  1.0000000  0.0000000  0.0000000 )


      isym = 19     inv.  90 deg rotation - cart. axis [0,1,0]   

 cryst.   s(19) = (     0          0         -1      )
                  (     1          0         -1      )
                  (     0          1         -1      )

 cart.    s(19) = (  0.0000000  0.0000000 -1.0000000 )
                  (  0.0000000 -1.0000000  0.0000000 )
                  (  1.0000000  0.0000000  0.0000000 )


      isym = 20     inv.  90 deg rotation - cart. axis [0,-1,0]  

 cryst.   s(20) = (    -1          1          0      )
                  (    -1          0          1      )
                  (    -1          0          0      )

 cart.    s(20) = (  0.0000000  0.0000000  1.0000000 )
                  (  0.0000000 -1.0000000  0.0000000 )
                  ( -1.0000000  0.0000000  0.0000000 )


      isym = 21     inv. 180 deg rotation - cart. axis [0,1,1]   

 cryst.   s(21) = (    -1          0          0      )
                  (    -1          1          0      )
                  (    -1          0          1      )

 cart.    s(21) = (  1.0000000  0.0000000  0.0000000 )
                  (  0.0000000  0.0000000 -1.0000000 )
                  (  0.0000000 -1.0000000  0.0000000 )


      isym = 22     inv. 180 deg rotation - cart. axis [0,1,-1]  

 cryst.   s(22) = (     1          0          0      )
                  (     0          0          1      )
                  (     0          1          0      )

 cart.    s(22) = (  1.0000000  0.0000000  0.0000000 )
                  (  0.0000000  0.0000000  1.0000000 )
                  (  0.0000000  1.0000000  0.0000000 )


      isym = 23     inv.  90 deg rotation - cart. axis [-1,0,0]  

 cryst.   s(23) = (     0          1         -1      )
                  (     0          0         -1      )
                  (     1          0         -1      )

 cart.    s(23) = ( -1.0000000  0.0000000  0.0000000 )
                  (  0.0000000  0.0000000 -1.0000000 )
                  (  0.0000000  1.0000000  0.0000000 )


      isym = 24     inv.  90 deg rotation - cart. axis [1,0,0]   

 cryst.   s(24) = (     0         -1          1      )
                  (     1         -1          0      )
                  (     0         -1          0      )

 cart.    s(24) = ( -1.0000000  0.0000000  0.0000000 )
                  (  0.0000000  0.0000000  1.0000000 )
                  (  0.0000000 -1.0000000  0.0000000 )


   Cartesian axes

     site n.     atom                  positions (alat units)
         1           Sn  tau(   1) = (   0.0000000   0.0000000   0.0000000  )
         2           Sn  tau(   2) = (   0.3535534   0.3535534   0.3535534  )

   Crystallographic axes

     site n.     atom                  positions (cryst. coord.)
         1           Sn  tau(   1) = (  0.0000000  0.0000000  0.0000000  )
         2           Sn  tau(   2) = (  0.2500000  0.2500000  0.2500000  )

     number of k points=   145  gaussian smearing, width (Ry)=  0.0001
                       cart. coord. in units 2pi/alat
        k(    1) = (   0.0000000   0.0000000   0.0000000), wk =   0.0002441
        k(    2) = (   0.0441942   0.0441942  -0.0441942), wk =   0.0019531
        k(    3) = (   0.0883883   0.0883883  -0.0883883), wk =   0.0019531
        k(    4) = (   0.1325825   0.1325825  -0.1325825), wk =   0.0019531
        k(    5) = (   0.1767767   0.1767767  -0.1767767), wk =   0.0019531
        k(    6) = (   0.2209709   0.2209709  -0.2209709), wk =   0.0019531
        k(    7) = (   0.2651650   0.2651650  -0.2651650), wk =   0.0019531
        k(    8) = (   0.3093592   0.3093592  -0.3093592), wk =   0.0019531
        k(    9) = (  -0.3535534  -0.3535534   0.3535534), wk =   0.0009766
        k(   10) = (   0.0883883   0.0000000   0.0000000), wk =   0.0014648
        k(   11) = (   0.1325825   0.0441942  -0.0441942), wk =   0.0058594
        k(   12) = (   0.1767767   0.0883883  -0.0883883), wk =   0.0058594
        k(   13) = (   0.2209709   0.1325825  -0.1325825), wk =   0.0058594
        k(   14) = (   0.2651650   0.1767767  -0.1767767), wk =   0.0058594
        k(   15) = (   0.3093592   0.2209709  -0.2209709), wk =   0.0058594
        k(   16) = (   0.3535534   0.2651650  -0.2651650), wk =   0.0058594
        k(   17) = (  -0.3093592  -0.3977476   0.3977476), wk =   0.0058594
        k(   18) = (  -0.2651650  -0.3535534   0.3535534), wk =   0.0058594
        k(   19) = (  -0.2209709  -0.3093592   0.3093592), wk =   0.0058594
        k(   20) = (  -0.1767767  -0.2651650   0.2651650), wk =   0.0058594
        k(   21) = (  -0.1325825  -0.2209709   0.2209709), wk =   0.0058594
        k(   22) = (  -0.0883883  -0.1767767   0.1767767), wk =   0.0058594
        k(   23) = (  -0.0441942  -0.1325825   0.1325825), wk =   0.0058594
        k(   24) = (   0.0000000  -0.0883883   0.0883883), wk =   0.0029297
        k(   25) = (   0.1767767   0.0000000   0.0000000), wk =   0.0014648
        k(   26) = (   0.2209709   0.0441942  -0.0441942), wk =   0.0058594
        k(   27) = (   0.2651650   0.0883883  -0.0883883), wk =   0.0058594
        k(   28) = (   0.3093592   0.1325825  -0.1325825), wk =   0.0058594
        k(   29) = (   0.3535534   0.1767767  -0.1767767), wk =   0.0058594
        k(   30) = (   0.3977476   0.2209709  -0.2209709), wk =   0.0058594
        k(   31) = (  -0.2651650  -0.4419417   0.4419417), wk =   0.0058594
        k(   32) = (  -0.2209709  -0.3977476   0.3977476), wk =   0.0058594
        k(   33) = (  -0.1767767  -0.3535534   0.3535534), wk =   0.0058594
        k(   34) = (  -0.1325825  -0.3093592   0.3093592), wk =   0.0058594
        k(   35) = (  -0.0883883  -0.2651650   0.2651650), wk =   0.0058594
        k(   36) = (  -0.0441942  -0.2209709   0.2209709), wk =   0.0058594
        k(   37) = (   0.0000000  -0.1767767   0.1767767), wk =   0.0029297
        k(   38) = (   0.2651650   0.0000000   0.0000000), wk =   0.0014648
        k(   39) = (   0.3093592   0.0441942  -0.0441942), wk =   0.0058594
        k(   40) = (   0.3535534   0.0883883  -0.0883883), wk =   0.0058594
        k(   41) = (   0.3977476   0.1325825  -0.1325825), wk =   0.0058594
        k(   42) = (   0.4419417   0.1767767  -0.1767767), wk =   0.0058594
        k(   43) = (  -0.2209709  -0.4861359   0.4861359), wk =   0.0058594
        k(   44) = (  -0.1767767  -0.4419417   0.4419417), wk =   0.0058594
        k(   45) = (  -0.1325825  -0.3977476   0.3977476), wk =   0.0058594
        k(   46) = (  -0.0883883  -0.3535534   0.3535534), wk =   0.0058594
        k(   47) = (  -0.0441942  -0.3093592   0.3093592), wk =   0.0058594
        k(   48) = (   0.0000000  -0.2651650   0.2651650), wk =   0.0029297
        k(   49) = (   0.3535534   0.0000000   0.0000000), wk =   0.0014648
        k(   50) = (   0.3977476   0.0441942  -0.0441942), wk =   0.0058594
        k(   51) = (   0.4419417   0.0883883  -0.0883883), wk =   0.0058594
        k(   52) = (   0.4861359   0.1325825  -0.1325825), wk =   0.0058594
        k(   53) = (  -0.1767767  -0.5303301   0.5303301), wk =   0.0058594
        k(   54) = (  -0.1325825  -0.4861359   0.4861359), wk =   0.0058594
        k(   55) = (  -0.0883883  -0.4419417   0.4419417), wk =   0.0058594
        k(   56) = (  -0.0441942  -0.3977476   0.3977476), wk =   0.0058594
        k(   57) = (   0.0000000  -0.3535534   0.3535534), wk =   0.0029297
        k(   58) = (   0.4419417   0.0000000   0.0000000), wk =   0.0014648
        k(   59) = (   0.4861359   0.0441942  -0.0441942), wk =   0.0058594
        k(   60) = (   0.5303301   0.0883883  -0.0883883), wk =   0.0058594
        k(   61) = (  -0.1325825  -0.5745243   0.5745243), wk =   0.0058594
        k(   62) = (  -0.0883883  -0.5303301   0.5303301), wk =   0.0058594
        k(   63) = (  -0.0441942  -0.4861359   0.4861359), wk =   0.0058594
        k(   64) = (   0.0000000  -0.4419417   0.4419417), wk =   0.0029297
        k(   65) = (   0.5303301   0.0000000   0.0000000), wk =   0.0014648
        k(   66) = (   0.5745243   0.0441942  -0.0441942), wk =   0.0058594
        k(   67) = (  -0.0883883  -0.6187184   0.6187184), wk =   0.0058594
        k(   68) = (  -0.0441942  -0.5745243   0.5745243), wk =   0.0058594
        k(   69) = (   0.0000000  -0.5303301   0.5303301), wk =   0.0029297
        k(   70) = (   0.6187184   0.0000000   0.0000000), wk =   0.0014648
        k(   71) = (  -0.0441942  -0.6629126   0.6629126), wk =   0.0058594
        k(   72) = (   0.0000000  -0.6187184   0.6187184), wk =   0.0029297
        k(   73) = (  -0.7071068   0.0000000   0.0000000), wk =   0.0007324
        k(   74) = (   0.1767767   0.0883883   0.0000000), wk =   0.0058594
        k(   75) = (   0.2209709   0.1325825  -0.0441942), wk =   0.0117188
        k(   76) = (   0.2651650   0.1767767  -0.0883883), wk =   0.0117188
        k(   77) = (   0.3093592   0.2209709  -0.1325825), wk =   0.0117188
        k(   78) = (   0.3535534   0.2651650  -0.1767767), wk =   0.0117188
        k(   79) = (  -0.3093592  -0.3977476   0.4861359), wk =   0.0117188
        k(   80) = (  -0.2651650  -0.3535534   0.4419417), wk =   0.0058594
        k(   81) = (   0.2651650   0.0883883   0.0000000), wk =   0.0058594
        k(   82) = (   0.3093592   0.1325825  -0.0441942), wk =   0.0117188
        k(   83) = (   0.3535534   0.1767767  -0.0883883), wk =   0.0117188
        k(   84) = (   0.3977476   0.2209709  -0.1325825), wk =   0.0117188
        k(   85) = (  -0.2651650  -0.4419417   0.5303301), wk =   0.0117188
        k(   86) = (  -0.2209709  -0.3977476   0.4861359), wk =   0.0117188
        k(   87) = (  -0.1767767  -0.3535534   0.4419417), wk =   0.0117188
        k(   88) = (  -0.1325825  -0.3093592   0.3977476), wk =   0.0117188
        k(   89) = (  -0.0883883  -0.2651650   0.3535534), wk =   0.0117188
        k(   90) = (  -0.0441942  -0.2209709   0.3093592), wk =   0.0117188
        k(   91) = (   0.0000000  -0.1767767   0.2651650), wk =   0.0058594
        k(   92) = (   0.3535534   0.0883883   0.0000000), wk =   0.0058594
        k(   93) = (   0.3977476   0.1325825  -0.0441942), wk =   0.0117188
        k(   94) = (   0.4419417   0.1767767  -0.0883883), wk =   0.0117188
        k(   95) = (  -0.2209709  -0.4861359   0.5745243), wk =   0.0117188
        k(   96) = (  -0.1767767  -0.4419417   0.5303301), wk =   0.0117188
        k(   97) = (  -0.1325825  -0.3977476   0.4861359), wk =   0.0117188
        k(   98) = (  -0.0883883  -0.3535534   0.4419417), wk =   0.0117188
        k(   99) = (  -0.0441942  -0.3093592   0.3977476), wk =   0.0117188
        k(  100) = (   0.0000000  -0.2651650   0.3535534), wk =   0.0058594
        k(  101) = (   0.4419417   0.0883883   0.0000000), wk =   0.0058594
        k(  102) = (   0.4861359   0.1325825  -0.0441942), wk =   0.0117188
        k(  103) = (  -0.1767767  -0.5303301   0.6187184), wk =   0.0117188
        k(  104) = (  -0.1325825  -0.4861359   0.5745243), wk =   0.0117188
        k(  105) = (  -0.0883883  -0.4419417   0.5303301), wk =   0.0117188
        k(  106) = (  -0.0441942  -0.3977476   0.4861359), wk =   0.0117188
        k(  107) = (   0.0000000  -0.3535534   0.4419417), wk =   0.0058594
        k(  108) = (   0.5303301   0.0883883   0.0000000), wk =   0.0058594
        k(  109) = (  -0.1325825  -0.5745243   0.6629126), wk =   0.0117188
        k(  110) = (  -0.0883883  -0.5303301   0.6187184), wk =   0.0117188
        k(  111) = (  -0.0441942  -0.4861359   0.5745243), wk =   0.0117188
        k(  112) = (   0.0000000  -0.4419417   0.5303301), wk =   0.0058594
        k(  113) = (  -0.0883883  -0.6187184   0.7071068), wk =   0.0058594
        k(  114) = (  -0.0441942  -0.5745243   0.6629126), wk =   0.0117188
        k(  115) = (  -0.0000000  -0.5303301   0.6187184), wk =   0.0058594
        k(  116) = (  -0.7071068   0.0883883   0.0000000), wk =   0.0029297
        k(  117) = (   0.3535534   0.1767767   0.0000000), wk =   0.0058594
        k(  118) = (   0.3977476   0.2209709  -0.0441942), wk =   0.0117188
        k(  119) = (  -0.2651650  -0.4419417   0.6187184), wk =   0.0117188
        k(  120) = (  -0.2209709  -0.3977476   0.5745243), wk =   0.0117188
        k(  121) = (  -0.1767767  -0.3535534   0.5303301), wk =   0.0058594
        k(  122) = (   0.4419417   0.1767767   0.0000000), wk =   0.0058594
        k(  123) = (  -0.2209709  -0.4861359   0.6629126), wk =   0.0117188
        k(  124) = (  -0.1767767  -0.4419417   0.6187184), wk =   0.0117188
        k(  125) = (  -0.1325825  -0.3977476   0.5745243), wk =   0.0117188
        k(  126) = (  -0.0883883  -0.3535534   0.5303301), wk =   0.0117188
        k(  127) = (  -0.0441942  -0.3093592   0.4861359), wk =   0.0117188
        k(  128) = (   0.0000000  -0.2651650   0.4419417), wk =   0.0058594
        k(  129) = (  -0.1767767  -0.5303301   0.7071068), wk =   0.0058594
        k(  130) = (  -0.1325825  -0.4861359   0.6629126), wk =   0.0117188
        k(  131) = (  -0.0883883  -0.4419417   0.6187184), wk =   0.0117188
        k(  132) = (  -0.0441942  -0.3977476   0.5745243), wk =   0.0117188
        k(  133) = (   0.0000000  -0.3535534   0.5303301), wk =   0.0058594
        k(  134) = (  -0.0883883  -0.5303301   0.7071068), wk =   0.0058594
        k(  135) = (  -0.0441942  -0.4861359   0.6629126), wk =   0.0117188
        k(  136) = (   0.0000000  -0.4419417   0.6187184), wk =   0.0058594
        k(  137) = (  -0.7071068   0.1767767   0.0000000), wk =   0.0029297
        k(  138) = (  -0.1767767  -0.4419417   0.7071068), wk =   0.0058594
        k(  139) = (  -0.1325825  -0.3977476   0.6629126), wk =   0.0117188
        k(  140) = (  -0.0883883  -0.3535534   0.6187184), wk =   0.0058594
        k(  141) = (  -0.0883883  -0.4419417   0.7071068), wk =   0.0058594
        k(  142) = (  -0.0441942  -0.3977476   0.6629126), wk =   0.0117188
        k(  143) = (  -0.0000000  -0.3535534   0.6187184), wk =   0.0058594
        k(  144) = (  -0.7071068   0.2651650   0.0000000), wk =   0.0029297
        k(  145) = (  -0.7071068   0.3535534   0.0000000), wk =   0.0014648

                       cryst. coord.
        k(    1) = (   0.0000000   0.0000000   0.0000000), wk =   0.0002441
        k(    2) = (   0.0000000   0.0000000   0.0625000), wk =   0.0019531
        k(    3) = (   0.0000000   0.0000000   0.1250000), wk =   0.0019531
        k(    4) = (   0.0000000   0.0000000   0.1875000), wk =   0.0019531
        k(    5) = (   0.0000000   0.0000000   0.2500000), wk =   0.0019531
        k(    6) = (   0.0000000   0.0000000   0.3125000), wk =   0.0019531
        k(    7) = (   0.0000000   0.0000000   0.3750000), wk =   0.0019531
        k(    8) = (   0.0000000   0.0000000   0.4375000), wk =   0.0019531
        k(    9) = (   0.0000000   0.0000000  -0.5000000), wk =   0.0009766
        k(   10) = (   0.0000000   0.0625000   0.0625000), wk =   0.0014648
        k(   11) = (   0.0000000   0.0625000   0.1250000), wk =   0.0058594
        k(   12) = (   0.0000000   0.0625000   0.1875000), wk =   0.0058594
        k(   13) = (   0.0000000   0.0625000   0.2500000), wk =   0.0058594
        k(   14) = (   0.0000000   0.0625000   0.3125000), wk =   0.0058594
        k(   15) = (   0.0000000   0.0625000   0.3750000), wk =   0.0058594
        k(   16) = (   0.0000000   0.0625000   0.4375000), wk =   0.0058594
        k(   17) = (   0.0000000   0.0625000  -0.5000000), wk =   0.0058594
        k(   18) = (   0.0000000   0.0625000  -0.4375000), wk =   0.0058594
        k(   19) = (   0.0000000   0.0625000  -0.3750000), wk =   0.0058594
        k(   20) = (   0.0000000   0.0625000  -0.3125000), wk =   0.0058594
        k(   21) = (   0.0000000   0.0625000  -0.2500000), wk =   0.0058594
        k(   22) = (   0.0000000   0.0625000  -0.1875000), wk =   0.0058594
        k(   23) = (   0.0000000   0.0625000  -0.1250000), wk =   0.0058594
        k(   24) = (   0.0000000   0.0625000  -0.0625000), wk =   0.0029297
        k(   25) = (   0.0000000   0.1250000   0.1250000), wk =   0.0014648
        k(   26) = (   0.0000000   0.1250000   0.1875000), wk =   0.0058594
        k(   27) = (   0.0000000   0.1250000   0.2500000), wk =   0.0058594
        k(   28) = (   0.0000000   0.1250000   0.3125000), wk =   0.0058594
        k(   29) = (   0.0000000   0.1250000   0.3750000), wk =   0.0058594
        k(   30) = (   0.0000000   0.1250000   0.4375000), wk =   0.0058594
        k(   31) = (   0.0000000   0.1250000  -0.5000000), wk =   0.0058594
        k(   32) = (   0.0000000   0.1250000  -0.4375000), wk =   0.0058594
        k(   33) = (   0.0000000   0.1250000  -0.3750000), wk =   0.0058594
        k(   34) = (   0.0000000   0.1250000  -0.3125000), wk =   0.0058594
        k(   35) = (   0.0000000   0.1250000  -0.2500000), wk =   0.0058594
        k(   36) = (   0.0000000   0.1250000  -0.1875000), wk =   0.0058594
        k(   37) = (   0.0000000   0.1250000  -0.1250000), wk =   0.0029297
        k(   38) = (   0.0000000   0.1875000   0.1875000), wk =   0.0014648
        k(   39) = (   0.0000000   0.1875000   0.2500000), wk =   0.0058594
        k(   40) = (   0.0000000   0.1875000   0.3125000), wk =   0.0058594
        k(   41) = (   0.0000000   0.1875000   0.3750000), wk =   0.0058594
        k(   42) = (   0.0000000   0.1875000   0.4375000), wk =   0.0058594
        k(   43) = (   0.0000000   0.1875000  -0.5000000), wk =   0.0058594
        k(   44) = (   0.0000000   0.1875000  -0.4375000), wk =   0.0058594
        k(   45) = (   0.0000000   0.1875000  -0.3750000), wk =   0.0058594
        k(   46) = (   0.0000000   0.1875000  -0.3125000), wk =   0.0058594
        k(   47) = (   0.0000000   0.1875000  -0.2500000), wk =   0.0058594
        k(   48) = (   0.0000000   0.1875000  -0.1875000), wk =   0.0029297
        k(   49) = (   0.0000000   0.2500000   0.2500000), wk =   0.0014648
        k(   50) = (   0.0000000   0.2500000   0.3125000), wk =   0.0058594
        k(   51) = (   0.0000000   0.2500000   0.3750000), wk =   0.0058594
        k(   52) = (   0.0000000   0.2500000   0.4375000), wk =   0.0058594
        k(   53) = (   0.0000000   0.2500000  -0.5000000), wk =   0.0058594
        k(   54) = (   0.0000000   0.2500000  -0.4375000), wk =   0.0058594
        k(   55) = (   0.0000000   0.2500000  -0.3750000), wk =   0.0058594
        k(   56) = (   0.0000000   0.2500000  -0.3125000), wk =   0.0058594
        k(   57) = (   0.0000000   0.2500000  -0.2500000), wk =   0.0029297
        k(   58) = (   0.0000000   0.3125000   0.3125000), wk =   0.0014648
        k(   59) = (   0.0000000   0.3125000   0.3750000), wk =   0.0058594
        k(   60) = (   0.0000000   0.3125000   0.4375000), wk =   0.0058594
        k(   61) = (   0.0000000   0.3125000  -0.5000000), wk =   0.0058594
        k(   62) = (   0.0000000   0.3125000  -0.4375000), wk =   0.0058594
        k(   63) = (   0.0000000   0.3125000  -0.3750000), wk =   0.0058594
        k(   64) = (   0.0000000   0.3125000  -0.3125000), wk =   0.0029297
        k(   65) = (   0.0000000   0.3750000   0.3750000), wk =   0.0014648
        k(   66) = (   0.0000000   0.3750000   0.4375000), wk =   0.0058594
        k(   67) = (   0.0000000   0.3750000  -0.5000000), wk =   0.0058594
        k(   68) = (   0.0000000   0.3750000  -0.4375000), wk =   0.0058594
        k(   69) = (   0.0000000   0.3750000  -0.3750000), wk =   0.0029297
        k(   70) = (   0.0000000   0.4375000   0.4375000), wk =   0.0014648
        k(   71) = (   0.0000000   0.4375000  -0.5000000), wk =   0.0058594
        k(   72) = (   0.0000000   0.4375000  -0.4375000), wk =   0.0029297
        k(   73) = (   0.0000000  -0.5000000  -0.5000000), wk =   0.0007324
        k(   74) = (   0.0625000   0.1250000   0.1875000), wk =   0.0058594
        k(   75) = (   0.0625000   0.1250000   0.2500000), wk =   0.0117188
        k(   76) = (   0.0625000   0.1250000   0.3125000), wk =   0.0117188
        k(   77) = (   0.0625000   0.1250000   0.3750000), wk =   0.0117188
        k(   78) = (   0.0625000   0.1250000   0.4375000), wk =   0.0117188
        k(   79) = (   0.0625000   0.1250000  -0.5000000), wk =   0.0117188
        k(   80) = (   0.0625000   0.1250000  -0.4375000), wk =   0.0058594
        k(   81) = (   0.0625000   0.1875000   0.2500000), wk =   0.0058594
        k(   82) = (   0.0625000   0.1875000   0.3125000), wk =   0.0117188
        k(   83) = (   0.0625000   0.1875000   0.3750000), wk =   0.0117188
        k(   84) = (   0.0625000   0.1875000   0.4375000), wk =   0.0117188
        k(   85) = (   0.0625000   0.1875000  -0.5000000), wk =   0.0117188
        k(   86) = (   0.0625000   0.1875000  -0.4375000), wk =   0.0117188
        k(   87) = (   0.0625000   0.1875000  -0.3750000), wk =   0.0117188
        k(   88) = (   0.0625000   0.1875000  -0.3125000), wk =   0.0117188
        k(   89) = (   0.0625000   0.1875000  -0.2500000), wk =   0.0117188
        k(   90) = (   0.0625000   0.1875000  -0.1875000), wk =   0.0117188
        k(   91) = (   0.0625000   0.1875000  -0.1250000), wk =   0.0058594
        k(   92) = (   0.0625000   0.2500000   0.3125000), wk =   0.0058594
        k(   93) = (   0.0625000   0.2500000   0.3750000), wk =   0.0117188
        k(   94) = (   0.0625000   0.2500000   0.4375000), wk =   0.0117188
        k(   95) = (   0.0625000   0.2500000  -0.5000000), wk =   0.0117188
        k(   96) = (   0.0625000   0.2500000  -0.4375000), wk =   0.0117188
        k(   97) = (   0.0625000   0.2500000  -0.3750000), wk =   0.0117188
        k(   98) = (   0.0625000   0.2500000  -0.3125000), wk =   0.0117188
        k(   99) = (   0.0625000   0.2500000  -0.2500000), wk =   0.0117188
        k(  100) = (   0.0625000   0.2500000  -0.1875000), wk =   0.0058594
        k(  101) = (   0.0625000   0.3125000   0.3750000), wk =   0.0058594
        k(  102) = (   0.0625000   0.3125000   0.4375000), wk =   0.0117188
        k(  103) = (   0.0625000   0.3125000  -0.5000000), wk =   0.0117188
        k(  104) = (   0.0625000   0.3125000  -0.4375000), wk =   0.0117188
        k(  105) = (   0.0625000   0.3125000  -0.3750000), wk =   0.0117188
        k(  106) = (   0.0625000   0.3125000  -0.3125000), wk =   0.0117188
        k(  107) = (   0.0625000   0.3125000  -0.2500000), wk =   0.0058594
        k(  108) = (   0.0625000   0.3750000   0.4375000), wk =   0.0058594
        k(  109) = (   0.0625000   0.3750000  -0.5000000), wk =   0.0117188
        k(  110) = (   0.0625000   0.3750000  -0.4375000), wk =   0.0117188
        k(  111) = (   0.0625000   0.3750000  -0.3750000), wk =   0.0117188
        k(  112) = (   0.0625000   0.3750000  -0.3125000), wk =   0.0058594
        k(  113) = (   0.0625000   0.4375000  -0.5000000), wk =   0.0058594
        k(  114) = (   0.0625000   0.4375000  -0.4375000), wk =   0.0117188
        k(  115) = (   0.0625000   0.4375000  -0.3750000), wk =   0.0058594
        k(  116) = (   0.0625000  -0.5000000  -0.4375000), wk =   0.0029297
        k(  117) = (   0.1250000   0.2500000   0.3750000), wk =   0.0058594
        k(  118) = (   0.1250000   0.2500000   0.4375000), wk =   0.0117188
        k(  119) = (   0.1250000   0.2500000  -0.5000000), wk =   0.0117188
        k(  120) = (   0.1250000   0.2500000  -0.4375000), wk =   0.0117188
        k(  121) = (   0.1250000   0.2500000  -0.3750000), wk =   0.0058594
        k(  122) = (   0.1250000   0.3125000   0.4375000), wk =   0.0058594
        k(  123) = (   0.1250000   0.3125000  -0.5000000), wk =   0.0117188
        k(  124) = (   0.1250000   0.3125000  -0.4375000), wk =   0.0117188
        k(  125) = (   0.1250000   0.3125000  -0.3750000), wk =   0.0117188
        k(  126) = (   0.1250000   0.3125000  -0.3125000), wk =   0.0117188
        k(  127) = (   0.1250000   0.3125000  -0.2500000), wk =   0.0117188
        k(  128) = (   0.1250000   0.3125000  -0.1875000), wk =   0.0058594
        k(  129) = (   0.1250000   0.3750000  -0.5000000), wk =   0.0058594
        k(  130) = (   0.1250000   0.3750000  -0.4375000), wk =   0.0117188
        k(  131) = (   0.1250000   0.3750000  -0.3750000), wk =   0.0117188
        k(  132) = (   0.1250000   0.3750000  -0.3125000), wk =   0.0117188
        k(  133) = (   0.1250000   0.3750000  -0.2500000), wk =   0.0058594
        k(  134) = (   0.1250000   0.4375000  -0.4375000), wk =   0.0058594
        k(  135) = (   0.1250000   0.4375000  -0.3750000), wk =   0.0117188
        k(  136) = (   0.1250000   0.4375000  -0.3125000), wk =   0.0058594
        k(  137) = (   0.1250000  -0.5000000  -0.3750000), wk =   0.0029297
        k(  138) = (   0.1875000   0.3750000  -0.4375000), wk =   0.0058594
        k(  139) = (   0.1875000   0.3750000  -0.3750000), wk =   0.0117188
        k(  140) = (   0.1875000   0.3750000  -0.3125000), wk =   0.0058594
        k(  141) = (   0.1875000   0.4375000  -0.3750000), wk =   0.0058594
        k(  142) = (   0.1875000   0.4375000  -0.3125000), wk =   0.0117188
        k(  143) = (   0.1875000   0.4375000  -0.2500000), wk =   0.0058594
        k(  144) = (   0.1875000  -0.5000000  -0.3125000), wk =   0.0029297
        k(  145) = (   0.2500000  -0.5000000  -0.2500000), wk =   0.0014648

     Dense  grid:    48359 G-vectors     FFT dimensions: (  54,  54,  54)

     Largest allocated arrays     est. size (Mb)     dimensions
        Kohn-Sham Wavefunctions         0.43 Mb     (     774,   36)
        NL pseudopotentials             0.40 Mb     (     387,   68)
        Each V/rho on FFT grid          0.18 Mb     (   11664)
        Each G-vector array             0.02 Mb     (    3024)
        G-vector shells                 0.00 Mb     (     421)
     Largest temporary arrays     est. size (Mb)     dimensions
        Auxiliary wavefunctions         1.70 Mb     (     774,  144)
        Each subspace H/S matrix        0.32 Mb     (     144,  144)
        Each <psi_i|beta_j> matrix      0.07 Mb     (      68,   2,   36)
        Arrays for rho mixing           1.42 Mb     (   11664,    8)

     Initial potential from superposition of free atoms

     starting charge   27.99801, renormalised to   28.00000
     Starting wfc are   36 randomized atomic wfcs
     Checking if some PAW data can be deallocated... 

     total cpu time spent up to now is       19.0 secs

     Self-consistent Calculation

     iteration #  1     ecut=    80.00 Ry     beta=0.70
     Davidson diagonalization with overlap
     ethr =  1.00E-02,  avg # of iterations =  3.5

     Threshold (ethr) on eigenvalues was too large:
     Diagonalizing with lowered threshold

     Davidson diagonalization with overlap
     ethr =  5.60E-05,  avg # of iterations =  3.5

     total cpu time spent up to now is      123.8 secs

     total energy              =    -874.81241157 Ry
     Harris-Foulkes estimate   =    -874.81687182 Ry
     estimated scf accuracy    <       0.01837733 Ry

     iteration #  2     ecut=    80.00 Ry     beta=0.70
     Davidson diagonalization with overlap
     ethr =  6.56E-05,  avg # of iterations =  2.0

     total cpu time spent up to now is      167.7 secs

     total energy              =    -874.81337832 Ry
     Harris-Foulkes estimate   =    -874.81373445 Ry
     estimated scf accuracy    <       0.00159187 Ry

     iteration #  3     ecut=    80.00 Ry     beta=0.70
     Davidson diagonalization with overlap
     ethr =  5.69E-06,  avg # of iterations =  2.2

     total cpu time spent up to now is      222.4 secs

     total energy              =    -874.81365078 Ry
     Harris-Foulkes estimate   =    -874.81373450 Ry
     estimated scf accuracy    <       0.00012408 Ry

     iteration #  4     ecut=    80.00 Ry     beta=0.70
     Davidson diagonalization with overlap
     ethr =  4.43E-07,  avg # of iterations =  2.0

     total cpu time spent up to now is      276.1 secs

     total energy              =    -874.81369099 Ry
     Harris-Foulkes estimate   =    -874.81369421 Ry
     estimated scf accuracy    <       0.00000880 Ry

     iteration #  5     ecut=    80.00 Ry     beta=0.70
     Davidson diagonalization with overlap
     ethr =  3.14E-08,  avg # of iterations =  2.0

     total cpu time spent up to now is      322.1 secs

     End of self-consistent calculation

          k = 0.0000 0.0000 0.0000 (  5985 PWs)   bands (ev):

   -15.2399 -15.2399 -15.2399 -15.2399 -15.1592 -15.1592 -15.1592 -15.1592
   -14.3102 -14.3102 -14.1406 -14.1406 -14.1406 -14.1406 -14.1027 -14.1027
   -14.1027 -14.1027 -13.9992 -13.9992  -3.3498  -3.3498   5.5149   5.5149
     6.3931   6.3931   7.0478   7.0478   7.0478   7.0478   8.5642   8.5642
     9.0384   9.0384   9.0384   9.0384

     occupation numbers 
     1.0000   1.0000   1.0000   1.0000   1.0000   1.0000   1.0000   1.0000
     1.0000   1.0000   1.0000   1.0000   1.0000   1.0000   1.0000   1.0000
     1.0000   1.0000   1.0000   1.0000   1.0000   1.0000   1.0000   1.0000
     1.0000   1.0000   0.0000   0.0000   0.0000   0.0000   0.0000   0.0000
     0.0000   0.0000   0.0000   0.0000

          k = 0.0442 0.0442-0.0442 (  6048 PWs)   bands (ev):

   -15.2404 -15.2402 -15.2391 -15.2391 -15.1600 -15.1600 -15.1589 -15.1586
   -14.3084 -14.3084 -14.1455 -14.1455 -14.1440 -14.1434 -14.0997 -14.0991
   -14.0984 -14.0984 -14.0001 -14.0001  -3.3150  -3.3150   5.1191   5.1191
     6.4360   6.4360   6.9726   6.9726   7.0966   7.0966   8.7214   8.7214
     9.1149   9.1149   9.1358   9.1358

     occupation numbers 
     1.0000   1.0000   1.0000   1.0000   1.0000   1.0000   1.0000   1.0000
     1.0000   1.0000   1.0000   1.0000   1.0000   1.0000   1.0000   1.0000
     1.0000   1.0000   1.0000   1.0000   1.0000   1.0000   1.0000   1.0000
     1.0000   1.0000   0.0000   0.0000   0.0000   0.0000   0.0000   0.0000
     0.0000   0.0000   0.0000   0.0000

          k = 0.0884 0.0884-0.0884 (  6051 PWs)   bands (ev):

   -15.2415 -15.2411 -15.2368 -15.2368 -15.1622 -15.1622 -15.1575 -15.1570
   -14.3032 -14.3032 -14.1566 -14.1566 -14.1511 -14.1503 -14.0922 -14.0914
   -14.0894 -14.0894 -14.0029 -14.0029  -3.2114  -3.2114   4.3657   4.3657
     6.3317   6.3317   6.7900   6.7900   7.1262   7.1262   9.0499   9.0499
     9.3735   9.3735   9.4543   9.4543

     occupation numbers 
     1.0000   1.0000   1.0000   1.0000   1.0000   1.0000   1.0000   1.0000
     1.0000   1.0000   1.0000   1.0000   1.0000   1.0000   1.0000   1.0000
     1.0000   1.0000   1.0000   1.0000   1.0000   1.0000   1.0000   1.0000
     1.0000   1.0000   0.5025   0.5012   0.0000   0.0000   0.0000   0.0000
     0.0000   0.0000   0.0000   0.0000

          k = 0.1326 0.1326-0.1326 (  6048 PWs)   bands (ev):

   -15.2431 -15.2426 -15.2332 -15.2332 -15.1658 -15.1658 -15.1555 -15.1549
   -14.2951 -14.2951 -14.1697 -14.1697 -14.1591 -14.1582 -14.0834 -14.0826
   -14.0796 -14.0796 -14.0073 -14.0073  -3.0420  -3.0420   3.5420   3.5420
     6.1370   6.1370   6.5712   6.5712   7.0363   7.0363   9.3353   9.3353
     9.6473   9.6473  10.1099  10.1099

     occupation numbers 
     1.0000   1.0000   1.0000   1.0000   1.0000   1.0000   1.0000   1.0000
     1.0000   1.0000   1.0000   1.0000   1.0000   1.0000   1.0000   1.0000
     1.0000   1.0000   1.0000   1.0000   1.0000   1.0000   1.0000   1.0000
     1.0000   1.0000   1.0000   1.0000   0.0000   0.0000   0.0000   0.0000
     0.0000   0.0000   0.0000   0.0000

          k = 0.1768 0.1768-0.1768 (  6057 PWs)   bands (ev):

   -15.2447 -15.2442 -15.2284 -15.2284 -15.1704 -15.1704 -15.1532 -15.1526
   -14.2847 -14.2847 -14.1831 -14.1831 -14.1666 -14.1658 -14.0749 -14.0742
   -14.0703 -14.0703 -14.0129 -14.0129  -2.8129  -2.8129   2.7337   2.7337
     5.9370   5.9370   6.3620   6.3620   6.8903   6.8903   9.5653   9.5653
     9.8676   9.8676  10.9092  10.9092

     occupation numbers 
     1.0000   1.0000   1.0000   1.0000   1.0000   1.0000   1.0000   1.0000
     1.0000   1.0000   1.0000   1.0000   1.0000   1.0000   1.0000   1.0000
     1.0000   1.0000   1.0000   1.0000   1.0000   1.0000   1.0000   1.0000
     1.0000   1.0000   1.0000   1.0000   0.0000   0.0000   0.0000   0.0000
     0.0000   0.0000   0.0000   0.0000

          k = 0.2210 0.2210-0.2210 (  6057 PWs)   bands (ev):

   -15.2462 -15.2457 -15.2227 -15.2227 -15.1758 -15.1758 -15.1510 -15.1504
   -14.2729 -14.2729 -14.1964 -14.1964 -14.1728 -14.1721 -14.0675 -14.0670
   -14.0618 -14.0618 -14.0194 -14.0194  -2.5374  -2.5374   1.9872   1.9872
     5.7650   5.7650   6.1858   6.1859   6.7467   6.7467   9.7127   9.7127
     9.9901   9.9901  11.7647  11.7647

     occupation numbers 
     1.0000   1.0000   1.0000   1.0000   1.0000   1.0000   1.0000   1.0000
     1.0000   1.0000   1.0000   1.0000   1.0000   1.0000   1.0000   1.0000
     1.0000   1.0000   1.0000   1.0000   1.0000   1.0000   1.0000   1.0000
     1.0000   1.0000   1.0000   1.0000   1.0000   1.0000   0.0000   0.0000
     0.0000   0.0000   0.0000   0.0000

          k = 0.2652 0.2652-0.2652 (  6077 PWs)   bands (ev):

   -15.2473 -15.2469 -15.2167 -15.2167 -15.1817 -15.1817 -15.1492 -15.1487
   -14.2605 -14.2605 -14.2091 -14.2091 -14.1774 -14.1769 -14.0619 -14.0615
   -14.0541 -14.0541 -14.0262 -14.0262  -2.2433  -2.2433   1.3475   1.3475
     5.6358   5.6358   6.0545   6.0545   6.6333   6.6333   9.7804   9.7804
    10.0300  10.0300  12.3873  12.3873

     occupation numbers 
     1.0000   1.0000   1.0000   1.0000   1.0000   1.0000   1.0000   1.0000
     1.0000   1.0000   1.0000   1.0000   1.0000   1.0000   1.0000   1.0000
     1.0000   1.0000   1.0000   1.0000   1.0000   1.0000   1.0000   1.0000
     1.0000   1.0000   1.0000   1.0000   1.0000   1.0000   0.0000   0.0000
     0.0000   0.0000   0.0000   0.0000

          k = 0.3094 0.3094-0.3094 (  6056 PWs)   bands (ev):

   -15.2479 -15.2478 -15.2113 -15.2113 -15.1870 -15.1870 -15.1479 -15.1477
   -14.2483 -14.2483 -14.2212 -14.2212 -14.1801 -14.1799 -14.0583 -14.0581
   -14.0472 -14.0472 -14.0330 -14.0330  -1.9908  -1.9908   0.8846   0.8846
     5.5561   5.5561   5.9738   5.9738   6.5621   6.5621   9.8008   9.8008
    10.0310  10.0310  12.3804  12.3805

     occupation numbers 
     1.0000   1.0000   1.0000   1.0000   1.0000   1.0000   1.0000   1.0000
     1.0000   1.0000   1.0000   1.0000   1.0000   1.0000   1.0000   1.0000
     1.0000   1.0000   1.0000   1.0000   1.0000   1.0000   1.0000   1.0000
     1.0000   1.0000   1.0000   1.0000   1.0000   1.0000   0.0000   0.0000
     0.0000   0.0000   0.0000   0.0000

          k =-0.3536-0.3536 0.3536 (  6062 PWs)   bands (ev):

   -15.2481 -15.2481 -15.2087 -15.2087 -15.1895 -15.1895 -15.1474 -15.1474
   -14.2399 -14.2399 -14.2295 -14.2295 -14.1810 -14.1810 -14.0570 -14.0570
   -14.0419 -14.0419 -14.0383 -14.0383  -1.8840  -1.8840   0.7070   0.7070
     5.5292   5.5292   5.9467   5.9467   6.5380   6.5380   9.8039   9.8039
    10.0273  10.0273  12.3517  12.3517

     occupation numbers 
     1.0000   1.0000   1.0000   1.0000   1.0000   1.0000   1.0000   1.0000
     1.0000   1.0000   1.0000   1.0000   1.0000   1.0000   1.0000   1.0000
     1.0000   1.0000   1.0000   1.0000   1.0000   1.0000   1.0000   1.0000
     1.0000   1.0000   1.0000   1.0000   1.0000   1.0000   0.0000   0.0000
     0.0000   0.0000   0.0000   0.0000

          k = 0.0884 0.0000 0.0000 (  6038 PWs)   bands (ev):

   -15.2400 -15.2400 -15.2393 -15.2393 -15.1599 -15.1599 -15.1588 -15.1588
   -14.3078 -14.3078 -14.1480 -14.1480 -14.1435 -14.1435 -14.0987 -14.0987
   -14.0970 -14.0970 -14.0004 -14.0004  -3.3034  -3.3034   5.0393   5.0393
     6.3697   6.3697   6.7900   6.7900   7.3536   7.3536   8.6333   8.6333
     9.1322   9.1323   9.2698   9.2698

     occupation numbers 
     1.0000   1.0000   1.0000   1.0000   1.0000   1.0000   1.0000   1.0000
     1.0000   1.0000   1.0000   1.0000   1.0000   1.0000   1.0000   1.0000
     1.0000   1.0000   1.0000   1.0000   1.0000   1.0000   1.0000   1.0000
     1.0000   1.0000   0.4976   0.4976   0.0000   0.0000   0.0000   0.0000
     0.0000   0.0000   0.0000   0.0000

          k = 0.1326 0.0442-0.0442 (  6057 PWs)   bands (ev):

   -15.2409 -15.2406 -15.2376 -15.2375 -15.1616 -15.1615 -15.1580 -15.1576
   -14.3038 -14.3038 -14.1569 -14.1568 -14.1487 -14.1482 -14.0936 -14.0933
   -14.0898 -14.0897 -14.0025 -14.0025  -3.2225  -3.2225   4.4809   4.4810
     6.2307   6.2308   6.5763   6.5763   7.5481   7.5482   8.6945   8.6945
     9.4171   9.4172   9.5685   9.5685

     occupation numbers 
     1.0000   1.0000   1.0000   1.0000   1.0000   1.0000   1.0000   1.0000
     1.0000   1.0000   1.0000   1.0000   1.0000   1.0000   1.0000   1.0000
     1.0000   1.0000   1.0000   1.0000   1.0000   1.0000   1.0000   1.0000
     1.0000   1.0000   1.0000   1.0000   0.0000   0.0000   0.0000   0.0000
     0.0000   0.0000   0.0000   0.0000

          k = 0.1768 0.0884-0.0884 (  6045 PWs)   bands (ev):

   -15.2424 -15.2419 -15.2344 -15.2343 -15.1647 -15.1647 -15.1561 -15.1556
   -14.2966 -14.2966 -14.1687 -14.1686 -14.1559 -14.1552 -14.0871 -14.0867
   -14.0798 -14.0796 -14.0061 -14.0061  -3.0746  -3.0746   3.7337   3.7337
     6.0252   6.0253   6.3546   6.3546   7.5362   7.5363   8.9383   8.9384
     9.7515   9.7515  10.0663  10.0663

     occupation numbers 
     1.0000   1.0000   1.0000   1.0000   1.0000   1.0000   1.0000   1.0000
     1.0000   1.0000   1.0000   1.0000   1.0000   1.0000   1.0000   1.0000
     1.0000   1.0000   1.0000   1.0000   1.0000   1.0000   1.0000   1.0000
     1.0000   1.0000   1.0000   1.0000   0.0000   0.0000   0.0000   0.0000
     0.0000   0.0000   0.0000   0.0000

          k = 0.2210 0.1326-0.1326 (  6053 PWs)   bands (ev):

   -15.2440 -15.2435 -15.2299 -15.2299 -15.1691 -15.1690 -15.1538 -15.1532
   -14.2871 -14.2870 -14.1813 -14.1812 -14.1632 -14.1626 -14.0805 -14.0801
   -14.0696 -14.0694 -14.0110 -14.0110  -2.8644  -2.8644   2.9495   2.9495
     5.8080   5.8080   6.1354   6.1354   7.4135   7.4136   9.2464   9.2465
    10.0061  10.0061  10.6874  10.6874

     occupation numbers 
     1.0000   1.0000   1.0000   1.0000   1.0000   1.0000   1.0000   1.0000
     1.0000   1.0000   1.0000   1.0000   1.0000   1.0000   1.0000   1.0000
     1.0000   1.0000   1.0000   1.0000   1.0000   1.0000   1.0000   1.0000
     1.0000   1.0000   1.0000   1.0000   0.0000   0.0000   0.0000   0.0000
     0.0000   0.0000   0.0000   0.0000

          k = 0.2652 0.1768-0.1768 (  6054 PWs)   bands (ev):

   -15.2456 -15.2451 -15.2247 -15.2244 -15.1744 -15.1741 -15.1515 -15.1509
   -14.2758 -14.2758 -14.1939 -14.1937 -14.1698 -14.1692 -14.0746 -14.0743
   -14.0604 -14.0601 -14.0166 -14.0166  -2.6022  -2.6022   2.1978   2.1978
     5.6115   5.6116   5.9493   5.9493   7.2661   7.2662   9.5008   9.5008
    10.1440  10.1440  11.3511  11.3511

     occupation numbers 
     1.0000   1.0000   1.0000   1.0000   1.0000   1.0000   1.0000   1.0000
     1.0000   1.0000   1.0000   1.0000   1.0000   1.0000   1.0000   1.0000
     1.0000   1.0000   1.0000   1.0000   1.0000   1.0000   1.0000   1.0000
     1.0000   1.0000   1.0000   1.0000   0.0000   0.0000   0.0000   0.0000
     0.0000   0.0000   0.0000   0.0000

          k = 0.3094 0.2210-0.2210 (  6068 PWs)   bands (ev):

   -15.2469 -15.2465 -15.2189 -15.2184 -15.1803 -15.1798 -15.1494 -15.1490
   -14.2638 -14.2637 -14.2059 -14.2058 -14.1750 -14.1746 -14.0699 -14.0696
   -14.0527 -14.0525 -14.0223 -14.0223  -2.3095  -2.3095   1.5280   1.5280
     5.4496   5.4496   5.8157   5.8157   7.1356   7.1356   9.6552   9.6552
    10.1732  10.1732  12.0058  12.0058

     occupation numbers 
     1.0000   1.0000   1.0000   1.0000   1.0000   1.0000   1.0000   1.0000
     1.0000   1.0000   1.0000   1.0000   1.0000   1.0000   1.0000   1.0000
     1.0000   1.0000   1.0000   1.0000   1.0000   1.0000   1.0000   1.0000
     1.0000   1.0000   1.0000   1.0000   0.0000   0.0000   0.0000   0.0000
     0.0000   0.0000   0.0000   0.0000

          k = 0.3536 0.2652-0.2652 (  6053 PWs)   bands (ev):

   -15.2477 -15.2475 -15.2133 -15.2124 -15.1862 -15.1852 -15.1479 -15.1476
   -14.2519 -14.2518 -14.2173 -14.2171 -14.1786 -14.1783 -14.0665 -14.0664
   -14.0468 -14.0466 -14.0274 -14.0273  -2.0329  -2.0329   1.0018   1.0018
     5.3299   5.3300   5.7427   5.7428   7.0405   7.0406   9.7368   9.7368
    10.1401  10.1402  12.4042  12.4042

     occupation numbers 
     1.0000   1.0000   1.0000   1.0000   1.0000   1.0000   1.0000   1.0000
     1.0000   1.0000   1.0000   1.0000   1.0000   1.0000   1.0000   1.0000
     1.0000   1.0000   1.0000   1.0000   1.0000   1.0000   1.0000   1.0000
     1.0000   1.0000   1.0000   1.0000   0.0000   0.0000   0.0000   0.0000
     0.0000   0.0000   0.0000   0.0000

          k =-0.3094-0.3977 0.3977 (  6060 PWs)   bands (ev):

   -15.2481 -15.2480 -15.2096 -15.2082 -15.1903 -15.1889 -15.1471 -15.1471
   -14.2422 -14.2421 -14.2267 -14.2265 -14.1802 -14.1801 -14.0650 -14.0649
   -14.0432 -14.0432 -14.0306 -14.0305  -1.8644  -1.8644   0.7185   0.7185
     5.2586   5.2586   5.7317   5.7317   6.9892   6.9892   9.7875   9.7875
    10.0901  10.0901  12.4796  12.4796

     occupation numbers 
     1.0000   1.0000   1.0000   1.0000   1.0000   1.0000   1.0000   1.0000
     1.0000   1.0000   1.0000   1.0000   1.0000   1.0000   1.0000   1.0000
     1.0000   1.0000   1.0000   1.0000   1.0000   1.0000   1.0000   1.0000
     1.0000   1.0000   1.0000   1.0000   0.0000   0.0000   0.0000   0.0000
     0.0000   0.0000   0.0000   0.0000

          k =-0.2652-0.3536 0.3536 (  6070 PWs)   bands (ev):

   -15.2480 -15.2479 -15.2104 -15.2091 -15.1895 -15.1881 -15.1473 -15.1471
   -14.2449 -14.2447 -14.2240 -14.2239 -14.1798 -14.1797 -14.0655 -14.0655
   -14.0437 -14.0436 -14.0300 -14.0299  -1.9015  -1.9015   0.7789   0.7789
     5.2402   5.2402   5.7806   5.7806   6.9845   6.9846   9.8229   9.8229
    10.0523  10.0523  12.4937  12.4937

     occupation numbers 
     1.0000   1.0000   1.0000   1.0000   1.0000   1.0000   1.0000   1.0000
     1.0000   1.0000   1.0000   1.0000   1.0000   1.0000   1.0000   1.0000
     1.0000   1.0000   1.0000   1.0000   1.0000   1.0000   1.0000   1.0000
     1.0000   1.0000   1.0000   1.0000   0.0000   0.0000   0.0000   0.0000
     0.0000   0.0000   0.0000   0.0000

          k =-0.2210-0.3094 0.3094 (  6063 PWs)   bands (ev):

   -15.2475 -15.2472 -15.2150 -15.2142 -15.1845 -15.1836 -15.1483 -15.1479
   -14.2559 -14.2557 -14.2136 -14.2135 -14.1774 -14.1771 -14.0680 -14.0679
   -14.0479 -14.0477 -14.0260 -14.0259  -2.1192  -2.1192   1.1571   1.1572
     5.2781   5.2782   5.8852   5.8852   7.0262   7.0262   9.8210   9.8210
    10.0421  10.0421  12.4054  12.4054

     occupation numbers 
     1.0000   1.0000   1.0000   1.0000   1.0000   1.0000   1.0000   1.0000
     1.0000   1.0000   1.0000   1.0000   1.0000   1.0000   1.0000   1.0000
     1.0000   1.0000   1.0000   1.0000   1.0000   1.0000   1.0000   1.0000
     1.0000   1.0000   1.0000   1.0000   0.0000   0.0000   0.0000   0.0000
     0.0000   0.0000   0.0000   0.0000

          k =-0.1768-0.2652 0.2652 (  6060 PWs)   bands (ev):

   -15.2466 -15.2461 -15.2207 -15.2203 -15.1785 -15.1780 -15.1500 -15.1494
   -14.2679 -14.2678 -14.2020 -14.2019 -14.1732 -14.1728 -14.0721 -14.0719
   -14.0542 -14.0540 -14.0206 -14.0205  -2.4089  -2.4089   1.7400   1.7400
     5.3745   5.3746   6.0390   6.0391   7.1097   7.1097   9.7496   9.7496
    10.0331  10.0331  11.8651  11.8651

     occupation numbers 
     1.0000   1.0000   1.0000   1.0000   1.0000   1.0000   1.0000   1.0000
     1.0000   1.0000   1.0000   1.0000   1.0000   1.0000   1.0000   1.0000
     1.0000   1.0000   1.0000   1.0000   1.0000   1.0000   1.0000   1.0000
     1.0000   1.0000   1.0000   1.0000   0.0000   0.0000   0.0000   0.0000
     0.0000   0.0000   0.0000   0.0000

          k =-0.1326-0.2210 0.2210 (  6046 PWs)   bands (ev):

   -15.2452 -15.2447 -15.2264 -15.2261 -15.1728 -15.1725 -15.1521 -15.1515
   -14.2797 -14.2797 -14.1898 -14.1897 -14.1675 -14.1669 -14.0774 -14.0771
   -14.0624 -14.0621 -14.0149 -14.0148  -2.6949  -2.6949   2.4417   2.4417
     5.5301   5.5302   6.2319   6.2319   7.2234   7.2234   9.5948   9.5948
     9.9396   9.9396  11.1488  11.1488

     occupation numbers 
     1.0000   1.0000   1.0000   1.0000   1.0000   1.0000   1.0000   1.0000
     1.0000   1.0000   1.0000   1.0000   1.0000   1.0000   1.0000   1.0000
     1.0000   1.0000   1.0000   1.0000   1.0000   1.0000   1.0000   1.0000
     1.0000   1.0000   1.0000   1.0000   0.0000   0.0000   0.0000   0.0000
     0.0000   0.0000   0.0000   0.0000

          k =-0.0884-0.1768 0.1768 (  6060 PWs)   bands (ev):

   -15.2436 -15.2431 -15.2314 -15.2313 -15.1677 -15.1677 -15.1544 -15.1538
   -14.2905 -14.2905 -14.1772 -14.1770 -14.1607 -14.1600 -14.0837 -14.0833
   -14.0720 -14.0716 -14.0094 -14.0094  -2.9413  -2.9413   3.2069   3.2069
     5.7434   5.7435   6.4464   6.4464   7.3396   7.3396   9.3630   9.3630
     9.6829   9.6829  10.5131  10.5132

     occupation numbers 
     1.0000   1.0000   1.0000   1.0000   1.0000   1.0000   1.0000   1.0000
     1.0000   1.0000   1.0000   1.0000   1.0000   1.0000   1.0000   1.0000
     1.0000   1.0000   1.0000   1.0000   1.0000   1.0000   1.0000   1.0000
     1.0000   1.0000   1.0000   1.0000   0.0000   0.0000   0.0000   0.0000
     0.0000   0.0000   0.0000   0.0000

          k =-0.0442-0.1326 0.1326 (  6051 PWs)   bands (ev):

   -15.2421 -15.2416 -15.2353 -15.2353 -15.1638 -15.1637 -15.1566 -15.1561
   -14.2994 -14.2993 -14.1646 -14.1643 -14.1535 -14.1528 -14.0903 -14.0898
   -14.0824 -14.0820 -14.0048 -14.0048  -3.1314  -3.1314   3.9814   3.9814
     6.0079   6.0080   6.6525   6.6526   7.3962   7.3963   9.0953   9.0954
     9.3357   9.3357   9.9655   9.9656

     occupation numbers 
     1.0000   1.0000   1.0000   1.0000   1.0000   1.0000   1.0000   1.0000
     1.0000   1.0000   1.0000   1.0000   1.0000   1.0000   1.0000   1.0000
     1.0000   1.0000   1.0000   1.0000   1.0000   1.0000   1.0000   1.0000
     1.0000   1.0000   1.0000   1.0000   0.0000   0.0000   0.0000   0.0000
     0.0000   0.0000   0.0000   0.0000

          k = 0.0000-0.0884 0.0884 (  6039 PWs)   bands (ev):

   -15.2409 -15.2406 -15.2380 -15.2380 -15.1612 -15.1611 -15.1582 -15.1578
   -14.3055 -14.3055 -14.1531 -14.1528 -14.1473 -14.1466 -14.0962 -14.0957
   -14.0922 -14.0919 -14.0017 -14.0016  -3.2572  -3.2572   4.6779   4.6780
     6.2912   6.2913   6.8152   6.8152   7.2985   7.2986   8.8526   8.8527
     9.1284   9.1284   9.4724   9.4724

     occupation numbers 
     1.0000   1.0000   1.0000   1.0000   1.0000   1.0000   1.0000   1.0000
     1.0000   1.0000   1.0000   1.0000   1.0000   1.0000   1.0000   1.0000
     1.0000   1.0000   1.0000   1.0000   1.0000   1.0000   1.0000   1.0000
     1.0000   1.0000   0.0000   0.0000   0.0000   0.0000   0.0000   0.0000
     0.0000   0.0000   0.0000   0.0000

          k = 0.1768 0.0000 0.0000 (  6058 PWs)   bands (ev):

   -15.2402 -15.2402 -15.2376 -15.2376 -15.1618 -15.1618 -15.1579 -15.1579
   -14.3009 -14.3009 -14.1629 -14.1629 -14.1502 -14.1502 -14.0891 -14.0891
   -14.0875 -14.0875 -14.0037 -14.0037  -3.1643  -3.1643   4.2331   4.2331
     6.0407   6.0407   6.2983   6.2983   8.0100   8.0100   8.3775   8.3775
     9.7221   9.7221   9.8262   9.8262

     occupation numbers 
     1.0000   1.0000   1.0000   1.0000   1.0000   1.0000   1.0000   1.0000
     1.0000   1.0000   1.0000   1.0000   1.0000   1.0000   1.0000   1.0000
     1.0000   1.0000   1.0000   1.0000   1.0000   1.0000   1.0000   1.0000
     1.0000   1.0000   1.0000   1.0000   0.0000   0.0000   0.0000   0.0000
     0.0000   0.0000   0.0000   0.0000

          k = 0.2210 0.0442-0.0442 (  6052 PWs)   bands (ev):

   -15.2412 -15.2409 -15.2353 -15.2352 -15.1641 -15.1640 -15.1567 -15.1564
   -14.2949 -14.2949 -14.1724 -14.1723 -14.1550 -14.1547 -14.0857 -14.0857
   -14.0793 -14.0790 -14.0063 -14.0063  -3.0383  -3.0383   3.6946   3.6947
     5.8197   5.8198   6.0543   6.0544   8.1487   8.1491   8.4070   8.4073
    10.0911  10.0912  10.2164  10.2164

     occupation numbers 
     1.0000   1.0000   1.0000   1.0000   1.0000   1.0000   1.0000   1.0000
     1.0000   1.0000   1.0000   1.0000   1.0000   1.0000   1.0000   1.0000
     1.0000   1.0000   1.0000   1.0000   1.0000   1.0000   1.0000   1.0000
     1.0000   1.0000   1.0000   1.0000   0.0000   0.0000   0.0000   0.0000
     0.0000   0.0000   0.0000   0.0000

          k = 0.2652 0.0884-0.0884 (  6054 PWs)   bands (ev):

   -15.2429 -15.2424 -15.2313 -15.2313 -15.1679 -15.1679 -15.1545 -15.1540
   -14.2863 -14.2863 -14.1834 -14.1832 -14.1607 -14.1603 -14.0831 -14.0831
   -14.0690 -14.0686 -14.0099 -14.0098  -2.8481  -2.8481   3.0229   3.0229
     5.5658   5.5659   5.8305   5.8305   8.0718   8.0720   8.6991   8.6992
    10.3856  10.3856  10.6217  10.6218

     occupation numbers 
     1.0000   1.0000   1.0000   1.0000   1.0000   1.0000   1.0000   1.0000
     1.0000   1.0000   1.0000   1.0000   1.0000   1.0000   1.0000   1.0000
     1.0000   1.0000   1.0000   1.0000   1.0000   1.0000   1.0000   1.0000
     1.0000   1.0000   1.0000   1.0000   0.0000   0.0000   0.0000   0.0000
     0.0000   0.0000   0.0000   0.0000

          k = 0.3094 0.1326-0.1326 (  6054 PWs)   bands (ev):

   -15.2446 -15.2441 -15.2265 -15.2262 -15.1730 -15.1727 -15.1521 -15.1515
   -14.2760 -14.2759 -14.1945 -14.1942 -14.1663 -14.1660 -14.0810 -14.0809
   -14.0593 -14.0589 -14.0138 -14.0138  -2.6015  -2.6015   2.3236   2.3236
     5.3064   5.3065   5.6538   5.6538   7.9351   7.9352   9.0749   9.0750
    10.5550  10.5550  10.9200  10.9201

     occupation numbers 
     1.0000   1.0000   1.0000   1.0000   1.0000   1.0000   1.0000   1.0000
     1.0000   1.0000   1.0000   1.0000   1.0000   1.0000   1.0000   1.0000
     1.0000   1.0000   1.0000   1.0000   1.0000   1.0000   1.0000   1.0000
     1.0000   1.0000   1.0000   1.0000   0.0000   0.0000   0.0000   0.0000
     0.0000   0.0000   0.0000   0.0000

          k = 0.3536 0.1768-0.1768 (  6061 PWs)   bands (ev):

   -15.2461 -15.2457 -15.2210 -15.2203 -15.1789 -15.1781 -15.1497 -15.1492
   -14.2649 -14.2648 -14.2049 -14.2046 -14.1714 -14.1711 -14.0795 -14.0794
   -14.0516 -14.0512 -14.0173 -14.0172  -2.3149  -2.3149   1.6636   1.6637
     5.0704   5.0705   5.5408   5.5408   7.7944   7.7945   9.3941   9.3941
    10.5908  10.5908  11.2660  11.2661

     occupation numbers 
     1.0000   1.0000   1.0000   1.0000   1.0000   1.0000   1.0000   1.0000
     1.0000   1.0000   1.0000   1.0000   1.0000   1.0000   1.0000   1.0000
     1.0000   1.0000   1.0000   1.0000   1.0000   1.0000   1.0000   1.0000
     1.0000   1.0000   1.0000   1.0000   0.0000   0.0000   0.0000   0.0000
     0.0000   0.0000   0.0000   0.0000

          k = 0.3977 0.2210-0.2210 (  6055 PWs)   bands (ev):

   -15.2471 -15.2469 -15.2156 -15.2142 -15.1850 -15.1836 -15.1478 -15.1475
   -14.2541 -14.2540 -14.2142 -14.2139 -14.1754 -14.1751 -14.0788 -14.0786
   -14.0465 -14.0462 -14.0195 -14.0194  -2.0238  -2.0238   1.1056   1.1056
     4.8785   4.8786   5.4933   5.4934   7.6792   7.6792   9.5879   9.5879
    10.5347  10.5347  11.7769  11.7769

     occupation numbers 
     1.0000   1.0000   1.0000   1.0000   1.0000   1.0000   1.0000   1.0000
     1.0000   1.0000   1.0000   1.0000   1.0000   1.0000   1.0000   1.0000
     1.0000   1.0000   1.0000   1.0000   1.0000   1.0000   1.0000   1.0000
     1.0000   1.0000   1.0000   1.0000   0.0000   0.0000   0.0000   0.0000
     0.0000   0.0000   0.0000   0.0000

          k =-0.2652-0.4419 0.4419 (  6059 PWs)   bands (ev):

   -15.2478 -15.2477 -15.2112 -15.2087 -15.1905 -15.1880 -15.1466 -15.1464
   -14.2455 -14.2453 -14.2216 -14.2213 -14.1777 -14.1775 -14.0788 -14.0785
   -14.0438 -14.0437 -14.0205 -14.0204  -1.8046  -1.8046   0.7398   0.7398
     4.7424   4.7424   5.5098   5.5098   7.6030   7.6031   9.7018   9.7018
    10.4361  10.4361  12.3359  12.3359

     occupation numbers 
     1.0000   1.0000   1.0000   1.0000   1.0000   1.0000   1.0000   1.0000
     1.0000   1.0000   1.0000   1.0000   1.0000   1.0000   1.0000   1.0000
     1.0000   1.0000   1.0000   1.0000   1.0000   1.0000   1.0000   1.0000
     1.0000   1.0000   1.0000   1.0000   0.0000   0.0000   0.0000   0.0000
     0.0000   0.0000   0.0000   0.0000

          k =-0.2210-0.3977 0.3977 (  6065 PWs)   bands (ev):

   -15.2479 -15.2479 -15.2101 -15.2070 -15.1923 -15.1892 -15.1462 -15.1462
   -14.2440 -14.2437 -14.2230 -14.2228 -14.1777 -14.1777 -14.0793 -14.0791
   -14.0429 -14.0429 -14.0208 -14.0206  -1.7691  -1.7691   0.6845   0.6845
     4.6693   4.6694   5.5871   5.5871   7.5709   7.5710   9.7957   9.7957
    10.3244  10.3244  12.6329  12.6329

     occupation numbers 
     1.0000   1.0000   1.0000   1.0000   1.0000   1.0000   1.0000   1.0000
     1.0000   1.0000   1.0000   1.0000   1.0000   1.0000   1.0000   1.0000
     1.0000   1.0000   1.0000   1.0000   1.0000   1.0000   1.0000   1.0000
     1.0000   1.0000   1.0000   1.0000   0.0000   0.0000   0.0000   0.0000
     0.0000   0.0000   0.0000   0.0000

          k =-0.1768-0.3536 0.3536 (  6059 PWs)   bands (ev):

   -15.2477 -15.2475 -15.2131 -15.2111 -15.1883 -15.1862 -15.1469 -15.1466
   -14.2512 -14.2509 -14.2168 -14.2168 -14.1756 -14.1756 -14.0803 -14.0801
   -14.0438 -14.0436 -14.0204 -14.0202  -1.9418  -1.9418   0.9643   0.9644
     4.6655   4.6656   5.7198   5.7199   7.5820   7.5821   9.8862   9.8862
    10.2078  10.2078  12.3895  12.3895

     occupation numbers 
     1.0000   1.0000   1.0000   1.0000   1.0000   1.0000   1.0000   1.0000
     1.0000   1.0000   1.0000   1.0000   1.0000   1.0000   1.0000   1.0000
     1.0000   1.0000   1.0000   1.0000   1.0000   1.0000   1.0000   1.0000
     1.0000   1.0000   1.0000   1.0000   0.0000   0.0000   0.0000   0.0000
     0.0000   0.0000   0.0000   0.0000

          k =-0.1326-0.3094 0.3094 (  6053 PWs)   bands (ev):

   -15.2470 -15.2466 -15.2182 -15.2170 -15.1824 -15.1812 -15.1483 -15.1479
   -14.2616 -14.2613 -14.2082 -14.2081 -14.1718 -14.1716 -14.0817 -14.0816
   -14.0470 -14.0468 -14.0189 -14.0187  -2.2207  -2.2207   1.4714   1.4714
     4.7378   4.7379   5.8995   5.8995   7.6290   7.6291   9.9190   9.9190
    10.1000  10.1000  11.7471  11.7471

     occupation numbers 
     1.0000   1.0000   1.0000   1.0000   1.0000   1.0000   1.0000   1.0000
     1.0000   1.0000   1.0000   1.0000   1.0000   1.0000   1.0000   1.0000
     1.0000   1.0000   1.0000   1.0000   1.0000   1.0000   1.0000   1.0000
     1.0000   1.0000   1.0000   1.0000   0.0000   0.0000   0.0000   0.0000
     0.0000   0.0000   0.0000   0.0000

          k =-0.0884-0.2652 0.2652 (  6050 PWs)   bands (ev):

   -15.2459 -15.2454 -15.2236 -15.2229 -15.1765 -15.1758 -15.1503 -15.1498
   -14.2727 -14.2725 -14.1983 -14.1981 -14.1669 -14.1666 -14.0836 -14.0835
   -14.0532 -14.0529 -14.0159 -14.0157  -2.5138  -2.5138   2.0989   2.0989
     4.8955   4.8956   6.1122   6.1123   7.6933   7.6933   9.7729   9.7729
    10.0055  10.0055  11.1478  11.1478

     occupation numbers 
     1.0000   1.0000   1.0000   1.0000   1.0000   1.0000   1.0000   1.0000
     1.0000   1.0000   1.0000   1.0000   1.0000   1.0000   1.0000   1.0000
     1.0000   1.0000   1.0000   1.0000   1.0000   1.0000   1.0000   1.0000
     1.0000   1.0000   1.0000   1.0000   0.0000   0.0000   0.0000   0.0000
     0.0000   0.0000   0.0000   0.0000

          k =-0.0442-0.2210 0.2210 (  6046 PWs)   bands (ev):

   -15.2445 -15.2439 -15.2285 -15.2282 -15.1711 -15.1708 -15.1526 -15.1520
   -14.2833 -14.2832 -14.1873 -14.1870 -14.1618 -14.1613 -14.0859 -14.0857
   -14.0619 -14.0615 -14.0120 -14.0119  -2.7753  -2.7753   2.7730   2.7730
     5.1531   5.1532   6.3346   6.3346   7.7310   7.7311   9.5246   9.5247
     9.7357   9.7357  10.7824  10.7824

     occupation numbers 
     1.0000   1.0000   1.0000   1.0000   1.0000   1.0000   1.0000   1.0000
     1.0000   1.0000   1.0000   1.0000   1.0000   1.0000   1.0000   1.0000
     1.0000   1.0000   1.0000   1.0000   1.0000   1.0000   1.0000   1.0000
     1.0000   1.0000   1.0000   1.0000   0.0000   0.0000   0.0000   0.0000
     0.0000   0.0000   0.0000   0.0000

          k = 0.0000-0.1768 0.1768 (  6047 PWs)   bands (ev):

   -15.2431 -15.2426 -15.2325 -15.2325 -15.1668 -15.1667 -15.1549 -15.1543
   -14.2925 -14.2924 -14.1758 -14.1754 -14.1570 -14.1565 -14.0883 -14.0879
   -14.0721 -14.0717 -14.0080 -14.0080  -2.9844  -2.9844   3.4255   3.4255
     5.5282   5.5283   6.5281   6.5281   7.6552   7.6553   9.2661   9.2662
     9.4347   9.4347  10.4593  10.4594

     occupation numbers 
     1.0000   1.0000   1.0000   1.0000   1.0000   1.0000   1.0000   1.0000
     1.0000   1.0000   1.0000   1.0000   1.0000   1.0000   1.0000   1.0000
     1.0000   1.0000   1.0000   1.0000   1.0000   1.0000   1.0000   1.0000
     1.0000   1.0000   1.0000   1.0000   0.0000   0.0000   0.0000   0.0000
     0.0000   0.0000   0.0000   0.0000

          k = 0.2652 0.0000 0.0000 (  6058 PWs)   bands (ev):

   -15.2402 -15.2402 -15.2352 -15.2352 -15.1644 -15.1644 -15.1567 -15.1567
   -14.2901 -14.2901 -14.1791 -14.1791 -14.1574 -14.1574 -14.0814 -14.0814
   -14.0769 -14.0769 -14.0076 -14.0076  -2.9338  -2.9338   3.3846   3.3846
     5.6287   5.6287   5.8012   5.8012   8.0386   8.0386   8.5492   8.5492
    10.4973  10.4973  10.5299  10.5299

     occupation numbers 
     1.0000   1.0000   1.0000   1.0000   1.0000   1.0000   1.0000   1.0000
     1.0000   1.0000   1.0000   1.0000   1.0000   1.0000   1.0000   1.0000
     1.0000   1.0000   1.0000   1.0000   1.0000   1.0000   1.0000   1.0000
     1.0000   1.0000   1.0000   1.0000   0.0000   0.0000   0.0000   0.0000
     0.0000   0.0000   0.0000   0.0000

          k = 0.3094 0.0442-0.0442 (  6047 PWs)   bands (ev):

   -15.2412 -15.2409 -15.2326 -15.2325 -15.1669 -15.1668 -15.1556 -15.1553
   -14.2827 -14.2826 -14.1879 -14.1877 -14.1612 -14.1611 -14.0820 -14.0819
   -14.0682 -14.0678 -14.0097 -14.0097  -2.7640  -2.7640   2.8829   2.8829
     5.3945   5.3946   5.5741   5.5741   8.0181   8.0182   8.6505   8.6506
    10.8167  10.8167  10.8746  10.8747

     occupation numbers 
     1.0000   1.0000   1.0000   1.0000   1.0000   1.0000   1.0000   1.0000
     1.0000   1.0000   1.0000   1.0000   1.0000   1.0000   1.0000   1.0000
     1.0000   1.0000   1.0000   1.0000   1.0000   1.0000   1.0000   1.0000
     1.0000   1.0000   1.0000   1.0000   0.0000   0.0000   0.0000   0.0000
     0.0000   0.0000   0.0000   0.0000

          k = 0.3536 0.0884-0.0884 (  6057 PWs)   bands (ev):

   -15.2429 -15.2425 -15.2284 -15.2282 -15.1713 -15.1709 -15.1532 -15.1528
   -14.2735 -14.2734 -14.1972 -14.1969 -14.1650 -14.1649 -14.0840 -14.0840
   -14.0587 -14.0583 -14.0119 -14.0119  -2.5346  -2.5346   2.2937   2.2938
     5.0978   5.0979   5.3946   5.3946   8.1092   8.1093   8.7964   8.7965
    10.8698  10.8698  11.0996  11.0996

     occupation numbers 
     1.0000   1.0000   1.0000   1.0000   1.0000   1.0000   1.0000   1.0000
     1.0000   1.0000   1.0000   1.0000   1.0000   1.0000   1.0000   1.0000
     1.0000   1.0000   1.0000   1.0000   1.0000   1.0000   1.0000   1.0000
     1.0000   1.0000   1.0000   1.0000   0.0000   0.0000   0.0000   0.0000
     0.0000   0.0000   0.0000   0.0000

          k = 0.3977 0.1326-0.1326 (  6053 PWs)   bands (ev):

   -15.2446 -15.2442 -15.2235 -15.2228 -15.1768 -15.1759 -15.1506 -15.1502
   -14.2636 -14.2634 -14.2059 -14.2054 -14.1687 -14.1684 -14.0869 -14.0867
   -14.0510 -14.0506 -14.0133 -14.0133  -2.2578  -2.2578   1.6933   1.6934
     4.7891   4.7892   5.2852   5.2852   8.0851   8.0851   9.1737   9.1737
    10.8591  10.8591  11.1793  11.1793

     occupation numbers 
     1.0000   1.0000   1.0000   1.0000   1.0000   1.0000   1.0000   1.0000
     1.0000   1.0000   1.0000   1.0000   1.0000   1.0000   1.0000   1.0000
     1.0000   1.0000   1.0000   1.0000   1.0000   1.0000   1.0000   1.0000
     1.0000   1.0000   1.0000   1.0000   0.0000   0.0000   0.0000   0.0000
     0.0000   0.0000   0.0000   0.0000

          k = 0.4419 0.1768-0.1768 (  6051 PWs)   bands (ev):

   -15.2460 -15.2457 -15.2184 -15.2169 -15.1829 -15.1812 -15.1482 -15.1479
   -14.2543 -14.2542 -14.2128 -14.2123 -14.1718 -14.1715 -14.0899 -14.0896
   -14.0461 -14.0458 -14.0134 -14.0133  -1.9603  -1.9603   1.1457   1.1457
     4.5199   4.5200   5.2435   5.2435   8.0117   8.0118   9.5861   9.5861
    10.9921  10.9922  11.1669  11.1669

     occupation numbers 
     1.0000   1.0000   1.0000   1.0000   1.0000   1.0000   1.0000   1.0000
     1.0000   1.0000   1.0000   1.0000   1.0000   1.0000   1.0000   1.0000
     1.0000   1.0000   1.0000   1.0000   1.0000   1.0000   1.0000   1.0000
     1.0000   1.0000   1.0000   1.0000   0.0000   0.0000   0.0000   0.0000
     0.0000   0.0000   0.0000   0.0000

          k =-0.2210-0.4861 0.4861 (  6058 PWs)   bands (ev):

   -15.2470 -15.2469 -15.2138 -15.2111 -15.1889 -15.1860 -15.1464 -15.1462
   -14.2475 -14.2474 -14.2174 -14.2169 -14.1740 -14.1736 -14.0925 -14.0920
   -14.0438 -14.0436 -14.0127 -14.0125  -1.7026  -1.7026   0.7329   0.7329
     4.3142   4.3142   5.2677   5.2677   7.9558   7.9559   9.8366   9.8366
    10.9782  10.9782  11.5385  11.5385

     occupation numbers 
     1.0000   1.0000   1.0000   1.0000   1.0000   1.0000   1.0000   1.0000
     1.0000   1.0000   1.0000   1.0000   1.0000   1.0000   1.0000   1.0000
     1.0000   1.0000   1.0000   1.0000   1.0000   1.0000   1.0000   1.0000
     1.0000   1.0000   1.0000   1.0000   0.0000   0.0000   0.0000   0.0000
     0.0000   0.0000   0.0000   0.0000

          k =-0.1768-0.4419 0.4419 (  6052 PWs)   bands (ev):

   -15.2475 -15.2475 -15.2111 -15.2068 -15.1933 -15.1889 -15.1454 -15.1454
   -14.2453 -14.2450 -14.2188 -14.2185 -14.1744 -14.1739 -14.0942 -14.0936
   -14.0428 -14.0427 -14.0122 -14.0120  -1.5970  -1.5970   0.5779   0.5780
     4.1843   4.1844   5.3547   5.3547   7.9360   7.9360   9.9638   9.9639
    10.8306  10.8306  12.1709  12.1710

     occupation numbers 
     1.0000   1.0000   1.0000   1.0000   1.0000   1.0000   1.0000   1.0000
     1.0000   1.0000   1.0000   1.0000   1.0000   1.0000   1.0000   1.0000
     1.0000   1.0000   1.0000   1.0000   1.0000   1.0000   1.0000   1.0000
     1.0000   1.0000   1.0000   1.0000   0.0000   0.0000   0.0000   0.0000
     0.0000   0.0000   0.0000   0.0000

          k =-0.1326-0.3977 0.3977 (  6051 PWs)   bands (ev):

   -15.2477 -15.2475 -15.2118 -15.2079 -15.1923 -15.1883 -15.1454 -15.1453
   -14.2483 -14.2479 -14.2170 -14.2169 -14.1727 -14.1723 -14.0945 -14.0940
   -14.0426 -14.0425 -14.0128 -14.0126  -1.7168  -1.7168   0.7555   0.7556
     4.1406   4.1407   5.4992   5.4992   7.9517   7.9518  10.0665  10.0665
    10.6524  10.6524  12.2801  12.2801

     occupation numbers 
     1.0000   1.0000   1.0000   1.0000   1.0000   1.0000   1.0000   1.0000
     1.0000   1.0000   1.0000   1.0000   1.0000   1.0000   1.0000   1.0000
     1.0000   1.0000   1.0000   1.0000   1.0000   1.0000   1.0000   1.0000
     1.0000   1.0000   1.0000   1.0000   0.0000   0.0000   0.0000   0.0000
     0.0000   0.0000   0.0000   0.0000

          k =-0.0884-0.3536 0.3536 (  6047 PWs)   bands (ev):

   -15.2474 -15.2470 -15.2154 -15.2130 -15.1872 -15.1847 -15.1464 -15.1461
   -14.2554 -14.2550 -14.2126 -14.2124 -14.1696 -14.1693 -14.0935 -14.0931
   -14.0435 -14.0432 -14.0141 -14.0139  -1.9795  -1.9795   1.1749   1.1749
     4.1956   4.1957   5.6914   5.6914   7.9894   7.9895  10.1670  10.1671
    10.4370  10.4370  11.6107  11.6108

     occupation numbers 
     1.0000   1.0000   1.0000   1.0000   1.0000   1.0000   1.0000   1.0000
     1.0000   1.0000   1.0000   1.0000   1.0000   1.0000   1.0000   1.0000
     1.0000   1.0000   1.0000   1.0000   1.0000   1.0000   1.0000   1.0000
     1.0000   1.0000   1.0000   1.0000   0.0000   0.0000   0.0000   0.0000
     0.0000   0.0000   0.0000   0.0000

          k =-0.0442-0.3094 0.3094 (  6053 PWs)   bands (ev):

   -15.2466 -15.2461 -15.2201 -15.2187 -15.1813 -15.1799 -15.1482 -15.1477
   -14.2646 -14.2642 -14.2060 -14.2057 -14.1662 -14.1662 -14.0913 -14.0911
   -14.0466 -14.0462 -14.0149 -14.0147  -2.2760  -2.2760   1.7067   1.7067
     4.3679   4.3680   5.9153   5.9153   8.0155   8.0156  10.1197  10.1197
    10.2358  10.2359  11.0038  11.0038

     occupation numbers 
     1.0000   1.0000   1.0000   1.0000   1.0000   1.0000   1.0000   1.0000
     1.0000   1.0000   1.0000   1.0000   1.0000   1.0000   1.0000   1.0000
     1.0000   1.0000   1.0000   1.0000   1.0000   1.0000   1.0000   1.0000
     1.0000   1.0000   1.0000   1.0000   0.0000   0.0000   0.0000   0.0000
     0.0000   0.0000   0.0000   0.0000

          k = 0.0000-0.2652 0.2652 (  6057 PWs)   bands (ev):

   -15.2456 -15.2450 -15.2246 -15.2239 -15.1758 -15.1751 -15.1504 -15.1498
   -14.2743 -14.2741 -14.1973 -14.1970 -14.1636 -14.1634 -14.0886 -14.0885
   -14.0529 -14.0525 -14.0141 -14.0139  -2.5496  -2.5496   2.2606   2.2607
     4.6818   4.6818   6.1438   6.1439   7.9602   7.9603   9.8205   9.8205
     9.9711   9.9711  10.8197  10.8197

     occupation numbers 
     1.0000   1.0000   1.0000   1.0000   1.0000   1.0000   1.0000   1.0000
     1.0000   1.0000   1.0000   1.0000   1.0000   1.0000   1.0000   1.0000
     1.0000   1.0000   1.0000   1.0000   1.0000   1.0000   1.0000   1.0000
     1.0000   1.0000   1.0000   1.0000   0.0000   0.0000   0.0000   0.0000
     0.0000   0.0000   0.0000   0.0000

          k = 0.3536 0.0000 0.0000 (  6030 PWs)   bands (ev):

   -15.2399 -15.2399 -15.2326 -15.2326 -15.1668 -15.1668 -15.1560 -15.1560
   -14.2764 -14.2764 -14.1942 -14.1942 -14.1635 -14.1635 -14.0822 -14.0822
   -14.0636 -14.0636 -14.0103 -14.0103  -2.6140  -2.6140   2.5404   2.5404
     5.2444   5.2444   5.3634   5.3634   7.7504   7.7504   8.7027   8.7027
    11.2874  11.2874  11.3270  11.3270

     occupation numbers 
     1.0000   1.0000   1.0000   1.0000   1.0000   1.0000   1.0000   1.0000
     1.0000   1.0000   1.0000   1.0000   1.0000   1.0000   1.0000   1.0000
     1.0000   1.0000   1.0000   1.0000   1.0000   1.0000   1.0000   1.0000
     1.0000   1.0000   1.0000   1.0000   0.0000   0.0000   0.0000   0.0000
     0.0000   0.0000   0.0000   0.0000

          k = 0.3977 0.0442-0.0442 (  6054 PWs)   bands (ev):

   -15.2407 -15.2404 -15.2302 -15.2301 -15.1693 -15.1690 -15.1549 -15.1548
   -14.2685 -14.2685 -14.2017 -14.2014 -14.1657 -14.1657 -14.0862 -14.0862
   -14.0560 -14.0558 -14.0112 -14.0112  -2.4023  -2.4023   2.0760   2.0761
     5.0189   5.0190   5.1742   5.1743   7.7718   7.7719   8.6656   8.6656
    11.4219  11.4219  11.6504  11.6504

     occupation numbers 
     1.0000   1.0000   1.0000   1.0000   1.0000   1.0000   1.0000   1.0000
     1.0000   1.0000   1.0000   1.0000   1.0000   1.0000   1.0000   1.0000
     1.0000   1.0000   1.0000   1.0000   1.0000   1.0000   1.0000   1.0000
     1.0000   1.0000   1.0000   1.0000   0.0000   0.0000   0.0000   0.0000
     0.0000   0.0000   0.0000   0.0000

          k = 0.4419 0.0884-0.0884 (  6061 PWs)   bands (ev):

   -15.2423 -15.2421 -15.2262 -15.2256 -15.1738 -15.1731 -15.1525 -15.1523
   -14.2600 -14.2599 -14.2086 -14.2082 -14.1674 -14.1673 -14.0922 -14.0921
   -14.0489 -14.0485 -14.0114 -14.0114  -2.1381  -2.1381   1.5648   1.5648
     4.6940   4.6941   5.0543   5.0543   7.9156   7.9157   8.8001   8.8002
    11.2823  11.2823  11.8118  11.8118

     occupation numbers 
     1.0000   1.0000   1.0000   1.0000   1.0000   1.0000   1.0000   1.0000
     1.0000   1.0000   1.0000   1.0000   1.0000   1.0000   1.0000   1.0000
     1.0000   1.0000   1.0000   1.0000   1.0000   1.0000   1.0000   1.0000
     1.0000   1.0000   1.0000   1.0000   0.0000   0.0000   0.0000   0.0000
     0.0000   0.0000   0.0000   0.0000

          k = 0.4861 0.1326-0.1326 (  6052 PWs)   bands (ev):

   -15.2441 -15.2439 -15.2217 -15.2204 -15.1794 -15.1779 -15.1497 -15.1495
   -14.2524 -14.2524 -14.2134 -14.2129 -14.1687 -14.1683 -14.0988 -14.0984
   -14.0444 -14.0441 -14.0102 -14.0101  -1.8406  -1.8406   1.0653   1.0653
     4.3581   4.3582   5.0072   5.0072   7.9594   7.9594   9.2588   9.2588
    11.1497  11.1497  11.8036  11.8036

     occupation numbers 
     1.0000   1.0000   1.0000   1.0000   1.0000   1.0000   1.0000   1.0000
     1.0000   1.0000   1.0000   1.0000   1.0000   1.0000   1.0000   1.0000
     1.0000   1.0000   1.0000   1.0000   1.0000   1.0000   1.0000   1.0000
     1.0000   1.0000   1.0000   1.0000   0.0000   0.0000   0.0000   0.0000
     0.0000   0.0000   0.0000   0.0000

          k =-0.1768-0.5303 0.5303 (  6053 PWs)   bands (ev):

   -15.2455 -15.2454 -15.2173 -15.2149 -15.1854 -15.1827 -15.1472 -15.1471
   -14.2478 -14.2476 -14.2151 -14.2146 -14.1695 -14.1689 -14.1046 -14.1038
   -14.0426 -14.0423 -14.0080 -14.0079  -1.5559  -1.5559   0.6457   0.6458
     4.0760   4.0761   5.0278   5.0278   7.9577   7.9577   9.8770   9.8771
    11.1239  11.1240  11.6850  11.6850

     occupation numbers 
     1.0000   1.0000   1.0000   1.0000   1.0000   1.0000   1.0000   1.0000
     1.0000   1.0000   1.0000   1.0000   1.0000   1.0000   1.0000   1.0000
[...]

     occupation numbers 
     1.0000   1.0000   1.0000   1.0000   1.0000   1.0000   1.0000   1.0000
     1.0000   1.0000   1.0000   1.0000   1.0000   1.0000   1.0000   1.0000
     1.0000   1.0000   1.0000   1.0000   1.0000   1.0000   1.0000   1.0000
     1.0000   1.0000   1.0000   1.0000   0.0000   0.0000   0.0000   0.0000
     0.0000   0.0000   0.0000   0.0000

          k =-0.1326-0.3977 0.5745 (  6042 PWs)   bands (ev):

   -15.2467 -15.2463 -15.2142 -15.2093 -15.1918 -15.1866 -15.1452 -15.1447
   -14.2474 -14.2470 -14.2124 -14.2117 -14.1678 -14.1667 -14.1135 -14.1123
   -14.0432 -14.0426 -14.0038 -14.0035  -1.2985  -1.2985   0.3491   0.3491
     3.8406   3.8407   4.8313   4.8314   8.6371   8.6373   9.8891   9.8891
    11.1497  11.1499  11.8810  11.8812

     occupation numbers 
     1.0000   1.0000   1.0000   1.0000   1.0000   1.0000   1.0000   1.0000
     1.0000   1.0000   1.0000   1.0000   1.0000   1.0000   1.0000   1.0000
     1.0000   1.0000   1.0000   1.0000   1.0000   1.0000   1.0000   1.0000
     1.0000   1.0000   1.0000   1.0000   0.0000   0.0000   0.0000   0.0000
     0.0000   0.0000   0.0000   0.0000

          k =-0.0884-0.3536 0.5303 (  6041 PWs)   bands (ev):

   -15.2470 -15.2465 -15.2137 -15.2085 -15.1926 -15.1872 -15.1450 -15.1444
   -14.2479 -14.2475 -14.2125 -14.2118 -14.1675 -14.1664 -14.1130 -14.1119
   -14.0432 -14.0427 -14.0040 -14.0037  -1.3532  -1.3532   0.4184   0.4185
     3.8078   3.8079   4.9000   4.9001   8.6840   8.6841   9.8793   9.8794
    11.2113  11.2115  11.8464  11.8466

     occupation numbers 
     1.0000   1.0000   1.0000   1.0000   1.0000   1.0000   1.0000   1.0000
     1.0000   1.0000   1.0000   1.0000   1.0000   1.0000   1.0000   1.0000
     1.0000   1.0000   1.0000   1.0000   1.0000   1.0000   1.0000   1.0000
     1.0000   1.0000   1.0000   1.0000   0.0000   0.0000   0.0000   0.0000
     0.0000   0.0000   0.0000   0.0000

          k =-0.0442-0.3094 0.4861 (  6046 PWs)   bands (ev):

   -15.2468 -15.2463 -15.2153 -15.2115 -15.1895 -15.1855 -15.1457 -15.1452
   -14.2500 -14.2496 -14.2132 -14.2125 -14.1670 -14.1663 -14.1084 -14.1075
   -14.0435 -14.0429 -14.0062 -14.0060  -1.5974  -1.5974   0.7378   0.7378
     3.8797   3.8798   5.0428   5.0428   8.7348   8.7350   9.7731   9.7732
    10.6379  10.6379  12.0624  12.0624

     occupation numbers 
     1.0000   1.0000   1.0000   1.0000   1.0000   1.0000   1.0000   1.0000
     1.0000   1.0000   1.0000   1.0000   1.0000   1.0000   1.0000   1.0000
     1.0000   1.0000   1.0000   1.0000   1.0000   1.0000   1.0000   1.0000
     1.0000   1.0000   1.0000   1.0000   0.0000   0.0000   0.0000   0.0000
     0.0000   0.0000   0.0000   0.0000

          k = 0.0000-0.2652 0.4419 (  6045 PWs)   bands (ev):

   -15.2462 -15.2458 -15.2182 -15.2158 -15.1847 -15.1822 -15.1471 -15.1466
   -14.2547 -14.2543 -14.2120 -14.2114 -14.1669 -14.1665 -14.1009 -14.1004
   -14.0446 -14.0441 -14.0096 -14.0093  -1.8961  -1.8961   1.1563   1.1564
     4.0750   4.0751   5.2343   5.2344   8.7284   8.7286   9.4329   9.4331
    10.4581  10.4582  11.8340  11.8341

     occupation numbers 
     1.0000   1.0000   1.0000   1.0000   1.0000   1.0000   1.0000   1.0000
     1.0000   1.0000   1.0000   1.0000   1.0000   1.0000   1.0000   1.0000
     1.0000   1.0000   1.0000   1.0000   1.0000   1.0000   1.0000   1.0000
     1.0000   1.0000   1.0000   1.0000   0.0000   0.0000   0.0000   0.0000
     0.0000   0.0000   0.0000   0.0000

          k =-0.1768-0.5303 0.7071 (  6053 PWs)   bands (ev):

   -15.2434 -15.2429 -15.2225 -15.2206 -15.1795 -15.1773 -15.1500 -15.1495
   -14.2491 -14.2489 -14.2148 -14.2141 -14.1655 -14.1650 -14.1089 -14.1083
   -14.0418 -14.0413 -14.0076 -14.0074  -1.6047  -1.6047   0.7760   0.7760
     4.2443   4.2444   4.7077   4.7078   8.3606   8.3607   8.7572   8.7573
    11.1592  11.1593  12.7881  12.7881

     occupation numbers 
     1.0000   1.0000   1.0000   1.0000   1.0000   1.0000   1.0000   1.0000
     1.0000   1.0000   1.0000   1.0000   1.0000   1.0000   1.0000   1.0000
     1.0000   1.0000   1.0000   1.0000   1.0000   1.0000   1.0000   1.0000
     1.0000   1.0000   1.0000   1.0000   0.0000   0.0000   0.0000   0.0000
     0.0000   0.0000   0.0000   0.0000

          k =-0.1326-0.4861 0.6629 (  6051 PWs)   bands (ev):

   -15.2445 -15.2440 -15.2198 -15.2168 -15.1839 -15.1806 -15.1480 -15.1473
   -14.2474 -14.2471 -14.2133 -14.2125 -14.1635 -14.1624 -14.1181 -14.1169
   -14.0414 -14.0408 -14.0041 -14.0038  -1.3004  -1.3004   0.3927   0.3927
     4.0139   4.0140   4.5840   4.5840   8.5337   8.5338   9.2254   9.2254
    10.9831  10.9831  12.7393  12.7394

     occupation numbers 
     1.0000   1.0000   1.0000   1.0000   1.0000   1.0000   1.0000   1.0000
     1.0000   1.0000   1.0000   1.0000   1.0000   1.0000   1.0000   1.0000
     1.0000   1.0000   1.0000   1.0000   1.0000   1.0000   1.0000   1.0000
     1.0000   1.0000   1.0000   1.0000   0.0000   0.0000   0.0000   0.0000
     0.0000   0.0000   0.0000   0.0000

          k =-0.0884-0.4419 0.6187 (  6041 PWs)   bands (ev):

   -15.2456 -15.2450 -15.2172 -15.2130 -15.1882 -15.1837 -15.1462 -15.1455
   -14.2476 -14.2472 -14.2106 -14.2098 -14.1621 -14.1603 -14.1246 -14.1227
   -14.0421 -14.0415 -14.0014 -14.0011  -1.0620  -1.0620   0.1173   0.1174
     3.8164   3.8165   4.5723   4.5723   8.5950   8.5951   9.9454   9.9455
    10.8798  10.8798  12.1569  12.1569

     occupation numbers 
     1.0000   1.0000   1.0000   1.0000   1.0000   1.0000   1.0000   1.0000
     1.0000   1.0000   1.0000   1.0000   1.0000   1.0000   1.0000   1.0000
     1.0000   1.0000   1.0000   1.0000   1.0000   1.0000   1.0000   1.0000
     1.0000   1.0000   1.0000   1.0000   0.0000   0.0000   0.0000   0.0000
     0.0000   0.0000   0.0000   0.0000

          k =-0.0442-0.3977 0.5745 (  6042 PWs)   bands (ev):

   -15.2463 -15.2458 -15.2153 -15.2100 -15.1914 -15.1858 -15.1451 -15.1444
   -14.2482 -14.2477 -14.2096 -14.2088 -14.1624 -14.1604 -14.1250 -14.1230
   -14.0428 -14.0422 -14.0007 -14.0004  -1.0639  -1.0638   0.1221   0.1222
     3.7041   3.7042   4.6602   4.6602   8.6749   8.6750  10.4054  10.4055
    11.0930  11.0933  11.4364  11.4366

     occupation numbers 
     1.0000   1.0000   1.0000   1.0000   1.0000   1.0000   1.0000   1.0000
     1.0000   1.0000   1.0000   1.0000   1.0000   1.0000   1.0000   1.0000
     1.0000   1.0000   1.0000   1.0000   1.0000   1.0000   1.0000   1.0000
     1.0000   1.0000   1.0000   1.0000   0.0000   0.0000   0.0000   0.0000
     0.0000   0.0000   0.0000   0.0000

          k = 0.0000-0.3536 0.5303 (  6045 PWs)   bands (ev):

   -15.2467 -15.2462 -15.2145 -15.2094 -15.1919 -15.1865 -15.1450 -15.1443
   -14.2487 -14.2482 -14.2111 -14.2103 -14.1644 -14.1630 -14.1187 -14.1172
   -14.0432 -14.0425 -14.0024 -14.0021  -1.2995  -1.2995   0.3908   0.3909
     3.7168   3.7169   4.8260   4.8260   8.7551   8.7552  10.2715  10.2716
    10.7160  10.7161  11.9206  11.9207

     occupation numbers 
     1.0000   1.0000   1.0000   1.0000   1.0000   1.0000   1.0000   1.0000
     1.0000   1.0000   1.0000   1.0000   1.0000   1.0000   1.0000   1.0000
     1.0000   1.0000   1.0000   1.0000   1.0000   1.0000   1.0000   1.0000
     1.0000   1.0000   1.0000   1.0000   0.0000   0.0000   0.0000   0.0000
     0.0000   0.0000   0.0000   0.0000

          k =-0.0884-0.5303 0.7071 (  6044 PWs)   bands (ev):

   -15.2426 -15.2420 -15.2228 -15.2203 -15.1799 -15.1770 -15.1503 -15.1496
   -14.2452 -14.2449 -14.2155 -14.2148 -14.1585 -14.1570 -14.1255 -14.1239
   -14.0380 -14.0375 -14.0050 -14.0047  -1.0781  -1.0781   0.1257   0.1257
     4.1636   4.1638   4.4237   4.4237   8.3231   8.3233   8.5786   8.5787
    11.8296  11.8296  13.0700  13.0701

     occupation numbers 
     1.0000   1.0000   1.0000   1.0000   1.0000   1.0000   1.0000   1.0000
     1.0000   1.0000   1.0000   1.0000   1.0000   1.0000   1.0000   1.0000
     1.0000   1.0000   1.0000   1.0000   1.0000   1.0000   1.0000   1.0000
     1.0000   1.0000   1.0000   1.0000   0.0000   0.0000   0.0000   0.0000
     0.0000   0.0000   0.0000   0.0000

          k =-0.0442-0.4861 0.6629 (  6036 PWs)   bands (ev):

   -15.2440 -15.2433 -15.2204 -15.2169 -15.1840 -15.1801 -15.1481 -15.1473
   -14.2465 -14.2462 -14.2118 -14.2110 -14.1557 -14.1525 -14.1339 -14.1307
   -14.0398 -14.0392 -14.0016 -14.0014  -0.7943  -0.7943  -0.1737  -0.1736
     3.9575   3.9576   4.3756   4.3756   8.4819   8.4820   9.1678   9.1678
    11.6456  11.6457  12.3717  12.3717

     occupation numbers 
     1.0000   1.0000   1.0000   1.0000   1.0000   1.0000   1.0000   1.0000
     1.0000   1.0000   1.0000   1.0000   1.0000   1.0000   1.0000   1.0000
     1.0000   1.0000   1.0000   1.0000   1.0000   1.0000   1.0000   1.0000
     1.0000   1.0000   1.0000   1.0000   0.0000   0.0000   0.0000   0.0000
     0.0000   0.0000   0.0000   0.0000

          k = 0.0000-0.4419 0.6187 (  6039 PWs)   bands (ev):

   -15.2453 -15.2447 -15.2177 -15.2132 -15.1881 -15.1833 -15.1462 -15.1454
   -14.2478 -14.2474 -14.2092 -14.2084 -14.1574 -14.1539 -14.1338 -14.1304
   -14.0417 -14.0410 -13.9999 -13.9996  -0.7962  -0.7961  -0.1624  -0.1623
     3.7674   3.7675   4.4759   4.4759   8.5745   8.5746   9.9796   9.9797
    11.4510  11.4512  11.5540  11.5542

     occupation numbers 
     1.0000   1.0000   1.0000   1.0000   1.0000   1.0000   1.0000   1.0000
     1.0000   1.0000   1.0000   1.0000   1.0000   1.0000   1.0000   1.0000
     1.0000   1.0000   1.0000   1.0000   1.0000   1.0000   1.0000   1.0000
     1.0000   1.0000   1.0000   1.0000   0.0000   0.0000   0.0000   0.0000
     0.0000   0.0000   0.0000   0.0000

          k =-0.7071 0.1768 0.0000 (  6042 PWs)   bands (ev):

   -15.2423 -15.2416 -15.2231 -15.2204 -15.1798 -15.1767 -15.1505 -15.1497
   -14.2445 -14.2442 -14.2152 -14.2145 -14.1511 -14.1453 -14.1401 -14.1344
   -14.0366 -14.0361 -14.0040 -14.0038  -0.5132  -0.5116  -0.4823  -0.4807
     4.1626   4.1628   4.3017   4.3017   8.3390   8.3393   8.4792   8.4794
    12.4733  12.4734  12.6394  12.6394

     occupation numbers 
     1.0000   1.0000   1.0000   1.0000   1.0000   1.0000   1.0000   1.0000
     1.0000   1.0000   1.0000   1.0000   1.0000   1.0000   1.0000   1.0000
     1.0000   1.0000   1.0000   1.0000   1.0000   1.0000   1.0000   1.0000
     1.0000   1.0000   1.0000   1.0000   0.0000   0.0000   0.0000   0.0000
     0.0000   0.0000   0.0000   0.0000

          k =-0.1768-0.4419 0.7071 (  6045 PWs)   bands (ev):

   -15.2457 -15.2452 -15.2177 -15.2142 -15.1867 -15.1830 -15.1466 -15.1460
   -14.2492 -14.2488 -14.2126 -14.2117 -14.1654 -14.1646 -14.1133 -14.1124
   -14.0432 -14.0426 -14.0044 -14.0042  -1.4706  -1.4706   0.6035   0.6036
     3.9357   3.9358   4.7400   4.7400   9.0703   9.0708   9.3441   9.3445
    10.4157  10.4158  12.5189  12.5189

     occupation numbers 
     1.0000   1.0000   1.0000   1.0000   1.0000   1.0000   1.0000   1.0000
     1.0000   1.0000   1.0000   1.0000   1.0000   1.0000   1.0000   1.0000
     1.0000   1.0000   1.0000   1.0000   1.0000   1.0000   1.0000   1.0000
     1.0000   1.0000   1.0000   1.0000   0.0000   0.0000   0.0000   0.0000
     0.0000   0.0000   0.0000   0.0000

          k =-0.1326-0.3977 0.6629 (  6038 PWs)   bands (ev):

   -15.2462 -15.2456 -15.2161 -15.2113 -15.1900 -15.1849 -15.1456 -15.1448
   -14.2484 -14.2480 -14.2102 -14.2093 -14.1636 -14.1622 -14.1216 -14.1200
   -14.0432 -14.0425 -14.0014 -14.0011  -1.1867  -1.1866   0.2651   0.2652
     3.8072   3.8073   4.5838   4.5839   9.1434   9.1436   9.7862   9.7864
    10.5279  10.5280  12.0432  12.0433

     occupation numbers 
     1.0000   1.0000   1.0000   1.0000   1.0000   1.0000   1.0000   1.0000
     1.0000   1.0000   1.0000   1.0000   1.0000   1.0000   1.0000   1.0000
     1.0000   1.0000   1.0000   1.0000   1.0000   1.0000   1.0000   1.0000
     1.0000   1.0000   1.0000   1.0000   0.0000   0.0000   0.0000   0.0000
     0.0000   0.0000   0.0000   0.0000

          k =-0.0884-0.3536 0.6187 (  6030 PWs)   bands (ev):

   -15.2463 -15.2457 -15.2155 -15.2101 -15.1914 -15.1856 -15.1452 -15.1443
   -14.2484 -14.2479 -14.2090 -14.2080 -14.1628 -14.1610 -14.1249 -14.1230
   -14.0433 -14.0426 -14.0002 -13.9999  -1.0485  -1.0485   0.1077   0.1078
     3.7663   3.7664   4.5268   4.5269   9.1487   9.1489   9.8981   9.8982
    11.0419  11.0422  11.3755  11.3758

     occupation numbers 
     1.0000   1.0000   1.0000   1.0000   1.0000   1.0000   1.0000   1.0000
     1.0000   1.0000   1.0000   1.0000   1.0000   1.0000   1.0000   1.0000
     1.0000   1.0000   1.0000   1.0000   1.0000   1.0000   1.0000   1.0000
     1.0000   1.0000   1.0000   1.0000   0.0000   0.0000   0.0000   0.0000
     0.0000   0.0000   0.0000   0.0000

          k =-0.0884-0.4419 0.7071 (  6038 PWs)   bands (ev):

   -15.2451 -15.2444 -15.2185 -15.2143 -15.1869 -15.1824 -15.1467 -15.1458
   -14.2479 -14.2474 -14.2100 -14.2090 -14.1597 -14.1576 -14.1284 -14.1263
   -14.0421 -14.0414 -14.0006 -14.0003  -0.9944  -0.9943   0.0559   0.0560
     3.9199   3.9200   4.3503   4.3503   9.1215   9.1219   9.3373   9.3376
    10.8033  10.8034  12.2064  12.2065

     occupation numbers 
     1.0000   1.0000   1.0000   1.0000   1.0000   1.0000   1.0000   1.0000
     1.0000   1.0000   1.0000   1.0000   1.0000   1.0000   1.0000   1.0000
     1.0000   1.0000   1.0000   1.0000   1.0000   1.0000   1.0000   1.0000
     1.0000   1.0000   1.0000   1.0000   0.0000   0.0000   0.0000   0.0000
     0.0000   0.0000   0.0000   0.0000

          k =-0.0442-0.3977 0.6629 (  6031 PWs)   bands (ev):

   -15.2457 -15.2449 -15.2173 -15.2121 -15.1894 -15.1839 -15.1457 -15.1447
   -14.2486 -14.2481 -14.2075 -14.2064 -14.1574 -14.1541 -14.1349 -14.1315
   -14.0429 -14.0422 -13.9987 -13.9983  -0.7746  -0.7745  -0.1727  -0.1726
     3.8369   3.8370   4.2699   4.2699   9.2669   9.2671   9.9804   9.9805
    10.7237  10.7238  11.3474  11.3475

     occupation numbers 
     1.0000   1.0000   1.0000   1.0000   1.0000   1.0000   1.0000   1.0000
     1.0000   1.0000   1.0000   1.0000   1.0000   1.0000   1.0000   1.0000
     1.0000   1.0000   1.0000   1.0000   1.0000   1.0000   1.0000   1.0000
     1.0000   1.0000   1.0000   1.0000   0.0000   0.0000   0.0000   0.0000
     0.0000   0.0000   0.0000   0.0000

          k =-0.0000-0.3536 0.6187 (  6031 PWs)   bands (ev):

   -15.2461 -15.2453 -15.2164 -15.2109 -15.1907 -15.1848 -15.1453 -15.1444
   -14.2487 -14.2483 -14.2076 -14.2065 -14.1594 -14.1567 -14.1315 -14.1287
   -14.0433 -14.0426 -13.9989 -13.9986  -0.8962  -0.8962  -0.0432  -0.0431
     3.7754   3.7755   4.3701   4.3701   9.3205   9.3207  10.1624  10.1626
    10.6096  10.6098  11.2529  11.2530

     occupation numbers 
     1.0000   1.0000   1.0000   1.0000   1.0000   1.0000   1.0000   1.0000
     1.0000   1.0000   1.0000   1.0000   1.0000   1.0000   1.0000   1.0000
     1.0000   1.0000   1.0000   1.0000   1.0000   1.0000   1.0000   1.0000
     1.0000   1.0000   1.0000   1.0000   0.0000   0.0000   0.0000   0.0000
     0.0000   0.0000   0.0000   0.0000

          k =-0.7071 0.2652 0.0000 (  6040 PWs)   bands (ev):

   -15.2449 -15.2440 -15.2190 -15.2146 -15.1867 -15.1819 -15.1468 -15.1458
   -14.2479 -14.2474 -14.2087 -14.2076 -14.1539 -14.1481 -14.1408 -14.1350
   -14.0416 -14.0409 -13.9993 -13.9990  -0.5020  -0.5004  -0.4609  -0.4592
     3.9830   3.9832   4.1481   4.1482   9.1191   9.1194   9.3153   9.3156
    11.4226  11.4227  11.5321  11.5322

     occupation numbers 
     1.0000   1.0000   1.0000   1.0000   1.0000   1.0000   1.0000   1.0000
     1.0000   1.0000   1.0000   1.0000   1.0000   1.0000   1.0000   1.0000
     1.0000   1.0000   1.0000   1.0000   1.0000   1.0000   1.0000   1.0000
     1.0000   1.0000   1.0000   1.0000   0.0000   0.0000   0.0000   0.0000
     0.0000   0.0000   0.0000   0.0000

          k =-0.7071 0.3536 0.0000 (  6032 PWs)   bands (ev):

   -15.2457 -15.2448 -15.2174 -15.2118 -15.1899 -15.1840 -15.1456 -15.1444
   -14.2490 -14.2485 -14.2062 -14.2049 -14.1549 -14.1491 -14.1414 -14.1355
   -14.0433 -14.0425 -13.9976 -13.9973  -0.4970  -0.4954  -0.4521  -0.4505
     3.9159   3.9161   4.0888   4.0889   9.7268   9.7275  10.0523  10.0529
    10.6983  10.6988  10.7203  10.7207

     occupation numbers 
     1.0000   1.0000   1.0000   1.0000   1.0000   1.0000   1.0000   1.0000
     1.0000   1.0000   1.0000   1.0000   1.0000   1.0000   1.0000   1.0000
     1.0000   1.0000   1.0000   1.0000   1.0000   1.0000   1.0000   1.0000
     1.0000   1.0000   1.0000   1.0000   0.0000   0.0000   0.0000   0.0000
     0.0000   0.0000   0.0000   0.0000

     the Fermi energy is     6.7900 ev

!    total energy              =    -874.81369300 Ry
     Harris-Foulkes estimate   =    -874.81369314 Ry
     estimated scf accuracy    <       0.00000095 Ry

     total all-electron energy =    -24705.623576 Ry

     The total energy is the sum of the following terms:

     one-electron contribution =    -153.90892600 Ry
     hartree contribution      =      95.47073305 Ry
     xc contribution           =     -95.07342623 Ry
     ewald contribution        =    -167.52979533 Ry
     one-center paw contrib.   =    -553.77227829 Ry
     smearing contrib. (-TS)   =      -0.00000019 Ry

     convergence has been achieved in   5 iterations

     Writing output data file Sn.save
 
     init_run     :     14.26s CPU     17.10s WALL (       1 calls)
     electrons    :    285.01s CPU    303.09s WALL (       1 calls)

     Called by init_run:
     wfcinit      :     13.36s CPU     14.62s WALL (       1 calls)
     potinit      :      0.24s CPU      0.53s WALL (       1 calls)

     Called by electrons:
     c_bands      :    239.92s CPU    255.20s WALL (       6 calls)
     sum_band     :     43.57s CPU     46.20s WALL (       6 calls)
     v_of_rho     :      0.08s CPU      0.12s WALL (       6 calls)
     v_h          :      0.01s CPU      0.01s WALL (       6 calls)
     v_xc         :      0.07s CPU      0.09s WALL (       6 calls)
     newd         :      0.49s CPU      0.60s WALL (       6 calls)
     PAW_pot      :      1.17s CPU      1.44s WALL (       6 calls)
     mix_rho      :      0.03s CPU      0.05s WALL (       6 calls)

     Called by c_bands:
     init_us_2    :      0.65s CPU      0.74s WALL (    1885 calls)
     cegterg      :    228.56s CPU    243.53s WALL (     870 calls)

     Called by sum_band:
     sum_band:bec :      2.81s CPU      2.89s WALL (     870 calls)
     addusdens    :      0.39s CPU      0.47s WALL (       6 calls)

     Called by *egterg:
     h_psi        :    200.56s CPU    212.90s WALL (    3221 calls)
     s_psi        :      5.24s CPU      5.27s WALL (    3221 calls)
     g_psi        :      0.52s CPU      0.53s WALL (    2206 calls)
     cdiaghg      :     12.63s CPU     13.12s WALL (    2931 calls)
     cegterg:over :      8.96s CPU      9.00s WALL (    2206 calls)
     cegterg:upda :      4.36s CPU      4.38s WALL (    2206 calls)
     cegterg:last :      2.36s CPU      2.37s WALL (     870 calls)

     Called by h_psi:
     h_psi:vloc   :    187.96s CPU    200.05s WALL (    3221 calls)
     h_psi:vnl    :     12.17s CPU     12.39s WALL (    3221 calls)
     add_vuspsi   :      5.53s CPU      5.56s WALL (    3221 calls)

     General routines
     calbec       :      8.85s CPU      9.07s WALL (    4091 calls)
     fft          :      0.10s CPU      0.56s WALL (     116 calls)
     fftw         :    210.29s CPU    223.81s WALL (  400568 calls)
     davcio       :      0.04s CPU      0.76s WALL (     145 calls)
 
     Parallel routines
     fft_scatter  :    135.24s CPU    144.17s WALL (  400684 calls)

     PAW routines
     PAW_pot      :      1.17s CPU      1.44s WALL (       6 calls)
     PAW_symme    :      0.02s CPU      0.02s WALL (      12 calls)
 
     PWSCF        :  5m 0.87s CPU     5m23.49s WALL

 
   This run was terminated on:  23: 0: 2  16Mar2020            

=------------------------------------------------------------------------------=
   JOB DONE.
=------------------------------------------------------------------------------=
