
     Program PWSCF v.5.4.0 starts on 27Feb2020 at 21:23:23 

     This program is part of the open-source Quantum ESPRESSO suite
     for quantum simulation of materials; please cite
         "P. Giannozzi et al., J. Phys.:Condens. Matter 21 395502 (2009);
          URL http://www.quantum-espresso.org", 
     in publications or presentations arising from this work. More details at
     http://www.quantum-espresso.org/quote

     Parallel version (MPI & OpenMP), running on      16 processor cores
     Number of MPI processes:                16
     Threads/MPI process:                     1
     R & G space division:  proc/nbgrp/npool/nimage =      16
     Waiting for input...
     Reading input from standard input
Warning: card &IONS ignored
Warning: card / ignored
Warning: card &CELL ignored
Warning: card / ignored

     Current dimensions of program PWSCF are:
     Max number of different atomic species (ntypx) = 10
     Max number of k-points (npk) =  40000
     Max angular momentum in pseudopotentials (lmaxx) =  3

     Subspace diagonalization in iterative solution of the eigenvalue problem:
     a serial algorithm will be used

 
     Parallelization info
     --------------------
     sticks:   dense  smooth     PW     G-vecs:    dense   smooth      PW
     Min         217     217     59                 8498     8498    1239
     Max         218     218     60                 8501     8501    1245
     Sum        3481    3481    955               135995   135995   19891
 

     Title: 
     Sn                                                                         


     bravais-lattice index     =            0
     lattice parameter (alat)  =       8.8993  a.u.
     unit-cell volume          =     498.3785 (a.u.)^3
     number of atoms/cell      =            2
     number of atomic types    =            1
     number of electrons       =        28.00
     number of Kohn-Sham states=           18
     kinetic-energy cutoff     =     160.0000  Ry
     charge density cutoff     =     640.0000  Ry
     convergence threshold     =      1.0E-06
     mixing beta               =       0.7000
     number of iterations used =            8  plain     mixing
     Exchange-correlation      = PBE ( 1  4  3  4 0 0)

     celldm(1)=   8.899346  celldm(2)=   0.000000  celldm(3)=   0.000000
     celldm(4)=   0.000000  celldm(5)=   0.000000  celldm(6)=   0.000000

     crystal axes: (cart. coord. in units of alat)
               a(1) = (   0.000000   0.707107   0.707107 )  
               a(2) = (   0.707107   0.000000   0.707107 )  
               a(3) = (   0.707107   0.707107   0.000000 )  

     reciprocal axes: (cart. coord. in units 2 pi/alat)
               b(1) = ( -0.707107  0.707107  0.707107 )  
               b(2) = (  0.707107 -0.707107  0.707107 )  
               b(3) = (  0.707107  0.707107 -0.707107 )  


     PseudoPot. # 1 for Sn read from file:
     ../PseudopotentialDatabase/Sn_ONCV_PBE_FR-1.1.upf
     MD5 check sum: 6dd2180f739ea5ae1610ead5e1628a0e
     Pseudo is Norm-conserving, Zval = 14.0
     Generated using ONCVPSP code by D. R. Hamann
     Using radial grid of  602 points,  6 beta functions with: 
                l(1) =   0
                l(2) =   0
                l(3) =   1
                l(4) =   1
                l(5) =   2
                l(6) =   2

     atomic species   valence    mass     pseudopotential
        Sn            14.00   118.71000     Sn( 1.00)

     48 Sym. Ops., with inversion, found (24 have fractional translation)


                                    s                        frac. trans.

      isym =  1     identity                                     

 cryst.   s( 1) = (     1          0          0      )
                  (     0          1          0      )
                  (     0          0          1      )

 cart.    s( 1) = (  1.0000000  0.0000000  0.0000000 )
                  (  0.0000000  1.0000000  0.0000000 )
                  (  0.0000000  0.0000000  1.0000000 )


      isym =  2     180 deg rotation - cart. axis [0,0,1]        

 cryst.   s( 2) = (     0          1         -1      )
                  (     1          0         -1      )
                  (     0          0         -1      )

 cart.    s( 2) = ( -1.0000000  0.0000000  0.0000000 )
                  (  0.0000000 -1.0000000  0.0000000 )
                  (  0.0000000  0.0000000  1.0000000 )


      isym =  3     180 deg rotation - cart. axis [0,1,0]        

 cryst.   s( 3) = (     0         -1          1      )
                  (     0         -1          0      )
                  (     1         -1          0      )

 cart.    s( 3) = ( -1.0000000  0.0000000  0.0000000 )
                  (  0.0000000  1.0000000  0.0000000 )
                  (  0.0000000  0.0000000 -1.0000000 )


      isym =  4     180 deg rotation - cart. axis [1,0,0]        

 cryst.   s( 4) = (    -1          0          0      )
                  (    -1          0          1      )
                  (    -1          1          0      )

 cart.    s( 4) = (  1.0000000  0.0000000  0.0000000 )
                  (  0.0000000 -1.0000000  0.0000000 )
                  (  0.0000000  0.0000000 -1.0000000 )


      isym =  5     180 deg rotation - cart. axis [1,1,0]        

 cryst.   s( 5) = (    -1          0          1      )    f =( -0.2500000 )
                  (     0         -1          1      )       ( -0.2500000 )
                  (     0          0          1      )       ( -0.2500000 )

 cart.    s( 5) = (  0.0000000  1.0000000  0.0000000 )    f =( -0.3535534 )
                  (  1.0000000  0.0000000  0.0000000 )       ( -0.3535534 )
                  (  0.0000000  0.0000000 -1.0000000 )       ( -0.3535534 )


      isym =  6     180 deg rotation - cart. axis [1,-1,0]       

 cryst.   s( 6) = (     0         -1          0      )    f =( -0.2500000 )
                  (    -1          0          0      )       ( -0.2500000 )
                  (     0          0         -1      )       ( -0.2500000 )

 cart.    s( 6) = (  0.0000000 -1.0000000  0.0000000 )    f =( -0.3535534 )
                  ( -1.0000000  0.0000000  0.0000000 )       ( -0.3535534 )
                  (  0.0000000  0.0000000 -1.0000000 )       ( -0.3535534 )


      isym =  7      90 deg rotation - cart. axis [0,0,-1]       

 cryst.   s( 7) = (     0          1          0      )    f =( -0.2500000 )
                  (     0          1         -1      )       ( -0.2500000 )
                  (    -1          1          0      )       ( -0.2500000 )

 cart.    s( 7) = (  0.0000000  1.0000000  0.0000000 )    f =( -0.3535534 )
                  ( -1.0000000  0.0000000  0.0000000 )       ( -0.3535534 )
                  (  0.0000000  0.0000000  1.0000000 )       ( -0.3535534 )


      isym =  8      90 deg rotation - cart. axis [0,0,1]        

 cryst.   s( 8) = (     1          0         -1      )    f =( -0.2500000 )
                  (     1          0          0      )       ( -0.2500000 )
                  (     1         -1          0      )       ( -0.2500000 )

 cart.    s( 8) = (  0.0000000 -1.0000000  0.0000000 )    f =( -0.3535534 )
                  (  1.0000000  0.0000000  0.0000000 )       ( -0.3535534 )
                  (  0.0000000  0.0000000  1.0000000 )       ( -0.3535534 )


      isym =  9     180 deg rotation - cart. axis [1,0,1]        

 cryst.   s( 9) = (    -1          1          0      )    f =( -0.2500000 )
                  (     0          1          0      )       ( -0.2500000 )
                  (     0          1         -1      )       ( -0.2500000 )

 cart.    s( 9) = (  0.0000000  0.0000000  1.0000000 )    f =( -0.3535534 )
                  (  0.0000000 -1.0000000  0.0000000 )       ( -0.3535534 )
                  (  1.0000000  0.0000000  0.0000000 )       ( -0.3535534 )


      isym = 10     180 deg rotation - cart. axis [-1,0,1]       

 cryst.   s(10) = (     0          0         -1      )    f =( -0.2500000 )
                  (     0         -1          0      )       ( -0.2500000 )
                  (    -1          0          0      )       ( -0.2500000 )

 cart.    s(10) = (  0.0000000  0.0000000 -1.0000000 )    f =( -0.3535534 )
                  (  0.0000000 -1.0000000  0.0000000 )       ( -0.3535534 )
                  ( -1.0000000  0.0000000  0.0000000 )       ( -0.3535534 )


      isym = 11      90 deg rotation - cart. axis [0,1,0]        

 cryst.   s(11) = (     0          0          1      )    f =( -0.2500000 )
                  (    -1          0          1      )       ( -0.2500000 )
                  (     0         -1          1      )       ( -0.2500000 )

 cart.    s(11) = (  0.0000000  0.0000000  1.0000000 )    f =( -0.3535534 )
                  (  0.0000000  1.0000000  0.0000000 )       ( -0.3535534 )
                  ( -1.0000000  0.0000000  0.0000000 )       ( -0.3535534 )


      isym = 12      90 deg rotation - cart. axis [0,-1,0]       

 cryst.   s(12) = (     1         -1          0      )    f =( -0.2500000 )
                  (     1          0         -1      )       ( -0.2500000 )
                  (     1          0          0      )       ( -0.2500000 )

 cart.    s(12) = (  0.0000000  0.0000000 -1.0000000 )    f =( -0.3535534 )
                  (  0.0000000  1.0000000  0.0000000 )       ( -0.3535534 )
                  (  1.0000000  0.0000000  0.0000000 )       ( -0.3535534 )


      isym = 13     180 deg rotation - cart. axis [0,1,1]        

 cryst.   s(13) = (     1          0          0      )    f =( -0.2500000 )
                  (     1         -1          0      )       ( -0.2500000 )
                  (     1          0         -1      )       ( -0.2500000 )

 cart.    s(13) = ( -1.0000000  0.0000000  0.0000000 )    f =( -0.3535534 )
                  (  0.0000000  0.0000000  1.0000000 )       ( -0.3535534 )
                  (  0.0000000  1.0000000  0.0000000 )       ( -0.3535534 )


      isym = 14     180 deg rotation - cart. axis [0,1,-1]       

 cryst.   s(14) = (    -1          0          0      )    f =( -0.2500000 )
                  (     0          0         -1      )       ( -0.2500000 )
                  (     0         -1          0      )       ( -0.2500000 )

 cart.    s(14) = ( -1.0000000  0.0000000  0.0000000 )    f =( -0.3535534 )
                  (  0.0000000  0.0000000 -1.0000000 )       ( -0.3535534 )
                  (  0.0000000 -1.0000000  0.0000000 )       ( -0.3535534 )


      isym = 15      90 deg rotation - cart. axis [-1,0,0]       

 cryst.   s(15) = (     0         -1          1      )    f =( -0.2500000 )
                  (     0          0          1      )       ( -0.2500000 )
                  (    -1          0          1      )       ( -0.2500000 )

 cart.    s(15) = (  1.0000000  0.0000000  0.0000000 )    f =( -0.3535534 )
                  (  0.0000000  0.0000000  1.0000000 )       ( -0.3535534 )
                  (  0.0000000 -1.0000000  0.0000000 )       ( -0.3535534 )


      isym = 16      90 deg rotation - cart. axis [1,0,0]        

 cryst.   s(16) = (     0          1         -1      )    f =( -0.2500000 )
                  (    -1          1          0      )       ( -0.2500000 )
                  (     0          1          0      )       ( -0.2500000 )

 cart.    s(16) = (  1.0000000  0.0000000  0.0000000 )    f =( -0.3535534 )
                  (  0.0000000  0.0000000 -1.0000000 )       ( -0.3535534 )
                  (  0.0000000  1.0000000  0.0000000 )       ( -0.3535534 )


      isym = 17     120 deg rotation - cart. axis [-1,-1,-1]     

 cryst.   s(17) = (     0          0          1      )
                  (     1          0          0      )
                  (     0          1          0      )

 cart.    s(17) = (  0.0000000  1.0000000  0.0000000 )
                  (  0.0000000  0.0000000  1.0000000 )
                  (  1.0000000  0.0000000  0.0000000 )


      isym = 18     120 deg rotation - cart. axis [-1,1,1]       

 cryst.   s(18) = (     1         -1          0      )
                  (     0         -1          1      )
                  (     0         -1          0      )

 cart.    s(18) = (  0.0000000 -1.0000000  0.0000000 )
                  (  0.0000000  0.0000000  1.0000000 )
                  ( -1.0000000  0.0000000  0.0000000 )


      isym = 19     120 deg rotation - cart. axis [1,1,-1]       

 cryst.   s(19) = (    -1          1          0      )
                  (    -1          0          0      )
                  (    -1          0          1      )

 cart.    s(19) = (  0.0000000  1.0000000  0.0000000 )
                  (  0.0000000  0.0000000 -1.0000000 )
                  ( -1.0000000  0.0000000  0.0000000 )


      isym = 20     120 deg rotation - cart. axis [1,-1,1]       

 cryst.   s(20) = (     0          0         -1      )
                  (     0          1         -1      )
                  (     1          0         -1      )

 cart.    s(20) = (  0.0000000 -1.0000000  0.0000000 )
                  (  0.0000000  0.0000000 -1.0000000 )
                  (  1.0000000  0.0000000  0.0000000 )


      isym = 21     120 deg rotation - cart. axis [1,1,1]        

 cryst.   s(21) = (     0          1          0      )
                  (     0          0          1      )
                  (     1          0          0      )

 cart.    s(21) = (  0.0000000  0.0000000  1.0000000 )
                  (  1.0000000  0.0000000  0.0000000 )
                  (  0.0000000  1.0000000  0.0000000 )


      isym = 22     120 deg rotation - cart. axis [-1,1,-1]      

 cryst.   s(22) = (    -1          0          1      )
                  (    -1          1          0      )
                  (    -1          0          0      )

 cart.    s(22) = (  0.0000000  0.0000000  1.0000000 )
                  ( -1.0000000  0.0000000  0.0000000 )
                  (  0.0000000 -1.0000000  0.0000000 )


      isym = 23     120 deg rotation - cart. axis [1,-1,-1]      

 cryst.   s(23) = (     1          0         -1      )
                  (     0          0         -1      )
                  (     0          1         -1      )

 cart.    s(23) = (  0.0000000  0.0000000 -1.0000000 )
                  ( -1.0000000  0.0000000  0.0000000 )
                  (  0.0000000  1.0000000  0.0000000 )


      isym = 24     120 deg rotation - cart. axis [-1,-1,1]      

 cryst.   s(24) = (     0         -1          0      )
                  (     1         -1          0      )
                  (     0         -1          1      )

 cart.    s(24) = (  0.0000000  0.0000000 -1.0000000 )
                  (  1.0000000  0.0000000  0.0000000 )
                  (  0.0000000 -1.0000000  0.0000000 )


      isym = 25     inversion                                    

 cryst.   s(25) = (    -1          0          0      )    f =( -0.2500000 )
                  (     0         -1          0      )       ( -0.2500000 )
                  (     0          0         -1      )       ( -0.2500000 )

 cart.    s(25) = ( -1.0000000  0.0000000  0.0000000 )    f =( -0.3535534 )
                  (  0.0000000 -1.0000000  0.0000000 )       ( -0.3535534 )
                  (  0.0000000  0.0000000 -1.0000000 )       ( -0.3535534 )


      isym = 26     inv. 180 deg rotation - cart. axis [0,0,1]   

 cryst.   s(26) = (     0         -1          1      )    f =( -0.2500000 )
                  (    -1          0          1      )       ( -0.2500000 )
                  (     0          0          1      )       ( -0.2500000 )

 cart.    s(26) = (  1.0000000  0.0000000  0.0000000 )    f =( -0.3535534 )
                  (  0.0000000  1.0000000  0.0000000 )       ( -0.3535534 )
                  (  0.0000000  0.0000000 -1.0000000 )       ( -0.3535534 )


      isym = 27     inv. 180 deg rotation - cart. axis [0,1,0]   

 cryst.   s(27) = (     0          1         -1      )    f =( -0.2500000 )
                  (     0          1          0      )       ( -0.2500000 )
                  (    -1          1          0      )       ( -0.2500000 )

 cart.    s(27) = (  1.0000000  0.0000000  0.0000000 )    f =( -0.3535534 )
                  (  0.0000000 -1.0000000  0.0000000 )       ( -0.3535534 )
                  (  0.0000000  0.0000000  1.0000000 )       ( -0.3535534 )


      isym = 28     inv. 180 deg rotation - cart. axis [1,0,0]   

 cryst.   s(28) = (     1          0          0      )    f =( -0.2500000 )
                  (     1          0         -1      )       ( -0.2500000 )
                  (     1         -1          0      )       ( -0.2500000 )

 cart.    s(28) = ( -1.0000000  0.0000000  0.0000000 )    f =( -0.3535534 )
                  (  0.0000000  1.0000000  0.0000000 )       ( -0.3535534 )
                  (  0.0000000  0.0000000  1.0000000 )       ( -0.3535534 )


      isym = 29     inv. 180 deg rotation - cart. axis [1,1,0]   

 cryst.   s(29) = (     1          0         -1      )
                  (     0          1         -1      )
                  (     0          0         -1      )

 cart.    s(29) = (  0.0000000 -1.0000000  0.0000000 )
                  ( -1.0000000  0.0000000  0.0000000 )
                  (  0.0000000  0.0000000  1.0000000 )


      isym = 30     inv. 180 deg rotation - cart. axis [1,-1,0]  

 cryst.   s(30) = (     0          1          0      )
                  (     1          0          0      )
                  (     0          0          1      )

 cart.    s(30) = (  0.0000000  1.0000000  0.0000000 )
                  (  1.0000000  0.0000000  0.0000000 )
                  (  0.0000000  0.0000000  1.0000000 )


      isym = 31     inv.  90 deg rotation - cart. axis [0,0,-1]  

 cryst.   s(31) = (     0         -1          0      )
                  (     0         -1          1      )
                  (     1         -1          0      )

 cart.    s(31) = (  0.0000000 -1.0000000  0.0000000 )
                  (  1.0000000  0.0000000  0.0000000 )
                  (  0.0000000  0.0000000 -1.0000000 )


      isym = 32     inv.  90 deg rotation - cart. axis [0,0,1]   

 cryst.   s(32) = (    -1          0          1      )
                  (    -1          0          0      )
                  (    -1          1          0      )

 cart.    s(32) = (  0.0000000  1.0000000  0.0000000 )
                  ( -1.0000000  0.0000000  0.0000000 )
                  (  0.0000000  0.0000000 -1.0000000 )


      isym = 33     inv. 180 deg rotation - cart. axis [1,0,1]   

 cryst.   s(33) = (     1         -1          0      )
                  (     0         -1          0      )
                  (     0         -1          1      )

 cart.    s(33) = (  0.0000000  0.0000000 -1.0000000 )
                  (  0.0000000  1.0000000  0.0000000 )
                  ( -1.0000000  0.0000000  0.0000000 )


      isym = 34     inv. 180 deg rotation - cart. axis [-1,0,1]  

 cryst.   s(34) = (     0          0          1      )
                  (     0          1          0      )
                  (     1          0          0      )

 cart.    s(34) = (  0.0000000  0.0000000  1.0000000 )
                  (  0.0000000  1.0000000  0.0000000 )
                  (  1.0000000  0.0000000  0.0000000 )


      isym = 35     inv.  90 deg rotation - cart. axis [0,1,0]   

 cryst.   s(35) = (     0          0         -1      )
                  (     1          0         -1      )
                  (     0          1         -1      )

 cart.    s(35) = (  0.0000000  0.0000000 -1.0000000 )
                  (  0.0000000 -1.0000000  0.0000000 )
                  (  1.0000000  0.0000000  0.0000000 )


      isym = 36     inv.  90 deg rotation - cart. axis [0,-1,0]  

 cryst.   s(36) = (    -1          1          0      )
                  (    -1          0          1      )
                  (    -1          0          0      )

 cart.    s(36) = (  0.0000000  0.0000000  1.0000000 )
                  (  0.0000000 -1.0000000  0.0000000 )
                  ( -1.0000000  0.0000000  0.0000000 )


      isym = 37     inv. 180 deg rotation - cart. axis [0,1,1]   

 cryst.   s(37) = (    -1          0          0      )
                  (    -1          1          0      )
                  (    -1          0          1      )

 cart.    s(37) = (  1.0000000  0.0000000  0.0000000 )
                  (  0.0000000  0.0000000 -1.0000000 )
                  (  0.0000000 -1.0000000  0.0000000 )


      isym = 38     inv. 180 deg rotation - cart. axis [0,1,-1]  

 cryst.   s(38) = (     1          0          0      )
                  (     0          0          1      )
                  (     0          1          0      )

 cart.    s(38) = (  1.0000000  0.0000000  0.0000000 )
                  (  0.0000000  0.0000000  1.0000000 )
                  (  0.0000000  1.0000000  0.0000000 )


      isym = 39     inv.  90 deg rotation - cart. axis [-1,0,0]  

 cryst.   s(39) = (     0          1         -1      )
                  (     0          0         -1      )
                  (     1          0         -1      )

 cart.    s(39) = ( -1.0000000  0.0000000  0.0000000 )
                  (  0.0000000  0.0000000 -1.0000000 )
                  (  0.0000000  1.0000000  0.0000000 )


      isym = 40     inv.  90 deg rotation - cart. axis [1,0,0]   

 cryst.   s(40) = (     0         -1          1      )
                  (     1         -1          0      )
                  (     0         -1          0      )

 cart.    s(40) = ( -1.0000000  0.0000000  0.0000000 )
                  (  0.0000000  0.0000000  1.0000000 )
                  (  0.0000000 -1.0000000  0.0000000 )


      isym = 41     inv. 120 deg rotation - cart. axis [-1,-1,-1]

 cryst.   s(41) = (     0          0         -1      )    f =( -0.2500000 )
                  (    -1          0          0      )       ( -0.2500000 )
                  (     0         -1          0      )       ( -0.2500000 )

 cart.    s(41) = (  0.0000000 -1.0000000  0.0000000 )    f =( -0.3535534 )
                  (  0.0000000  0.0000000 -1.0000000 )       ( -0.3535534 )
                  ( -1.0000000  0.0000000  0.0000000 )       ( -0.3535534 )


      isym = 42     inv. 120 deg rotation - cart. axis [-1,1,1]  

 cryst.   s(42) = (    -1          1          0      )    f =( -0.2500000 )
                  (     0          1         -1      )       ( -0.2500000 )
                  (     0          1          0      )       ( -0.2500000 )

 cart.    s(42) = (  0.0000000  1.0000000  0.0000000 )    f =( -0.3535534 )
                  (  0.0000000  0.0000000 -1.0000000 )       ( -0.3535534 )
                  (  1.0000000  0.0000000  0.0000000 )       ( -0.3535534 )


      isym = 43     inv. 120 deg rotation - cart. axis [1,1,-1]  

 cryst.   s(43) = (     1         -1          0      )    f =( -0.2500000 )
                  (     1          0          0      )       ( -0.2500000 )
                  (     1          0         -1      )       ( -0.2500000 )

 cart.    s(43) = (  0.0000000 -1.0000000  0.0000000 )    f =( -0.3535534 )
                  (  0.0000000  0.0000000  1.0000000 )       ( -0.3535534 )
                  (  1.0000000  0.0000000  0.0000000 )       ( -0.3535534 )


      isym = 44     inv. 120 deg rotation - cart. axis [1,-1,1]  

 cryst.   s(44) = (     0          0          1      )    f =( -0.2500000 )
                  (     0         -1          1      )       ( -0.2500000 )
                  (    -1          0          1      )       ( -0.2500000 )

 cart.    s(44) = (  0.0000000  1.0000000  0.0000000 )    f =( -0.3535534 )
                  (  0.0000000  0.0000000  1.0000000 )       ( -0.3535534 )
                  ( -1.0000000  0.0000000  0.0000000 )       ( -0.3535534 )


      isym = 45     inv. 120 deg rotation - cart. axis [1,1,1]   

 cryst.   s(45) = (     0         -1          0      )    f =( -0.2500000 )
                  (     0          0         -1      )       ( -0.2500000 )
                  (    -1          0          0      )       ( -0.2500000 )

 cart.    s(45) = (  0.0000000  0.0000000 -1.0000000 )    f =( -0.3535534 )
                  ( -1.0000000  0.0000000  0.0000000 )       ( -0.3535534 )
                  (  0.0000000 -1.0000000  0.0000000 )       ( -0.3535534 )


      isym = 46     inv. 120 deg rotation - cart. axis [-1,1,-1] 

 cryst.   s(46) = (     1          0         -1      )    f =( -0.2500000 )
                  (     1         -1          0      )       ( -0.2500000 )
                  (     1          0          0      )       ( -0.2500000 )

 cart.    s(46) = (  0.0000000  0.0000000 -1.0000000 )    f =( -0.3535534 )
                  (  1.0000000  0.0000000  0.0000000 )       ( -0.3535534 )
                  (  0.0000000  1.0000000  0.0000000 )       ( -0.3535534 )


      isym = 47     inv. 120 deg rotation - cart. axis [1,-1,-1] 

 cryst.   s(47) = (    -1          0          1      )    f =( -0.2500000 )
                  (     0          0          1      )       ( -0.2500000 )
                  (     0         -1          1      )       ( -0.2500000 )

 cart.    s(47) = (  0.0000000  0.0000000  1.0000000 )    f =( -0.3535534 )
                  (  1.0000000  0.0000000  0.0000000 )       ( -0.3535534 )
                  (  0.0000000 -1.0000000  0.0000000 )       ( -0.3535534 )


      isym = 48     inv. 120 deg rotation - cart. axis [-1,-1,1] 

 cryst.   s(48) = (     0          1          0      )    f =( -0.2500000 )
                  (    -1          1          0      )       ( -0.2500000 )
                  (     0          1         -1      )       ( -0.2500000 )

 cart.    s(48) = (  0.0000000  0.0000000  1.0000000 )    f =( -0.3535534 )
                  ( -1.0000000  0.0000000  0.0000000 )       ( -0.3535534 )
                  (  0.0000000  1.0000000  0.0000000 )       ( -0.3535534 )


   Cartesian axes

     site n.     atom                  positions (alat units)
         1           Sn  tau(   1) = (   0.0000000   0.0000000   0.0000000  )
         2           Sn  tau(   2) = (   0.3535534   0.3535534   0.3535534  )

   Crystallographic axes

     site n.     atom                  positions (cryst. coord.)
         1           Sn  tau(   1) = (  0.0000000  0.0000000  0.0000000  )
         2           Sn  tau(   2) = (  0.2500000  0.2500000  0.2500000  )

     number of k points=  2300  gaussian smearing, width (Ry)=  0.0001
                       cart. coord. in units 2pi/alat
        k(    1) = (   0.0000000   0.0000000   0.0000000), wk =   0.0000219
        k(    2) = (   0.0157135   0.0157135  -0.0157135), wk =   0.0001756
        k(    3) = (   0.0314270   0.0314270  -0.0314270), wk =   0.0001756
        k(    4) = (   0.0471405   0.0471405  -0.0471405), wk =   0.0001756
        k(    5) = (   0.0628539   0.0628539  -0.0628539), wk =   0.0001756
        k(    6) = (   0.0785674   0.0785674  -0.0785674), wk =   0.0001756
        k(    7) = (   0.0942809   0.0942809  -0.0942809), wk =   0.0001756
        k(    8) = (   0.1099944   0.1099944  -0.1099944), wk =   0.0001756
        k(    9) = (   0.1257079   0.1257079  -0.1257079), wk =   0.0001756
        k(   10) = (   0.1414214   0.1414214  -0.1414214), wk =   0.0001756
        k(   11) = (   0.1571348   0.1571348  -0.1571348), wk =   0.0001756
        k(   12) = (   0.1728483   0.1728483  -0.1728483), wk =   0.0001756
        k(   13) = (   0.1885618   0.1885618  -0.1885618), wk =   0.0001756
        k(   14) = (   0.2042753   0.2042753  -0.2042753), wk =   0.0001756
        k(   15) = (   0.2199888   0.2199888  -0.2199888), wk =   0.0001756
        k(   16) = (   0.2357023   0.2357023  -0.2357023), wk =   0.0001756
        k(   17) = (   0.2514157   0.2514157  -0.2514157), wk =   0.0001756
        k(   18) = (   0.2671292   0.2671292  -0.2671292), wk =   0.0001756
        k(   19) = (   0.2828427   0.2828427  -0.2828427), wk =   0.0001756
        k(   20) = (   0.2985562   0.2985562  -0.2985562), wk =   0.0001756
        k(   21) = (   0.3142697   0.3142697  -0.3142697), wk =   0.0001756
        k(   22) = (   0.3299832   0.3299832  -0.3299832), wk =   0.0001756
        k(   23) = (   0.3456966   0.3456966  -0.3456966), wk =   0.0001756
        k(   24) = (   0.0314270   0.0000000   0.0000000), wk =   0.0001317
        k(   25) = (   0.0471405   0.0157135  -0.0157135), wk =   0.0005267
        k(   26) = (   0.0628539   0.0314270  -0.0314270), wk =   0.0005267
        k(   27) = (   0.0785674   0.0471405  -0.0471405), wk =   0.0005267
        k(   28) = (   0.0942809   0.0628539  -0.0628539), wk =   0.0005267
        k(   29) = (   0.1099944   0.0785674  -0.0785674), wk =   0.0005267
        k(   30) = (   0.1257079   0.0942809  -0.0942809), wk =   0.0005267
        k(   31) = (   0.1414214   0.1099944  -0.1099944), wk =   0.0005267
        k(   32) = (   0.1571348   0.1257079  -0.1257079), wk =   0.0005267
        k(   33) = (   0.1728483   0.1414214  -0.1414214), wk =   0.0005267
        k(   34) = (   0.1885618   0.1571348  -0.1571348), wk =   0.0005267
        k(   35) = (   0.2042753   0.1728483  -0.1728483), wk =   0.0005267
        k(   36) = (   0.2199888   0.1885618  -0.1885618), wk =   0.0005267
        k(   37) = (   0.2357023   0.2042753  -0.2042753), wk =   0.0005267
        k(   38) = (   0.2514157   0.2199888  -0.2199888), wk =   0.0005267
        k(   39) = (   0.2671292   0.2357023  -0.2357023), wk =   0.0005267
        k(   40) = (   0.2828427   0.2514157  -0.2514157), wk =   0.0005267
        k(   41) = (   0.2985562   0.2671292  -0.2671292), wk =   0.0005267
        k(   42) = (   0.3142697   0.2828427  -0.2828427), wk =   0.0005267
        k(   43) = (   0.3299832   0.2985562  -0.2985562), wk =   0.0005267
        k(   44) = (   0.3456966   0.3142697  -0.3142697), wk =   0.0005267
        k(   45) = (   0.3614101   0.3299832  -0.3299832), wk =   0.0005267
        k(   46) = (  -0.3299832  -0.3614101   0.3614101), wk =   0.0005267
        k(   47) = (  -0.3142697  -0.3456966   0.3456966), wk =   0.0005267
        k(   48) = (  -0.2985562  -0.3299832   0.3299832), wk =   0.0005267
        k(   49) = (  -0.2828427  -0.3142697   0.3142697), wk =   0.0005267
        k(   50) = (  -0.2671292  -0.2985562   0.2985562), wk =   0.0005267
        k(   51) = (  -0.2514157  -0.2828427   0.2828427), wk =   0.0005267
        k(   52) = (  -0.2357023  -0.2671292   0.2671292), wk =   0.0005267
        k(   53) = (  -0.2199888  -0.2514157   0.2514157), wk =   0.0005267
        k(   54) = (  -0.2042753  -0.2357023   0.2357023), wk =   0.0005267
        k(   55) = (  -0.1885618  -0.2199888   0.2199888), wk =   0.0005267
        k(   56) = (  -0.1728483  -0.2042753   0.2042753), wk =   0.0005267
        k(   57) = (  -0.1571348  -0.1885618   0.1885618), wk =   0.0005267
        k(   58) = (  -0.1414214  -0.1728483   0.1728483), wk =   0.0005267
        k(   59) = (  -0.1257079  -0.1571348   0.1571348), wk =   0.0005267
        k(   60) = (  -0.1099944  -0.1414214   0.1414214), wk =   0.0005267
        k(   61) = (  -0.0942809  -0.1257079   0.1257079), wk =   0.0005267
        k(   62) = (  -0.0785674  -0.1099944   0.1099944), wk =   0.0005267
        k(   63) = (  -0.0628539  -0.0942809   0.0942809), wk =   0.0005267
        k(   64) = (  -0.0471405  -0.0785674   0.0785674), wk =   0.0005267
        k(   65) = (  -0.0314270  -0.0628539   0.0628539), wk =   0.0005267
        k(   66) = (  -0.0157135  -0.0471405   0.0471405), wk =   0.0005267
        k(   67) = (  -0.0000000  -0.0314270   0.0314270), wk =   0.0002634
        k(   68) = (   0.0628539   0.0000000   0.0000000), wk =   0.0001317
        k(   69) = (   0.0785674   0.0157135  -0.0157135), wk =   0.0005267
        k(   70) = (   0.0942809   0.0314270  -0.0314270), wk =   0.0005267
        k(   71) = (   0.1099944   0.0471405  -0.0471405), wk =   0.0005267
        k(   72) = (   0.1257079   0.0628539  -0.0628539), wk =   0.0005267
        k(   73) = (   0.1414214   0.0785674  -0.0785674), wk =   0.0005267
        k(   74) = (   0.1571348   0.0942809  -0.0942809), wk =   0.0005267
        k(   75) = (   0.1728483   0.1099944  -0.1099944), wk =   0.0005267
        k(   76) = (   0.1885618   0.1257079  -0.1257079), wk =   0.0005267
        k(   77) = (   0.2042753   0.1414214  -0.1414214), wk =   0.0005267
        k(   78) = (   0.2199888   0.1571348  -0.1571348), wk =   0.0005267
        k(   79) = (   0.2357023   0.1728483  -0.1728483), wk =   0.0005267
        k(   80) = (   0.2514157   0.1885618  -0.1885618), wk =   0.0005267
        k(   81) = (   0.2671292   0.2042753  -0.2042753), wk =   0.0005267
        k(   82) = (   0.2828427   0.2199888  -0.2199888), wk =   0.0005267
        k(   83) = (   0.2985562   0.2357023  -0.2357023), wk =   0.0005267
        k(   84) = (   0.3142697   0.2514157  -0.2514157), wk =   0.0005267
        k(   85) = (   0.3299832   0.2671292  -0.2671292), wk =   0.0005267
        k(   86) = (   0.3456966   0.2828427  -0.2828427), wk =   0.0005267
        k(   87) = (   0.3614101   0.2985562  -0.2985562), wk =   0.0005267
        k(   88) = (   0.3771236   0.3142697  -0.3142697), wk =   0.0005267
        k(   89) = (  -0.3142697  -0.3771236   0.3771236), wk =   0.0005267
        k(   90) = (  -0.2985562  -0.3614101   0.3614101), wk =   0.0005267
        k(   91) = (  -0.2828427  -0.3456966   0.3456966), wk =   0.0005267
        k(   92) = (  -0.2671292  -0.3299832   0.3299832), wk =   0.0005267
        k(   93) = (  -0.2514157  -0.3142697   0.3142697), wk =   0.0005267
        k(   94) = (  -0.2357023  -0.2985562   0.2985562), wk =   0.0005267
        k(   95) = (  -0.2199888  -0.2828427   0.2828427), wk =   0.0005267
        k(   96) = (  -0.2042753  -0.2671292   0.2671292), wk =   0.0005267
        k(   97) = (  -0.1885618  -0.2514157   0.2514157), wk =   0.0005267
        k(   98) = (  -0.1728483  -0.2357023   0.2357023), wk =   0.0005267
        k(   99) = (  -0.1571348  -0.2199888   0.2199888), wk =   0.0005267
        k(  100) = (  -0.1414214  -0.2042753   0.2042753), wk =   0.0005267
        k(  101) = (  -0.1257079  -0.1885618   0.1885618), wk =   0.0005267
        k(  102) = (  -0.1099944  -0.1728483   0.1728483), wk =   0.0005267
        k(  103) = (  -0.0942809  -0.1571348   0.1571348), wk =   0.0005267
        k(  104) = (  -0.0785674  -0.1414214   0.1414214), wk =   0.0005267
        k(  105) = (  -0.0628539  -0.1257079   0.1257079), wk =   0.0005267
        k(  106) = (  -0.0471405  -0.1099944   0.1099944), wk =   0.0005267
        k(  107) = (  -0.0314270  -0.0942809   0.0942809), wk =   0.0005267
        k(  108) = (  -0.0157135  -0.0785674   0.0785674), wk =   0.0005267
        k(  109) = (   0.0000000  -0.0628539   0.0628539), wk =   0.0002634
        k(  110) = (   0.0942809   0.0000000   0.0000000), wk =   0.0001317
        k(  111) = (   0.1099944   0.0157135  -0.0157135), wk =   0.0005267
        k(  112) = (   0.1257079   0.0314270  -0.0314270), wk =   0.0005267
        k(  113) = (   0.1414214   0.0471405  -0.0471405), wk =   0.0005267
        k(  114) = (   0.1571348   0.0628539  -0.0628539), wk =   0.0005267
        k(  115) = (   0.1728483   0.0785674  -0.0785674), wk =   0.0005267
        k(  116) = (   0.1885618   0.0942809  -0.0942809), wk =   0.0005267
        k(  117) = (   0.2042753   0.1099944  -0.1099944), wk =   0.0005267
        k(  118) = (   0.2199888   0.1257079  -0.1257079), wk =   0.0005267
        k(  119) = (   0.2357023   0.1414214  -0.1414214), wk =   0.0005267
        k(  120) = (   0.2514157   0.1571348  -0.1571348), wk =   0.0005267
        k(  121) = (   0.2671292   0.1728483  -0.1728483), wk =   0.0005267
        k(  122) = (   0.2828427   0.1885618  -0.1885618), wk =   0.0005267
        k(  123) = (   0.2985562   0.2042753  -0.2042753), wk =   0.0005267
        k(  124) = (   0.3142697   0.2199888  -0.2199888), wk =   0.0005267
        k(  125) = (   0.3299832   0.2357023  -0.2357023), wk =   0.0005267
        k(  126) = (   0.3456966   0.2514157  -0.2514157), wk =   0.0005267
        k(  127) = (   0.3614101   0.2671292  -0.2671292), wk =   0.0005267
        k(  128) = (   0.3771236   0.2828427  -0.2828427), wk =   0.0005267
        k(  129) = (   0.3928371   0.2985562  -0.2985562), wk =   0.0005267
        k(  130) = (  -0.2985562  -0.3928371   0.3928371), wk =   0.0005267
        k(  131) = (  -0.2828427  -0.3771236   0.3771236), wk =   0.0005267
        k(  132) = (  -0.2671292  -0.3614101   0.3614101), wk =   0.0005267
        k(  133) = (  -0.2514157  -0.3456966   0.3456966), wk =   0.0005267
        k(  134) = (  -0.2357023  -0.3299832   0.3299832), wk =   0.0005267
        k(  135) = (  -0.2199888  -0.3142697   0.3142697), wk =   0.0005267
        k(  136) = (  -0.2042753  -0.2985562   0.2985562), wk =   0.0005267
        k(  137) = (  -0.1885618  -0.2828427   0.2828427), wk =   0.0005267
        k(  138) = (  -0.1728483  -0.2671292   0.2671292), wk =   0.0005267
        k(  139) = (  -0.1571348  -0.2514157   0.2514157), wk =   0.0005267
        k(  140) = (  -0.1414214  -0.2357023   0.2357023), wk =   0.0005267
        k(  141) = (  -0.1257079  -0.2199888   0.2199888), wk =   0.0005267
        k(  142) = (  -0.1099944  -0.2042753   0.2042753), wk =   0.0005267
        k(  143) = (  -0.0942809  -0.1885618   0.1885618), wk =   0.0005267
        k(  144) = (  -0.0785674  -0.1728483   0.1728483), wk =   0.0005267
        k(  145) = (  -0.0628539  -0.1571348   0.1571348), wk =   0.0005267
        k(  146) = (  -0.0471405  -0.1414214   0.1414214), wk =   0.0005267
        k(  147) = (  -0.0314270  -0.1257079   0.1257079), wk =   0.0005267
        k(  148) = (  -0.0157135  -0.1099944   0.1099944), wk =   0.0005267
        k(  149) = (   0.0000000  -0.0942809   0.0942809), wk =   0.0002634
        k(  150) = (   0.1257079   0.0000000   0.0000000), wk =   0.0001317
        k(  151) = (   0.1414214   0.0157135  -0.0157135), wk =   0.0005267
        k(  152) = (   0.1571348   0.0314270  -0.0314270), wk =   0.0005267
        k(  153) = (   0.1728483   0.0471405  -0.0471405), wk =   0.0005267
        k(  154) = (   0.1885618   0.0628539  -0.0628539), wk =   0.0005267
        k(  155) = (   0.2042753   0.0785674  -0.0785674), wk =   0.0005267
        k(  156) = (   0.2199888   0.0942809  -0.0942809), wk =   0.0005267
        k(  157) = (   0.2357023   0.1099944  -0.1099944), wk =   0.0005267
        k(  158) = (   0.2514157   0.1257079  -0.1257079), wk =   0.0005267
        k(  159) = (   0.2671292   0.1414214  -0.1414214), wk =   0.0005267
        k(  160) = (   0.2828427   0.1571348  -0.1571348), wk =   0.0005267
        k(  161) = (   0.2985562   0.1728483  -0.1728483), wk =   0.0005267
        k(  162) = (   0.3142697   0.1885618  -0.1885618), wk =   0.0005267
        k(  163) = (   0.3299832   0.2042753  -0.2042753), wk =   0.0005267
        k(  164) = (   0.3456966   0.2199888  -0.2199888), wk =   0.0005267
        k(  165) = (   0.3614101   0.2357023  -0.2357023), wk =   0.0005267
        k(  166) = (   0.3771236   0.2514157  -0.2514157), wk =   0.0005267
        k(  167) = (   0.3928371   0.2671292  -0.2671292), wk =   0.0005267
        k(  168) = (   0.4085506   0.2828427  -0.2828427), wk =   0.0005267
        k(  169) = (  -0.2828427  -0.4085506   0.4085506), wk =   0.0005267
        k(  170) = (  -0.2671292  -0.3928371   0.3928371), wk =   0.0005267
        k(  171) = (  -0.2514157  -0.3771236   0.3771236), wk =   0.0005267
        k(  172) = (  -0.2357023  -0.3614101   0.3614101), wk =   0.0005267
        k(  173) = (  -0.2199888  -0.3456966   0.3456966), wk =   0.0005267
        k(  174) = (  -0.2042753  -0.3299832   0.3299832), wk =   0.0005267
        k(  175) = (  -0.1885618  -0.3142697   0.3142697), wk =   0.0005267
        k(  176) = (  -0.1728483  -0.2985562   0.2985562), wk =   0.0005267
        k(  177) = (  -0.1571348  -0.2828427   0.2828427), wk =   0.0005267
        k(  178) = (  -0.1414214  -0.2671292   0.2671292), wk =   0.0005267
        k(  179) = (  -0.1257079  -0.2514157   0.2514157), wk =   0.0005267
        k(  180) = (  -0.1099944  -0.2357023   0.2357023), wk =   0.0005267
        k(  181) = (  -0.0942809  -0.2199888   0.2199888), wk =   0.0005267
        k(  182) = (  -0.0785674  -0.2042753   0.2042753), wk =   0.0005267
        k(  183) = (  -0.0628539  -0.1885618   0.1885618), wk =   0.0005267
        k(  184) = (  -0.0471405  -0.1728483   0.1728483), wk =   0.0005267
        k(  185) = (  -0.0314270  -0.1571348   0.1571348), wk =   0.0005267
        k(  186) = (  -0.0157135  -0.1414214   0.1414214), wk =   0.0005267
        k(  187) = (  -0.0000000  -0.1257079   0.1257079), wk =   0.0002634
        k(  188) = (   0.1571348   0.0000000   0.0000000), wk =   0.0001317
        k(  189) = (   0.1728483   0.0157135  -0.0157135), wk =   0.0005267
        k(  190) = (   0.1885618   0.0314270  -0.0314270), wk =   0.0005267
        k(  191) = (   0.2042753   0.0471405  -0.0471405), wk =   0.0005267
        k(  192) = (   0.2199888   0.0628539  -0.0628539), wk =   0.0005267
        k(  193) = (   0.2357023   0.0785674  -0.0785674), wk =   0.0005267
        k(  194) = (   0.2514157   0.0942809  -0.0942809), wk =   0.0005267
        k(  195) = (   0.2671292   0.1099944  -0.1099944), wk =   0.0005267
        k(  196) = (   0.2828427   0.1257079  -0.1257079), wk =   0.0005267
        k(  197) = (   0.2985562   0.1414214  -0.1414214), wk =   0.0005267
        k(  198) = (   0.3142697   0.1571348  -0.1571348), wk =   0.0005267
        k(  199) = (   0.3299832   0.1728483  -0.1728483), wk =   0.0005267
        k(  200) = (   0.3456966   0.1885618  -0.1885618), wk =   0.0005267
        k(  201) = (   0.3614101   0.2042753  -0.2042753), wk =   0.0005267
        k(  202) = (   0.3771236   0.2199888  -0.2199888), wk =   0.0005267
        k(  203) = (   0.3928371   0.2357023  -0.2357023), wk =   0.0005267
        k(  204) = (   0.4085506   0.2514157  -0.2514157), wk =   0.0005267
        k(  205) = (   0.4242641   0.2671292  -0.2671292), wk =   0.0005267
        k(  206) = (  -0.2671292  -0.4242641   0.4242641), wk =   0.0005267
        k(  207) = (  -0.2514157  -0.4085506   0.4085506), wk =   0.0005267
        k(  208) = (  -0.2357023  -0.3928371   0.3928371), wk =   0.0005267
        k(  209) = (  -0.2199888  -0.3771236   0.3771236), wk =   0.0005267
        k(  210) = (  -0.2042753  -0.3614101   0.3614101), wk =   0.0005267
        k(  211) = (  -0.1885618  -0.3456966   0.3456966), wk =   0.0005267
        k(  212) = (  -0.1728483  -0.3299832   0.3299832), wk =   0.0005267
        k(  213) = (  -0.1571348  -0.3142697   0.3142697), wk =   0.0005267
        k(  214) = (  -0.1414214  -0.2985562   0.2985562), wk =   0.0005267
        k(  215) = (  -0.1257079  -0.2828427   0.2828427), wk =   0.0005267
        k(  216) = (  -0.1099944  -0.2671292   0.2671292), wk =   0.0005267
        k(  217) = (  -0.0942809  -0.2514157   0.2514157), wk =   0.0005267
        k(  218) = (  -0.0785674  -0.2357023   0.2357023), wk =   0.0005267
        k(  219) = (  -0.0628539  -0.2199888   0.2199888), wk =   0.0005267
        k(  220) = (  -0.0471405  -0.2042753   0.2042753), wk =   0.0005267
        k(  221) = (  -0.0314270  -0.1885618   0.1885618), wk =   0.0005267
        k(  222) = (  -0.0157135  -0.1728483   0.1728483), wk =   0.0005267
        k(  223) = (  -0.0000000  -0.1571348   0.1571348), wk =   0.0002634
        k(  224) = (   0.1885618   0.0000000   0.0000000), wk =   0.0001317
        k(  225) = (   0.2042753   0.0157135  -0.0157135), wk =   0.0005267
        k(  226) = (   0.2199888   0.0314270  -0.0314270), wk =   0.0005267
        k(  227) = (   0.2357023   0.0471405  -0.0471405), wk =   0.0005267
        k(  228) = (   0.2514157   0.0628539  -0.0628539), wk =   0.0005267
        k(  229) = (   0.2671292   0.0785674  -0.0785674), wk =   0.0005267
        k(  230) = (   0.2828427   0.0942809  -0.0942809), wk =   0.0005267
        k(  231) = (   0.2985562   0.1099944  -0.1099944), wk =   0.0005267
        k(  232) = (   0.3142697   0.1257079  -0.1257079), wk =   0.0005267
        k(  233) = (   0.3299832   0.1414214  -0.1414214), wk =   0.0005267
        k(  234) = (   0.3456966   0.1571348  -0.1571348), wk =   0.0005267
        k(  235) = (   0.3614101   0.1728483  -0.1728483), wk =   0.0005267
        k(  236) = (   0.3771236   0.1885618  -0.1885618), wk =   0.0005267
        k(  237) = (   0.3928371   0.2042753  -0.2042753), wk =   0.0005267
        k(  238) = (   0.4085506   0.2199888  -0.2199888), wk =   0.0005267
        k(  239) = (   0.4242641   0.2357023  -0.2357023), wk =   0.0005267
        k(  240) = (   0.4399776   0.2514157  -0.2514157), wk =   0.0005267
        k(  241) = (  -0.2514157  -0.4399776   0.4399776), wk =   0.0005267
        k(  242) = (  -0.2357023  -0.4242641   0.4242641), wk =   0.0005267
        k(  243) = (  -0.2199888  -0.4085506   0.4085506), wk =   0.0005267
        k(  244) = (  -0.2042753  -0.3928371   0.3928371), wk =   0.0005267
        k(  245) = (  -0.1885618  -0.3771236   0.3771236), wk =   0.0005267
        k(  246) = (  -0.1728483  -0.3614101   0.3614101), wk =   0.0005267
        k(  247) = (  -0.1571348  -0.3456966   0.3456966), wk =   0.0005267
        k(  248) = (  -0.1414214  -0.3299832   0.3299832), wk =   0.0005267
        k(  249) = (  -0.1257079  -0.3142697   0.3142697), wk =   0.0005267
        k(  250) = (  -0.1099944  -0.2985562   0.2985562), wk =   0.0005267
        k(  251) = (  -0.0942809  -0.2828427   0.2828427), wk =   0.0005267
        k(  252) = (  -0.0785674  -0.2671292   0.2671292), wk =   0.0005267
        k(  253) = (  -0.0628539  -0.2514157   0.2514157), wk =   0.0005267
        k(  254) = (  -0.0471405  -0.2357023   0.2357023), wk =   0.0005267
        k(  255) = (  -0.0314270  -0.2199888   0.2199888), wk =   0.0005267
        k(  256) = (  -0.0157135  -0.2042753   0.2042753), wk =   0.0005267
        k(  257) = (   0.0000000  -0.1885618   0.1885618), wk =   0.0002634
        k(  258) = (   0.2199888   0.0000000   0.0000000), wk =   0.0001317
        k(  259) = (   0.2357023   0.0157135  -0.0157135), wk =   0.0005267
        k(  260) = (   0.2514157   0.0314270  -0.0314270), wk =   0.0005267
        k(  261) = (   0.2671292   0.0471405  -0.0471405), wk =   0.0005267
        k(  262) = (   0.2828427   0.0628539  -0.0628539), wk =   0.0005267
        k(  263) = (   0.2985562   0.0785674  -0.0785674), wk =   0.0005267
        k(  264) = (   0.3142697   0.0942809  -0.0942809), wk =   0.0005267
        k(  265) = (   0.3299832   0.1099944  -0.1099944), wk =   0.0005267
        k(  266) = (   0.3456966   0.1257079  -0.1257079), wk =   0.0005267
        k(  267) = (   0.3614101   0.1414214  -0.1414214), wk =   0.0005267
        k(  268) = (   0.3771236   0.1571348  -0.1571348), wk =   0.0005267
        k(  269) = (   0.3928371   0.1728483  -0.1728483), wk =   0.0005267
        k(  270) = (   0.4085506   0.1885618  -0.1885618), wk =   0.0005267
        k(  271) = (   0.4242641   0.2042753  -0.2042753), wk =   0.0005267
        k(  272) = (   0.4399776   0.2199888  -0.2199888), wk =   0.0005267
        k(  273) = (   0.4556910   0.2357023  -0.2357023), wk =   0.0005267
        k(  274) = (  -0.2357023  -0.4556910   0.4556910), wk =   0.0005267
        k(  275) = (  -0.2199888  -0.4399776   0.4399776), wk =   0.0005267
        k(  276) = (  -0.2042753  -0.4242641   0.4242641), wk =   0.0005267
        k(  277) = (  -0.1885618  -0.4085506   0.4085506), wk =   0.0005267
        k(  278) = (  -0.1728483  -0.3928371   0.3928371), wk =   0.0005267
        k(  279) = (  -0.1571348  -0.3771236   0.3771236), wk =   0.0005267
        k(  280) = (  -0.1414214  -0.3614101   0.3614101), wk =   0.0005267
        k(  281) = (  -0.1257079  -0.3456966   0.3456966), wk =   0.0005267
        k(  282) = (  -0.1099944  -0.3299832   0.3299832), wk =   0.0005267
        k(  283) = (  -0.0942809  -0.3142697   0.3142697), wk =   0.0005267
        k(  284) = (  -0.0785674  -0.2985562   0.2985562), wk =   0.0005267
        k(  285) = (  -0.0628539  -0.2828427   0.2828427), wk =   0.0005267
        k(  286) = (  -0.0471405  -0.2671292   0.2671292), wk =   0.0005267
        k(  287) = (  -0.0314270  -0.2514157   0.2514157), wk =   0.0005267
        k(  288) = (  -0.0157135  -0.2357023   0.2357023), wk =   0.0005267
        k(  289) = (   0.0000000  -0.2199888   0.2199888), wk =   0.0002634
        k(  290) = (   0.2514157   0.0000000   0.0000000), wk =   0.0001317
        k(  291) = (   0.2671292   0.0157135  -0.0157135), wk =   0.0005267
        k(  292) = (   0.2828427   0.0314270  -0.0314270), wk =   0.0005267
        k(  293) = (   0.2985562   0.0471405  -0.0471405), wk =   0.0005267
        k(  294) = (   0.3142697   0.0628539  -0.0628539), wk =   0.0005267
        k(  295) = (   0.3299832   0.0785674  -0.0785674), wk =   0.0005267
        k(  296) = (   0.3456966   0.0942809  -0.0942809), wk =   0.0005267
        k(  297) = (   0.3614101   0.1099944  -0.1099944), wk =   0.0005267
        k(  298) = (   0.3771236   0.1257079  -0.1257079), wk =   0.0005267
        k(  299) = (   0.3928371   0.1414214  -0.1414214), wk =   0.0005267
        k(  300) = (   0.4085506   0.1571348  -0.1571348), wk =   0.0005267
        k(  301) = (   0.4242641   0.1728483  -0.1728483), wk =   0.0005267
        k(  302) = (   0.4399776   0.1885618  -0.1885618), wk =   0.0005267
        k(  303) = (   0.4556910   0.2042753  -0.2042753), wk =   0.0005267
        k(  304) = (   0.4714045   0.2199888  -0.2199888), wk =   0.0005267
        k(  305) = (  -0.2199888  -0.4714045   0.4714045), wk =   0.0005267
        k(  306) = (  -0.2042753  -0.4556910   0.4556910), wk =   0.0005267
        k(  307) = (  -0.1885618  -0.4399776   0.4399776), wk =   0.0005267
        k(  308) = (  -0.1728483  -0.4242641   0.4242641), wk =   0.0005267
        k(  309) = (  -0.1571348  -0.4085506   0.4085506), wk =   0.0005267
        k(  310) = (  -0.1414214  -0.3928371   0.3928371), wk =   0.0005267
        k(  311) = (  -0.1257079  -0.3771236   0.3771236), wk =   0.0005267
        k(  312) = (  -0.1099944  -0.3614101   0.3614101), wk =   0.0005267
        k(  313) = (  -0.0942809  -0.3456966   0.3456966), wk =   0.0005267
        k(  314) = (  -0.0785674  -0.3299832   0.3299832), wk =   0.0005267
        k(  315) = (  -0.0628539  -0.3142697   0.3142697), wk =   0.0005267
        k(  316) = (  -0.0471405  -0.2985562   0.2985562), wk =   0.0005267
        k(  317) = (  -0.0314270  -0.2828427   0.2828427), wk =   0.0005267
        k(  318) = (  -0.0157135  -0.2671292   0.2671292), wk =   0.0005267
        k(  319) = (  -0.0000000  -0.2514157   0.2514157), wk =   0.0002634
        k(  320) = (   0.2828427   0.0000000   0.0000000), wk =   0.0001317
        k(  321) = (   0.2985562   0.0157135  -0.0157135), wk =   0.0005267
        k(  322) = (   0.3142697   0.0314270  -0.0314270), wk =   0.0005267
        k(  323) = (   0.3299832   0.0471405  -0.0471405), wk =   0.0005267
        k(  324) = (   0.3456966   0.0628539  -0.0628539), wk =   0.0005267
        k(  325) = (   0.3614101   0.0785674  -0.0785674), wk =   0.0005267
        k(  326) = (   0.3771236   0.0942809  -0.0942809), wk =   0.0005267
        k(  327) = (   0.3928371   0.1099944  -0.1099944), wk =   0.0005267
        k(  328) = (   0.4085506   0.1257079  -0.1257079), wk =   0.0005267
        k(  329) = (   0.4242641   0.1414214  -0.1414214), wk =   0.0005267
        k(  330) = (   0.4399776   0.1571348  -0.1571348), wk =   0.0005267
        k(  331) = (   0.4556910   0.1728483  -0.1728483), wk =   0.0005267
        k(  332) = (   0.4714045   0.1885618  -0.1885618), wk =   0.0005267
        k(  333) = (   0.4871180   0.2042753  -0.2042753), wk =   0.0005267
        k(  334) = (  -0.2042753  -0.4871180   0.4871180), wk =   0.0005267
        k(  335) = (  -0.1885618  -0.4714045   0.4714045), wk =   0.0005267
        k(  336) = (  -0.1728483  -0.4556910   0.4556910), wk =   0.0005267
        k(  337) = (  -0.1571348  -0.4399776   0.4399776), wk =   0.0005267
        k(  338) = (  -0.1414214  -0.4242641   0.4242641), wk =   0.0005267
        k(  339) = (  -0.1257079  -0.4085506   0.4085506), wk =   0.0005267
        k(  340) = (  -0.1099944  -0.3928371   0.3928371), wk =   0.0005267
        k(  341) = (  -0.0942809  -0.3771236   0.3771236), wk =   0.0005267
        k(  342) = (  -0.0785674  -0.3614101   0.3614101), wk =   0.0005267
        k(  343) = (  -0.0628539  -0.3456966   0.3456966), wk =   0.0005267
        k(  344) = (  -0.0471405  -0.3299832   0.3299832), wk =   0.0005267
        k(  345) = (  -0.0314270  -0.3142697   0.3142697), wk =   0.0005267
        k(  346) = (  -0.0157135  -0.2985562   0.2985562), wk =   0.0005267
        k(  347) = (   0.0000000  -0.2828427   0.2828427), wk =   0.0002634
        k(  348) = (   0.3142697   0.0000000   0.0000000), wk =   0.0001317
        k(  349) = (   0.3299832   0.0157135  -0.0157135), wk =   0.0005267
        k(  350) = (   0.3456966   0.0314270  -0.0314270), wk =   0.0005267
        k(  351) = (   0.3614101   0.0471405  -0.0471405), wk =   0.0005267
        k(  352) = (   0.3771236   0.0628539  -0.0628539), wk =   0.0005267
        k(  353) = (   0.3928371   0.0785674  -0.0785674), wk =   0.0005267
        k(  354) = (   0.4085506   0.0942809  -0.0942809), wk =   0.0005267
        k(  355) = (   0.4242641   0.1099944  -0.1099944), wk =   0.0005267
        k(  356) = (   0.4399776   0.1257079  -0.1257079), wk =   0.0005267
        k(  357) = (   0.4556910   0.1414214  -0.1414214), wk =   0.0005267
        k(  358) = (   0.4714045   0.1571348  -0.1571348), wk =   0.0005267
        k(  359) = (   0.4871180   0.1728483  -0.1728483), wk =   0.0005267
        k(  360) = (   0.5028315   0.1885618  -0.1885618), wk =   0.0005267
        k(  361) = (  -0.1885618  -0.5028315   0.5028315), wk =   0.0005267
        k(  362) = (  -0.1728483  -0.4871180   0.4871180), wk =   0.0005267
        k(  363) = (  -0.1571348  -0.4714045   0.4714045), wk =   0.0005267
        k(  364) = (  -0.1414214  -0.4556910   0.4556910), wk =   0.0005267
        k(  365) = (  -0.1257079  -0.4399776   0.4399776), wk =   0.0005267
        k(  366) = (  -0.1099944  -0.4242641   0.4242641), wk =   0.0005267
        k(  367) = (  -0.0942809  -0.4085506   0.4085506), wk =   0.0005267
        k(  368) = (  -0.0785674  -0.3928371   0.3928371), wk =   0.0005267
        k(  369) = (  -0.0628539  -0.3771236   0.3771236), wk =   0.0005267
        k(  370) = (  -0.0471405  -0.3614101   0.3614101), wk =   0.0005267
        k(  371) = (  -0.0314270  -0.3456966   0.3456966), wk =   0.0005267
        k(  372) = (  -0.0157135  -0.3299832   0.3299832), wk =   0.0005267
        k(  373) = (   0.0000000  -0.3142697   0.3142697), wk =   0.0002634
        k(  374) = (   0.3456966   0.0000000   0.0000000), wk =   0.0001317
        k(  375) = (   0.3614101   0.0157135  -0.0157135), wk =   0.0005267
        k(  376) = (   0.3771236   0.0314270  -0.0314270), wk =   0.0005267
        k(  377) = (   0.3928371   0.0471405  -0.0471405), wk =   0.0005267
        k(  378) = (   0.4085506   0.0628539  -0.0628539), wk =   0.0005267
        k(  379) = (   0.4242641   0.0785674  -0.0785674), wk =   0.0005267
        k(  380) = (   0.4399776   0.0942809  -0.0942809), wk =   0.0005267
        k(  381) = (   0.4556910   0.1099944  -0.1099944), wk =   0.0005267
        k(  382) = (   0.4714045   0.1257079  -0.1257079), wk =   0.0005267
        k(  383) = (   0.4871180   0.1414214  -0.1414214), wk =   0.0005267
        k(  384) = (   0.5028315   0.1571348  -0.1571348), wk =   0.0005267
        k(  385) = (   0.5185450   0.1728483  -0.1728483), wk =   0.0005267
        k(  386) = (  -0.1728483  -0.5185450   0.5185450), wk =   0.0005267
        k(  387) = (  -0.1571348  -0.5028315   0.5028315), wk =   0.0005267
        k(  388) = (  -0.1414214  -0.4871180   0.4871180), wk =   0.0005267
        k(  389) = (  -0.1257079  -0.4714045   0.4714045), wk =   0.0005267
        k(  390) = (  -0.1099944  -0.4556910   0.4556910), wk =   0.0005267
        k(  391) = (  -0.0942809  -0.4399776   0.4399776), wk =   0.0005267
        k(  392) = (  -0.0785674  -0.4242641   0.4242641), wk =   0.0005267
        k(  393) = (  -0.0628539  -0.4085506   0.4085506), wk =   0.0005267
        k(  394) = (  -0.0471405  -0.3928371   0.3928371), wk =   0.0005267
        k(  395) = (  -0.0314270  -0.3771236   0.3771236), wk =   0.0005267
        k(  396) = (  -0.0157135  -0.3614101   0.3614101), wk =   0.0005267
        k(  397) = (  -0.0000000  -0.3456966   0.3456966), wk =   0.0002634
        k(  398) = (   0.3771236   0.0000000   0.0000000), wk =   0.0001317
        k(  399) = (   0.3928371   0.0157135  -0.0157135), wk =   0.0005267
        k(  400) = (   0.4085506   0.0314270  -0.0314270), wk =   0.0005267
        k(  401) = (   0.4242641   0.0471405  -0.0471405), wk =   0.0005267
        k(  402) = (   0.4399776   0.0628539  -0.0628539), wk =   0.0005267
        k(  403) = (   0.4556910   0.0785674  -0.0785674), wk =   0.0005267
        k(  404) = (   0.4714045   0.0942809  -0.0942809), wk =   0.0005267
        k(  405) = (   0.4871180   0.1099944  -0.1099944), wk =   0.0005267
        k(  406) = (   0.5028315   0.1257079  -0.1257079), wk =   0.0005267
        k(  407) = (   0.5185450   0.1414214  -0.1414214), wk =   0.0005267
        k(  408) = (   0.5342585   0.1571348  -0.1571348), wk =   0.0005267
        k(  409) = (  -0.1571348  -0.5342585   0.5342585), wk =   0.0005267
        k(  410) = (  -0.1414214  -0.5185450   0.5185450), wk =   0.0005267
        k(  411) = (  -0.1257079  -0.5028315   0.5028315), wk =   0.0005267
        k(  412) = (  -0.1099944  -0.4871180   0.4871180), wk =   0.0005267
        k(  413) = (  -0.0942809  -0.4714045   0.4714045), wk =   0.0005267
        k(  414) = (  -0.0785674  -0.4556910   0.4556910), wk =   0.0005267
        k(  415) = (  -0.0628539  -0.4399776   0.4399776), wk =   0.0005267
        k(  416) = (  -0.0471405  -0.4242641   0.4242641), wk =   0.0005267
        k(  417) = (  -0.0314270  -0.4085506   0.4085506), wk =   0.0005267
        k(  418) = (  -0.0157135  -0.3928371   0.3928371), wk =   0.0005267
        k(  419) = (  -0.0000000  -0.3771236   0.3771236), wk =   0.0002634
        k(  420) = (   0.4085506   0.0000000   0.0000000), wk =   0.0001317
        k(  421) = (   0.4242641   0.0157135  -0.0157135), wk =   0.0005267
        k(  422) = (   0.4399776   0.0314270  -0.0314270), wk =   0.0005267
        k(  423) = (   0.4556910   0.0471405  -0.0471405), wk =   0.0005267
        k(  424) = (   0.4714045   0.0628539  -0.0628539), wk =   0.0005267
        k(  425) = (   0.4871180   0.0785674  -0.0785674), wk =   0.0005267
        k(  426) = (   0.5028315   0.0942809  -0.0942809), wk =   0.0005267
        k(  427) = (   0.5185450   0.1099944  -0.1099944), wk =   0.0005267
        k(  428) = (   0.5342585   0.1257079  -0.1257079), wk =   0.0005267
        k(  429) = (   0.5499719   0.1414214  -0.1414214), wk =   0.0005267
        k(  430) = (  -0.1414214  -0.5499719   0.5499719), wk =   0.0005267
        k(  431) = (  -0.1257079  -0.5342585   0.5342585), wk =   0.0005267
        k(  432) = (  -0.1099944  -0.5185450   0.5185450), wk =   0.0005267
        k(  433) = (  -0.0942809  -0.5028315   0.5028315), wk =   0.0005267
        k(  434) = (  -0.0785674  -0.4871180   0.4871180), wk =   0.0005267
        k(  435) = (  -0.0628539  -0.4714045   0.4714045), wk =   0.0005267
        k(  436) = (  -0.0471405  -0.4556910   0.4556910), wk =   0.0005267
        k(  437) = (  -0.0314270  -0.4399776   0.4399776), wk =   0.0005267
        k(  438) = (  -0.0157135  -0.4242641   0.4242641), wk =   0.0005267
        k(  439) = (   0.0000000  -0.4085506   0.4085506), wk =   0.0002634
        k(  440) = (   0.4399776   0.0000000   0.0000000), wk =   0.0001317
        k(  441) = (   0.4556910   0.0157135  -0.0157135), wk =   0.0005267
        k(  442) = (   0.4714045   0.0314270  -0.0314270), wk =   0.0005267
        k(  443) = (   0.4871180   0.0471405  -0.0471405), wk =   0.0005267
        k(  444) = (   0.5028315   0.0628539  -0.0628539), wk =   0.0005267
        k(  445) = (   0.5185450   0.0785674  -0.0785674), wk =   0.0005267
        k(  446) = (   0.5342585   0.0942809  -0.0942809), wk =   0.0005267
        k(  447) = (   0.5499719   0.1099944  -0.1099944), wk =   0.0005267
        k(  448) = (   0.5656854   0.1257079  -0.1257079), wk =   0.0005267
        k(  449) = (  -0.1257079  -0.5656854   0.5656854), wk =   0.0005267
        k(  450) = (  -0.1099944  -0.5499719   0.5499719), wk =   0.0005267
        k(  451) = (  -0.0942809  -0.5342585   0.5342585), wk =   0.0005267
        k(  452) = (  -0.0785674  -0.5185450   0.5185450), wk =   0.0005267
        k(  453) = (  -0.0628539  -0.5028315   0.5028315), wk =   0.0005267
        k(  454) = (  -0.0471405  -0.4871180   0.4871180), wk =   0.0005267
        k(  455) = (  -0.0314270  -0.4714045   0.4714045), wk =   0.0005267
        k(  456) = (  -0.0157135  -0.4556910   0.4556910), wk =   0.0005267
        k(  457) = (   0.0000000  -0.4399776   0.4399776), wk =   0.0002634
        k(  458) = (   0.4714045   0.0000000   0.0000000), wk =   0.0001317
        k(  459) = (   0.4871180   0.0157135  -0.0157135), wk =   0.0005267
        k(  460) = (   0.5028315   0.0314270  -0.0314270), wk =   0.0005267
        k(  461) = (   0.5185450   0.0471405  -0.0471405), wk =   0.0005267
        k(  462) = (   0.5342585   0.0628539  -0.0628539), wk =   0.0005267
        k(  463) = (   0.5499719   0.0785674  -0.0785674), wk =   0.0005267
        k(  464) = (   0.5656854   0.0942809  -0.0942809), wk =   0.0005267
        k(  465) = (   0.5813989   0.1099944  -0.1099944), wk =   0.0005267
        k(  466) = (  -0.1099944  -0.5813989   0.5813989), wk =   0.0005267
        k(  467) = (  -0.0942809  -0.5656854   0.5656854), wk =   0.0005267
        k(  468) = (  -0.0785674  -0.5499719   0.5499719), wk =   0.0005267
        k(  469) = (  -0.0628539  -0.5342585   0.5342585), wk =   0.0005267
        k(  470) = (  -0.0471405  -0.5185450   0.5185450), wk =   0.0005267
        k(  471) = (  -0.0314270  -0.5028315   0.5028315), wk =   0.0005267
        k(  472) = (  -0.0157135  -0.4871180   0.4871180), wk =   0.0005267
        k(  473) = (  -0.0000000  -0.4714045   0.4714045), wk =   0.0002634
        k(  474) = (   0.5028315   0.0000000   0.0000000), wk =   0.0001317
        k(  475) = (   0.5185450   0.0157135  -0.0157135), wk =   0.0005267
        k(  476) = (   0.5342585   0.0314270  -0.0314270), wk =   0.0005267
        k(  477) = (   0.5499719   0.0471405  -0.0471405), wk =   0.0005267
        k(  478) = (   0.5656854   0.0628539  -0.0628539), wk =   0.0005267
        k(  479) = (   0.5813989   0.0785674  -0.0785674), wk =   0.0005267
        k(  480) = (   0.5971124   0.0942809  -0.0942809), wk =   0.0005267
        k(  481) = (  -0.0942809  -0.5971124   0.5971124), wk =   0.0005267
        k(  482) = (  -0.0785674  -0.5813989   0.5813989), wk =   0.0005267
        k(  483) = (  -0.0628539  -0.5656854   0.5656854), wk =   0.0005267
        k(  484) = (  -0.0471405  -0.5499719   0.5499719), wk =   0.0005267
        k(  485) = (  -0.0314270  -0.5342585   0.5342585), wk =   0.0005267
        k(  486) = (  -0.0157135  -0.5185450   0.5185450), wk =   0.0005267
        k(  487) = (   0.0000000  -0.5028315   0.5028315), wk =   0.0002634
        k(  488) = (   0.5342585   0.0000000   0.0000000), wk =   0.0001317
        k(  489) = (   0.5499719   0.0157135  -0.0157135), wk =   0.0005267
        k(  490) = (   0.5656854   0.0314270  -0.0314270), wk =   0.0005267
        k(  491) = (   0.5813989   0.0471405  -0.0471405), wk =   0.0005267
        k(  492) = (   0.5971124   0.0628539  -0.0628539), wk =   0.0005267
        k(  493) = (   0.6128259   0.0785674  -0.0785674), wk =   0.0005267
        k(  494) = (  -0.0785674  -0.6128259   0.6128259), wk =   0.0005267
        k(  495) = (  -0.0628539  -0.5971124   0.5971124), wk =   0.0005267
        k(  496) = (  -0.0471405  -0.5813989   0.5813989), wk =   0.0005267
        k(  497) = (  -0.0314270  -0.5656854   0.5656854), wk =   0.0005267
        k(  498) = (  -0.0157135  -0.5499719   0.5499719), wk =   0.0005267
        k(  499) = (   0.0000000  -0.5342585   0.5342585), wk =   0.0002634
        k(  500) = (   0.5656854   0.0000000   0.0000000), wk =   0.0001317
        k(  501) = (   0.5813989   0.0157135  -0.0157135), wk =   0.0005267
        k(  502) = (   0.5971124   0.0314270  -0.0314270), wk =   0.0005267
        k(  503) = (   0.6128259   0.0471405  -0.0471405), wk =   0.0005267
        k(  504) = (   0.6285394   0.0628539  -0.0628539), wk =   0.0005267
        k(  505) = (  -0.0628539  -0.6285394   0.6285394), wk =   0.0005267
        k(  506) = (  -0.0471405  -0.6128259   0.6128259), wk =   0.0005267
        k(  507) = (  -0.0314270  -0.5971124   0.5971124), wk =   0.0005267
        k(  508) = (  -0.0157135  -0.5813989   0.5813989), wk =   0.0005267
        k(  509) = (   0.0000000  -0.5656854   0.5656854), wk =   0.0002634
        k(  510) = (   0.5971124   0.0000000   0.0000000), wk =   0.0001317
        k(  511) = (   0.6128259   0.0157135  -0.0157135), wk =   0.0005267
        k(  512) = (   0.6285394   0.0314270  -0.0314270), wk =   0.0005267
        k(  513) = (   0.6442528   0.0471405  -0.0471405), wk =   0.0005267
        k(  514) = (  -0.0471405  -0.6442528   0.6442528), wk =   0.0005267
        k(  515) = (  -0.0314270  -0.6285394   0.6285394), wk =   0.0005267
        k(  516) = (  -0.0157135  -0.6128259   0.6128259), wk =   0.0005267
        k(  517) = (  -0.0000000  -0.5971124   0.5971124), wk =   0.0002634
        k(  518) = (   0.6285394   0.0000000   0.0000000), wk =   0.0001317
        k(  519) = (   0.6442528   0.0157135  -0.0157135), wk =   0.0005267
        k(  520) = (   0.6599663   0.0314270  -0.0314270), wk =   0.0005267
        k(  521) = (  -0.0314270  -0.6599663   0.6599663), wk =   0.0005267
        k(  522) = (  -0.0157135  -0.6442528   0.6442528), wk =   0.0005267
        k(  523) = (   0.0000000  -0.6285394   0.6285394), wk =   0.0002634
        k(  524) = (   0.6599663   0.0000000   0.0000000), wk =   0.0001317
        k(  525) = (   0.6756798   0.0157135  -0.0157135), wk =   0.0005267
        k(  526) = (  -0.0157135  -0.6756798   0.6756798), wk =   0.0005267
        k(  527) = (   0.0000000  -0.6599663   0.6599663), wk =   0.0002634
        k(  528) = (   0.6913933   0.0000000   0.0000000), wk =   0.0001317
        k(  529) = (  -0.0000000  -0.6913933   0.6913933), wk =   0.0002634
        k(  530) = (   0.0628539   0.0314270   0.0000000), wk =   0.0005267
        k(  531) = (   0.0785674   0.0471405  -0.0157135), wk =   0.0010535
        k(  532) = (   0.0942809   0.0628539  -0.0314270), wk =   0.0010535
        k(  533) = (   0.1099944   0.0785674  -0.0471405), wk =   0.0010535
        k(  534) = (   0.1257079   0.0942809  -0.0628539), wk =   0.0010535
        k(  535) = (   0.1414214   0.1099944  -0.0785674), wk =   0.0010535
        k(  536) = (   0.1571348   0.1257079  -0.0942809), wk =   0.0010535
        k(  537) = (   0.1728483   0.1414214  -0.1099944), wk =   0.0010535
        k(  538) = (   0.1885618   0.1571348  -0.1257079), wk =   0.0010535
        k(  539) = (   0.2042753   0.1728483  -0.1414214), wk =   0.0010535
        k(  540) = (   0.2199888   0.1885618  -0.1571348), wk =   0.0010535
        k(  541) = (   0.2357023   0.2042753  -0.1728483), wk =   0.0010535
        k(  542) = (   0.2514157   0.2199888  -0.1885618), wk =   0.0010535
        k(  543) = (   0.2671292   0.2357023  -0.2042753), wk =   0.0010535
        k(  544) = (   0.2828427   0.2514157  -0.2199888), wk =   0.0010535
        k(  545) = (   0.2985562   0.2671292  -0.2357023), wk =   0.0010535
        k(  546) = (   0.3142697   0.2828427  -0.2514157), wk =   0.0010535
        k(  547) = (   0.3299832   0.2985562  -0.2671292), wk =   0.0010535
        k(  548) = (   0.3456966   0.3142697  -0.2828427), wk =   0.0010535
        k(  549) = (   0.3614101   0.3299832  -0.2985562), wk =   0.0010535
        k(  550) = (  -0.3299832  -0.3614101   0.3928371), wk =   0.0010535
        k(  551) = (   0.0942809   0.0314270   0.0000000), wk =   0.0005267
        k(  552) = (   0.1099944   0.0471405  -0.0157135), wk =   0.0010535
        k(  553) = (   0.1257079   0.0628539  -0.0314270), wk =   0.0010535
        k(  554) = (   0.1414214   0.0785674  -0.0471405), wk =   0.0010535
        k(  555) = (   0.1571348   0.0942809  -0.0628539), wk =   0.0010535
        k(  556) = (   0.1728483   0.1099944  -0.0785674), wk =   0.0010535
        k(  557) = (   0.1885618   0.1257079  -0.0942809), wk =   0.0010535
        k(  558) = (   0.2042753   0.1414214  -0.1099944), wk =   0.0010535
        k(  559) = (   0.2199888   0.1571348  -0.1257079), wk =   0.0010535
        k(  560) = (   0.2357023   0.1728483  -0.1414214), wk =   0.0010535
        k(  561) = (   0.2514157   0.1885618  -0.1571348), wk =   0.0010535
        k(  562) = (   0.2671292   0.2042753  -0.1728483), wk =   0.0010535
        k(  563) = (   0.2828427   0.2199888  -0.1885618), wk =   0.0010535
        k(  564) = (   0.2985562   0.2357023  -0.2042753), wk =   0.0010535
        k(  565) = (   0.3142697   0.2514157  -0.2199888), wk =   0.0010535
        k(  566) = (   0.3299832   0.2671292  -0.2357023), wk =   0.0010535
        k(  567) = (   0.3456966   0.2828427  -0.2514157), wk =   0.0010535
        k(  568) = (   0.3614101   0.2985562  -0.2671292), wk =   0.0010535
        k(  569) = (   0.3771236   0.3142697  -0.2828427), wk =   0.0010535
        k(  570) = (  -0.3142697  -0.3771236   0.4085506), wk =   0.0010535
        k(  571) = (  -0.2985562  -0.3614101   0.3928371), wk =   0.0010535
        k(  572) = (  -0.2828427  -0.3456966   0.3771236), wk =   0.0010535
        k(  573) = (  -0.2671292  -0.3299832   0.3614101), wk =   0.0010535
        k(  574) = (  -0.2514157  -0.3142697   0.3456966), wk =   0.0010535
        k(  575) = (  -0.2357023  -0.2985562   0.3299832), wk =   0.0010535
        k(  576) = (  -0.2199888  -0.2828427   0.3142697), wk =   0.0010535
        k(  577) = (  -0.2042753  -0.2671292   0.2985562), wk =   0.0010535
        k(  578) = (  -0.1885618  -0.2514157   0.2828427), wk =   0.0010535
        k(  579) = (  -0.1728483  -0.2357023   0.2671292), wk =   0.0010535
        k(  580) = (  -0.1571348  -0.2199888   0.2514157), wk =   0.0010535
        k(  581) = (  -0.1414214  -0.2042753   0.2357023), wk =   0.0010535
        k(  582) = (  -0.1257079  -0.1885618   0.2199888), wk =   0.0010535
        k(  583) = (  -0.1099944  -0.1728483   0.2042753), wk =   0.0010535
        k(  584) = (  -0.0942809  -0.1571348   0.1885618), wk =   0.0010535
        k(  585) = (  -0.0785674  -0.1414214   0.1728483), wk =   0.0010535
        k(  586) = (  -0.0628539  -0.1257079   0.1571348), wk =   0.0010535
        k(  587) = (  -0.0471405  -0.1099944   0.1414214), wk =   0.0010535
        k(  588) = (  -0.0314270  -0.0942809   0.1257079), wk =   0.0010535
        k(  589) = (  -0.0157135  -0.0785674   0.1099944), wk =   0.0010535
        k(  590) = (   0.0000000  -0.0628539   0.0942809), wk =   0.0005267
        k(  591) = (   0.1257079   0.0314270   0.0000000), wk =   0.0005267
        k(  592) = (   0.1414214   0.0471405  -0.0157135), wk =   0.0010535
        k(  593) = (   0.1571348   0.0628539  -0.0314270), wk =   0.0010535
        k(  594) = (   0.1728483   0.0785674  -0.0471405), wk =   0.0010535
        k(  595) = (   0.1885618   0.0942809  -0.0628539), wk =   0.0010535
        k(  596) = (   0.2042753   0.1099944  -0.0785674), wk =   0.0010535
        k(  597) = (   0.2199888   0.1257079  -0.0942809), wk =   0.0010535
        k(  598) = (   0.2357023   0.1414214  -0.1099944), wk =   0.0010535
        k(  599) = (   0.2514157   0.1571348  -0.1257079), wk =   0.0010535
        k(  600) = (   0.2671292   0.1728483  -0.1414214), wk =   0.0010535
        k(  601) = (   0.2828427   0.1885618  -0.1571348), wk =   0.0010535
        k(  602) = (   0.2985562   0.2042753  -0.1728483), wk =   0.0010535
        k(  603) = (   0.3142697   0.2199888  -0.1885618), wk =   0.0010535
        k(  604) = (   0.3299832   0.2357023  -0.2042753), wk =   0.0010535
        k(  605) = (   0.3456966   0.2514157  -0.2199888), wk =   0.0010535
        k(  606) = (   0.3614101   0.2671292  -0.2357023), wk =   0.0010535
        k(  607) = (   0.3771236   0.2828427  -0.2514157), wk =   0.0010535
        k(  608) = (   0.3928371   0.2985562  -0.2671292), wk =   0.0010535
        k(  609) = (  -0.2985562  -0.3928371   0.4242641), wk =   0.0010535
        k(  610) = (  -0.2828427  -0.3771236   0.4085506), wk =   0.0010535
        k(  611) = (  -0.2671292  -0.3614101   0.3928371), wk =   0.0010535
        k(  612) = (  -0.2514157  -0.3456966   0.3771236), wk =   0.0010535
        k(  613) = (  -0.2357023  -0.3299832   0.3614101), wk =   0.0010535
        k(  614) = (  -0.2199888  -0.3142697   0.3456966), wk =   0.0010535
        k(  615) = (  -0.2042753  -0.2985562   0.3299832), wk =   0.0010535
        k(  616) = (  -0.1885618  -0.2828427   0.3142697), wk =   0.0010535
        k(  617) = (  -0.1728483  -0.2671292   0.2985562), wk =   0.0010535
        k(  618) = (  -0.1571348  -0.2514157   0.2828427), wk =   0.0010535
        k(  619) = (  -0.1414214  -0.2357023   0.2671292), wk =   0.0010535
        k(  620) = (  -0.1257079  -0.2199888   0.2514157), wk =   0.0010535
        k(  621) = (  -0.1099944  -0.2042753   0.2357023), wk =   0.0010535
        k(  622) = (  -0.0942809  -0.1885618   0.2199888), wk =   0.0010535
        k(  623) = (  -0.0785674  -0.1728483   0.2042753), wk =   0.0010535
        k(  624) = (  -0.0628539  -0.1571348   0.1885618), wk =   0.0010535
        k(  625) = (  -0.0471405  -0.1414214   0.1728483), wk =   0.0010535
        k(  626) = (  -0.0314270  -0.1257079   0.1571348), wk =   0.0010535
        k(  627) = (  -0.0157135  -0.1099944   0.1414214), wk =   0.0010535
        k(  628) = (   0.0000000  -0.0942809   0.1257079), wk =   0.0005267
        k(  629) = (   0.1571348   0.0314270   0.0000000), wk =   0.0005267
        k(  630) = (   0.1728483   0.0471405  -0.0157135), wk =   0.0010535
        k(  631) = (   0.1885618   0.0628539  -0.0314270), wk =   0.0010535
        k(  632) = (   0.2042753   0.0785674  -0.0471405), wk =   0.0010535
        k(  633) = (   0.2199888   0.0942809  -0.0628539), wk =   0.0010535
        k(  634) = (   0.2357023   0.1099944  -0.0785674), wk =   0.0010535
        k(  635) = (   0.2514157   0.1257079  -0.0942809), wk =   0.0010535
        k(  636) = (   0.2671292   0.1414214  -0.1099944), wk =   0.0010535
        k(  637) = (   0.2828427   0.1571348  -0.1257079), wk =   0.0010535
        k(  638) = (   0.2985562   0.1728483  -0.1414214), wk =   0.0010535
        k(  639) = (   0.3142697   0.1885618  -0.1571348), wk =   0.0010535
        k(  640) = (   0.3299832   0.2042753  -0.1728483), wk =   0.0010535
        k(  641) = (   0.3456966   0.2199888  -0.1885618), wk =   0.0010535
        k(  642) = (   0.3614101   0.2357023  -0.2042753), wk =   0.0010535
        k(  643) = (   0.3771236   0.2514157  -0.2199888), wk =   0.0010535
        k(  644) = (   0.3928371   0.2671292  -0.2357023), wk =   0.0010535
        k(  645) = (   0.4085506   0.2828427  -0.2514157), wk =   0.0010535
        k(  646) = (  -0.2828427  -0.4085506   0.4399776), wk =   0.0010535
        k(  647) = (  -0.2671292  -0.3928371   0.4242641), wk =   0.0010535
        k(  648) = (  -0.2514157  -0.3771236   0.4085506), wk =   0.0010535
        k(  649) = (  -0.2357023  -0.3614101   0.3928371), wk =   0.0010535
        k(  650) = (  -0.2199888  -0.3456966   0.3771236), wk =   0.0010535
        k(  651) = (  -0.2042753  -0.3299832   0.3614101), wk =   0.0010535
        k(  652) = (  -0.1885618  -0.3142697   0.3456966), wk =   0.0010535
        k(  653) = (  -0.1728483  -0.2985562   0.3299832), wk =   0.0010535
        k(  654) = (  -0.1571348  -0.2828427   0.3142697), wk =   0.0010535
        k(  655) = (  -0.1414214  -0.2671292   0.2985562), wk =   0.0010535
        k(  656) = (  -0.1257079  -0.2514157   0.2828427), wk =   0.0010535
        k(  657) = (  -0.1099944  -0.2357023   0.2671292), wk =   0.0010535
        k(  658) = (  -0.0942809  -0.2199888   0.2514157), wk =   0.0010535
        k(  659) = (  -0.0785674  -0.2042753   0.2357023), wk =   0.0010535
        k(  660) = (  -0.0628539  -0.1885618   0.2199888), wk =   0.0010535
        k(  661) = (  -0.0471405  -0.1728483   0.2042753), wk =   0.0010535
        k(  662) = (  -0.0314270  -0.1571348   0.1885618), wk =   0.0010535
        k(  663) = (  -0.0157135  -0.1414214   0.1728483), wk =   0.0010535
        k(  664) = (  -0.0000000  -0.1257079   0.1571348), wk =   0.0005267
        k(  665) = (   0.1885618   0.0314270   0.0000000), wk =   0.0005267
        k(  666) = (   0.2042753   0.0471405  -0.0157135), wk =   0.0010535
        k(  667) = (   0.2199888   0.0628539  -0.0314270), wk =   0.0010535
        k(  668) = (   0.2357023   0.0785674  -0.0471405), wk =   0.0010535
        k(  669) = (   0.2514157   0.0942809  -0.0628539), wk =   0.0010535
        k(  670) = (   0.2671292   0.1099944  -0.0785674), wk =   0.0010535
        k(  671) = (   0.2828427   0.1257079  -0.0942809), wk =   0.0010535
        k(  672) = (   0.2985562   0.1414214  -0.1099944), wk =   0.0010535
        k(  673) = (   0.3142697   0.1571348  -0.1257079), wk =   0.0010535
        k(  674) = (   0.3299832   0.1728483  -0.1414214), wk =   0.0010535
        k(  675) = (   0.3456966   0.1885618  -0.1571348), wk =   0.0010535
        k(  676) = (   0.3614101   0.2042753  -0.1728483), wk =   0.0010535
        k(  677) = (   0.3771236   0.2199888  -0.1885618), wk =   0.0010535
        k(  678) = (   0.3928371   0.2357023  -0.2042753), wk =   0.0010535
        k(  679) = (   0.4085506   0.2514157  -0.2199888), wk =   0.0010535
        k(  680) = (   0.4242641   0.2671292  -0.2357023), wk =   0.0010535
        k(  681) = (  -0.2671292  -0.4242641   0.4556910), wk =   0.0010535
        k(  682) = (  -0.2514157  -0.4085506   0.4399776), wk =   0.0010535
        k(  683) = (  -0.2357023  -0.3928371   0.4242641), wk =   0.0010535
        k(  684) = (  -0.2199888  -0.3771236   0.4085506), wk =   0.0010535
        k(  685) = (  -0.2042753  -0.3614101   0.3928371), wk =   0.0010535
        k(  686) = (  -0.1885618  -0.3456966   0.3771236), wk =   0.0010535
        k(  687) = (  -0.1728483  -0.3299832   0.3614101), wk =   0.0010535
        k(  688) = (  -0.1571348  -0.3142697   0.3456966), wk =   0.0010535
        k(  689) = (  -0.1414214  -0.2985562   0.3299832), wk =   0.0010535
        k(  690) = (  -0.1257079  -0.2828427   0.3142697), wk =   0.0010535
        k(  691) = (  -0.1099944  -0.2671292   0.2985562), wk =   0.0010535
        k(  692) = (  -0.0942809  -0.2514157   0.2828427), wk =   0.0010535
        k(  693) = (  -0.0785674  -0.2357023   0.2671292), wk =   0.0010535
        k(  694) = (  -0.0628539  -0.2199888   0.2514157), wk =   0.0010535
        k(  695) = (  -0.0471405  -0.2042753   0.2357023), wk =   0.0010535
        k(  696) = (  -0.0314270  -0.1885618   0.2199888), wk =   0.0010535
        k(  697) = (  -0.0157135  -0.1728483   0.2042753), wk =   0.0010535
        k(  698) = (  -0.0000000  -0.1571348   0.1885618), wk =   0.0005267
        k(  699) = (   0.2199888   0.0314270   0.0000000), wk =   0.0005267
        k(  700) = (   0.2357023   0.0471405  -0.0157135), wk =   0.0010535
        k(  701) = (   0.2514157   0.0628539  -0.0314270), wk =   0.0010535
        k(  702) = (   0.2671292   0.0785674  -0.0471405), wk =   0.0010535
        k(  703) = (   0.2828427   0.0942809  -0.0628539), wk =   0.0010535
        k(  704) = (   0.2985562   0.1099944  -0.0785674), wk =   0.0010535
[...]
    13.2979  13.6791

     occupation numbers 
     1.0000   1.0000   1.0000   1.0000   1.0000   1.0000   1.0000   1.0000
     1.0000   1.0000   1.0000   1.0000   1.0000   1.0000   0.0000   0.0000
     0.0000   0.0000

          k =-0.0157-0.4243 0.6757 ( 17061 PWs)   bands (ev):

   -12.4224 -12.4192 -12.2837 -12.2668 -12.2199 -12.2097 -12.1922 -12.1776
   -12.0473 -12.0440   0.1530   0.4434   5.8108   6.0490  10.7771  11.2487
    13.2602  13.4533

     occupation numbers 
     1.0000   1.0000   1.0000   1.0000   1.0000   1.0000   1.0000   1.0000
     1.0000   1.0000   1.0000   1.0000   1.0000   1.0000   0.0000   0.0000
     0.0000   0.0000

          k = 0.0000-0.4086 0.6600 ( 17073 PWs)   bands (ev):

   -12.4233 -12.4188 -12.2846 -12.2618 -12.2216 -12.2094 -12.1960 -12.1766
   -12.0476 -12.0432   0.1137   0.4855   5.7584   6.0887  10.7719  11.4562
    13.1866  13.3043

     occupation numbers 
     1.0000   1.0000   1.0000   1.0000   1.0000   1.0000   1.0000   1.0000
     1.0000   1.0000   1.0000   1.0000   1.0000   1.0000   0.0000   0.0000
     0.0000   0.0000

          k =-0.0157-0.4557 0.7071 ( 17065 PWs)   bands (ev):

   -12.4202 -12.4196 -12.2838 -12.2760 -12.2173 -12.2098 -12.1848 -12.1781
   -12.0468 -12.0464   0.2045   0.3860   5.9281   5.9916  10.7675  10.7947
    13.5297  13.7266

     occupation numbers 
     1.0000   1.0000   1.0000   1.0000   1.0000   1.0000   1.0000   1.0000
     1.0000   1.0000   1.0000   1.0000   1.0000   1.0000   0.0000   0.0000
     0.0000   0.0000

          k = 0.0000-0.4400 0.6914 ( 17059 PWs)   bands (ev):

   -12.4213 -12.4196 -12.2812 -12.2739 -12.2158 -12.2125 -12.1865 -12.1800
   -12.0468 -12.0452   0.2408   0.3518   5.8814   5.9976  10.7823  11.0191
    13.4685  13.5019

     occupation numbers 
     1.0000   1.0000   1.0000   1.0000   1.0000   1.0000   1.0000   1.0000
     1.0000   1.0000   1.0000   1.0000   1.0000   1.0000   0.0000   0.0000
     0.0000   0.0000

          k =-0.1414-0.4243 0.7071 ( 17068 PWs)   bands (ev):

   -12.4211 -12.4152 -12.3066 -12.2463 -12.2379 -12.2158 -12.1829 -12.1601
   -12.0513 -12.0464  -0.4370   1.0917   5.7566   6.4150  10.6024  11.2257
    12.7751  14.0633

     occupation numbers 
     1.0000   1.0000   1.0000   1.0000   1.0000   1.0000   1.0000   1.0000
     1.0000   1.0000   1.0000   1.0000   1.0000   1.0000   0.0000   0.0000
     0.0000   0.0000

          k =-0.1257-0.4086 0.6914 ( 17046 PWs)   bands (ev):

   -12.4222 -12.4160 -12.3018 -12.2431 -12.2399 -12.2134 -12.1878 -12.1637
   -12.0505 -12.0450  -0.3418   0.9811   5.7233   6.3570  10.6591  11.3641
    12.7751  13.9071

     occupation numbers 
     1.0000   1.0000   1.0000   1.0000   1.0000   1.0000   1.0000   1.0000
     1.0000   1.0000   1.0000   1.0000   1.0000   1.0000   0.0000   0.0000
     0.0000   0.0000

          k =-0.1100-0.3928 0.6757 ( 17044 PWs)   bands (ev):

   -12.4231 -12.4165 -12.2979 -12.2431 -12.2383 -12.2118 -12.1921 -12.1665
   -12.0499 -12.0438  -0.2564   0.8840   5.6994   6.3110  10.6907  11.5026
    12.8038  13.7215

     occupation numbers 
     1.0000   1.0000   1.0000   1.0000   1.0000   1.0000   1.0000   1.0000
     1.0000   1.0000   1.0000   1.0000   1.0000   1.0000   0.0000   0.0000
     0.0000   0.0000

          k =-0.0943-0.3771 0.6600 ( 17041 PWs)   bands (ev):

   -12.4237 -12.4169 -12.2951 -12.2445 -12.2352 -12.2115 -12.1951 -12.1686
   -12.0496 -12.0430  -0.1893   0.8090   5.6840   6.2791  10.7073  11.6132
    12.8627  13.5365

     occupation numbers 
     1.0000   1.0000   1.0000   1.0000   1.0000   1.0000   1.0000   1.0000
     1.0000   1.0000   1.0000   1.0000   1.0000   1.0000   0.0000   0.0000
     0.0000   0.0000

          k =-0.0786-0.3614 0.6443 ( 17048 PWs)   bands (ev):

   -12.4241 -12.4171 -12.2936 -12.2453 -12.2331 -12.2119 -12.1964 -12.1696
   -12.0494 -12.0426  -0.1513   0.7670   5.6766   6.2628  10.7145  11.6741
    12.9284  13.4011

     occupation numbers 
     1.0000   1.0000   1.0000   1.0000   1.0000   1.0000   1.0000   1.0000
     1.0000   1.0000   1.0000   1.0000   1.0000   1.0000   0.0000   0.0000
     0.0000   0.0000

          k =-0.1100-0.4243 0.7071 ( 17047 PWs)   bands (ev):

   -12.4216 -12.4168 -12.3004 -12.2466 -12.2395 -12.2087 -12.1898 -12.1646
   -12.0497 -12.0455  -0.2813   0.9121   5.7636   6.2790  10.7275  11.1772
    12.8484  13.9681

     occupation numbers 
     1.0000   1.0000   1.0000   1.0000   1.0000   1.0000   1.0000   1.0000
     1.0000   1.0000   1.0000   1.0000   1.0000   1.0000   0.0000   0.0000
     0.0000   0.0000

          k =-0.0943-0.4086 0.6914 ( 17042 PWs)   bands (ev):

   -12.4225 -12.4175 -12.2956 -12.2488 -12.2361 -12.2065 -12.1945 -12.1683
   -12.0489 -12.0444  -0.1890   0.8096   5.7413   6.2250  10.7907  11.3176
    12.8419  13.7686

     occupation numbers 
     1.0000   1.0000   1.0000   1.0000   1.0000   1.0000   1.0000   1.0000
     1.0000   1.0000   1.0000   1.0000   1.0000   1.0000   0.0000   0.0000
     0.0000   0.0000

          k =-0.0786-0.3928 0.6757 ( 17053 PWs)   bands (ev):

   -12.4232 -12.4180 -12.2918 -12.2504 -12.2328 -12.2059 -12.1978 -12.1712
   -12.0484 -12.0435  -0.1115   0.7252   5.7240   6.1880  10.8211  11.4640
    12.8596  13.5630

     occupation numbers 
     1.0000   1.0000   1.0000   1.0000   1.0000   1.0000   1.0000   1.0000
     1.0000   1.0000   1.0000   1.0000   1.0000   1.0000   0.0000   0.0000
     0.0000   0.0000

          k =-0.0629-0.3771 0.6600 ( 17052 PWs)   bands (ev):

   -12.4237 -12.4182 -12.2895 -12.2510 -12.2305 -12.2070 -12.1992 -12.1728
   -12.0482 -12.0429  -0.0616   0.6717   5.7104   6.1704  10.8336  11.5804
    12.8978  13.3860

     occupation numbers 
     1.0000   1.0000   1.0000   1.0000   1.0000   1.0000   1.0000   1.0000
     1.0000   1.0000   1.0000   1.0000   1.0000   1.0000   0.0000   0.0000
     0.0000   0.0000

          k =-0.0471-0.3614 0.6443 ( 17049 PWs)   bands (ev):

   -12.4239 -12.4182 -12.2889 -12.2505 -12.2300 -12.2077 -12.1997 -12.1731
   -12.0482 -12.0426  -0.0531   0.6628   5.7002   6.1732  10.8340  11.6403
    12.9167  13.3035

     occupation numbers 
     1.0000   1.0000   1.0000   1.0000   1.0000   1.0000   1.0000   1.0000
     1.0000   1.0000   1.0000   1.0000   1.0000   1.0000   0.0000   0.0000
     0.0000   0.0000

          k =-0.0314-0.3457 0.6285 ( 17055 PWs)   bands (ev):

   -12.4239 -12.4180 -12.2902 -12.2488 -12.2319 -12.2073 -12.1996 -12.1721
   -12.0484 -12.0428  -0.0889   0.7014   5.6946   6.1955  10.8224  11.6323
    12.8693  13.3746

     occupation numbers 
     1.0000   1.0000   1.0000   1.0000   1.0000   1.0000   1.0000   1.0000
     1.0000   1.0000   1.0000   1.0000   1.0000   1.0000   0.0000   0.0000
     0.0000   0.0000

          k =-0.0157-0.3300 0.6128 ( 17051 PWs)   bands (ev):

   -12.4235 -12.4176 -12.2931 -12.2463 -12.2352 -12.2079 -12.1974 -12.1701
   -12.0488 -12.0432  -0.1576   0.7760   5.6953   6.2353  10.7948  11.5652
    12.8102  13.5371

     occupation numbers 
     1.0000   1.0000   1.0000   1.0000   1.0000   1.0000   1.0000   1.0000
     1.0000   1.0000   1.0000   1.0000   1.0000   1.0000   0.0000   0.0000
     0.0000   0.0000

          k = 0.0000-0.3143 0.5971 ( 17046 PWs)   bands (ev):

   -12.4230 -12.4169 -12.2971 -12.2434 -12.2390 -12.2102 -12.1930 -12.1672
   -12.0495 -12.0440  -0.2451   0.8725   5.7043   6.2901  10.7435  11.4653
    12.7782  13.7269

     occupation numbers 
     1.0000   1.0000   1.0000   1.0000   1.0000   1.0000   1.0000   1.0000
     1.0000   1.0000   1.0000   1.0000   1.0000   1.0000   0.0000   0.0000
     0.0000   0.0000

          k =-0.0786-0.4243 0.7071 ( 17052 PWs)   bands (ev):

   -12.4218 -12.4182 -12.2938 -12.2552 -12.2326 -12.2016 -12.1969 -12.1697
   -12.0482 -12.0450  -0.1209   0.7339   5.7874   6.1573  10.8314  11.1315
    12.9559  13.8160

     occupation numbers 
     1.0000   1.0000   1.0000   1.0000   1.0000   1.0000   1.0000   1.0000
     1.0000   1.0000   1.0000   1.0000   1.0000   1.0000   0.0000   0.0000
     0.0000   0.0000

          k =-0.0629-0.4086 0.6914 ( 17056 PWs)   bands (ev):

   -12.4225 -12.4189 -12.2890 -12.2571 -12.2293 -12.2020 -12.1991 -12.1735
   -12.0475 -12.0441  -0.0331   0.6405   5.7749   6.1091  10.8965  11.2760
    12.9420  13.5960

     occupation numbers 
     1.0000   1.0000   1.0000   1.0000   1.0000   1.0000   1.0000   1.0000
     1.0000   1.0000   1.0000   1.0000   1.0000   1.0000   0.0000   0.0000
     0.0000   0.0000

          k =-0.0471-0.3928 0.6757 ( 17060 PWs)   bands (ev):

   -12.4231 -12.4192 -12.2856 -12.2578 -12.2267 -12.2057 -12.1981 -12.1759
   -12.0472 -12.0434   0.0301   0.5745   5.7590   6.0866  10.9178  11.4340
    12.9460  13.3922

     occupation numbers 
     1.0000   1.0000   1.0000   1.0000   1.0000   1.0000   1.0000   1.0000
     1.0000   1.0000   1.0000   1.0000   1.0000   1.0000   0.0000   0.0000
     0.0000   0.0000

          k =-0.0314-0.3771 0.6600 ( 17057 PWs)   bands (ev):

   -12.4235 -12.4192 -12.2846 -12.2568 -12.2260 -12.2074 -12.1987 -12.1765
   -12.0472 -12.0429   0.0469   0.5574   5.7390   6.0919  10.9183  11.5581
    12.9525  13.2504

     occupation numbers 
     1.0000   1.0000   1.0000   1.0000   1.0000   1.0000   1.0000   1.0000
     1.0000   1.0000   1.0000   1.0000   1.0000   1.0000   0.0000   0.0000
     0.0000   0.0000

          k =-0.0157-0.3614 0.6443 ( 17057 PWs)   bands (ev):

   -12.4238 -12.4189 -12.2859 -12.2540 -12.2278 -12.2060 -12.2009 -12.1754
   -12.0475 -12.0427   0.0091   0.5976   5.7184   6.1217  10.9014  11.6203
    12.9107  13.2478

     occupation numbers 
     1.0000   1.0000   1.0000   1.0000   1.0000   1.0000   1.0000   1.0000
     1.0000   1.0000   1.0000   1.0000   1.0000   1.0000   0.0000   0.0000
     0.0000   0.0000

          k =-0.0000-0.3457 0.6285 ( 17058 PWs)   bands (ev):

   -12.4238 -12.4183 -12.2889 -12.2503 -12.2313 -12.2042 -12.2021 -12.1731
   -12.0480 -12.0428  -0.0656   0.6770   5.7025   6.1710  10.8629  11.6154
    12.8469  13.3660

     occupation numbers 
     1.0000   1.0000   1.0000   1.0000   1.0000   1.0000   1.0000   1.0000
     1.0000   1.0000   1.0000   1.0000   1.0000   1.0000   0.0000   0.0000
     0.0000   0.0000

          k =-0.0471-0.4243 0.7071 ( 17060 PWs)   bands (ev):

   -12.4217 -12.4195 -12.2868 -12.2635 -12.2255 -12.2040 -12.1947 -12.1754
   -12.0469 -12.0449   0.0438   0.5576   5.8281   6.0507  10.9152  11.0862
    13.0954  13.6347

     occupation numbers 
     1.0000   1.0000   1.0000   1.0000   1.0000   1.0000   1.0000   1.0000
     1.0000   1.0000   1.0000   1.0000   1.0000   1.0000   0.0000   0.0000
     0.0000   0.0000

          k =-0.0314-0.4086 0.6914 ( 17067 PWs)   bands (ev):

   -12.4222 -12.4200 -12.2822 -12.2649 -12.2226 -12.2082 -12.1932 -12.1789
   -12.0464 -12.0442   0.1228   0.4768   5.8206   6.0135  10.9699  11.2422
    13.0739  13.4130

     occupation numbers 
     1.0000   1.0000   1.0000   1.0000   1.0000   1.0000   1.0000   1.0000
     1.0000   1.0000   1.0000   1.0000   1.0000   1.0000   0.0000   0.0000
     0.0000   0.0000

          k =-0.0157-0.3928 0.6757 ( 17064 PWs)   bands (ev):

   -12.4229 -12.4199 -12.2807 -12.2635 -12.2215 -12.2104 -12.1941 -12.1798
   -12.0464 -12.0435   0.1472   0.4528   5.7914   6.0208  10.9705  11.4165
    13.0575  13.2339

     occupation numbers 
     1.0000   1.0000   1.0000   1.0000   1.0000   1.0000   1.0000   1.0000
     1.0000   1.0000   1.0000   1.0000   1.0000   1.0000   0.0000   0.0000
     0.0000   0.0000

          k =-0.0000-0.3771 0.6600 ( 17067 PWs)   bands (ev):

   -12.4234 -12.4195 -12.2824 -12.2592 -12.2239 -12.2090 -12.1973 -12.1782
   -12.0468 -12.0430   0.0964   0.5061   5.7528   6.0614  10.9484  11.5500
    12.9927  13.1812

     occupation numbers 
     1.0000   1.0000   1.0000   1.0000   1.0000   1.0000   1.0000   1.0000
     1.0000   1.0000   1.0000   1.0000   1.0000   1.0000   0.0000   0.0000
     0.0000   0.0000

          k =-0.0157-0.4243 0.7071 ( 17068 PWs)   bands (ev):

   -12.4212 -12.4205 -12.2794 -12.2716 -12.2184 -12.2112 -12.1879 -12.1814
   -12.0459 -12.0452   0.2120   0.3834   5.8857   5.9600  10.9825  11.0379
    13.2613  13.4448

     occupation numbers 
     1.0000   1.0000   1.0000   1.0000   1.0000   1.0000   1.0000   1.0000
     1.0000   1.0000   1.0000   1.0000   1.0000   1.0000   0.0000   0.0000
     0.0000   0.0000

          k = 0.0000-0.4086 0.6914 ( 17070 PWs)   bands (ev):

   -12.4220 -12.4205 -12.2775 -12.2699 -12.2174 -12.2134 -12.1892 -12.1826
   -12.0459 -12.0444   0.2365   0.3605   5.8534   5.9640  10.9979  11.2275
    13.2150  13.2537

     occupation numbers 
     1.0000   1.0000   1.0000   1.0000   1.0000   1.0000   1.0000   1.0000
     1.0000   1.0000   1.0000   1.0000   1.0000   1.0000   0.0000   0.0000
     0.0000   0.0000

          k =-0.0786-0.3928 0.7071 ( 17056 PWs)   bands (ev):

   -12.4229 -12.4185 -12.2906 -12.2519 -12.2325 -12.2034 -12.1995 -12.1721
   -12.0479 -12.0437  -0.0937   0.7067   5.7376   6.1586  10.8969  11.3987
    12.8406  13.5630

     occupation numbers 
     1.0000   1.0000   1.0000   1.0000   1.0000   1.0000   1.0000   1.0000
     1.0000   1.0000   1.0000   1.0000   1.0000   1.0000   0.0000   0.0000
     0.0000   0.0000

          k =-0.0629-0.3771 0.6914 ( 17064 PWs)   bands (ev):

   -12.4233 -12.4191 -12.2865 -12.2546 -12.2291 -12.2042 -12.2004 -12.1752
   -12.0473 -12.0433  -0.0120   0.6199   5.7393   6.1094  10.9561  11.4875
    12.8644  13.3719

     occupation numbers 
     1.0000   1.0000   1.0000   1.0000   1.0000   1.0000   1.0000   1.0000
     1.0000   1.0000   1.0000   1.0000   1.0000   1.0000   0.0000   0.0000
     0.0000   0.0000

          k =-0.0471-0.3614 0.6757 ( 17065 PWs)   bands (ev):

   -12.4235 -12.4194 -12.2842 -12.2563 -12.2267 -12.2071 -12.1989 -12.1769
   -12.0470 -12.0430   0.0392   0.5661   5.7419   6.0827  10.9810  11.5463
    12.9031  13.2381

     occupation numbers 
     1.0000   1.0000   1.0000   1.0000   1.0000   1.0000   1.0000   1.0000
     1.0000   1.0000   1.0000   1.0000   1.0000   1.0000   0.0000   0.0000
     0.0000   0.0000

          k =-0.0471-0.3928 0.7071 ( 17064 PWs)   bands (ev):

   -12.4226 -12.4199 -12.2836 -12.2603 -12.2259 -12.2060 -12.1966 -12.1777
   -12.0465 -12.0439   0.0612   0.5423   5.7882   6.0419  11.0318  11.3264
    12.9350  13.3860

     occupation numbers 
     1.0000   1.0000   1.0000   1.0000   1.0000   1.0000   1.0000   1.0000
     1.0000   1.0000   1.0000   1.0000   1.0000   1.0000   0.0000   0.0000
     0.0000   0.0000

          k =-0.0314-0.3771 0.6914 ( 17056 PWs)   bands (ev):

   -12.4228 -12.4204 -12.2798 -12.2624 -12.2230 -12.2097 -12.1946 -12.1805
   -12.0460 -12.0436   0.1319   0.4697   5.7965   6.0026  11.0907  11.4078
    12.9472  13.2124

     occupation numbers 
     1.0000   1.0000   1.0000   1.0000   1.0000   1.0000   1.0000   1.0000
     1.0000   1.0000   1.0000   1.0000   1.0000   1.0000   0.0000   0.0000
     0.0000   0.0000

          k =-0.0157-0.3614 0.6757 ( 17063 PWs)   bands (ev):

   -12.4230 -12.4203 -12.2793 -12.2619 -12.2227 -12.2105 -12.1949 -12.1808
   -12.0460 -12.0434   0.1401   0.4616   5.7866   6.0051  11.0901  11.4764
    12.9463  13.1383

     occupation numbers 
     1.0000   1.0000   1.0000   1.0000   1.0000   1.0000   1.0000   1.0000
     1.0000   1.0000   1.0000   1.0000   1.0000   1.0000   0.0000   0.0000
     0.0000   0.0000

          k = 0.0000-0.3457 0.6600 ( 17062 PWs)   bands (ev):

   -12.4232 -12.4199 -12.2820 -12.2588 -12.2254 -12.2078 -12.1975 -12.1786
   -12.0465 -12.0432   0.0788   0.5251   5.7628   6.0455  11.0458  11.4999
    12.8979  13.2154

     occupation numbers 
     1.0000   1.0000   1.0000   1.0000   1.0000   1.0000   1.0000   1.0000
     1.0000   1.0000   1.0000   1.0000   1.0000   1.0000   0.0000   0.0000
     0.0000   0.0000

          k =-0.0157-0.3928 0.7071 ( 17054 PWs)   bands (ev):

   -12.4220 -12.4210 -12.2762 -12.2684 -12.2192 -12.2126 -12.1900 -12.1836
   -12.0453 -12.0444   0.2191   0.3796   5.8560   5.9408  11.1470  11.2440
    13.0611  13.2143

     occupation numbers 
     1.0000   1.0000   1.0000   1.0000   1.0000   1.0000   1.0000   1.0000
     1.0000   1.0000   1.0000   1.0000   1.0000   1.0000   0.0000   0.0000
     0.0000   0.0000

          k =-0.0000-0.3771 0.6914 ( 17056 PWs)   bands (ev):

   -12.4224 -12.4210 -12.2752 -12.2674 -12.2188 -12.2138 -12.1906 -12.1842
   -12.0453 -12.0440   0.2314   0.3681   5.8396   5.9428  11.1577  11.3599
    13.0351  13.0973

     occupation numbers 
     1.0000   1.0000   1.0000   1.0000   1.0000   1.0000   1.0000   1.0000
     1.0000   1.0000   1.0000   1.0000   1.0000   1.0000   0.0000   0.0000
     0.0000   0.0000

          k =-0.0157-0.3614 0.7071 ( 17054 PWs)   bands (ev):

   -12.4224 -12.4212 -12.2747 -12.2669 -12.2194 -12.2136 -12.1909 -12.1846
   -12.0451 -12.0440   0.2256   0.3745   5.8405   5.9349  11.2151  11.3669
    12.9760  13.0827

     occupation numbers 
     1.0000   1.0000   1.0000   1.0000   1.0000   1.0000   1.0000   1.0000
     1.0000   1.0000   1.0000   1.0000   1.0000   1.0000   0.0000   0.0000
     0.0000   0.0000

     the Fermi energy is     8.3004 ev

!    total energy              =    -233.44838885 Ry
     Harris-Foulkes estimate   =    -233.44838904 Ry
     estimated scf accuracy    <       0.00000048 Ry

     The total energy is the sum of the following terms:

     one-electron contribution =     -95.31647500 Ry
     hartree contribution      =      58.35638542 Ry
     xc contribution           =     -28.70695767 Ry
     ewald contribution        =    -167.78134157 Ry
     smearing contrib. (-TS)   =      -0.00000004 Ry

     convergence has been achieved in   5 iterations

     Writing output data file Sn.save
 
     init_run     :     37.54s CPU     42.99s WALL (       1 calls)
     electrons    :    762.94s CPU    866.23s WALL (       1 calls)

     Called by init_run:
     wfcinit      :     37.02s CPU     42.31s WALL (       1 calls)
     potinit      :      0.03s CPU      0.04s WALL (       1 calls)

     Called by electrons:
     c_bands      :    673.57s CPU    765.45s WALL (       5 calls)
     sum_band     :     89.21s CPU    100.39s WALL (       5 calls)
     v_of_rho     :      0.12s CPU      0.17s WALL (       6 calls)
     v_h          :      0.01s CPU      0.02s WALL (       6 calls)
     v_xc         :      0.11s CPU      0.15s WALL (       6 calls)
     mix_rho      :      0.01s CPU      0.02s WALL (       5 calls)

     Called by c_bands:
     init_us_2    :      6.41s CPU      8.98s WALL (   25300 calls)
     cegterg      :    631.38s CPU    719.29s WALL (   11500 calls)

     Called by sum_band:

     Called by *egterg:
     h_psi        :    567.79s CPU    642.77s WALL (   49616 calls)
     g_psi        :      3.35s CPU      3.40s WALL (   35816 calls)
     cdiaghg      :     31.90s CPU     32.30s WALL (   47316 calls)
     cegterg:over :     21.94s CPU     22.57s WALL (   35816 calls)
     cegterg:upda :     12.68s CPU     12.83s WALL (   35816 calls)
     cegterg:last :      7.21s CPU      7.27s WALL (   15588 calls)

     Called by h_psi:
     h_psi:vloc   :    539.92s CPU    612.42s WALL (   49616 calls)
     h_psi:vnl    :     25.33s CPU     27.40s WALL (   49616 calls)
     add_vuspsi   :     10.12s CPU     10.80s WALL (   49616 calls)

     General routines
     calbec       :     14.98s CPU     16.40s WALL (   49616 calls)
     fft          :      0.09s CPU      0.14s WALL (      65 calls)
     fftw         :    567.39s CPU    643.38s WALL ( 1649584 calls)
     davcio       :      0.29s CPU      4.39s WALL (    2300 calls)
 
     Parallel routines
     fft_scatter  :    228.84s CPU    259.89s WALL ( 1649649 calls)
 
     PWSCF        : 13m22.56s CPU    15m16.04s WALL

 
   This run was terminated on:  21:38:39  27Feb2020            

=------------------------------------------------------------------------------=
   JOB DONE.
=------------------------------------------------------------------------------=
