
     Program PWSCF v.5.4.0 starts on 16Mar2020 at 22:54:41 

     This program is part of the open-source Quantum ESPRESSO suite
     for quantum simulation of materials; please cite
         "P. Giannozzi et al., J. Phys.:Condens. Matter 21 395502 (2009);
          URL http://www.quantum-espresso.org", 
     in publications or presentations arising from this work. More details at
     http://www.quantum-espresso.org/quote

     Parallel version (MPI & OpenMP), running on      16 processor cores
     Number of MPI processes:                16
     Threads/MPI process:                     1
     R & G space division:  proc/nbgrp/npool/nimage =      16
     Waiting for input...
     Reading input from standard input
Warning: card &IONS ignored
Warning: card / ignored
Warning: card &CELL ignored
Warning: card / ignored

     Current dimensions of program PWSCF are:
     Max number of different atomic species (ntypx) = 10
     Max number of k-points (npk) =  40000
     Max angular momentum in pseudopotentials (lmaxx) =  3
               file Sn.pbe-dn-kjpaw_psl.0.2.UPF: wavefunction(s)  5P 4D renormalized
     Message from routine setup:
     At least one non s.o. pseudo

     Subspace diagonalization in iterative solution of the eigenvalue problem:
     a serial algorithm will be used

 
     Parallelization info
     --------------------
     sticks:   dense  smooth     PW     G-vecs:    dense   smooth      PW
     Min         122     122     34                 3603     3603     547
     Max         125     125     35                 3604     3604     551
     Sum        1969    1969    559                57655    57655    8801
 

     Title: 
     Sn                                                                         


     bravais-lattice index     =            0
     lattice parameter (alat)  =       8.9127  a.u.
     unit-cell volume          =     500.6268 (a.u.)^3
     number of atoms/cell      =            2
     number of atomic types    =            1
     number of electrons       =        28.00
     number of Kohn-Sham states=           36
     kinetic-energy cutoff     =      90.0000  Ry
     charge density cutoff     =     360.0000  Ry
     convergence threshold     =      1.0E-06
     mixing beta               =       0.7000
     number of iterations used =            8  plain     mixing
     Exchange-correlation      =  SLA  PW   PBX  PBC ( 1  4  3  4 0 0)
     Non magnetic calculation with spin-orbit


     celldm(1)=   8.912709  celldm(2)=   0.000000  celldm(3)=   0.000000
     celldm(4)=   0.000000  celldm(5)=   0.000000  celldm(6)=   0.000000

     crystal axes: (cart. coord. in units of alat)
               a(1) = (   0.000000   0.707107   0.707107 )  
               a(2) = (   0.707107   0.000000   0.707107 )  
               a(3) = (   0.707107   0.707107   0.000000 )  

     reciprocal axes: (cart. coord. in units 2 pi/alat)
               b(1) = ( -0.707107  0.707107  0.707107 )  
               b(2) = (  0.707107 -0.707107  0.707107 )  
               b(3) = (  0.707107  0.707107 -0.707107 )  


     PseudoPot. # 1 for Sn read from file:
     ../PseudopotentialDatabase/Sn.pbe-dn-kjpaw_psl.0.2.UPF
     MD5 check sum: b79c227927c2421b8b427190f2e58519
     Pseudo is Projector augmented-wave + core cor, Zval = 14.0
     Generated using "atomic" code by A. Dal Corso  v.5.0.2 svn rev. 9415
     Shape of augmentation charge: BESSEL
     Using radial grid of 1243 points,  6 beta functions with: 
                l(1) =   0
                l(2) =   0
                l(3) =   1
                l(4) =   1
                l(5) =   2
                l(6) =   2
     Q(r) pseudized with 0 coefficients 


     atomic species   valence    mass     pseudopotential
        Sn            14.00   118.71000     Sn( 1.00)

     24 Sym. Ops. (no inversion) found
          (note: 24 additional sym.ops. were found but ignored
           their fractional translations are incommensurate with FFT grid)

                                    s                        frac. trans.

      isym =  1     identity                                     

 cryst.   s( 1) = (     1          0          0      )
                  (     0          1          0      )
                  (     0          0          1      )

 cart.    s( 1) = (  1.0000000  0.0000000  0.0000000 )
                  (  0.0000000  1.0000000  0.0000000 )
                  (  0.0000000  0.0000000  1.0000000 )


      isym =  2     180 deg rotation - cart. axis [0,0,1]        

 cryst.   s( 2) = (     0          1         -1      )
                  (     1          0         -1      )
                  (     0          0         -1      )

 cart.    s( 2) = ( -1.0000000  0.0000000  0.0000000 )
                  (  0.0000000 -1.0000000  0.0000000 )
                  (  0.0000000  0.0000000  1.0000000 )


      isym =  3     180 deg rotation - cart. axis [0,1,0]        

 cryst.   s( 3) = (     0         -1          1      )
                  (     0         -1          0      )
                  (     1         -1          0      )

 cart.    s( 3) = ( -1.0000000  0.0000000  0.0000000 )
                  (  0.0000000  1.0000000  0.0000000 )
                  (  0.0000000  0.0000000 -1.0000000 )


      isym =  4     180 deg rotation - cart. axis [1,0,0]        

 cryst.   s( 4) = (    -1          0          0      )
                  (    -1          0          1      )
                  (    -1          1          0      )

 cart.    s( 4) = (  1.0000000  0.0000000  0.0000000 )
                  (  0.0000000 -1.0000000  0.0000000 )
                  (  0.0000000  0.0000000 -1.0000000 )


      isym =  5     120 deg rotation - cart. axis [-1,-1,-1]     

 cryst.   s( 5) = (     0          0          1      )
                  (     1          0          0      )
                  (     0          1          0      )

 cart.    s( 5) = (  0.0000000  1.0000000  0.0000000 )
                  (  0.0000000  0.0000000  1.0000000 )
                  (  1.0000000  0.0000000  0.0000000 )


      isym =  6     120 deg rotation - cart. axis [-1,1,1]       

 cryst.   s( 6) = (     1         -1          0      )
                  (     0         -1          1      )
                  (     0         -1          0      )

 cart.    s( 6) = (  0.0000000 -1.0000000  0.0000000 )
                  (  0.0000000  0.0000000  1.0000000 )
                  ( -1.0000000  0.0000000  0.0000000 )


      isym =  7     120 deg rotation - cart. axis [1,1,-1]       

 cryst.   s( 7) = (    -1          1          0      )
                  (    -1          0          0      )
                  (    -1          0          1      )

 cart.    s( 7) = (  0.0000000  1.0000000  0.0000000 )
                  (  0.0000000  0.0000000 -1.0000000 )
                  ( -1.0000000  0.0000000  0.0000000 )


      isym =  8     120 deg rotation - cart. axis [1,-1,1]       

 cryst.   s( 8) = (     0          0         -1      )
                  (     0          1         -1      )
                  (     1          0         -1      )

 cart.    s( 8) = (  0.0000000 -1.0000000  0.0000000 )
                  (  0.0000000  0.0000000 -1.0000000 )
                  (  1.0000000  0.0000000  0.0000000 )


      isym =  9     120 deg rotation - cart. axis [1,1,1]        

 cryst.   s( 9) = (     0          1          0      )
                  (     0          0          1      )
                  (     1          0          0      )

 cart.    s( 9) = (  0.0000000  0.0000000  1.0000000 )
                  (  1.0000000  0.0000000  0.0000000 )
                  (  0.0000000  1.0000000  0.0000000 )


      isym = 10     120 deg rotation - cart. axis [-1,1,-1]      

 cryst.   s(10) = (    -1          0          1      )
                  (    -1          1          0      )
                  (    -1          0          0      )

 cart.    s(10) = (  0.0000000  0.0000000  1.0000000 )
                  ( -1.0000000  0.0000000  0.0000000 )
                  (  0.0000000 -1.0000000  0.0000000 )


      isym = 11     120 deg rotation - cart. axis [1,-1,-1]      

 cryst.   s(11) = (     1          0         -1      )
                  (     0          0         -1      )
                  (     0          1         -1      )

 cart.    s(11) = (  0.0000000  0.0000000 -1.0000000 )
                  ( -1.0000000  0.0000000  0.0000000 )
                  (  0.0000000  1.0000000  0.0000000 )


      isym = 12     120 deg rotation - cart. axis [-1,-1,1]      

 cryst.   s(12) = (     0         -1          0      )
                  (     1         -1          0      )
                  (     0         -1          1      )

 cart.    s(12) = (  0.0000000  0.0000000 -1.0000000 )
                  (  1.0000000  0.0000000  0.0000000 )
                  (  0.0000000 -1.0000000  0.0000000 )


      isym = 13     inv. 180 deg rotation - cart. axis [1,1,0]   

 cryst.   s(13) = (     1          0         -1      )
                  (     0          1         -1      )
                  (     0          0         -1      )

 cart.    s(13) = (  0.0000000 -1.0000000  0.0000000 )
                  ( -1.0000000  0.0000000  0.0000000 )
                  (  0.0000000  0.0000000  1.0000000 )


      isym = 14     inv. 180 deg rotation - cart. axis [1,-1,0]  

 cryst.   s(14) = (     0          1          0      )
                  (     1          0          0      )
                  (     0          0          1      )

 cart.    s(14) = (  0.0000000  1.0000000  0.0000000 )
                  (  1.0000000  0.0000000  0.0000000 )
                  (  0.0000000  0.0000000  1.0000000 )


      isym = 15     inv.  90 deg rotation - cart. axis [0,0,-1]  

 cryst.   s(15) = (     0         -1          0      )
                  (     0         -1          1      )
                  (     1         -1          0      )

 cart.    s(15) = (  0.0000000 -1.0000000  0.0000000 )
                  (  1.0000000  0.0000000  0.0000000 )
                  (  0.0000000  0.0000000 -1.0000000 )


      isym = 16     inv.  90 deg rotation - cart. axis [0,0,1]   

 cryst.   s(16) = (    -1          0          1      )
                  (    -1          0          0      )
                  (    -1          1          0      )

 cart.    s(16) = (  0.0000000  1.0000000  0.0000000 )
                  ( -1.0000000  0.0000000  0.0000000 )
                  (  0.0000000  0.0000000 -1.0000000 )


      isym = 17     inv. 180 deg rotation - cart. axis [1,0,1]   

 cryst.   s(17) = (     1         -1          0      )
                  (     0         -1          0      )
                  (     0         -1          1      )

 cart.    s(17) = (  0.0000000  0.0000000 -1.0000000 )
                  (  0.0000000  1.0000000  0.0000000 )
                  ( -1.0000000  0.0000000  0.0000000 )


      isym = 18     inv. 180 deg rotation - cart. axis [-1,0,1]  

 cryst.   s(18) = (     0          0          1      )
                  (     0          1          0      )
                  (     1          0          0      )

 cart.    s(18) = (  0.0000000  0.0000000  1.0000000 )
                  (  0.0000000  1.0000000  0.0000000 )
                  (  1.0000000  0.0000000  0.0000000 )


      isym = 19     inv.  90 deg rotation - cart. axis [0,1,0]   

 cryst.   s(19) = (     0          0         -1      )
                  (     1          0         -1      )
                  (     0          1         -1      )

 cart.    s(19) = (  0.0000000  0.0000000 -1.0000000 )
                  (  0.0000000 -1.0000000  0.0000000 )
                  (  1.0000000  0.0000000  0.0000000 )


      isym = 20     inv.  90 deg rotation - cart. axis [0,-1,0]  

 cryst.   s(20) = (    -1          1          0      )
                  (    -1          0          1      )
                  (    -1          0          0      )

 cart.    s(20) = (  0.0000000  0.0000000  1.0000000 )
                  (  0.0000000 -1.0000000  0.0000000 )
                  ( -1.0000000  0.0000000  0.0000000 )


      isym = 21     inv. 180 deg rotation - cart. axis [0,1,1]   

 cryst.   s(21) = (    -1          0          0      )
                  (    -1          1          0      )
                  (    -1          0          1      )

 cart.    s(21) = (  1.0000000  0.0000000  0.0000000 )
                  (  0.0000000  0.0000000 -1.0000000 )
                  (  0.0000000 -1.0000000  0.0000000 )


      isym = 22     inv. 180 deg rotation - cart. axis [0,1,-1]  

 cryst.   s(22) = (     1          0          0      )
                  (     0          0          1      )
                  (     0          1          0      )

 cart.    s(22) = (  1.0000000  0.0000000  0.0000000 )
                  (  0.0000000  0.0000000  1.0000000 )
                  (  0.0000000  1.0000000  0.0000000 )


      isym = 23     inv.  90 deg rotation - cart. axis [-1,0,0]  

 cryst.   s(23) = (     0          1         -1      )
                  (     0          0         -1      )
                  (     1          0         -1      )

 cart.    s(23) = ( -1.0000000  0.0000000  0.0000000 )
                  (  0.0000000  0.0000000 -1.0000000 )
                  (  0.0000000  1.0000000  0.0000000 )


      isym = 24     inv.  90 deg rotation - cart. axis [1,0,0]   

 cryst.   s(24) = (     0         -1          1      )
                  (     1         -1          0      )
                  (     0         -1          0      )

 cart.    s(24) = ( -1.0000000  0.0000000  0.0000000 )
                  (  0.0000000  0.0000000  1.0000000 )
                  (  0.0000000 -1.0000000  0.0000000 )


   Cartesian axes

     site n.     atom                  positions (alat units)
         1           Sn  tau(   1) = (   0.0000000   0.0000000   0.0000000  )
         2           Sn  tau(   2) = (   0.3535534   0.3535534   0.3535534  )

   Crystallographic axes

     site n.     atom                  positions (cryst. coord.)
         1           Sn  tau(   1) = (  0.0000000  0.0000000  0.0000000  )
         2           Sn  tau(   2) = (  0.2500000  0.2500000  0.2500000  )

     number of k points=   145  gaussian smearing, width (Ry)=  0.0001
                       cart. coord. in units 2pi/alat
        k(    1) = (   0.0000000   0.0000000   0.0000000), wk =   0.0002441
        k(    2) = (   0.0441942   0.0441942  -0.0441942), wk =   0.0019531
        k(    3) = (   0.0883883   0.0883883  -0.0883883), wk =   0.0019531
        k(    4) = (   0.1325825   0.1325825  -0.1325825), wk =   0.0019531
        k(    5) = (   0.1767767   0.1767767  -0.1767767), wk =   0.0019531
        k(    6) = (   0.2209709   0.2209709  -0.2209709), wk =   0.0019531
        k(    7) = (   0.2651650   0.2651650  -0.2651650), wk =   0.0019531
        k(    8) = (   0.3093592   0.3093592  -0.3093592), wk =   0.0019531
        k(    9) = (  -0.3535534  -0.3535534   0.3535534), wk =   0.0009766
        k(   10) = (   0.0883883   0.0000000   0.0000000), wk =   0.0014648
        k(   11) = (   0.1325825   0.0441942  -0.0441942), wk =   0.0058594
        k(   12) = (   0.1767767   0.0883883  -0.0883883), wk =   0.0058594
        k(   13) = (   0.2209709   0.1325825  -0.1325825), wk =   0.0058594
        k(   14) = (   0.2651650   0.1767767  -0.1767767), wk =   0.0058594
        k(   15) = (   0.3093592   0.2209709  -0.2209709), wk =   0.0058594
        k(   16) = (   0.3535534   0.2651650  -0.2651650), wk =   0.0058594
        k(   17) = (  -0.3093592  -0.3977476   0.3977476), wk =   0.0058594
        k(   18) = (  -0.2651650  -0.3535534   0.3535534), wk =   0.0058594
        k(   19) = (  -0.2209709  -0.3093592   0.3093592), wk =   0.0058594
        k(   20) = (  -0.1767767  -0.2651650   0.2651650), wk =   0.0058594
        k(   21) = (  -0.1325825  -0.2209709   0.2209709), wk =   0.0058594
        k(   22) = (  -0.0883883  -0.1767767   0.1767767), wk =   0.0058594
        k(   23) = (  -0.0441942  -0.1325825   0.1325825), wk =   0.0058594
        k(   24) = (   0.0000000  -0.0883883   0.0883883), wk =   0.0029297
        k(   25) = (   0.1767767   0.0000000   0.0000000), wk =   0.0014648
        k(   26) = (   0.2209709   0.0441942  -0.0441942), wk =   0.0058594
        k(   27) = (   0.2651650   0.0883883  -0.0883883), wk =   0.0058594
        k(   28) = (   0.3093592   0.1325825  -0.1325825), wk =   0.0058594
        k(   29) = (   0.3535534   0.1767767  -0.1767767), wk =   0.0058594
        k(   30) = (   0.3977476   0.2209709  -0.2209709), wk =   0.0058594
        k(   31) = (  -0.2651650  -0.4419417   0.4419417), wk =   0.0058594
        k(   32) = (  -0.2209709  -0.3977476   0.3977476), wk =   0.0058594
        k(   33) = (  -0.1767767  -0.3535534   0.3535534), wk =   0.0058594
        k(   34) = (  -0.1325825  -0.3093592   0.3093592), wk =   0.0058594
        k(   35) = (  -0.0883883  -0.2651650   0.2651650), wk =   0.0058594
        k(   36) = (  -0.0441942  -0.2209709   0.2209709), wk =   0.0058594
        k(   37) = (   0.0000000  -0.1767767   0.1767767), wk =   0.0029297
        k(   38) = (   0.2651650   0.0000000   0.0000000), wk =   0.0014648
        k(   39) = (   0.3093592   0.0441942  -0.0441942), wk =   0.0058594
        k(   40) = (   0.3535534   0.0883883  -0.0883883), wk =   0.0058594
        k(   41) = (   0.3977476   0.1325825  -0.1325825), wk =   0.0058594
        k(   42) = (   0.4419417   0.1767767  -0.1767767), wk =   0.0058594
        k(   43) = (  -0.2209709  -0.4861359   0.4861359), wk =   0.0058594
        k(   44) = (  -0.1767767  -0.4419417   0.4419417), wk =   0.0058594
        k(   45) = (  -0.1325825  -0.3977476   0.3977476), wk =   0.0058594
        k(   46) = (  -0.0883883  -0.3535534   0.3535534), wk =   0.0058594
        k(   47) = (  -0.0441942  -0.3093592   0.3093592), wk =   0.0058594
        k(   48) = (   0.0000000  -0.2651650   0.2651650), wk =   0.0029297
        k(   49) = (   0.3535534   0.0000000   0.0000000), wk =   0.0014648
        k(   50) = (   0.3977476   0.0441942  -0.0441942), wk =   0.0058594
        k(   51) = (   0.4419417   0.0883883  -0.0883883), wk =   0.0058594
        k(   52) = (   0.4861359   0.1325825  -0.1325825), wk =   0.0058594
        k(   53) = (  -0.1767767  -0.5303301   0.5303301), wk =   0.0058594
        k(   54) = (  -0.1325825  -0.4861359   0.4861359), wk =   0.0058594
        k(   55) = (  -0.0883883  -0.4419417   0.4419417), wk =   0.0058594
        k(   56) = (  -0.0441942  -0.3977476   0.3977476), wk =   0.0058594
        k(   57) = (   0.0000000  -0.3535534   0.3535534), wk =   0.0029297
        k(   58) = (   0.4419417   0.0000000   0.0000000), wk =   0.0014648
        k(   59) = (   0.4861359   0.0441942  -0.0441942), wk =   0.0058594
        k(   60) = (   0.5303301   0.0883883  -0.0883883), wk =   0.0058594
        k(   61) = (  -0.1325825  -0.5745243   0.5745243), wk =   0.0058594
        k(   62) = (  -0.0883883  -0.5303301   0.5303301), wk =   0.0058594
        k(   63) = (  -0.0441942  -0.4861359   0.4861359), wk =   0.0058594
        k(   64) = (   0.0000000  -0.4419417   0.4419417), wk =   0.0029297
        k(   65) = (   0.5303301   0.0000000   0.0000000), wk =   0.0014648
        k(   66) = (   0.5745243   0.0441942  -0.0441942), wk =   0.0058594
        k(   67) = (  -0.0883883  -0.6187184   0.6187184), wk =   0.0058594
        k(   68) = (  -0.0441942  -0.5745243   0.5745243), wk =   0.0058594
        k(   69) = (   0.0000000  -0.5303301   0.5303301), wk =   0.0029297
        k(   70) = (   0.6187184   0.0000000   0.0000000), wk =   0.0014648
        k(   71) = (  -0.0441942  -0.6629126   0.6629126), wk =   0.0058594
        k(   72) = (   0.0000000  -0.6187184   0.6187184), wk =   0.0029297
        k(   73) = (  -0.7071068   0.0000000   0.0000000), wk =   0.0007324
        k(   74) = (   0.1767767   0.0883883   0.0000000), wk =   0.0058594
        k(   75) = (   0.2209709   0.1325825  -0.0441942), wk =   0.0117188
        k(   76) = (   0.2651650   0.1767767  -0.0883883), wk =   0.0117188
        k(   77) = (   0.3093592   0.2209709  -0.1325825), wk =   0.0117188
        k(   78) = (   0.3535534   0.2651650  -0.1767767), wk =   0.0117188
        k(   79) = (  -0.3093592  -0.3977476   0.4861359), wk =   0.0117188
        k(   80) = (  -0.2651650  -0.3535534   0.4419417), wk =   0.0058594
        k(   81) = (   0.2651650   0.0883883   0.0000000), wk =   0.0058594
        k(   82) = (   0.3093592   0.1325825  -0.0441942), wk =   0.0117188
        k(   83) = (   0.3535534   0.1767767  -0.0883883), wk =   0.0117188
        k(   84) = (   0.3977476   0.2209709  -0.1325825), wk =   0.0117188
        k(   85) = (  -0.2651650  -0.4419417   0.5303301), wk =   0.0117188
        k(   86) = (  -0.2209709  -0.3977476   0.4861359), wk =   0.0117188
        k(   87) = (  -0.1767767  -0.3535534   0.4419417), wk =   0.0117188
        k(   88) = (  -0.1325825  -0.3093592   0.3977476), wk =   0.0117188
        k(   89) = (  -0.0883883  -0.2651650   0.3535534), wk =   0.0117188
        k(   90) = (  -0.0441942  -0.2209709   0.3093592), wk =   0.0117188
        k(   91) = (   0.0000000  -0.1767767   0.2651650), wk =   0.0058594
        k(   92) = (   0.3535534   0.0883883   0.0000000), wk =   0.0058594
        k(   93) = (   0.3977476   0.1325825  -0.0441942), wk =   0.0117188
        k(   94) = (   0.4419417   0.1767767  -0.0883883), wk =   0.0117188
        k(   95) = (  -0.2209709  -0.4861359   0.5745243), wk =   0.0117188
        k(   96) = (  -0.1767767  -0.4419417   0.5303301), wk =   0.0117188
        k(   97) = (  -0.1325825  -0.3977476   0.4861359), wk =   0.0117188
        k(   98) = (  -0.0883883  -0.3535534   0.4419417), wk =   0.0117188
        k(   99) = (  -0.0441942  -0.3093592   0.3977476), wk =   0.0117188
        k(  100) = (   0.0000000  -0.2651650   0.3535534), wk =   0.0058594
        k(  101) = (   0.4419417   0.0883883   0.0000000), wk =   0.0058594
        k(  102) = (   0.4861359   0.1325825  -0.0441942), wk =   0.0117188
        k(  103) = (  -0.1767767  -0.5303301   0.6187184), wk =   0.0117188
        k(  104) = (  -0.1325825  -0.4861359   0.5745243), wk =   0.0117188
        k(  105) = (  -0.0883883  -0.4419417   0.5303301), wk =   0.0117188
        k(  106) = (  -0.0441942  -0.3977476   0.4861359), wk =   0.0117188
        k(  107) = (   0.0000000  -0.3535534   0.4419417), wk =   0.0058594
        k(  108) = (   0.5303301   0.0883883   0.0000000), wk =   0.0058594
        k(  109) = (  -0.1325825  -0.5745243   0.6629126), wk =   0.0117188
        k(  110) = (  -0.0883883  -0.5303301   0.6187184), wk =   0.0117188
        k(  111) = (  -0.0441942  -0.4861359   0.5745243), wk =   0.0117188
        k(  112) = (   0.0000000  -0.4419417   0.5303301), wk =   0.0058594
        k(  113) = (  -0.0883883  -0.6187184   0.7071068), wk =   0.0058594
        k(  114) = (  -0.0441942  -0.5745243   0.6629126), wk =   0.0117188
        k(  115) = (  -0.0000000  -0.5303301   0.6187184), wk =   0.0058594
        k(  116) = (  -0.7071068   0.0883883   0.0000000), wk =   0.0029297
        k(  117) = (   0.3535534   0.1767767   0.0000000), wk =   0.0058594
        k(  118) = (   0.3977476   0.2209709  -0.0441942), wk =   0.0117188
        k(  119) = (  -0.2651650  -0.4419417   0.6187184), wk =   0.0117188
        k(  120) = (  -0.2209709  -0.3977476   0.5745243), wk =   0.0117188
        k(  121) = (  -0.1767767  -0.3535534   0.5303301), wk =   0.0058594
        k(  122) = (   0.4419417   0.1767767   0.0000000), wk =   0.0058594
        k(  123) = (  -0.2209709  -0.4861359   0.6629126), wk =   0.0117188
        k(  124) = (  -0.1767767  -0.4419417   0.6187184), wk =   0.0117188
        k(  125) = (  -0.1325825  -0.3977476   0.5745243), wk =   0.0117188
        k(  126) = (  -0.0883883  -0.3535534   0.5303301), wk =   0.0117188
        k(  127) = (  -0.0441942  -0.3093592   0.4861359), wk =   0.0117188
        k(  128) = (   0.0000000  -0.2651650   0.4419417), wk =   0.0058594
        k(  129) = (  -0.1767767  -0.5303301   0.7071068), wk =   0.0058594
        k(  130) = (  -0.1325825  -0.4861359   0.6629126), wk =   0.0117188
        k(  131) = (  -0.0883883  -0.4419417   0.6187184), wk =   0.0117188
        k(  132) = (  -0.0441942  -0.3977476   0.5745243), wk =   0.0117188
        k(  133) = (   0.0000000  -0.3535534   0.5303301), wk =   0.0058594
        k(  134) = (  -0.0883883  -0.5303301   0.7071068), wk =   0.0058594
        k(  135) = (  -0.0441942  -0.4861359   0.6629126), wk =   0.0117188
        k(  136) = (   0.0000000  -0.4419417   0.6187184), wk =   0.0058594
        k(  137) = (  -0.7071068   0.1767767   0.0000000), wk =   0.0029297
        k(  138) = (  -0.1767767  -0.4419417   0.7071068), wk =   0.0058594
        k(  139) = (  -0.1325825  -0.3977476   0.6629126), wk =   0.0117188
        k(  140) = (  -0.0883883  -0.3535534   0.6187184), wk =   0.0058594
        k(  141) = (  -0.0883883  -0.4419417   0.7071068), wk =   0.0058594
        k(  142) = (  -0.0441942  -0.3977476   0.6629126), wk =   0.0117188
        k(  143) = (  -0.0000000  -0.3535534   0.6187184), wk =   0.0058594
        k(  144) = (  -0.7071068   0.2651650   0.0000000), wk =   0.0029297
        k(  145) = (  -0.7071068   0.3535534   0.0000000), wk =   0.0014648

                       cryst. coord.
        k(    1) = (   0.0000000   0.0000000   0.0000000), wk =   0.0002441
        k(    2) = (   0.0000000   0.0000000   0.0625000), wk =   0.0019531
        k(    3) = (   0.0000000   0.0000000   0.1250000), wk =   0.0019531
        k(    4) = (   0.0000000   0.0000000   0.1875000), wk =   0.0019531
        k(    5) = (   0.0000000   0.0000000   0.2500000), wk =   0.0019531
        k(    6) = (   0.0000000   0.0000000   0.3125000), wk =   0.0019531
        k(    7) = (   0.0000000   0.0000000   0.3750000), wk =   0.0019531
        k(    8) = (   0.0000000   0.0000000   0.4375000), wk =   0.0019531
        k(    9) = (   0.0000000   0.0000000  -0.5000000), wk =   0.0009766
        k(   10) = (   0.0000000   0.0625000   0.0625000), wk =   0.0014648
        k(   11) = (   0.0000000   0.0625000   0.1250000), wk =   0.0058594
        k(   12) = (   0.0000000   0.0625000   0.1875000), wk =   0.0058594
        k(   13) = (   0.0000000   0.0625000   0.2500000), wk =   0.0058594
        k(   14) = (   0.0000000   0.0625000   0.3125000), wk =   0.0058594
        k(   15) = (   0.0000000   0.0625000   0.3750000), wk =   0.0058594
        k(   16) = (   0.0000000   0.0625000   0.4375000), wk =   0.0058594
        k(   17) = (   0.0000000   0.0625000  -0.5000000), wk =   0.0058594
        k(   18) = (   0.0000000   0.0625000  -0.4375000), wk =   0.0058594
        k(   19) = (   0.0000000   0.0625000  -0.3750000), wk =   0.0058594
        k(   20) = (   0.0000000   0.0625000  -0.3125000), wk =   0.0058594
        k(   21) = (   0.0000000   0.0625000  -0.2500000), wk =   0.0058594
        k(   22) = (   0.0000000   0.0625000  -0.1875000), wk =   0.0058594
        k(   23) = (   0.0000000   0.0625000  -0.1250000), wk =   0.0058594
        k(   24) = (   0.0000000   0.0625000  -0.0625000), wk =   0.0029297
        k(   25) = (   0.0000000   0.1250000   0.1250000), wk =   0.0014648
        k(   26) = (   0.0000000   0.1250000   0.1875000), wk =   0.0058594
        k(   27) = (   0.0000000   0.1250000   0.2500000), wk =   0.0058594
        k(   28) = (   0.0000000   0.1250000   0.3125000), wk =   0.0058594
        k(   29) = (   0.0000000   0.1250000   0.3750000), wk =   0.0058594
        k(   30) = (   0.0000000   0.1250000   0.4375000), wk =   0.0058594
        k(   31) = (   0.0000000   0.1250000  -0.5000000), wk =   0.0058594
        k(   32) = (   0.0000000   0.1250000  -0.4375000), wk =   0.0058594
        k(   33) = (   0.0000000   0.1250000  -0.3750000), wk =   0.0058594
        k(   34) = (   0.0000000   0.1250000  -0.3125000), wk =   0.0058594
        k(   35) = (   0.0000000   0.1250000  -0.2500000), wk =   0.0058594
        k(   36) = (   0.0000000   0.1250000  -0.1875000), wk =   0.0058594
        k(   37) = (   0.0000000   0.1250000  -0.1250000), wk =   0.0029297
        k(   38) = (   0.0000000   0.1875000   0.1875000), wk =   0.0014648
        k(   39) = (   0.0000000   0.1875000   0.2500000), wk =   0.0058594
        k(   40) = (   0.0000000   0.1875000   0.3125000), wk =   0.0058594
        k(   41) = (   0.0000000   0.1875000   0.3750000), wk =   0.0058594
        k(   42) = (   0.0000000   0.1875000   0.4375000), wk =   0.0058594
        k(   43) = (   0.0000000   0.1875000  -0.5000000), wk =   0.0058594
        k(   44) = (   0.0000000   0.1875000  -0.4375000), wk =   0.0058594
        k(   45) = (   0.0000000   0.1875000  -0.3750000), wk =   0.0058594
        k(   46) = (   0.0000000   0.1875000  -0.3125000), wk =   0.0058594
        k(   47) = (   0.0000000   0.1875000  -0.2500000), wk =   0.0058594
        k(   48) = (   0.0000000   0.1875000  -0.1875000), wk =   0.0029297
        k(   49) = (   0.0000000   0.2500000   0.2500000), wk =   0.0014648
        k(   50) = (   0.0000000   0.2500000   0.3125000), wk =   0.0058594
        k(   51) = (   0.0000000   0.2500000   0.3750000), wk =   0.0058594
        k(   52) = (   0.0000000   0.2500000   0.4375000), wk =   0.0058594
        k(   53) = (   0.0000000   0.2500000  -0.5000000), wk =   0.0058594
        k(   54) = (   0.0000000   0.2500000  -0.4375000), wk =   0.0058594
        k(   55) = (   0.0000000   0.2500000  -0.3750000), wk =   0.0058594
        k(   56) = (   0.0000000   0.2500000  -0.3125000), wk =   0.0058594
        k(   57) = (   0.0000000   0.2500000  -0.2500000), wk =   0.0029297
        k(   58) = (   0.0000000   0.3125000   0.3125000), wk =   0.0014648
        k(   59) = (   0.0000000   0.3125000   0.3750000), wk =   0.0058594
        k(   60) = (   0.0000000   0.3125000   0.4375000), wk =   0.0058594
        k(   61) = (   0.0000000   0.3125000  -0.5000000), wk =   0.0058594
        k(   62) = (   0.0000000   0.3125000  -0.4375000), wk =   0.0058594
        k(   63) = (   0.0000000   0.3125000  -0.3750000), wk =   0.0058594
        k(   64) = (   0.0000000   0.3125000  -0.3125000), wk =   0.0029297
        k(   65) = (   0.0000000   0.3750000   0.3750000), wk =   0.0014648
        k(   66) = (   0.0000000   0.3750000   0.4375000), wk =   0.0058594
        k(   67) = (   0.0000000   0.3750000  -0.5000000), wk =   0.0058594
        k(   68) = (   0.0000000   0.3750000  -0.4375000), wk =   0.0058594
        k(   69) = (   0.0000000   0.3750000  -0.3750000), wk =   0.0029297
        k(   70) = (   0.0000000   0.4375000   0.4375000), wk =   0.0014648
        k(   71) = (   0.0000000   0.4375000  -0.5000000), wk =   0.0058594
        k(   72) = (   0.0000000   0.4375000  -0.4375000), wk =   0.0029297
        k(   73) = (   0.0000000  -0.5000000  -0.5000000), wk =   0.0007324
        k(   74) = (   0.0625000   0.1250000   0.1875000), wk =   0.0058594
        k(   75) = (   0.0625000   0.1250000   0.2500000), wk =   0.0117188
        k(   76) = (   0.0625000   0.1250000   0.3125000), wk =   0.0117188
        k(   77) = (   0.0625000   0.1250000   0.3750000), wk =   0.0117188
        k(   78) = (   0.0625000   0.1250000   0.4375000), wk =   0.0117188
        k(   79) = (   0.0625000   0.1250000  -0.5000000), wk =   0.0117188
        k(   80) = (   0.0625000   0.1250000  -0.4375000), wk =   0.0058594
        k(   81) = (   0.0625000   0.1875000   0.2500000), wk =   0.0058594
        k(   82) = (   0.0625000   0.1875000   0.3125000), wk =   0.0117188
        k(   83) = (   0.0625000   0.1875000   0.3750000), wk =   0.0117188
        k(   84) = (   0.0625000   0.1875000   0.4375000), wk =   0.0117188
        k(   85) = (   0.0625000   0.1875000  -0.5000000), wk =   0.0117188
        k(   86) = (   0.0625000   0.1875000  -0.4375000), wk =   0.0117188
        k(   87) = (   0.0625000   0.1875000  -0.3750000), wk =   0.0117188
        k(   88) = (   0.0625000   0.1875000  -0.3125000), wk =   0.0117188
        k(   89) = (   0.0625000   0.1875000  -0.2500000), wk =   0.0117188
        k(   90) = (   0.0625000   0.1875000  -0.1875000), wk =   0.0117188
        k(   91) = (   0.0625000   0.1875000  -0.1250000), wk =   0.0058594
        k(   92) = (   0.0625000   0.2500000   0.3125000), wk =   0.0058594
        k(   93) = (   0.0625000   0.2500000   0.3750000), wk =   0.0117188
        k(   94) = (   0.0625000   0.2500000   0.4375000), wk =   0.0117188
        k(   95) = (   0.0625000   0.2500000  -0.5000000), wk =   0.0117188
        k(   96) = (   0.0625000   0.2500000  -0.4375000), wk =   0.0117188
        k(   97) = (   0.0625000   0.2500000  -0.3750000), wk =   0.0117188
        k(   98) = (   0.0625000   0.2500000  -0.3125000), wk =   0.0117188
        k(   99) = (   0.0625000   0.2500000  -0.2500000), wk =   0.0117188
        k(  100) = (   0.0625000   0.2500000  -0.1875000), wk =   0.0058594
        k(  101) = (   0.0625000   0.3125000   0.3750000), wk =   0.0058594
        k(  102) = (   0.0625000   0.3125000   0.4375000), wk =   0.0117188
        k(  103) = (   0.0625000   0.3125000  -0.5000000), wk =   0.0117188
        k(  104) = (   0.0625000   0.3125000  -0.4375000), wk =   0.0117188
        k(  105) = (   0.0625000   0.3125000  -0.3750000), wk =   0.0117188
        k(  106) = (   0.0625000   0.3125000  -0.3125000), wk =   0.0117188
        k(  107) = (   0.0625000   0.3125000  -0.2500000), wk =   0.0058594
        k(  108) = (   0.0625000   0.3750000   0.4375000), wk =   0.0058594
        k(  109) = (   0.0625000   0.3750000  -0.5000000), wk =   0.0117188
        k(  110) = (   0.0625000   0.3750000  -0.4375000), wk =   0.0117188
        k(  111) = (   0.0625000   0.3750000  -0.3750000), wk =   0.0117188
        k(  112) = (   0.0625000   0.3750000  -0.3125000), wk =   0.0058594
        k(  113) = (   0.0625000   0.4375000  -0.5000000), wk =   0.0058594
        k(  114) = (   0.0625000   0.4375000  -0.4375000), wk =   0.0117188
        k(  115) = (   0.0625000   0.4375000  -0.3750000), wk =   0.0058594
        k(  116) = (   0.0625000  -0.5000000  -0.4375000), wk =   0.0029297
        k(  117) = (   0.1250000   0.2500000   0.3750000), wk =   0.0058594
        k(  118) = (   0.1250000   0.2500000   0.4375000), wk =   0.0117188
        k(  119) = (   0.1250000   0.2500000  -0.5000000), wk =   0.0117188
        k(  120) = (   0.1250000   0.2500000  -0.4375000), wk =   0.0117188
        k(  121) = (   0.1250000   0.2500000  -0.3750000), wk =   0.0058594
        k(  122) = (   0.1250000   0.3125000   0.4375000), wk =   0.0058594
        k(  123) = (   0.1250000   0.3125000  -0.5000000), wk =   0.0117188
        k(  124) = (   0.1250000   0.3125000  -0.4375000), wk =   0.0117188
        k(  125) = (   0.1250000   0.3125000  -0.3750000), wk =   0.0117188
        k(  126) = (   0.1250000   0.3125000  -0.3125000), wk =   0.0117188
        k(  127) = (   0.1250000   0.3125000  -0.2500000), wk =   0.0117188
        k(  128) = (   0.1250000   0.3125000  -0.1875000), wk =   0.0058594
        k(  129) = (   0.1250000   0.3750000  -0.5000000), wk =   0.0058594
        k(  130) = (   0.1250000   0.3750000  -0.4375000), wk =   0.0117188
        k(  131) = (   0.1250000   0.3750000  -0.3750000), wk =   0.0117188
        k(  132) = (   0.1250000   0.3750000  -0.3125000), wk =   0.0117188
        k(  133) = (   0.1250000   0.3750000  -0.2500000), wk =   0.0058594
        k(  134) = (   0.1250000   0.4375000  -0.4375000), wk =   0.0058594
        k(  135) = (   0.1250000   0.4375000  -0.3750000), wk =   0.0117188
        k(  136) = (   0.1250000   0.4375000  -0.3125000), wk =   0.0058594
        k(  137) = (   0.1250000  -0.5000000  -0.3750000), wk =   0.0029297
        k(  138) = (   0.1875000   0.3750000  -0.4375000), wk =   0.0058594
        k(  139) = (   0.1875000   0.3750000  -0.3750000), wk =   0.0117188
        k(  140) = (   0.1875000   0.3750000  -0.3125000), wk =   0.0058594
        k(  141) = (   0.1875000   0.4375000  -0.3750000), wk =   0.0058594
        k(  142) = (   0.1875000   0.4375000  -0.3125000), wk =   0.0117188
        k(  143) = (   0.1875000   0.4375000  -0.2500000), wk =   0.0058594
        k(  144) = (   0.1875000  -0.5000000  -0.3125000), wk =   0.0029297
        k(  145) = (   0.2500000  -0.5000000  -0.2500000), wk =   0.0014648

     Dense  grid:    57655 G-vectors     FFT dimensions: (  54,  54,  54)

     Largest allocated arrays     est. size (Mb)     dimensions
        Kohn-Sham Wavefunctions         0.51 Mb     (     920,   36)
        NL pseudopotentials             0.25 Mb     (     460,   36)
        Each V/rho on FFT grid          0.18 Mb     (   11664)
        Each G-vector array             0.03 Mb     (    3604)
        G-vector shells                 0.00 Mb     (     461)
     Largest temporary arrays     est. size (Mb)     dimensions
        Auxiliary wavefunctions         2.02 Mb     (     920,  144)
        Each subspace H/S matrix        0.32 Mb     (     144,  144)
        Each <psi_i|beta_j> matrix      0.04 Mb     (      36,   2,   36)
        Arrays for rho mixing           1.42 Mb     (   11664,    8)

     Check: negative/imaginary core charge=   -0.000011    0.000000

     Initial potential from superposition of free atoms

     starting charge   27.99723, renormalised to   28.00000
     Starting wfc are   36 randomized atomic wfcs
     Checking if some PAW data can be deallocated... 

     total cpu time spent up to now is       16.8 secs

     Self-consistent Calculation

     iteration #  1     ecut=    90.00 Ry     beta=0.70
     Davidson diagonalization with overlap
     ethr =  1.00E-02,  avg # of iterations =  4.0

     Threshold (ethr) on eigenvalues was too large:
     Diagonalizing with lowered threshold

     Davidson diagonalization with overlap
     ethr =  4.91E-05,  avg # of iterations =  4.2

     total cpu time spent up to now is      148.1 secs

     total energy              =    -884.12497009 Ry
     Harris-Foulkes estimate   =    -884.12926799 Ry
     estimated scf accuracy    <       0.02329914 Ry

     iteration #  2     ecut=    90.00 Ry     beta=0.70
     Davidson diagonalization with overlap
     ethr =  8.32E-05,  avg # of iterations =  1.0

     total cpu time spent up to now is      187.5 secs

     total energy              =    -884.12541587 Ry
     Harris-Foulkes estimate   =    -884.12575978 Ry
     estimated scf accuracy    <       0.00163610 Ry

     iteration #  3     ecut=    90.00 Ry     beta=0.70
     Davidson diagonalization with overlap
     ethr =  5.84E-06,  avg # of iterations =  2.6

     total cpu time spent up to now is      238.6 secs

     total energy              =    -884.12572400 Ry
     Harris-Foulkes estimate   =    -884.12584445 Ry
     estimated scf accuracy    <       0.00016207 Ry

     iteration #  4     ecut=    90.00 Ry     beta=0.70
     Davidson diagonalization with overlap
     ethr =  5.79E-07,  avg # of iterations =  3.0

     total cpu time spent up to now is      297.9 secs

     total energy              =    -884.12579213 Ry
     Harris-Foulkes estimate   =    -884.12579196 Ry
     estimated scf accuracy    <       0.00000812 Ry

     iteration #  5     ecut=    90.00 Ry     beta=0.70
     Davidson diagonalization with overlap
     ethr =  2.90E-08,  avg # of iterations =  3.0

     total cpu time spent up to now is      345.9 secs

     End of self-consistent calculation

          k = 0.0000 0.0000 0.0000 (  7239 PWs)   bands (ev):

   -14.0336 -14.0336 -14.0336 -14.0336 -14.0336 -14.0336 -13.9836 -13.9836
   -13.9836 -13.9836 -13.7374 -13.7374 -13.7374 -13.7374 -13.7374 -13.7374
   -13.7352 -13.7352 -13.7352 -13.7352  -2.5549  -2.5549   6.3296   6.3296
     7.6173   7.6173   7.6173   7.6173   7.6173   7.6173   9.6828   9.6828
     9.6828   9.6828   9.6828   9.6828

     occupation numbers 
     1.0000   1.0000   1.0000   1.0000   1.0000   1.0000   1.0000   1.0000
     1.0000   1.0000   1.0000   1.0000   1.0000   1.0000   1.0000   1.0000
     1.0000   1.0000   1.0000   1.0000   1.0000   1.0000   1.0000   1.0000
     0.0000   0.0000   0.0000   0.0000   0.0000   0.0000   0.0000   0.0000
     0.0000   0.0000   0.0000   0.0000

          k = 0.0442 0.0442-0.0442 (  7267 PWs)   bands (ev):

   -14.0361 -14.0361 -14.0361 -14.0361 -14.0328 -14.0328 -13.9802 -13.9802
   -13.9802 -13.9802 -13.7469 -13.7469 -13.7469 -13.7469 -13.7384 -13.7384
   -13.7263 -13.7263 -13.7263 -13.7263  -2.5202  -2.5202   5.9356   5.9356
     7.5447   7.5447   7.5447   7.5447   7.7983   7.7983   9.7777   9.7777
     9.7777   9.7777   9.8130   9.8130

     occupation numbers 
     1.0000   1.0000   1.0000   1.0000   1.0000   1.0000   1.0000   1.0000
     1.0000   1.0000   1.0000   1.0000   1.0000   1.0000   1.0000   1.0000
     1.0000   1.0000   1.0000   1.0000   1.0000   1.0000   1.0000   1.0000
     0.0288   0.0288   0.0288   0.0288   0.0000   0.0000   0.0000   0.0000
     0.0000   0.0000   0.0000   0.0000

          k = 0.0884 0.0884-0.0884 (  7240 PWs)   bands (ev):

   -14.0419 -14.0419 -14.0419 -14.0419 -14.0304 -14.0304 -13.9720 -13.9720
   -13.9720 -13.9720 -13.7573 -13.7573 -13.7573 -13.7573 -13.7411 -13.7411
   -13.7174 -13.7174 -13.7174 -13.7174  -2.4168  -2.4168   5.1752   5.1752
     7.3672   7.3672   7.3672   7.3672   7.9275   7.9275  10.0122  10.0122
    10.0122  10.0122  10.2474  10.2474

     occupation numbers 
     1.0000   1.0000   1.0000   1.0000   1.0000   1.0000   1.0000   1.0000
     1.0000   1.0000   1.0000   1.0000   1.0000   1.0000   1.0000   1.0000
     1.0000   1.0000   1.0000   1.0000   1.0000   1.0000   1.0000   1.0000
     1.0000   1.0000   1.0000   1.0000   0.0000   0.0000   0.0000   0.0000
     0.0000   0.0000   0.0000   0.0000

          k = 0.1326 0.1326-0.1326 (  7237 PWs)   bands (ev):

   -14.0482 -14.0482 -14.0482 -14.0482 -14.0268 -14.0268 -13.9621 -13.9621
   -13.9621 -13.9621 -13.7670 -13.7670 -13.7670 -13.7670 -13.7453 -13.7453
   -13.7099 -13.7099 -13.7099 -13.7099  -2.2478  -2.2478   4.3456   4.3456
     7.1523   7.1523   7.1523   7.1523   7.8643   7.8643  10.2879  10.2879
    10.2879  10.2879  10.9293  10.9293

     occupation numbers 
     1.0000   1.0000   1.0000   1.0000   1.0000   1.0000   1.0000   1.0000
     1.0000   1.0000   1.0000   1.0000   1.0000   1.0000   1.0000   1.0000
     1.0000   1.0000   1.0000   1.0000   1.0000   1.0000   1.0000   1.0000
     1.0000   1.0000   1.0000   1.0000   0.0000   0.0000   0.0000   0.0000
     0.0000   0.0000   0.0000   0.0000

          k = 0.1768 0.1768-0.1768 (  7243 PWs)   bands (ev):

   -14.0537 -14.0537 -14.0537 -14.0537 -14.0225 -14.0225 -13.9527 -13.9527
   -13.9527 -13.9527 -13.7753 -13.7753 -13.7753 -13.7753 -13.7504 -13.7504
   -13.7040 -13.7040 -13.7040 -13.7040  -2.0195  -2.0195   3.5341   3.5341
     6.9456   6.9456   6.9456   6.9456   7.7246   7.7246  10.5185  10.5185
    10.5185  10.5185  11.7392  11.7392

     occupation numbers 
     1.0000   1.0000   1.0000   1.0000   1.0000   1.0000   1.0000   1.0000
     1.0000   1.0000   1.0000   1.0000   1.0000   1.0000   1.0000   1.0000
     1.0000   1.0000   1.0000   1.0000   1.0000   1.0000   1.0000   1.0000
     1.0000   1.0000   1.0000   1.0000   0.0000   0.0000   0.0000   0.0000
     0.0000   0.0000   0.0000   0.0000

          k = 0.2210 0.2210-0.2210 (  7237 PWs)   bands (ev):

   -14.0578 -14.0578 -14.0578 -14.0578 -14.0180 -14.0180 -13.9450 -13.9450
   -13.9450 -13.9450 -13.7816 -13.7816 -13.7816 -13.7816 -13.7556 -13.7556
   -13.6996 -13.6996 -13.6996 -13.6996  -1.7448  -1.7448   2.7861   2.7861
     6.7708   6.7708   6.7708   6.7708   7.5827   7.5827  10.6580  10.6580
    10.6580  10.6580  12.6047  12.6048

     occupation numbers 
     1.0000   1.0000   1.0000   1.0000   1.0000   1.0000   1.0000   1.0000
     1.0000   1.0000   1.0000   1.0000   1.0000   1.0000   1.0000   1.0000
     1.0000   1.0000   1.0000   1.0000   1.0000   1.0000   1.0000   1.0000
     1.0000   1.0000   1.0000   1.0000   0.0000   0.0000   0.0000   0.0000
     0.0000   0.0000   0.0000   0.0000

          k = 0.2652 0.2652-0.2652 (  7228 PWs)   bands (ev):

   -14.0606 -14.0606 -14.0606 -14.0606 -14.0142 -14.0142 -13.9396 -13.9396
   -13.9396 -13.9396 -13.7858 -13.7858 -13.7858 -13.7858 -13.7601 -13.7601
   -13.6966 -13.6966 -13.6966 -13.6966  -1.4519  -1.4519   2.1462   2.1462
     6.6400   6.6400   6.6400   6.6400   7.4699   7.4699  10.7146  10.7146
    10.7146  10.7146  13.2771  13.2771

     occupation numbers 
     1.0000   1.0000   1.0000   1.0000   1.0000   1.0000   1.0000   1.0000
     1.0000   1.0000   1.0000   1.0000   1.0000   1.0000   1.0000   1.0000
     1.0000   1.0000   1.0000   1.0000   1.0000   1.0000   1.0000   1.0000
     1.0000   1.0000   1.0000   1.0000   1.0000   1.0000   0.0000   0.0000
     0.0000   0.0000   0.0000   0.0000

          k = 0.3094 0.3094-0.3094 (  7234 PWs)   bands (ev):

   -14.0621 -14.0621 -14.0621 -14.0621 -14.0115 -14.0115 -13.9365 -13.9365
   -13.9365 -13.9365 -13.7881 -13.7881 -13.7881 -13.7881 -13.7632 -13.7632
   -13.6950 -13.6950 -13.6950 -13.6950  -1.2007  -1.2007   1.6838   1.6838
     6.5596   6.5596   6.5596   6.5596   7.3989   7.3989  10.7267  10.7267
    10.7267  10.7267  13.3103  13.3103

     occupation numbers 
     1.0000   1.0000   1.0000   1.0000   1.0000   1.0000   1.0000   1.0000
     1.0000   1.0000   1.0000   1.0000   1.0000   1.0000   1.0000   1.0000
     1.0000   1.0000   1.0000   1.0000   1.0000   1.0000   1.0000   1.0000
     1.0000   1.0000   1.0000   1.0000   1.0000   1.0000   0.0000   0.0000
     0.0000   0.0000   0.0000   0.0000

          k =-0.3536-0.3536 0.3536 (  7192 PWs)   bands (ev):

   -14.0626 -14.0626 -14.0626 -14.0626 -14.0106 -14.0106 -13.9355 -13.9355
   -13.9355 -13.9355 -13.7888 -13.7888 -13.7888 -13.7888 -13.7642 -13.7642
   -13.6944 -13.6944 -13.6944 -13.6944  -1.0945  -1.0945   1.5067   1.5067
     6.5325   6.5325   6.5325   6.5325   7.3748   7.3748  10.7269  10.7269
    10.7269  10.7269  13.2859  13.2859

     occupation numbers 
     1.0000   1.0000   1.0000   1.0000   1.0000   1.0000   1.0000   1.0000
     1.0000   1.0000   1.0000   1.0000   1.0000   1.0000   1.0000   1.0000
     1.0000   1.0000   1.0000   1.0000   1.0000   1.0000   1.0000   1.0000
     1.0000   1.0000   1.0000   1.0000   1.0000   1.0000   0.0000   0.0000
     0.0000   0.0000   0.0000   0.0000

          k = 0.0884 0.0000 0.0000 (  7255 PWs)   bands (ev):

   -14.0357 -14.0357 -14.0354 -14.0354 -14.0354 -14.0354 -13.9812 -13.9812
   -13.9768 -13.9768 -13.7561 -13.7561 -13.7375 -13.7375 -13.7349 -13.7349
   -13.7349 -13.7349 -13.7220 -13.7220  -2.5085  -2.5085   5.8556   5.8556
     7.4118   7.4118   7.4118   7.4118   8.0722   8.0722   9.5385   9.5385
     9.9479   9.9479   9.9479   9.9479

     occupation numbers 
     1.0000   1.0000   1.0000   1.0000   1.0000   1.0000   1.0000   1.0000
     1.0000   1.0000   1.0000   1.0000   1.0000   1.0000   1.0000   1.0000
     1.0000   1.0000   1.0000   1.0000   1.0000   1.0000   1.0000   1.0000
     1.0000   1.0000   1.0000   1.0000   0.0000   0.0000   0.0000   0.0000
     0.0000   0.0000   0.0000   0.0000

          k = 0.1326 0.0442-0.0442 (  7242 PWs)   bands (ev):

   -14.0417 -14.0417 -14.0392 -14.0392 -14.0332 -14.0332 -13.9760 -13.9760
   -13.9683 -13.9683 -13.7674 -13.7674 -13.7470 -13.7470 -13.7350 -13.7350
   -13.7258 -13.7258 -13.7152 -13.7152  -2.4279  -2.4279   5.2918   5.2918
     7.2037   7.2037   7.2350   7.2350   8.3247   8.3247   9.5379   9.5379
    10.2313  10.2313  10.3057  10.3057

     occupation numbers 
     1.0000   1.0000   1.0000   1.0000   1.0000   1.0000   1.0000   1.0000
     1.0000   1.0000   1.0000   1.0000   1.0000   1.0000   1.0000   1.0000
     1.0000   1.0000   1.0000   1.0000   1.0000   1.0000   1.0000   1.0000
     1.0000   1.0000   1.0000   1.0000   0.0000   0.0000   0.0000   0.0000
     0.0000   0.0000   0.0000   0.0000

          k = 0.1768 0.0884-0.0884 (  7236 PWs)   bands (ev):

   -14.0489 -14.0489 -14.0449 -14.0449 -14.0291 -14.0291 -13.9674 -13.9674
   -13.9579 -13.9579 -13.7780 -13.7780 -13.7570 -13.7570 -13.7388 -13.7388
   -13.7171 -13.7171 -13.7077 -13.7077  -2.2803  -2.2803   4.5382   4.5382
     6.9813   6.9813   7.0175   7.0175   8.3431   8.3431   9.7649   9.7649
    10.5374  10.5374  10.8592  10.8592

     occupation numbers 
     1.0000   1.0000   1.0000   1.0000   1.0000   1.0000   1.0000   1.0000
     1.0000   1.0000   1.0000   1.0000   1.0000   1.0000   1.0000   1.0000
     1.0000   1.0000   1.0000   1.0000   1.0000   1.0000   1.0000   1.0000
     1.0000   1.0000   1.0000   1.0000   0.0000   0.0000   0.0000   0.0000
     0.0000   0.0000   0.0000   0.0000

          k = 0.2210 0.1326-0.1326 (  7246 PWs)   bands (ev):

   -14.0555 -14.0555 -14.0506 -14.0506 -14.0238 -14.0238 -13.9582 -13.9582
   -13.9478 -13.9478 -13.7869 -13.7869 -13.7663 -13.7663 -13.7449 -13.7449
   -13.7098 -13.7098 -13.7010 -13.7010  -2.0708  -2.0708   3.7501   3.7501
     6.7768   6.7768   6.7810   6.7810   8.2284   8.2284  10.0771  10.0771
    10.7851  10.7851  11.5057  11.5058

     occupation numbers 
     1.0000   1.0000   1.0000   1.0000   1.0000   1.0000   1.0000   1.0000
     1.0000   1.0000   1.0000   1.0000   1.0000   1.0000   1.0000   1.0000
     1.0000   1.0000   1.0000   1.0000   1.0000   1.0000   1.0000   1.0000
     1.0000   1.0000   1.0000   1.0000   0.0000   0.0000   0.0000   0.0000
     0.0000   0.0000   0.0000   0.0000

          k = 0.2652 0.1768-0.1768 (  7237 PWs)   bands (ev):

   -14.0607 -14.0607 -14.0554 -14.0554 -14.0179 -14.0179 -13.9496 -13.9496
   -13.9396 -13.9396 -13.7931 -13.7931 -13.7743 -13.7743 -13.7519 -13.7519
   -13.7039 -13.7039 -13.6957 -13.6957  -1.8094  -1.8094   2.9964   2.9964
     6.5514   6.5514   6.6218   6.6218   8.0831   8.0831  10.3375  10.3375
    10.9231  10.9231  12.1861  12.1861

     occupation numbers 
     1.0000   1.0000   1.0000   1.0000   1.0000   1.0000   1.0000   1.0000
     1.0000   1.0000   1.0000   1.0000   1.0000   1.0000   1.0000   1.0000
     1.0000   1.0000   1.0000   1.0000   1.0000   1.0000   1.0000   1.0000
     1.0000   1.0000   1.0000   1.0000   0.0000   0.0000   0.0000   0.0000
     0.0000   0.0000   0.0000   0.0000

          k = 0.3094 0.2210-0.2210 (  7234 PWs)   bands (ev):

   -14.0644 -14.0644 -14.0591 -14.0591 -14.0122 -14.0122 -13.9425 -13.9425
   -13.9343 -13.9343 -13.7961 -13.7961 -13.7810 -13.7810 -13.7590 -13.7590
   -13.6993 -13.6993 -13.6920 -13.6920  -1.5177  -1.5177   2.3261   2.3261
     6.3629   6.3629   6.5134   6.5134   7.9535   7.9535  10.4966  10.4966
    10.9545  10.9545  12.8577  12.8577

     occupation numbers 
     1.0000   1.0000   1.0000   1.0000   1.0000   1.0000   1.0000   1.0000
     1.0000   1.0000   1.0000   1.0000   1.0000   1.0000   1.0000   1.0000
     1.0000   1.0000   1.0000   1.0000   1.0000   1.0000   1.0000   1.0000
     1.0000   1.0000   1.0000   1.0000   0.0000   0.0000   0.0000   0.0000
     0.0000   0.0000   0.0000   0.0000

          k = 0.3536 0.2652-0.2652 (  7233 PWs)   bands (ev):

   -14.0665 -14.0665 -14.0617 -14.0617 -14.0077 -14.0077 -13.9371 -13.9371
   -13.9322 -13.9322 -13.7957 -13.7957 -13.7864 -13.7864 -13.7650 -13.7650
   -13.6959 -13.6959 -13.6900 -13.6900  -1.2424  -1.2424   1.8003   1.8003
     6.2223   6.2223   6.4605   6.4605   7.8590   7.8590  10.5835  10.5835
    10.9208  10.9208  13.2985  13.2985

     occupation numbers 
     1.0000   1.0000   1.0000   1.0000   1.0000   1.0000   1.0000   1.0000
     1.0000   1.0000   1.0000   1.0000   1.0000   1.0000   1.0000   1.0000
     1.0000   1.0000   1.0000   1.0000   1.0000   1.0000   1.0000   1.0000
     1.0000   1.0000   1.0000   1.0000   0.0000   0.0000   0.0000   0.0000
     0.0000   0.0000   0.0000   0.0000

          k =-0.3094-0.3977 0.3977 (  7214 PWs)   bands (ev):

   -14.0670 -14.0670 -14.0633 -14.0633 -14.0052 -14.0052 -13.9334 -13.9334
   -13.9328 -13.9328 -13.7929 -13.7929 -13.7906 -13.7906 -13.7688 -13.7688
   -13.6936 -13.6936 -13.6898 -13.6898  -1.0748  -1.0748   1.5175   1.5175
     6.1356   6.1356   6.4642   6.4642   7.8080   7.8080  10.6444  10.6444
    10.8629  10.8629  13.3966  13.3966

     occupation numbers 
     1.0000   1.0000   1.0000   1.0000   1.0000   1.0000   1.0000   1.0000
     1.0000   1.0000   1.0000   1.0000   1.0000   1.0000   1.0000   1.0000
     1.0000   1.0000   1.0000   1.0000   1.0000   1.0000   1.0000   1.0000
     1.0000   1.0000   1.0000   1.0000   0.0000   0.0000   0.0000   0.0000
     0.0000   0.0000   0.0000   0.0000

          k =-0.2652-0.3536 0.3536 (  7222 PWs)   bands (ev):

   -14.0662 -14.0662 -14.0639 -14.0639 -14.0053 -14.0053 -13.9353 -13.9353
   -13.9317 -13.9317 -13.7933 -13.7933 -13.7889 -13.7889 -13.7694 -13.7694
   -13.6925 -13.6925 -13.6911 -13.6911  -1.1117  -1.1117   1.5778   1.5778
     6.1063   6.1063   6.5237   6.5237   7.8036   7.8036  10.7043  10.7043
    10.8005  10.8005  13.4091  13.4091

     occupation numbers 
     1.0000   1.0000   1.0000   1.0000   1.0000   1.0000   1.0000   1.0000
     1.0000   1.0000   1.0000   1.0000   1.0000   1.0000   1.0000   1.0000
     1.0000   1.0000   1.0000   1.0000   1.0000   1.0000   1.0000   1.0000
     1.0000   1.0000   1.0000   1.0000   0.0000   0.0000   0.0000   0.0000
     0.0000   0.0000   0.0000   0.0000

          k =-0.2210-0.3094 0.3094 (  7239 PWs)   bands (ev):

   -14.0640 -14.0640 -14.0634 -14.0634 -14.0079 -14.0079 -13.9395 -13.9395
   -13.9324 -13.9324 -13.7939 -13.7939 -13.7849 -13.7849 -13.7658 -13.7658
   -13.6941 -13.6941 -13.6926 -13.6926  -1.3283  -1.3283   1.9554   1.9554
     6.1368   6.1368   6.6358   6.6358   7.8453   7.8453  10.7300  10.7300
    10.7603  10.7603  13.2887  13.2887

     occupation numbers 
     1.0000   1.0000   1.0000   1.0000   1.0000   1.0000   1.0000   1.0000
     1.0000   1.0000   1.0000   1.0000   1.0000   1.0000   1.0000   1.0000
     1.0000   1.0000   1.0000   1.0000   1.0000   1.0000   1.0000   1.0000
     1.0000   1.0000   1.0000   1.0000   0.0000   0.0000   0.0000   0.0000
     0.0000   0.0000   0.0000   0.0000

          k =-0.1768-0.2652 0.2652 (  7233 PWs)   bands (ev):

   -14.0616 -14.0616 -14.0604 -14.0604 -14.0126 -14.0126 -13.9452 -13.9452
   -13.9362 -13.9362 -13.7919 -13.7919 -13.7808 -13.7808 -13.7590 -13.7590
   -13.6986 -13.6986 -13.6942 -13.6942  -1.6168  -1.6168   2.5382   2.5382
     6.2286   6.2286   6.7948   6.7948   7.9285   7.9285  10.6267  10.6267
    10.7781  10.7781  12.7101  12.7101

     occupation numbers 
     1.0000   1.0000   1.0000   1.0000   1.0000   1.0000   1.0000   1.0000
     1.0000   1.0000   1.0000   1.0000   1.0000   1.0000   1.0000   1.0000
     1.0000   1.0000   1.0000   1.0000   1.0000   1.0000   1.0000   1.0000
     1.0000   1.0000   1.0000   1.0000   0.0000   0.0000   0.0000   0.0000
     0.0000   0.0000   0.0000   0.0000

          k =-0.1326-0.2210 0.2210 (  7244 PWs)   bands (ev):

   -14.0583 -14.0583 -14.0556 -14.0556 -14.0184 -14.0184 -13.9523 -13.9523
   -13.9430 -13.9430 -13.7868 -13.7868 -13.7755 -13.7755 -13.7508 -13.7508
   -13.7047 -13.7047 -13.6974 -13.6974  -1.9018  -1.9018   3.2408   3.2408
     6.3820   6.3820   6.9908   6.9908   8.0412   8.0412  10.4594  10.4594
    10.6905  10.6905  11.9785  11.9785

     occupation numbers 
     1.0000   1.0000   1.0000   1.0000   1.0000   1.0000   1.0000   1.0000
     1.0000   1.0000   1.0000   1.0000   1.0000   1.0000   1.0000   1.0000
     1.0000   1.0000   1.0000   1.0000   1.0000   1.0000   1.0000   1.0000
     1.0000   1.0000   1.0000   1.0000   0.0000   0.0000   0.0000   0.0000
     0.0000   0.0000   0.0000   0.0000

          k =-0.0884-0.1768 0.1768 (  7245 PWs)   bands (ev):

   -14.0535 -14.0535 -14.0495 -14.0495 -14.0243 -14.0243 -13.9607 -13.9607
   -13.9524 -13.9524 -13.7790 -13.7790 -13.7686 -13.7686 -13.7428 -13.7428
   -13.7123 -13.7123 -13.7023 -13.7023  -2.1475  -2.1475   4.0085   4.0085
     6.5969   6.5969   7.2063   7.2063   8.1541   8.1541  10.2236  10.2236
    10.4354  10.4354  11.3222  11.3222

     occupation numbers 
     1.0000   1.0000   1.0000   1.0000   1.0000   1.0000   1.0000   1.0000
     1.0000   1.0000   1.0000   1.0000   1.0000   1.0000   1.0000   1.0000
     1.0000   1.0000   1.0000   1.0000   1.0000   1.0000   1.0000   1.0000
     1.0000   1.0000   1.0000   1.0000   0.0000   0.0000   0.0000   0.0000
     0.0000   0.0000   0.0000   0.0000

          k =-0.0442-0.1326 0.1326 (  7233 PWs)   bands (ev):

   -14.0474 -14.0474 -14.0429 -14.0429 -14.0293 -14.0293 -13.9696 -13.9696
   -13.9631 -13.9631 -13.7691 -13.7691 -13.7603 -13.7603 -13.7359 -13.7359
   -13.7212 -13.7212 -13.7089 -13.7089  -2.3370  -2.3370   4.7876   4.7876
     6.8726   6.8726   7.4087   7.4087   8.1977   8.1977   9.9694   9.9694
    10.0793  10.0793  10.7488  10.7488

     occupation numbers 
     1.0000   1.0000   1.0000   1.0000   1.0000   1.0000   1.0000   1.0000
     1.0000   1.0000   1.0000   1.0000   1.0000   1.0000   1.0000   1.0000
     1.0000   1.0000   1.0000   1.0000   1.0000   1.0000   1.0000   1.0000
     1.0000   1.0000   1.0000   1.0000   0.0000   0.0000   0.0000   0.0000
     0.0000   0.0000   0.0000   0.0000

          k = 0.0000-0.0884 0.0884 (  7257 PWs)   bands (ev):

   -14.0410 -14.0410 -14.0373 -14.0373 -14.0325 -14.0325 -13.9771 -13.9771
   -13.9732 -13.9732 -13.7581 -13.7581 -13.7514 -13.7514 -13.7323 -13.7323
   -13.7293 -13.7293 -13.7170 -13.7170  -2.4625  -2.4625   5.4905   5.4905
     7.2078   7.2078   7.5421   7.5421   8.0582   8.0582   9.7902   9.7902
     9.8309   9.8309  10.2252  10.2252

     occupation numbers 
     1.0000   1.0000   1.0000   1.0000   1.0000   1.0000   1.0000   1.0000
     1.0000   1.0000   1.0000   1.0000   1.0000   1.0000   1.0000   1.0000
     1.0000   1.0000   1.0000   1.0000   1.0000   1.0000   1.0000   1.0000
     1.0000   1.0000   0.7949   0.7949   0.0000   0.0000   0.0000   0.0000
     0.0000   0.0000   0.0000   0.0000

          k = 0.1768 0.0000 0.0000 (  7219 PWs)   bands (ev):

   -14.0405 -14.0405 -14.0405 -14.0405 -14.0386 -14.0386 -13.9740 -13.9740
   -13.9595 -13.9595 -13.7807 -13.7807 -13.7444 -13.7444 -13.7279 -13.7279
   -13.7279 -13.7279 -13.7140 -13.7140  -2.3698  -2.3698   5.0420   5.0420
     6.9811   6.9811   6.9811   6.9811   8.7936   8.7936   9.2188   9.2188
    10.5558  10.5558  10.5558  10.5558

     occupation numbers 
     1.0000   1.0000   1.0000   1.0000   1.0000   1.0000   1.0000   1.0000
     1.0000   1.0000   1.0000   1.0000   1.0000   1.0000   1.0000   1.0000
     1.0000   1.0000   1.0000   1.0000   1.0000   1.0000   1.0000   1.0000
     1.0000   1.0000   1.0000   1.0000   0.0000   0.0000   0.0000   0.0000
     0.0000   0.0000   0.0000   0.0000

          k = 0.2210 0.0442-0.0442 (  7224 PWs)   bands (ev):

   -14.0480 -14.0480 -14.0449 -14.0449 -14.0344 -14.0344 -13.9673 -13.9673
   -13.9484 -13.9484 -13.7935 -13.7935 -13.7523 -13.7523 -13.7281 -13.7281
   -13.7207 -13.7207 -13.7087 -13.7087  -2.2441  -2.2441   4.4988   4.4988
     6.7378   6.7378   6.7537   6.7537   8.9767   8.9767   9.2137   9.2137
    10.9028  10.9028  10.9853  10.9853

     occupation numbers 
     1.0000   1.0000   1.0000   1.0000   1.0000   1.0000   1.0000   1.0000
     1.0000   1.0000   1.0000   1.0000   1.0000   1.0000   1.0000   1.0000
     1.0000   1.0000   1.0000   1.0000   1.0000   1.0000   1.0000   1.0000
     1.0000   1.0000   1.0000   1.0000   0.0000   0.0000   0.0000   0.0000
     0.0000   0.0000   0.0000   0.0000

          k = 0.2652 0.0884-0.0884 (  7236 PWs)   bands (ev):

   -14.0563 -14.0563 -14.0502 -14.0502 -14.0274 -14.0274 -13.9585 -13.9585
   -13.9374 -13.9374 -13.8045 -13.8045 -13.7620 -13.7620 -13.7348 -13.7348
   -13.7127 -13.7127 -13.7006 -13.7006  -2.0544  -2.0544   3.8229   3.8229
     6.4572   6.4572   6.5544   6.5544   8.9035   8.9035   9.5071   9.5071
    11.1922  11.1922  11.4222  11.4222

     occupation numbers 
     1.0000   1.0000   1.0000   1.0000   1.0000   1.0000   1.0000   1.0000
     1.0000   1.0000   1.0000   1.0000   1.0000   1.0000   1.0000   1.0000
     1.0000   1.0000   1.0000   1.0000   1.0000   1.0000   1.0000   1.0000
     1.0000   1.0000   1.0000   1.0000   0.0000   0.0000   0.0000   0.0000
     0.0000   0.0000   0.0000   0.0000

          k = 0.3094 0.1326-0.1326 (  7236 PWs)   bands (ev):

   -14.0636 -14.0636 -14.0552 -14.0552 -14.0187 -14.0187 -13.9494 -13.9494
   -13.9283 -13.9283 -13.8123 -13.8123 -13.7715 -13.7715 -13.7443 -13.7443
   -13.7057 -13.7057 -13.6929 -13.6929  -1.8086  -1.8086   3.1212   3.1212
     6.1738   6.1738   6.4010   6.4010   8.7618   8.7618   9.8909   9.8909
    11.3611  11.3611  11.7465  11.7465

     occupation numbers 
     1.0000   1.0000   1.0000   1.0000   1.0000   1.0000   1.0000   1.0000
     1.0000   1.0000   1.0000   1.0000   1.0000   1.0000   1.0000   1.0000
     1.0000   1.0000   1.0000   1.0000   1.0000   1.0000   1.0000   1.0000
     1.0000   1.0000   1.0000   1.0000   0.0000   0.0000   0.0000   0.0000
     0.0000   0.0000   0.0000   0.0000

          k = 0.3536 0.1768-0.1768 (  7223 PWs)   bands (ev):

   -14.0695 -14.0695 -14.0594 -14.0594 -14.0096 -14.0096 -13.9409 -13.9409
   -13.9226 -13.9226 -13.8160 -13.8160 -13.7803 -13.7803 -13.7549 -13.7549
   -13.6997 -13.6997 -13.6868 -13.6868  -1.5229  -1.5229   2.4603   2.4603
     5.9225   5.9225   6.3028   6.3028   8.6186   8.6186  10.2162  10.2162
    11.3976  11.3976  12.1074  12.1074

     occupation numbers 
     1.0000   1.0000   1.0000   1.0000   1.0000   1.0000   1.0000   1.0000
     1.0000   1.0000   1.0000   1.0000   1.0000   1.0000   1.0000   1.0000
     1.0000   1.0000   1.0000   1.0000   1.0000   1.0000   1.0000   1.0000
     1.0000   1.0000   1.0000   1.0000   0.0000   0.0000   0.0000   0.0000
     0.0000   0.0000   0.0000   0.0000

          k = 0.3977 0.2210-0.2210 (  7214 PWs)   bands (ev):

   -14.0735 -14.0735 -14.0627 -14.0627 -14.0013 -14.0013 -13.9335 -13.9335
   -13.9210 -13.9210 -13.8149 -13.8149 -13.7884 -13.7884 -13.7650 -13.7650
   -13.6950 -13.6950 -13.6826 -13.6826  -1.2329  -1.2329   1.9023   1.9023
     5.7212   5.7212   6.2643   6.2643   8.5021   8.5021  10.4161  10.4161
    11.3417  11.3417  12.6272  12.6272

     occupation numbers 
     1.0000   1.0000   1.0000   1.0000   1.0000   1.0000   1.0000   1.0000
     1.0000   1.0000   1.0000   1.0000   1.0000   1.0000   1.0000   1.0000
     1.0000   1.0000   1.0000   1.0000   1.0000   1.0000   1.0000   1.0000
     1.0000   1.0000   1.0000   1.0000   0.0000   0.0000   0.0000   0.0000
     0.0000   0.0000   0.0000   0.0000

          k =-0.2652-0.4419 0.4419 (  7221 PWs)   bands (ev):

   -14.0754 -14.0754 -14.0651 -14.0651 -13.9952 -13.9952 -13.9275 -13.9275
   -13.9233 -13.9233 -13.8092 -13.8092 -13.7956 -13.7956 -13.7735 -13.7735
   -13.6914 -13.6914 -13.6807 -13.6807  -1.0148  -1.0148   1.5372   1.5372
     5.5790   5.5790   6.2864   6.2864   8.4252   8.4252  10.5360  10.5360
    11.2419  11.2419  13.1983  13.1983

     occupation numbers 
     1.0000   1.0000   1.0000   1.0000   1.0000   1.0000   1.0000   1.0000
     1.0000   1.0000   1.0000   1.0000   1.0000   1.0000   1.0000   1.0000
     1.0000   1.0000   1.0000   1.0000   1.0000   1.0000   1.0000   1.0000
     1.0000   1.0000   1.0000   1.0000   0.0000   0.0000   0.0000   0.0000
     0.0000   0.0000   0.0000   0.0000

          k =-0.2210-0.3977 0.3977 (  7216 PWs)   bands (ev):

   -14.0753 -14.0753 -14.0666 -14.0666 -13.9926 -13.9926 -13.9284 -13.9284
   -13.9233 -13.9233 -13.8012 -13.8012 -13.7999 -13.7999 -13.7791 -13.7791
   -13.6891 -13.6891 -13.6813 -13.6813  -0.9795  -0.9795   1.4820   1.4820
     5.5020   5.5020   6.3674   6.3674   8.3925   8.3925  10.6360  10.6360
    11.1263  11.1263  13.5064  13.5065

     occupation numbers 
     1.0000   1.0000   1.0000   1.0000   1.0000   1.0000   1.0000   1.0000
     1.0000   1.0000   1.0000   1.0000   1.0000   1.0000   1.0000   1.0000
     1.0000   1.0000   1.0000   1.0000   1.0000   1.0000   1.0000   1.0000
     1.0000   1.0000   1.0000   1.0000   0.0000   0.0000   0.0000   0.0000
     0.0000   0.0000   0.0000   0.0000

          k =-0.1768-0.3536 0.3536 (  7215 PWs)   bands (ev):

   -14.0731 -14.0731 -14.0669 -14.0669 -13.9942 -13.9942 -13.9348 -13.9348
   -13.9219 -13.9219 -13.8043 -13.8043 -13.7892 -13.7892 -13.7805 -13.7805
   -13.6882 -13.6882 -13.6844 -13.6844  -1.1513  -1.1513   1.7612   1.7612
     5.4957   5.4957   6.5028   6.5028   8.4031   8.4031  10.7378  10.7378
    10.9978  10.9978  13.2473  13.2473

     occupation numbers 
     1.0000   1.0000   1.0000   1.0000   1.0000   1.0000   1.0000   1.0000
     1.0000   1.0000   1.0000   1.0000   1.0000   1.0000   1.0000   1.0000
     1.0000   1.0000   1.0000   1.0000   1.0000   1.0000   1.0000   1.0000
     1.0000   1.0000   1.0000   1.0000   0.0000   0.0000   0.0000   0.0000
     0.0000   0.0000   0.0000   0.0000

          k =-0.1326-0.3094 0.3094 (  7231 PWs)   bands (ev):

   -14.0689 -14.0689 -14.0659 -14.0659 -13.9997 -13.9997 -13.9416 -13.9416
   -13.9243 -13.9243 -13.8038 -13.8038 -13.7842 -13.7842 -13.7718 -13.7718
   -13.6900 -13.6900 -13.6889 -13.6889  -1.4291  -1.4291   2.2679   2.2679
     5.5664   5.5664   6.6843   6.6843   8.4496   8.4496  10.8186  10.8186
    10.8381  10.8381  12.5925  12.5925

     occupation numbers 
     1.0000   1.0000   1.0000   1.0000   1.0000   1.0000   1.0000   1.0000
     1.0000   1.0000   1.0000   1.0000   1.0000   1.0000   1.0000   1.0000
     1.0000   1.0000   1.0000   1.0000   1.0000   1.0000   1.0000   1.0000
     1.0000   1.0000   1.0000   1.0000   0.0000   0.0000   0.0000   0.0000
     0.0000   0.0000   0.0000   0.0000

          k =-0.0884-0.2652 0.2652 (  7243 PWs)   bands (ev):

   -14.0633 -14.0633 -14.0629 -14.0629 -14.0079 -14.0079 -13.9486 -13.9486
   -13.9308 -13.9308 -13.7993 -13.7993 -13.7807 -13.7807 -13.7584 -13.7584
   -13.6979 -13.6979 -13.6913 -13.6913  -1.7212  -1.7212   2.8959   2.8959
     5.7235   5.7235   6.8982   6.8982   8.5134   8.5134  10.6236  10.6236
    10.7863  10.7863  11.9816  11.9816

     occupation numbers 
     1.0000   1.0000   1.0000   1.0000   1.0000   1.0000   1.0000   1.0000
     1.0000   1.0000   1.0000   1.0000   1.0000   1.0000   1.0000   1.0000
     1.0000   1.0000   1.0000   1.0000   1.0000   1.0000   1.0000   1.0000
     1.0000   1.0000   1.0000   1.0000   0.0000   0.0000   0.0000   0.0000
     0.0000   0.0000   0.0000   0.0000

          k =-0.0442-0.2210 0.2210 (  7238 PWs)   bands (ev):

   -14.0592 -14.0592 -14.0557 -14.0557 -14.0168 -14.0168 -13.9560 -13.9560
   -13.9405 -13.9405 -13.7912 -13.7912 -13.7754 -13.7754 -13.7457 -13.7457
   -13.7076 -13.7076 -13.6955 -13.6955  -1.9819  -1.9819   3.5718   3.5718
     5.9819   5.9819   7.1206   7.1206   8.5501   8.5501  10.3606  10.3606
    10.5272  10.5272  11.5963  11.5963

     occupation numbers 
     1.0000   1.0000   1.0000   1.0000   1.0000   1.0000   1.0000   1.0000
     1.0000   1.0000   1.0000   1.0000   1.0000   1.0000   1.0000   1.0000
     1.0000   1.0000   1.0000   1.0000   1.0000   1.0000   1.0000   1.0000
     1.0000   1.0000   1.0000   1.0000   0.0000   0.0000   0.0000   0.0000
     0.0000   0.0000   0.0000   0.0000

          k = 0.0000-0.1768 0.1768 (  7245 PWs)   bands (ev):

   -14.0537 -14.0537 -14.0482 -14.0482 -14.0246 -14.0246 -13.9634 -13.9634
   -13.9519 -13.9519 -13.7808 -13.7808 -13.7682 -13.7682 -13.7358 -13.7358
   -13.7179 -13.7179 -13.7014 -13.7014  -2.1904  -2.1904   4.2275   4.2275
     6.3626   6.3626   7.3107   7.3107   8.4690   8.4690  10.1103  10.1103
    10.2123  10.2123  11.2535  11.2535

     occupation numbers 
     1.0000   1.0000   1.0000   1.0000   1.0000   1.0000   1.0000   1.0000
     1.0000   1.0000   1.0000   1.0000   1.0000   1.0000   1.0000   1.0000
     1.0000   1.0000   1.0000   1.0000   1.0000   1.0000   1.0000   1.0000
     1.0000   1.0000   1.0000   1.0000   0.0000   0.0000   0.0000   0.0000
     0.0000   0.0000   0.0000   0.0000

          k = 0.2652 0.0000 0.0000 (  7231 PWs)   bands (ev):

   -14.0478 -14.0478 -14.0478 -14.0478 -14.0385 -14.0385 -13.9622 -13.9622
   -13.9362 -13.9362 -13.8091 -13.8091 -13.7556 -13.7556 -13.7178 -13.7178
   -13.7178 -13.7178 -13.7125 -13.7125  -2.1399  -2.1399   4.1866   4.1866
     6.5220   6.5220   6.5220   6.5220   8.8775   8.8775   9.3571   9.3571
    11.3047  11.3047  11.3047  11.3047

     occupation numbers 
     1.0000   1.0000   1.0000   1.0000   1.0000   1.0000   1.0000   1.0000
     1.0000   1.0000   1.0000   1.0000   1.0000   1.0000   1.0000   1.0000
     1.0000   1.0000   1.0000   1.0000   1.0000   1.0000   1.0000   1.0000
     1.0000   1.0000   1.0000   1.0000   0.0000   0.0000   0.0000   0.0000
     0.0000   0.0000   0.0000   0.0000

          k = 0.3094 0.0442-0.0442 (  7237 PWs)   bands (ev):

   -14.0551 -14.0551 -14.0523 -14.0523 -14.0326 -14.0326 -13.9541 -13.9541
   -13.9237 -13.9237 -13.8229 -13.8229 -13.7639 -13.7639 -13.7235 -13.7235
   -13.7112 -13.7112 -13.7041 -13.7041  -1.9705  -1.9705   3.6817   3.6817
     6.2625   6.2625   6.3189   6.3189   8.8625   8.8625   9.4593   9.4593
    11.6345  11.6345  11.6618  11.6618

     occupation numbers 
     1.0000   1.0000   1.0000   1.0000   1.0000   1.0000   1.0000   1.0000
     1.0000   1.0000   1.0000   1.0000   1.0000   1.0000   1.0000   1.0000
     1.0000   1.0000   1.0000   1.0000   1.0000   1.0000   1.0000   1.0000
     1.0000   1.0000   1.0000   1.0000   0.0000   0.0000   0.0000   0.0000
     0.0000   0.0000   0.0000   0.0000

          k = 0.3536 0.0884-0.0884 (  7224 PWs)   bands (ev):

   -14.0639 -14.0639 -14.0570 -14.0570 -14.0222 -14.0222 -13.9448 -13.9448
   -13.9129 -13.9129 -13.8337 -13.8337 -13.7737 -13.7737 -13.7352 -13.7352
   -13.7042 -13.7042 -13.6936 -13.6936  -1.7417  -1.7417   3.0900   3.0900
     5.9426   5.9426   6.1630   6.1630   8.9559   8.9559   9.6047   9.6047
    11.7062  11.7062  11.8972  11.8972

     occupation numbers 
     1.0000   1.0000   1.0000   1.0000   1.0000   1.0000   1.0000   1.0000
     1.0000   1.0000   1.0000   1.0000   1.0000   1.0000   1.0000   1.0000
     1.0000   1.0000   1.0000   1.0000   1.0000   1.0000   1.0000   1.0000
     1.0000   1.0000   1.0000   1.0000   0.0000   0.0000   0.0000   0.0000
     0.0000   0.0000   0.0000   0.0000

          k = 0.3977 0.1326-0.1326 (  7227 PWs)   bands (ev):

   -14.0719 -14.0719 -14.0612 -14.0612 -14.0101 -14.0101 -13.9354 -13.9354
   -13.9056 -13.9056 -13.8399 -13.8399 -13.7839 -13.7839 -13.7488 -13.7488
   -13.6979 -13.6979 -13.6845 -13.6845  -1.4657  -1.4657   2.4881   2.4881
     5.6239   5.6239   6.0644   6.0644   8.9253   8.9253   9.9885   9.9885
    11.7139  11.7139  11.9750  11.9750

     occupation numbers 
     1.0000   1.0000   1.0000   1.0000   1.0000   1.0000   1.0000   1.0000
     1.0000   1.0000   1.0000   1.0000   1.0000   1.0000   1.0000   1.0000
     1.0000   1.0000   1.0000   1.0000   1.0000   1.0000   1.0000   1.0000
     1.0000   1.0000   1.0000   1.0000   0.0000   0.0000   0.0000   0.0000
     0.0000   0.0000   0.0000   0.0000

          k = 0.4419 0.1768-0.1768 (  7220 PWs)   bands (ev):

   -14.0782 -14.0782 -14.0648 -14.0648 -13.9979 -13.9979 -13.9264 -13.9264
   -13.9033 -13.9033 -13.8404 -13.8404 -13.7938 -13.7938 -13.7625 -13.7625
   -13.6926 -13.6926 -13.6775 -13.6775  -1.1692  -1.1692   1.9402   1.9402
     5.3498   5.3498   6.0280   6.0280   8.8474   8.8474  10.4064  10.4064
    11.8928  11.8928  11.9249  11.9249

     occupation numbers 
     1.0000   1.0000   1.0000   1.0000   1.0000   1.0000   1.0000   1.0000
     1.0000   1.0000   1.0000   1.0000   1.0000   1.0000   1.0000   1.0000
     1.0000   1.0000   1.0000   1.0000   1.0000   1.0000   1.0000   1.0000
     1.0000   1.0000   1.0000   1.0000   0.0000   0.0000   0.0000   0.0000
     0.0000   0.0000   0.0000   0.0000

          k =-0.2210-0.4861 0.4861 (  7219 PWs)   bands (ev):

   -14.0823 -14.0823 -14.0676 -14.0676 -13.9877 -13.9877 -13.9185 -13.9185
   -13.9063 -13.9063 -13.8349 -13.8349 -13.8031 -13.8031 -13.7743 -13.7743
   -13.6884 -13.6884 -13.6731 -13.6731  -0.9126  -0.9126   1.5278   1.5278
     5.1413   5.1413   6.0551   6.0551   8.7887   8.7887  10.6652  10.6652
    11.8026  11.8026  12.3731  12.3731

     occupation numbers 
     1.0000   1.0000   1.0000   1.0000   1.0000   1.0000   1.0000   1.0000
     1.0000   1.0000   1.0000   1.0000   1.0000   1.0000   1.0000   1.0000
     1.0000   1.0000   1.0000   1.0000   1.0000   1.0000   1.0000   1.0000
     1.0000   1.0000   1.0000   1.0000   0.0000   0.0000   0.0000   0.0000
     0.0000   0.0000   0.0000   0.0000

          k =-0.1768-0.4419 0.4419 (  7212 PWs)   bands (ev):

   -14.0837 -14.0837 -14.0694 -14.0694 -13.9813 -13.9813 -13.9137 -13.9137
   -13.9123 -13.9123 -13.8243 -13.8243 -13.8110 -13.8110 -13.7826 -13.7826
   -13.6856 -13.6856 -13.6718 -13.6718  -0.8076  -0.8076   1.3731   1.3731
     5.0097   5.0097   6.1439   6.1439   8.7666   8.7666  10.8009  10.8009
    11.6456  11.6456  13.0099  13.0100

     occupation numbers 
     1.0000   1.0000   1.0000   1.0000   1.0000   1.0000   1.0000   1.0000
     1.0000   1.0000   1.0000   1.0000   1.0000   1.0000   1.0000   1.0000
     1.0000   1.0000   1.0000   1.0000   1.0000   1.0000   1.0000   1.0000
     1.0000   1.0000   1.0000   1.0000   0.0000   0.0000   0.0000   0.0000
     0.0000   0.0000   0.0000   0.0000

          k =-0.1326-0.3977 0.3977 (  7214 PWs)   bands (ev):

   -14.0825 -14.0825 -14.0702 -14.0702 -13.9799 -13.9799 -13.9237 -13.9237
   -13.9092 -13.9092 -13.8160 -13.8160 -13.8097 -13.8097 -13.7870 -13.7870
   -13.6842 -13.6842 -13.6737 -13.6737  -0.9269  -0.9269   1.5503   1.5503
     4.9650   4.9650   6.2895   6.2895   8.7803   8.7803  10.9105  10.9105
    11.4621  11.4621  13.1170  13.1171

     occupation numbers 
     1.0000   1.0000   1.0000   1.0000   1.0000   1.0000   1.0000   1.0000
     1.0000   1.0000   1.0000   1.0000   1.0000   1.0000   1.0000   1.0000
     1.0000   1.0000   1.0000   1.0000   1.0000   1.0000   1.0000   1.0000
     1.0000   1.0000   1.0000   1.0000   0.0000   0.0000   0.0000   0.0000
     0.0000   0.0000   0.0000   0.0000

          k =-0.0884-0.3536 0.3536 (  7211 PWs)   bands (ev):

   -14.0785 -14.0785 -14.0697 -14.0697 -13.9843 -13.9843 -13.9339 -13.9339
   -13.9109 -13.9109 -13.8164 -13.8164 -13.7927 -13.7927 -13.7877 -13.7877
   -13.6844 -13.6844 -13.6789 -13.6789  -1.1885  -1.1885   1.9692   1.9692
     5.0195   5.0195   6.4824   6.4824   8.8161   8.8161  11.0204  11.0204
    11.2369  11.2369  12.4478  12.4479

     occupation numbers 
     1.0000   1.0000   1.0000   1.0000   1.0000   1.0000   1.0000   1.0000
     1.0000   1.0000   1.0000   1.0000   1.0000   1.0000   1.0000   1.0000
     1.0000   1.0000   1.0000   1.0000   1.0000   1.0000   1.0000   1.0000
     1.0000   1.0000   1.0000   1.0000   0.0000   0.0000   0.0000   0.0000
     0.0000   0.0000   0.0000   0.0000

          k =-0.0442-0.3094 0.3094 (  7217 PWs)   bands (ev):

   -14.0722 -14.0722 -14.0677 -14.0677 -13.9938 -13.9938 -13.9426 -13.9426
   -13.9177 -13.9177 -13.8115 -13.8115 -13.7860 -13.7860 -13.7745 -13.7745
   -13.6870 -13.6870 -13.6864 -13.6864  -1.4840  -1.4840   2.5013   2.5013
     5.1917   5.1917   6.7065   6.7065   8.8406   8.8406  10.9540  10.9540
    11.0517  11.0517  11.8343  11.8343

     occupation numbers 
     1.0000   1.0000   1.0000   1.0000   1.0000   1.0000   1.0000   1.0000
     1.0000   1.0000   1.0000   1.0000   1.0000   1.0000   1.0000   1.0000
     1.0000   1.0000   1.0000   1.0000   1.0000   1.0000   1.0000   1.0000
     1.0000   1.0000   1.0000   1.0000   0.0000   0.0000   0.0000   0.0000
     0.0000   0.0000   0.0000   0.0000

          k = 0.0000-0.2652 0.2652 (  7225 PWs)   bands (ev):

   -14.0641 -14.0641 -14.0641 -14.0641 -14.0056 -14.0056 -13.9498 -13.9498
   -13.9282 -13.9282 -13.8026 -13.8026 -13.7816 -13.7816 -13.7580 -13.7580
   -13.6973 -13.6973 -13.6901 -13.6901  -1.7569  -1.7569   3.0567   3.0567
     5.5063   5.5063   6.9342   6.9342   8.7834   8.7834  10.6365  10.6365
    10.7952  10.7952  11.6435  11.6435

     occupation numbers 
     1.0000   1.0000   1.0000   1.0000   1.0000   1.0000   1.0000   1.0000
     1.0000   1.0000   1.0000   1.0000   1.0000   1.0000   1.0000   1.0000
     1.0000   1.0000   1.0000   1.0000   1.0000   1.0000   1.0000   1.0000
     1.0000   1.0000   1.0000   1.0000   0.0000   0.0000   0.0000   0.0000
     0.0000   0.0000   0.0000   0.0000

          k = 0.3536 0.0000 0.0000 (  7187 PWs)   bands (ev):

   -14.0559 -14.0559 -14.0559 -14.0559 -14.0336 -14.0336 -13.9465 -13.9465
   -13.9092 -13.9092 -13.8399 -13.8399 -13.7708 -13.7708 -13.7174 -13.7174
   -13.7063 -13.7063 -13.7063 -13.7063  -1.8208  -1.8208   3.3374   3.3374
     6.1093   6.1093   6.1093   6.1093   8.5919   8.5919   9.5257   9.5257
    12.1124  12.1124  12.1124  12.1125

     occupation numbers 
     1.0000   1.0000   1.0000   1.0000   1.0000   1.0000   1.0000   1.0000
     1.0000   1.0000   1.0000   1.0000   1.0000   1.0000   1.0000   1.0000
     1.0000   1.0000   1.0000   1.0000   1.0000   1.0000   1.0000   1.0000
     1.0000   1.0000   1.0000   1.0000   0.0000   0.0000   0.0000   0.0000
     0.0000   0.0000   0.0000   0.0000

          k = 0.3977 0.0442-0.0442 (  7226 PWs)   bands (ev):

   -14.0626 -14.0626 -14.0600 -14.0600 -14.0256 -14.0256 -13.9370 -13.9370
   -13.8961 -13.8961 -13.8542 -13.8542 -13.7802 -13.7802 -13.7277 -13.7277
   -13.7003 -13.7003 -13.6964 -13.6964  -1.6096  -1.6096   2.8709   2.8709
     5.8584   5.8584   5.9458   5.9458   8.6157   8.6157   9.4913   9.4913
    12.2537  12.2537  12.4543  12.4543

     occupation numbers 
     1.0000   1.0000   1.0000   1.0000   1.0000   1.0000   1.0000   1.0000
     1.0000   1.0000   1.0000   1.0000   1.0000   1.0000   1.0000   1.0000
     1.0000   1.0000   1.0000   1.0000   1.0000   1.0000   1.0000   1.0000
     1.0000   1.0000   1.0000   1.0000   0.0000   0.0000   0.0000   0.0000
     0.0000   0.0000   0.0000   0.0000

          k = 0.4419 0.0884-0.0884 (  7204 PWs)   bands (ev):

   -14.0713 -14.0713 -14.0639 -14.0639 -14.0124 -14.0124 -13.9270 -13.9270
   -13.8862 -13.8862 -13.8639 -13.8639 -13.7907 -13.7907 -13.7429 -13.7429
   -13.6944 -13.6944 -13.6855 -13.6855  -1.3460  -1.3460   2.3581   2.3581
     5.5211   5.5211   5.8398   5.8398   8.7616   8.7616   9.6254   9.6254
    12.1241  12.1241  12.6182  12.6182

     occupation numbers 
     1.0000   1.0000   1.0000   1.0000   1.0000   1.0000   1.0000   1.0000
     1.0000   1.0000   1.0000   1.0000   1.0000   1.0000   1.0000   1.0000
     1.0000   1.0000   1.0000   1.0000   1.0000   1.0000   1.0000   1.0000
     1.0000   1.0000   1.0000   1.0000   0.0000   0.0000   0.0000   0.0000
     0.0000   0.0000   0.0000   0.0000

          k = 0.4861 0.1326-0.1326 (  7211 PWs)   bands (ev):

   -14.0793 -14.0793 -14.0674 -14.0674 -13.9974 -13.9974 -13.9169 -13.9169
   -13.8826 -13.8826 -13.8665 -13.8665 -13.8017 -13.8017 -13.7593 -13.7593
   -13.6893 -13.6893 -13.6762 -13.6762  -1.0493  -1.0493   1.8578   1.8578
     5.1824   5.1824   5.7971   5.7971   8.8036   8.8036  10.0862  10.0862
    11.9991  11.9991  12.6083  12.6083

     occupation numbers 
     1.0000   1.0000   1.0000   1.0000   1.0000   1.0000   1.0000   1.0000
     1.0000   1.0000   1.0000   1.0000   1.0000   1.0000   1.0000   1.0000
     1.0000   1.0000   1.0000   1.0000   1.0000   1.0000   1.0000   1.0000
     1.0000   1.0000   1.0000   1.0000   0.0000   0.0000   0.0000   0.0000
     0.0000   0.0000   0.0000   0.0000

          k =-0.1768-0.5303 0.5303 (  7203 PWs)   bands (ev):

   -14.0855 -14.0855 -14.0701 -14.0701 -13.9837 -13.9837 -13.9074 -13.9074
   -13.8850 -13.8850 -13.8626 -13.8626 -13.8124 -13.8124 -13.7740 -13.7740
   -13.6852 -13.6852 -13.6693 -13.6693  -0.7656  -0.7656   1.4381   1.4381
     4.8995   4.8995   5.8197   5.8197   8.7995   8.7995  10.7070  10.7070
    11.9828  11.9828  12.4835  12.4835

     occupation numbers 
     1.0000   1.0000   1.0000   1.0000   1.0000   1.0000   1.0000   1.0000
     1.0000   1.0000   1.0000   1.0000   1.0000   1.0000   1.0000   1.0000
[...]

     occupation numbers 
     1.0000   1.0000   1.0000   1.0000   1.0000   1.0000   1.0000   1.0000
     1.0000   1.0000   1.0000   1.0000   1.0000   1.0000   1.0000   1.0000
     1.0000   1.0000   1.0000   1.0000   1.0000   1.0000   1.0000   1.0000
     1.0000   1.0000   1.0000   1.0000   0.0000   0.0000   0.0000   0.0000
     0.0000   0.0000   0.0000   0.0000

          k =-0.1326-0.3977 0.5745 (  7218 PWs)   bands (ev):

   -14.0893 -14.0893 -14.0767 -14.0767 -13.9634 -13.9634 -13.9019 -13.9019
   -13.8818 -13.8818 -13.8599 -13.8599 -13.8247 -13.8247 -13.7942 -13.7942
   -13.6775 -13.6775 -13.6651 -13.6651  -0.5090  -0.5090   1.1408   1.1408
     4.6650   4.6650   5.6269   5.6269   9.4766   9.4766  10.7214  10.7214
    12.0023  12.0023  12.6864  12.6864

     occupation numbers 
     1.0000   1.0000   1.0000   1.0000   1.0000   1.0000   1.0000   1.0000
     1.0000   1.0000   1.0000   1.0000   1.0000   1.0000   1.0000   1.0000
     1.0000   1.0000   1.0000   1.0000   1.0000   1.0000   1.0000   1.0000
     1.0000   1.0000   1.0000   1.0000   0.0000   0.0000   0.0000   0.0000
     0.0000   0.0000   0.0000   0.0000

          k =-0.0884-0.3536 0.5303 (  7222 PWs)   bands (ev):

   -14.0893 -14.0893 -14.0767 -14.0767 -13.9628 -13.9628 -13.9049 -13.9049
   -13.8831 -13.8831 -13.8558 -13.8558 -13.8242 -13.8242 -13.7952 -13.7952
   -13.6773 -13.6773 -13.6653 -13.6653  -0.5636  -0.5636   1.2100   1.2100
     4.6319   4.6319   5.6961   5.6961   9.5216   9.5216  10.7135  10.7135
    12.0659  12.0659  12.6476  12.6476

     occupation numbers 
     1.0000   1.0000   1.0000   1.0000   1.0000   1.0000   1.0000   1.0000
     1.0000   1.0000   1.0000   1.0000   1.0000   1.0000   1.0000   1.0000
     1.0000   1.0000   1.0000   1.0000   1.0000   1.0000   1.0000   1.0000
     1.0000   1.0000   1.0000   1.0000   0.0000   0.0000   0.0000   0.0000
     0.0000   0.0000   0.0000   0.0000

          k =-0.0442-0.3094 0.4861 (  7219 PWs)   bands (ev):

   -14.0859 -14.0859 -14.0757 -14.0757 -13.9699 -13.9699 -13.9152 -13.9152
   -13.8854 -13.8854 -13.8533 -13.8533 -13.8112 -13.8112 -13.7910 -13.7910
   -13.6785 -13.6785 -13.6695 -13.6695  -0.8071  -0.8071   1.5293   1.5293
     4.7033   4.7033   5.8387   5.8387   9.5734   9.5734  10.5972  10.5972
    11.4885  11.4885  12.8732  12.8732

     occupation numbers 
     1.0000   1.0000   1.0000   1.0000   1.0000   1.0000   1.0000   1.0000
     1.0000   1.0000   1.0000   1.0000   1.0000   1.0000   1.0000   1.0000
     1.0000   1.0000   1.0000   1.0000   1.0000   1.0000   1.0000   1.0000
     1.0000   1.0000   1.0000   1.0000   0.0000   0.0000   0.0000   0.0000
     0.0000   0.0000   0.0000   0.0000

          k = 0.0000-0.2652 0.4419 (  7224 PWs)   bands (ev):

   -14.0799 -14.0799 -14.0733 -14.0733 -13.9827 -13.9827 -13.9259 -13.9259
   -13.8929 -13.8929 -13.8472 -13.8472 -13.7961 -13.7961 -13.7808 -13.7808
   -13.6811 -13.6811 -13.6770 -13.6770  -1.1049  -1.1049   1.9485   1.9485
     4.8983   4.8983   6.0292   6.0292   9.5727   9.5727  10.2421  10.2421
    11.3124  11.3124  12.6471  12.6471

     occupation numbers 
     1.0000   1.0000   1.0000   1.0000   1.0000   1.0000   1.0000   1.0000
     1.0000   1.0000   1.0000   1.0000   1.0000   1.0000   1.0000   1.0000
     1.0000   1.0000   1.0000   1.0000   1.0000   1.0000   1.0000   1.0000
     1.0000   1.0000   1.0000   1.0000   0.0000   0.0000   0.0000   0.0000
     0.0000   0.0000   0.0000   0.0000

          k =-0.1768-0.5303 0.7071 (  7209 PWs)   bands (ev):

   -14.0781 -14.0781 -14.0762 -14.0762 -13.9860 -13.9860 -13.9063 -13.9063
   -13.8884 -13.8884 -13.8620 -13.8620 -13.8124 -13.8124 -13.7700 -13.7700
   -13.6785 -13.6785 -13.6774 -13.6774  -0.8137  -0.8137   1.5670   1.5670
     5.0689   5.0689   5.4998   5.4998   9.2195   9.2195   9.5746   9.5746
    11.9992  11.9992  13.6078  13.6078

     occupation numbers 
     1.0000   1.0000   1.0000   1.0000   1.0000   1.0000   1.0000   1.0000
     1.0000   1.0000   1.0000   1.0000   1.0000   1.0000   1.0000   1.0000
     1.0000   1.0000   1.0000   1.0000   1.0000   1.0000   1.0000   1.0000
     1.0000   1.0000   1.0000   1.0000   0.0000   0.0000   0.0000   0.0000
     0.0000   0.0000   0.0000   0.0000

          k =-0.1326-0.4861 0.6629 (  7205 PWs)   bands (ev):

   -14.0848 -14.0848 -14.0786 -14.0786 -13.9687 -13.9687 -13.8964 -13.8964
   -13.8930 -13.8930 -13.8559 -13.8559 -13.8247 -13.8247 -13.7871 -13.7871
   -13.6756 -13.6756 -13.6695 -13.6695  -0.5101  -0.5101   1.1830   1.1830
     4.8390   4.8390   5.3782   5.3782   9.3852   9.3852  10.0503  10.0503
    11.8245  11.8245  13.5612  13.5612

     occupation numbers 
     1.0000   1.0000   1.0000   1.0000   1.0000   1.0000   1.0000   1.0000
     1.0000   1.0000   1.0000   1.0000   1.0000   1.0000   1.0000   1.0000
     1.0000   1.0000   1.0000   1.0000   1.0000   1.0000   1.0000   1.0000
     1.0000   1.0000   1.0000   1.0000   0.0000   0.0000   0.0000   0.0000
     0.0000   0.0000   0.0000   0.0000

          k =-0.0884-0.4419 0.6187 (  7214 PWs)   bands (ev):

   -14.0898 -14.0898 -14.0795 -14.0795 -13.9561 -13.9561 -13.8926 -13.8926
   -13.8848 -13.8848 -13.8579 -13.8579 -13.8359 -13.8359 -13.7988 -13.7988
   -13.6742 -13.6742 -13.6641 -13.6641  -0.2723  -0.2723   0.9075   0.9075
     4.6410   4.6410   5.3687   5.3687   9.4402   9.4402  10.7781  10.7781
    11.7216  11.7216  12.9833  12.9833

     occupation numbers 
     1.0000   1.0000   1.0000   1.0000   1.0000   1.0000   1.0000   1.0000
     1.0000   1.0000   1.0000   1.0000   1.0000   1.0000   1.0000   1.0000
     1.0000   1.0000   1.0000   1.0000   1.0000   1.0000   1.0000   1.0000
     1.0000   1.0000   1.0000   1.0000   0.0000   0.0000   0.0000   0.0000
     0.0000   0.0000   0.0000   0.0000

          k =-0.0442-0.3977 0.5745 (  7217 PWs)   bands (ev):

   -14.0917 -14.0917 -14.0795 -14.0795 -13.9529 -13.9529 -13.8888 -13.8888
   -13.8770 -13.8770 -13.8656 -13.8656 -13.8404 -13.8404 -13.8016 -13.8016
   -13.6741 -13.6741 -13.6622 -13.6622  -0.2743  -0.2743   0.9124   0.9124
     4.5282   4.5282   5.4577   5.4577   9.5169   9.5169  11.2472  11.2472
    11.9377  11.9377  12.2550  12.2550

     occupation numbers 
     1.0000   1.0000   1.0000   1.0000   1.0000   1.0000   1.0000   1.0000
     1.0000   1.0000   1.0000   1.0000   1.0000   1.0000   1.0000   1.0000
     1.0000   1.0000   1.0000   1.0000   1.0000   1.0000   1.0000   1.0000
     1.0000   1.0000   1.0000   1.0000   0.0000   0.0000   0.0000   0.0000
     0.0000   0.0000   0.0000   0.0000

          k = 0.0000-0.3536 0.5303 (  7218 PWs)   bands (ev):

   -14.0903 -14.0903 -14.0783 -14.0783 -13.9581 -13.9581 -13.9006 -13.9006
   -13.8735 -13.8735 -13.8656 -13.8656 -13.8300 -13.8300 -13.7982 -13.7982
   -13.6754 -13.6754 -13.6642 -13.6642  -0.5096  -0.5096   1.1814   1.1814
     4.5407   4.5407   5.6234   5.6234   9.5949   9.5949  11.1053  11.1053
    11.5613  11.5613  12.7391  12.7391

     occupation numbers 
     1.0000   1.0000   1.0000   1.0000   1.0000   1.0000   1.0000   1.0000
     1.0000   1.0000   1.0000   1.0000   1.0000   1.0000   1.0000   1.0000
     1.0000   1.0000   1.0000   1.0000   1.0000   1.0000   1.0000   1.0000
     1.0000   1.0000   1.0000   1.0000   0.0000   0.0000   0.0000   0.0000
     0.0000   0.0000   0.0000   0.0000

          k =-0.0884-0.5303 0.7071 (  7204 PWs)   bands (ev):

   -14.0815 -14.0815 -14.0803 -14.0803 -13.9667 -13.9667 -13.9170 -13.9170
   -13.8834 -13.8834 -13.8355 -13.8355 -13.8352 -13.8352 -13.7881 -13.7881
   -13.6734 -13.6734 -13.6724 -13.6724  -0.2877  -0.2877   0.9156   0.9156
     4.9954   4.9954   5.2096   5.2096   9.1877   9.1877   9.3958   9.3958
    12.6730  12.6730  13.8967  13.8967

     occupation numbers 
     1.0000   1.0000   1.0000   1.0000   1.0000   1.0000   1.0000   1.0000
     1.0000   1.0000   1.0000   1.0000   1.0000   1.0000   1.0000   1.0000
     1.0000   1.0000   1.0000   1.0000   1.0000   1.0000   1.0000   1.0000
     1.0000   1.0000   1.0000   1.0000   0.0000   0.0000   0.0000   0.0000
     0.0000   0.0000   0.0000   0.0000

          k =-0.0442-0.4861 0.6629 (  7211 PWs)   bands (ev):

   -14.0872 -14.0872 -14.0814 -14.0814 -13.9500 -13.9500 -13.9179 -13.9179
   -13.8730 -13.8730 -13.8478 -13.8478 -13.8336 -13.8336 -13.8039 -13.8039
   -13.6721 -13.6721 -13.6664 -13.6664  -0.0042  -0.0042   0.6157   0.6157
     4.7852   4.7852   5.1682   5.1682   9.3327   9.3327   9.9982   9.9982
    12.4905  12.4905  13.2007  13.2007

     occupation numbers 
     1.0000   1.0000   1.0000   1.0000   1.0000   1.0000   1.0000   1.0000
     1.0000   1.0000   1.0000   1.0000   1.0000   1.0000   1.0000   1.0000
     1.0000   1.0000   1.0000   1.0000   1.0000   1.0000   1.0000   1.0000
     1.0000   1.0000   1.0000   1.0000   0.0000   0.0000   0.0000   0.0000
     0.0000   0.0000   0.0000   0.0000

          k = 0.0000-0.4419 0.6187 (  7217 PWs)   bands (ev):

   -14.0910 -14.0910 -14.0810 -14.0810 -13.9471 -13.9471 -13.9019 -13.9019
   -13.8722 -13.8722 -13.8521 -13.8521 -13.8468 -13.8468 -13.8062 -13.8062
   -13.6724 -13.6724 -13.6626 -13.6626  -0.0064  -0.0064   0.6271   0.6271
     4.5921   4.5921   5.2729   5.2729   9.4199   9.4199  10.8170  10.8170
    12.3324  12.3324  12.3433  12.3433

     occupation numbers 
     1.0000   1.0000   1.0000   1.0000   1.0000   1.0000   1.0000   1.0000
     1.0000   1.0000   1.0000   1.0000   1.0000   1.0000   1.0000   1.0000
     1.0000   1.0000   1.0000   1.0000   1.0000   1.0000   1.0000   1.0000
     1.0000   1.0000   1.0000   1.0000   0.0000   0.0000   0.0000   0.0000
     0.0000   0.0000   0.0000   0.0000

          k =-0.7071 0.1768 0.0000 (  7202 PWs)   bands (ev):

   -14.0823 -14.0823 -14.0822 -14.0822 -13.9438 -13.9438 -13.9432 -13.9432
   -13.8607 -13.8607 -13.8579 -13.8579 -13.8107 -13.8107 -13.8101 -13.8101
   -13.6711 -13.6711 -13.6711 -13.6711   0.2924   0.2924   0.2935   0.2935
     5.0411   5.0411   5.0411   5.0411   9.2507   9.2507   9.2509   9.2509
    13.3952  13.3952  13.3952  13.3952

     occupation numbers 
     1.0000   1.0000   1.0000   1.0000   1.0000   1.0000   1.0000   1.0000
     1.0000   1.0000   1.0000   1.0000   1.0000   1.0000   1.0000   1.0000
     1.0000   1.0000   1.0000   1.0000   1.0000   1.0000   1.0000   1.0000
     1.0000   1.0000   1.0000   1.0000   0.0000   0.0000   0.0000   0.0000
     0.0000   0.0000   0.0000   0.0000

          k =-0.1768-0.4419 0.7071 (  7218 PWs)   bands (ev):

   -14.0849 -14.0849 -14.0786 -14.0786 -13.9682 -13.9682 -13.9068 -13.9068
   -13.8751 -13.8751 -13.8697 -13.8697 -13.8164 -13.8164 -13.7896 -13.7896
   -13.6755 -13.6755 -13.6701 -13.6701  -0.6802  -0.6802   1.3942   1.3942
     4.7601   4.7601   5.5360   5.5360   9.9730   9.9730  10.1054  10.1054
    11.2654  11.2654  13.3373  13.3373

     occupation numbers 
     1.0000   1.0000   1.0000   1.0000   1.0000   1.0000   1.0000   1.0000
     1.0000   1.0000   1.0000   1.0000   1.0000   1.0000   1.0000   1.0000
     1.0000   1.0000   1.0000   1.0000   1.0000   1.0000   1.0000   1.0000
     1.0000   1.0000   1.0000   1.0000   0.0000   0.0000   0.0000   0.0000
     0.0000   0.0000   0.0000   0.0000

          k =-0.1326-0.3977 0.6629 (  7217 PWs)   bands (ev):

   -14.0892 -14.0892 -14.0807 -14.0807 -13.9545 -13.9545 -13.8964 -13.8964
   -13.8798 -13.8798 -13.8637 -13.8637 -13.8307 -13.8307 -13.8009 -13.8009
   -13.6731 -13.6731 -13.6650 -13.6650  -0.3968  -0.3968   1.0553   1.0553
     4.6326   4.6326   5.3805   5.3805   9.9985   9.9985  10.5989  10.5989
    11.3768  11.3768  12.8695  12.8695

     occupation numbers 
     1.0000   1.0000   1.0000   1.0000   1.0000   1.0000   1.0000   1.0000
     1.0000   1.0000   1.0000   1.0000   1.0000   1.0000   1.0000   1.0000
     1.0000   1.0000   1.0000   1.0000   1.0000   1.0000   1.0000   1.0000
     1.0000   1.0000   1.0000   1.0000   0.0000   0.0000   0.0000   0.0000
     0.0000   0.0000   0.0000   0.0000

          k =-0.0884-0.3536 0.6187 (  7222 PWs)   bands (ev):

   -14.0908 -14.0908 -14.0813 -14.0813 -13.9491 -13.9491 -13.8927 -13.8927
   -13.8777 -13.8777 -13.8644 -13.8644 -13.8372 -13.8372 -13.8050 -13.8050
   -13.6724 -13.6724 -13.6631 -13.6631  -0.2590  -0.2590   0.8978   0.8978
     4.5922   4.5922   5.3236   5.3236   9.9981   9.9981  10.7241  10.7241
    11.8987  11.8987  12.1903  12.1903

     occupation numbers 
     1.0000   1.0000   1.0000   1.0000   1.0000   1.0000   1.0000   1.0000
     1.0000   1.0000   1.0000   1.0000   1.0000   1.0000   1.0000   1.0000
     1.0000   1.0000   1.0000   1.0000   1.0000   1.0000   1.0000   1.0000
     1.0000   1.0000   1.0000   1.0000   0.0000   0.0000   0.0000   0.0000
     0.0000   0.0000   0.0000   0.0000

          k =-0.0884-0.4419 0.7071 (  7218 PWs)   bands (ev):

   -14.0872 -14.0872 -14.0835 -14.0835 -13.9496 -13.9496 -13.9018 -13.9018
   -13.8850 -13.8850 -13.8465 -13.8465 -13.8387 -13.8387 -13.8045 -13.8045
   -13.6702 -13.6702 -13.6666 -13.6666  -0.2043  -0.2043   0.8454   0.8454
     4.7503   4.7503   5.1420   5.1420  10.0466  10.0466  10.0888  10.0888
    11.6452  11.6452  13.0383  13.0383

     occupation numbers 
     1.0000   1.0000   1.0000   1.0000   1.0000   1.0000   1.0000   1.0000
     1.0000   1.0000   1.0000   1.0000   1.0000   1.0000   1.0000   1.0000
     1.0000   1.0000   1.0000   1.0000   1.0000   1.0000   1.0000   1.0000
     1.0000   1.0000   1.0000   1.0000   0.0000   0.0000   0.0000   0.0000
     0.0000   0.0000   0.0000   0.0000

          k =-0.0442-0.3977 0.6629 (  7213 PWs)   bands (ev):

   -14.0899 -14.0899 -14.0847 -14.0847 -13.9371 -13.9371 -13.9035 -13.9035
   -13.8761 -13.8761 -13.8519 -13.8519 -13.8429 -13.8429 -13.8148 -13.8148
   -13.6688 -13.6688 -13.6636 -13.6636   0.0154   0.0154   0.6162   0.6162
     4.6687   4.6687   5.0617   5.0617  10.1260  10.1260  10.7982  10.7982
    11.5652  11.5652  12.1808  12.1808

     occupation numbers 
     1.0000   1.0000   1.0000   1.0000   1.0000   1.0000   1.0000   1.0000
     1.0000   1.0000   1.0000   1.0000   1.0000   1.0000   1.0000   1.0000
     1.0000   1.0000   1.0000   1.0000   1.0000   1.0000   1.0000   1.0000
     1.0000   1.0000   1.0000   1.0000   0.0000   0.0000   0.0000   0.0000
     0.0000   0.0000   0.0000   0.0000

          k =-0.0000-0.3536 0.6187 (  7212 PWs)   bands (ev):

   -14.0907 -14.0907 -14.0837 -14.0837 -13.9409 -13.9409 -13.8932 -13.8932
   -13.8824 -13.8824 -13.8515 -13.8515 -13.8468 -13.8468 -13.8114 -13.8114
   -13.6698 -13.6698 -13.6630 -13.6630  -0.1065  -0.1065   0.7461   0.7461
     4.6033   4.6033   5.1658   5.1658  10.1763  10.1763  10.9797  10.9797
    11.4545  11.4545  12.0853  12.0853

     occupation numbers 
     1.0000   1.0000   1.0000   1.0000   1.0000   1.0000   1.0000   1.0000
     1.0000   1.0000   1.0000   1.0000   1.0000   1.0000   1.0000   1.0000
     1.0000   1.0000   1.0000   1.0000   1.0000   1.0000   1.0000   1.0000
     1.0000   1.0000   1.0000   1.0000   0.0000   0.0000   0.0000   0.0000
     0.0000   0.0000   0.0000   0.0000

          k =-0.7071 0.2652 0.0000 (  7204 PWs)   bands (ev):

   -14.0866 -14.0866 -14.0866 -14.0866 -13.9275 -13.9275 -13.9267 -13.9267
   -13.8633 -13.8633 -13.8606 -13.8606 -13.8245 -13.8245 -13.8237 -13.8237
   -13.6668 -13.6668 -13.6668 -13.6668   0.3082   0.3082   0.3094   0.3094
     4.8769   4.8769   4.8770   4.8770  10.0573  10.0573  10.0575  10.0575
    12.3144  12.3144  12.3145  12.3145

     occupation numbers 
     1.0000   1.0000   1.0000   1.0000   1.0000   1.0000   1.0000   1.0000
     1.0000   1.0000   1.0000   1.0000   1.0000   1.0000   1.0000   1.0000
     1.0000   1.0000   1.0000   1.0000   1.0000   1.0000   1.0000   1.0000
     1.0000   1.0000   1.0000   1.0000   0.0000   0.0000   0.0000   0.0000
     0.0000   0.0000   0.0000   0.0000

          k =-0.7071 0.3536 0.0000 (  7228 PWs)   bands (ev):

   -14.0883 -14.0883 -14.0882 -14.0882 -13.9193 -13.9193 -13.9184 -13.9184
   -13.8657 -13.8657 -13.8630 -13.8630 -13.8304 -13.8304 -13.8295 -13.8295
   -13.6652 -13.6652 -13.6651 -13.6651   0.3149   0.3149   0.3161   0.3161
     4.8146   4.8146   4.8147   4.8147  10.7226  10.7226  10.7231  10.7231
    11.5523  11.5523  11.5527  11.5527

     occupation numbers 
     1.0000   1.0000   1.0000   1.0000   1.0000   1.0000   1.0000   1.0000
     1.0000   1.0000   1.0000   1.0000   1.0000   1.0000   1.0000   1.0000
     1.0000   1.0000   1.0000   1.0000   1.0000   1.0000   1.0000   1.0000
     1.0000   1.0000   1.0000   1.0000   0.0000   0.0000   0.0000   0.0000
     0.0000   0.0000   0.0000   0.0000

     the Fermi energy is     7.5429 ev

!    total energy              =    -884.12579407 Ry
     Harris-Foulkes estimate   =    -884.12579383 Ry
     estimated scf accuracy    <       0.00000072 Ry

     total all-electron energy =    -24709.381398 Ry

     The total energy is the sum of the following terms:

     one-electron contribution =    -155.39528094 Ry
     hartree contribution      =      78.93744076 Ry
     xc contribution           =     -54.76838226 Ry
     ewald contribution        =    -167.52979533 Ry
     one-center paw contrib.   =    -585.36977615 Ry
     smearing contrib. (-TS)   =      -0.00000015 Ry

     convergence has been achieved in   5 iterations

     Writing output data file Sn.save
 
     init_run     :     14.23s CPU     15.90s WALL (       1 calls)
     electrons    :    308.03s CPU    329.20s WALL (       1 calls)

     Called by init_run:
     wfcinit      :     13.67s CPU     14.67s WALL (       1 calls)
     potinit      :      0.21s CPU      0.28s WALL (       1 calls)

     Called by electrons:
     c_bands      :    264.97s CPU    283.30s WALL (       6 calls)
     sum_band     :     42.30s CPU     44.99s WALL (       6 calls)
     v_of_rho     :      0.09s CPU      0.11s WALL (       6 calls)
     v_h          :      0.01s CPU      0.01s WALL (       6 calls)
     v_xc         :      0.08s CPU      0.09s WALL (       6 calls)
     newd         :      0.11s CPU      0.15s WALL (       6 calls)
     PAW_pot      :      0.70s CPU      0.80s WALL (       6 calls)
     mix_rho      :      0.04s CPU      0.05s WALL (       6 calls)

     Called by c_bands:
     init_us_2    :      0.47s CPU      0.52s WALL (    1885 calls)
     cegterg      :    260.68s CPU    278.77s WALL (     870 calls)

     Called by sum_band:
     sum_band:bec :      0.13s CPU      0.13s WALL (     870 calls)
     addusdens    :      0.14s CPU      0.17s WALL (       6 calls)

     Called by *egterg:
     h_psi        :    223.43s CPU    238.06s WALL (    3590 calls)
     s_psi        :      3.16s CPU      3.19s WALL (    3590 calls)
     g_psi        :      0.73s CPU      0.73s WALL (    2575 calls)
     cdiaghg      :     15.23s CPU     15.55s WALL (    3300 calls)
     cegterg:over :     12.24s CPU     12.32s WALL (    2575 calls)
     cegterg:upda :      6.62s CPU      6.66s WALL (    2575 calls)
     cegterg:last :      4.43s CPU      4.47s WALL (     991 calls)

     Called by h_psi:
     h_psi:vloc   :    214.62s CPU    229.05s WALL (    3590 calls)
     h_psi:vnl    :      8.18s CPU      8.33s WALL (    3590 calls)
     add_vuspsi   :      3.24s CPU      3.27s WALL (    3590 calls)

     General routines
     calbec       :      6.44s CPU      6.60s WALL (    4460 calls)
     fft          :      0.13s CPU      0.34s WALL (     116 calls)
     fftw         :    238.10s CPU    254.15s WALL (  429704 calls)
     davcio       :      0.04s CPU      1.45s WALL (     145 calls)
 
     Parallel routines
     fft_scatter  :    156.49s CPU    167.41s WALL (  429820 calls)

     PAW routines
     PAW_pot      :      0.70s CPU      0.80s WALL (       6 calls)
     PAW_symme    :      0.01s CPU      0.01s WALL (      12 calls)
 
     PWSCF        :  5m23.07s CPU     5m47.79s WALL

 
   This run was terminated on:  23: 0:29  16Mar2020            

=------------------------------------------------------------------------------=
   JOB DONE.
=------------------------------------------------------------------------------=
