
     Program PWSCF v.5.4.0 starts on 28Feb2020 at  0:16:42 

     This program is part of the open-source Quantum ESPRESSO suite
     for quantum simulation of materials; please cite
         "P. Giannozzi et al., J. Phys.:Condens. Matter 21 395502 (2009);
          URL http://www.quantum-espresso.org", 
     in publications or presentations arising from this work. More details at
     http://www.quantum-espresso.org/quote

     Parallel version (MPI & OpenMP), running on      16 processor cores
     Number of MPI processes:                16
     Threads/MPI process:                     1
     R & G space division:  proc/nbgrp/npool/nimage =      16
     Waiting for input...
     Reading input from standard input
Warning: card &IONS ignored
Warning: card / ignored
Warning: card &CELL ignored
Warning: card / ignored

     Current dimensions of program PWSCF are:
     Max number of different atomic species (ntypx) = 10
     Max number of k-points (npk) =  40000
     Max angular momentum in pseudopotentials (lmaxx) =  3

     Subspace diagonalization in iterative solution of the eigenvalue problem:
     a serial algorithm will be used

 
     Parallelization info
     --------------------
     sticks:   dense  smooth     PW     G-vecs:    dense   smooth      PW
     Min         217     217     59                 8498     8498    1234
     Max         218     218     60                 8501     8501    1239
     Sum        3481    3481    955               135995   135995   19795
 

     Title: 
     Sn                                                                         


     bravais-lattice index     =            0
     lattice parameter (alat)  =       8.8993  a.u.
     unit-cell volume          =     498.3785 (a.u.)^3
     number of atoms/cell      =            2
     number of atomic types    =            1
     number of electrons       =        28.00
     number of Kohn-Sham states=           18
     kinetic-energy cutoff     =     160.0000  Ry
     charge density cutoff     =     640.0000  Ry
     convergence threshold     =      1.0E-06
     mixing beta               =       0.7000
     number of iterations used =            8  plain     mixing
     Exchange-correlation      = PBE ( 1  4  3  4 0 0)

     celldm(1)=   8.899346  celldm(2)=   0.000000  celldm(3)=   0.000000
     celldm(4)=   0.000000  celldm(5)=   0.000000  celldm(6)=   0.000000

     crystal axes: (cart. coord. in units of alat)
               a(1) = (   0.000000   0.707107   0.707107 )  
               a(2) = (   0.707107   0.000000   0.707107 )  
               a(3) = (   0.707107   0.707107   0.000000 )  

     reciprocal axes: (cart. coord. in units 2 pi/alat)
               b(1) = ( -0.707107  0.707107  0.707107 )  
               b(2) = (  0.707107 -0.707107  0.707107 )  
               b(3) = (  0.707107  0.707107 -0.707107 )  


     PseudoPot. # 1 for Sn read from file:
     ../PseudopotentialDatabase/Sn_ONCV_PBE_FR-1.1.upf
     MD5 check sum: 6dd2180f739ea5ae1610ead5e1628a0e
     Pseudo is Norm-conserving, Zval = 14.0
     Generated using ONCVPSP code by D. R. Hamann
     Using radial grid of  602 points,  6 beta functions with: 
                l(1) =   0
                l(2) =   0
                l(3) =   1
                l(4) =   1
                l(5) =   2
                l(6) =   2

     atomic species   valence    mass     pseudopotential
        Sn            14.00   118.71000     Sn( 1.00)

     48 Sym. Ops., with inversion, found (24 have fractional translation)


                                    s                        frac. trans.

      isym =  1     identity                                     

 cryst.   s( 1) = (     1          0          0      )
                  (     0          1          0      )
                  (     0          0          1      )

 cart.    s( 1) = (  1.0000000  0.0000000  0.0000000 )
                  (  0.0000000  1.0000000  0.0000000 )
                  (  0.0000000  0.0000000  1.0000000 )


      isym =  2     180 deg rotation - cart. axis [0,0,1]        

 cryst.   s( 2) = (     0          1         -1      )
                  (     1          0         -1      )
                  (     0          0         -1      )

 cart.    s( 2) = ( -1.0000000  0.0000000  0.0000000 )
                  (  0.0000000 -1.0000000  0.0000000 )
                  (  0.0000000  0.0000000  1.0000000 )


      isym =  3     180 deg rotation - cart. axis [0,1,0]        

 cryst.   s( 3) = (     0         -1          1      )
                  (     0         -1          0      )
                  (     1         -1          0      )

 cart.    s( 3) = ( -1.0000000  0.0000000  0.0000000 )
                  (  0.0000000  1.0000000  0.0000000 )
                  (  0.0000000  0.0000000 -1.0000000 )


      isym =  4     180 deg rotation - cart. axis [1,0,0]        

 cryst.   s( 4) = (    -1          0          0      )
                  (    -1          0          1      )
                  (    -1          1          0      )

 cart.    s( 4) = (  1.0000000  0.0000000  0.0000000 )
                  (  0.0000000 -1.0000000  0.0000000 )
                  (  0.0000000  0.0000000 -1.0000000 )


      isym =  5     180 deg rotation - cart. axis [1,1,0]        

 cryst.   s( 5) = (    -1          0          1      )    f =( -0.2500000 )
                  (     0         -1          1      )       ( -0.2500000 )
                  (     0          0          1      )       ( -0.2500000 )

 cart.    s( 5) = (  0.0000000  1.0000000  0.0000000 )    f =( -0.3535534 )
                  (  1.0000000  0.0000000  0.0000000 )       ( -0.3535534 )
                  (  0.0000000  0.0000000 -1.0000000 )       ( -0.3535534 )


      isym =  6     180 deg rotation - cart. axis [1,-1,0]       

 cryst.   s( 6) = (     0         -1          0      )    f =( -0.2500000 )
                  (    -1          0          0      )       ( -0.2500000 )
                  (     0          0         -1      )       ( -0.2500000 )

 cart.    s( 6) = (  0.0000000 -1.0000000  0.0000000 )    f =( -0.3535534 )
                  ( -1.0000000  0.0000000  0.0000000 )       ( -0.3535534 )
                  (  0.0000000  0.0000000 -1.0000000 )       ( -0.3535534 )


      isym =  7      90 deg rotation - cart. axis [0,0,-1]       

 cryst.   s( 7) = (     0          1          0      )    f =( -0.2500000 )
                  (     0          1         -1      )       ( -0.2500000 )
                  (    -1          1          0      )       ( -0.2500000 )

 cart.    s( 7) = (  0.0000000  1.0000000  0.0000000 )    f =( -0.3535534 )
                  ( -1.0000000  0.0000000  0.0000000 )       ( -0.3535534 )
                  (  0.0000000  0.0000000  1.0000000 )       ( -0.3535534 )


      isym =  8      90 deg rotation - cart. axis [0,0,1]        

 cryst.   s( 8) = (     1          0         -1      )    f =( -0.2500000 )
                  (     1          0          0      )       ( -0.2500000 )
                  (     1         -1          0      )       ( -0.2500000 )

 cart.    s( 8) = (  0.0000000 -1.0000000  0.0000000 )    f =( -0.3535534 )
                  (  1.0000000  0.0000000  0.0000000 )       ( -0.3535534 )
                  (  0.0000000  0.0000000  1.0000000 )       ( -0.3535534 )


      isym =  9     180 deg rotation - cart. axis [1,0,1]        

 cryst.   s( 9) = (    -1          1          0      )    f =( -0.2500000 )
                  (     0          1          0      )       ( -0.2500000 )
                  (     0          1         -1      )       ( -0.2500000 )

 cart.    s( 9) = (  0.0000000  0.0000000  1.0000000 )    f =( -0.3535534 )
                  (  0.0000000 -1.0000000  0.0000000 )       ( -0.3535534 )
                  (  1.0000000  0.0000000  0.0000000 )       ( -0.3535534 )


      isym = 10     180 deg rotation - cart. axis [-1,0,1]       

 cryst.   s(10) = (     0          0         -1      )    f =( -0.2500000 )
                  (     0         -1          0      )       ( -0.2500000 )
                  (    -1          0          0      )       ( -0.2500000 )

 cart.    s(10) = (  0.0000000  0.0000000 -1.0000000 )    f =( -0.3535534 )
                  (  0.0000000 -1.0000000  0.0000000 )       ( -0.3535534 )
                  ( -1.0000000  0.0000000  0.0000000 )       ( -0.3535534 )


      isym = 11      90 deg rotation - cart. axis [0,1,0]        

 cryst.   s(11) = (     0          0          1      )    f =( -0.2500000 )
                  (    -1          0          1      )       ( -0.2500000 )
                  (     0         -1          1      )       ( -0.2500000 )

 cart.    s(11) = (  0.0000000  0.0000000  1.0000000 )    f =( -0.3535534 )
                  (  0.0000000  1.0000000  0.0000000 )       ( -0.3535534 )
                  ( -1.0000000  0.0000000  0.0000000 )       ( -0.3535534 )


      isym = 12      90 deg rotation - cart. axis [0,-1,0]       

 cryst.   s(12) = (     1         -1          0      )    f =( -0.2500000 )
                  (     1          0         -1      )       ( -0.2500000 )
                  (     1          0          0      )       ( -0.2500000 )

 cart.    s(12) = (  0.0000000  0.0000000 -1.0000000 )    f =( -0.3535534 )
                  (  0.0000000  1.0000000  0.0000000 )       ( -0.3535534 )
                  (  1.0000000  0.0000000  0.0000000 )       ( -0.3535534 )


      isym = 13     180 deg rotation - cart. axis [0,1,1]        

 cryst.   s(13) = (     1          0          0      )    f =( -0.2500000 )
                  (     1         -1          0      )       ( -0.2500000 )
                  (     1          0         -1      )       ( -0.2500000 )

 cart.    s(13) = ( -1.0000000  0.0000000  0.0000000 )    f =( -0.3535534 )
                  (  0.0000000  0.0000000  1.0000000 )       ( -0.3535534 )
                  (  0.0000000  1.0000000  0.0000000 )       ( -0.3535534 )


      isym = 14     180 deg rotation - cart. axis [0,1,-1]       

 cryst.   s(14) = (    -1          0          0      )    f =( -0.2500000 )
                  (     0          0         -1      )       ( -0.2500000 )
                  (     0         -1          0      )       ( -0.2500000 )

 cart.    s(14) = ( -1.0000000  0.0000000  0.0000000 )    f =( -0.3535534 )
                  (  0.0000000  0.0000000 -1.0000000 )       ( -0.3535534 )
                  (  0.0000000 -1.0000000  0.0000000 )       ( -0.3535534 )


      isym = 15      90 deg rotation - cart. axis [-1,0,0]       

 cryst.   s(15) = (     0         -1          1      )    f =( -0.2500000 )
                  (     0          0          1      )       ( -0.2500000 )
                  (    -1          0          1      )       ( -0.2500000 )

 cart.    s(15) = (  1.0000000  0.0000000  0.0000000 )    f =( -0.3535534 )
                  (  0.0000000  0.0000000  1.0000000 )       ( -0.3535534 )
                  (  0.0000000 -1.0000000  0.0000000 )       ( -0.3535534 )


      isym = 16      90 deg rotation - cart. axis [1,0,0]        

 cryst.   s(16) = (     0          1         -1      )    f =( -0.2500000 )
                  (    -1          1          0      )       ( -0.2500000 )
                  (     0          1          0      )       ( -0.2500000 )

 cart.    s(16) = (  1.0000000  0.0000000  0.0000000 )    f =( -0.3535534 )
                  (  0.0000000  0.0000000 -1.0000000 )       ( -0.3535534 )
                  (  0.0000000  1.0000000  0.0000000 )       ( -0.3535534 )


      isym = 17     120 deg rotation - cart. axis [-1,-1,-1]     

 cryst.   s(17) = (     0          0          1      )
                  (     1          0          0      )
                  (     0          1          0      )

 cart.    s(17) = (  0.0000000  1.0000000  0.0000000 )
                  (  0.0000000  0.0000000  1.0000000 )
                  (  1.0000000  0.0000000  0.0000000 )


      isym = 18     120 deg rotation - cart. axis [-1,1,1]       

 cryst.   s(18) = (     1         -1          0      )
                  (     0         -1          1      )
                  (     0         -1          0      )

 cart.    s(18) = (  0.0000000 -1.0000000  0.0000000 )
                  (  0.0000000  0.0000000  1.0000000 )
                  ( -1.0000000  0.0000000  0.0000000 )


      isym = 19     120 deg rotation - cart. axis [1,1,-1]       

 cryst.   s(19) = (    -1          1          0      )
                  (    -1          0          0      )
                  (    -1          0          1      )

 cart.    s(19) = (  0.0000000  1.0000000  0.0000000 )
                  (  0.0000000  0.0000000 -1.0000000 )
                  ( -1.0000000  0.0000000  0.0000000 )


      isym = 20     120 deg rotation - cart. axis [1,-1,1]       

 cryst.   s(20) = (     0          0         -1      )
                  (     0          1         -1      )
                  (     1          0         -1      )

 cart.    s(20) = (  0.0000000 -1.0000000  0.0000000 )
                  (  0.0000000  0.0000000 -1.0000000 )
                  (  1.0000000  0.0000000  0.0000000 )


      isym = 21     120 deg rotation - cart. axis [1,1,1]        

 cryst.   s(21) = (     0          1          0      )
                  (     0          0          1      )
                  (     1          0          0      )

 cart.    s(21) = (  0.0000000  0.0000000  1.0000000 )
                  (  1.0000000  0.0000000  0.0000000 )
                  (  0.0000000  1.0000000  0.0000000 )


      isym = 22     120 deg rotation - cart. axis [-1,1,-1]      

 cryst.   s(22) = (    -1          0          1      )
                  (    -1          1          0      )
                  (    -1          0          0      )

 cart.    s(22) = (  0.0000000  0.0000000  1.0000000 )
                  ( -1.0000000  0.0000000  0.0000000 )
                  (  0.0000000 -1.0000000  0.0000000 )


      isym = 23     120 deg rotation - cart. axis [1,-1,-1]      

 cryst.   s(23) = (     1          0         -1      )
                  (     0          0         -1      )
                  (     0          1         -1      )

 cart.    s(23) = (  0.0000000  0.0000000 -1.0000000 )
                  ( -1.0000000  0.0000000  0.0000000 )
                  (  0.0000000  1.0000000  0.0000000 )


      isym = 24     120 deg rotation - cart. axis [-1,-1,1]      

 cryst.   s(24) = (     0         -1          0      )
                  (     1         -1          0      )
                  (     0         -1          1      )

 cart.    s(24) = (  0.0000000  0.0000000 -1.0000000 )
                  (  1.0000000  0.0000000  0.0000000 )
                  (  0.0000000 -1.0000000  0.0000000 )


      isym = 25     inversion                                    

 cryst.   s(25) = (    -1          0          0      )    f =( -0.2500000 )
                  (     0         -1          0      )       ( -0.2500000 )
                  (     0          0         -1      )       ( -0.2500000 )

 cart.    s(25) = ( -1.0000000  0.0000000  0.0000000 )    f =( -0.3535534 )
                  (  0.0000000 -1.0000000  0.0000000 )       ( -0.3535534 )
                  (  0.0000000  0.0000000 -1.0000000 )       ( -0.3535534 )


      isym = 26     inv. 180 deg rotation - cart. axis [0,0,1]   

 cryst.   s(26) = (     0         -1          1      )    f =( -0.2500000 )
                  (    -1          0          1      )       ( -0.2500000 )
                  (     0          0          1      )       ( -0.2500000 )

 cart.    s(26) = (  1.0000000  0.0000000  0.0000000 )    f =( -0.3535534 )
                  (  0.0000000  1.0000000  0.0000000 )       ( -0.3535534 )
                  (  0.0000000  0.0000000 -1.0000000 )       ( -0.3535534 )


      isym = 27     inv. 180 deg rotation - cart. axis [0,1,0]   

 cryst.   s(27) = (     0          1         -1      )    f =( -0.2500000 )
                  (     0          1          0      )       ( -0.2500000 )
                  (    -1          1          0      )       ( -0.2500000 )

 cart.    s(27) = (  1.0000000  0.0000000  0.0000000 )    f =( -0.3535534 )
                  (  0.0000000 -1.0000000  0.0000000 )       ( -0.3535534 )
                  (  0.0000000  0.0000000  1.0000000 )       ( -0.3535534 )


      isym = 28     inv. 180 deg rotation - cart. axis [1,0,0]   

 cryst.   s(28) = (     1          0          0      )    f =( -0.2500000 )
                  (     1          0         -1      )       ( -0.2500000 )
                  (     1         -1          0      )       ( -0.2500000 )

 cart.    s(28) = ( -1.0000000  0.0000000  0.0000000 )    f =( -0.3535534 )
                  (  0.0000000  1.0000000  0.0000000 )       ( -0.3535534 )
                  (  0.0000000  0.0000000  1.0000000 )       ( -0.3535534 )


      isym = 29     inv. 180 deg rotation - cart. axis [1,1,0]   

 cryst.   s(29) = (     1          0         -1      )
                  (     0          1         -1      )
                  (     0          0         -1      )

 cart.    s(29) = (  0.0000000 -1.0000000  0.0000000 )
                  ( -1.0000000  0.0000000  0.0000000 )
                  (  0.0000000  0.0000000  1.0000000 )


      isym = 30     inv. 180 deg rotation - cart. axis [1,-1,0]  

 cryst.   s(30) = (     0          1          0      )
                  (     1          0          0      )
                  (     0          0          1      )

 cart.    s(30) = (  0.0000000  1.0000000  0.0000000 )
                  (  1.0000000  0.0000000  0.0000000 )
                  (  0.0000000  0.0000000  1.0000000 )


      isym = 31     inv.  90 deg rotation - cart. axis [0,0,-1]  

 cryst.   s(31) = (     0         -1          0      )
                  (     0         -1          1      )
                  (     1         -1          0      )

 cart.    s(31) = (  0.0000000 -1.0000000  0.0000000 )
                  (  1.0000000  0.0000000  0.0000000 )
                  (  0.0000000  0.0000000 -1.0000000 )


      isym = 32     inv.  90 deg rotation - cart. axis [0,0,1]   

 cryst.   s(32) = (    -1          0          1      )
                  (    -1          0          0      )
                  (    -1          1          0      )

 cart.    s(32) = (  0.0000000  1.0000000  0.0000000 )
                  ( -1.0000000  0.0000000  0.0000000 )
                  (  0.0000000  0.0000000 -1.0000000 )


      isym = 33     inv. 180 deg rotation - cart. axis [1,0,1]   

 cryst.   s(33) = (     1         -1          0      )
                  (     0         -1          0      )
                  (     0         -1          1      )

 cart.    s(33) = (  0.0000000  0.0000000 -1.0000000 )
                  (  0.0000000  1.0000000  0.0000000 )
                  ( -1.0000000  0.0000000  0.0000000 )


      isym = 34     inv. 180 deg rotation - cart. axis [-1,0,1]  

 cryst.   s(34) = (     0          0          1      )
                  (     0          1          0      )
                  (     1          0          0      )

 cart.    s(34) = (  0.0000000  0.0000000  1.0000000 )
                  (  0.0000000  1.0000000  0.0000000 )
                  (  1.0000000  0.0000000  0.0000000 )


      isym = 35     inv.  90 deg rotation - cart. axis [0,1,0]   

 cryst.   s(35) = (     0          0         -1      )
                  (     1          0         -1      )
                  (     0          1         -1      )

 cart.    s(35) = (  0.0000000  0.0000000 -1.0000000 )
                  (  0.0000000 -1.0000000  0.0000000 )
                  (  1.0000000  0.0000000  0.0000000 )


      isym = 36     inv.  90 deg rotation - cart. axis [0,-1,0]  

 cryst.   s(36) = (    -1          1          0      )
                  (    -1          0          1      )
                  (    -1          0          0      )

 cart.    s(36) = (  0.0000000  0.0000000  1.0000000 )
                  (  0.0000000 -1.0000000  0.0000000 )
                  ( -1.0000000  0.0000000  0.0000000 )


      isym = 37     inv. 180 deg rotation - cart. axis [0,1,1]   

 cryst.   s(37) = (    -1          0          0      )
                  (    -1          1          0      )
                  (    -1          0          1      )

 cart.    s(37) = (  1.0000000  0.0000000  0.0000000 )
                  (  0.0000000  0.0000000 -1.0000000 )
                  (  0.0000000 -1.0000000  0.0000000 )


      isym = 38     inv. 180 deg rotation - cart. axis [0,1,-1]  

 cryst.   s(38) = (     1          0          0      )
                  (     0          0          1      )
                  (     0          1          0      )

 cart.    s(38) = (  1.0000000  0.0000000  0.0000000 )
                  (  0.0000000  0.0000000  1.0000000 )
                  (  0.0000000  1.0000000  0.0000000 )


      isym = 39     inv.  90 deg rotation - cart. axis [-1,0,0]  

 cryst.   s(39) = (     0          1         -1      )
                  (     0          0         -1      )
                  (     1          0         -1      )

 cart.    s(39) = ( -1.0000000  0.0000000  0.0000000 )
                  (  0.0000000  0.0000000 -1.0000000 )
                  (  0.0000000  1.0000000  0.0000000 )


      isym = 40     inv.  90 deg rotation - cart. axis [1,0,0]   

 cryst.   s(40) = (     0         -1          1      )
                  (     1         -1          0      )
                  (     0         -1          0      )

 cart.    s(40) = ( -1.0000000  0.0000000  0.0000000 )
                  (  0.0000000  0.0000000  1.0000000 )
                  (  0.0000000 -1.0000000  0.0000000 )


      isym = 41     inv. 120 deg rotation - cart. axis [-1,-1,-1]

 cryst.   s(41) = (     0          0         -1      )    f =( -0.2500000 )
                  (    -1          0          0      )       ( -0.2500000 )
                  (     0         -1          0      )       ( -0.2500000 )

 cart.    s(41) = (  0.0000000 -1.0000000  0.0000000 )    f =( -0.3535534 )
                  (  0.0000000  0.0000000 -1.0000000 )       ( -0.3535534 )
                  ( -1.0000000  0.0000000  0.0000000 )       ( -0.3535534 )


      isym = 42     inv. 120 deg rotation - cart. axis [-1,1,1]  

 cryst.   s(42) = (    -1          1          0      )    f =( -0.2500000 )
                  (     0          1         -1      )       ( -0.2500000 )
                  (     0          1          0      )       ( -0.2500000 )

 cart.    s(42) = (  0.0000000  1.0000000  0.0000000 )    f =( -0.3535534 )
                  (  0.0000000  0.0000000 -1.0000000 )       ( -0.3535534 )
                  (  1.0000000  0.0000000  0.0000000 )       ( -0.3535534 )


      isym = 43     inv. 120 deg rotation - cart. axis [1,1,-1]  

 cryst.   s(43) = (     1         -1          0      )    f =( -0.2500000 )
                  (     1          0          0      )       ( -0.2500000 )
                  (     1          0         -1      )       ( -0.2500000 )

 cart.    s(43) = (  0.0000000 -1.0000000  0.0000000 )    f =( -0.3535534 )
                  (  0.0000000  0.0000000  1.0000000 )       ( -0.3535534 )
                  (  1.0000000  0.0000000  0.0000000 )       ( -0.3535534 )


      isym = 44     inv. 120 deg rotation - cart. axis [1,-1,1]  

 cryst.   s(44) = (     0          0          1      )    f =( -0.2500000 )
                  (     0         -1          1      )       ( -0.2500000 )
                  (    -1          0          1      )       ( -0.2500000 )

 cart.    s(44) = (  0.0000000  1.0000000  0.0000000 )    f =( -0.3535534 )
                  (  0.0000000  0.0000000  1.0000000 )       ( -0.3535534 )
                  ( -1.0000000  0.0000000  0.0000000 )       ( -0.3535534 )


      isym = 45     inv. 120 deg rotation - cart. axis [1,1,1]   

 cryst.   s(45) = (     0         -1          0      )    f =( -0.2500000 )
                  (     0          0         -1      )       ( -0.2500000 )
                  (    -1          0          0      )       ( -0.2500000 )

 cart.    s(45) = (  0.0000000  0.0000000 -1.0000000 )    f =( -0.3535534 )
                  ( -1.0000000  0.0000000  0.0000000 )       ( -0.3535534 )
                  (  0.0000000 -1.0000000  0.0000000 )       ( -0.3535534 )


      isym = 46     inv. 120 deg rotation - cart. axis [-1,1,-1] 

 cryst.   s(46) = (     1          0         -1      )    f =( -0.2500000 )
                  (     1         -1          0      )       ( -0.2500000 )
                  (     1          0          0      )       ( -0.2500000 )

 cart.    s(46) = (  0.0000000  0.0000000 -1.0000000 )    f =( -0.3535534 )
                  (  1.0000000  0.0000000  0.0000000 )       ( -0.3535534 )
                  (  0.0000000  1.0000000  0.0000000 )       ( -0.3535534 )


      isym = 47     inv. 120 deg rotation - cart. axis [1,-1,-1] 

 cryst.   s(47) = (    -1          0          1      )    f =( -0.2500000 )
                  (     0          0          1      )       ( -0.2500000 )
                  (     0         -1          1      )       ( -0.2500000 )

 cart.    s(47) = (  0.0000000  0.0000000  1.0000000 )    f =( -0.3535534 )
                  (  1.0000000  0.0000000  0.0000000 )       ( -0.3535534 )
                  (  0.0000000 -1.0000000  0.0000000 )       ( -0.3535534 )


      isym = 48     inv. 120 deg rotation - cart. axis [-1,-1,1] 

 cryst.   s(48) = (     0          1          0      )    f =( -0.2500000 )
                  (    -1          1          0      )       ( -0.2500000 )
                  (     0          1         -1      )       ( -0.2500000 )

 cart.    s(48) = (  0.0000000  0.0000000  1.0000000 )    f =( -0.3535534 )
                  ( -1.0000000  0.0000000  0.0000000 )       ( -0.3535534 )
                  (  0.0000000  1.0000000  0.0000000 )       ( -0.3535534 )


   Cartesian axes

     site n.     atom                  positions (alat units)
         1           Sn  tau(   1) = (   0.0000000   0.0000000   0.0000000  )
         2           Sn  tau(   2) = (   0.3535534   0.3535534   0.3535534  )

   Crystallographic axes

     site n.     atom                  positions (cryst. coord.)
         1           Sn  tau(   1) = (  0.0000000  0.0000000  0.0000000  )
         2           Sn  tau(   2) = (  0.2500000  0.2500000  0.2500000  )

     number of k points=   120  gaussian smearing, width (Ry)=  0.0001
                       cart. coord. in units 2pi/alat
        k(    1) = (   0.0000000   0.0000000   0.0000000), wk =   0.0005926
        k(    2) = (   0.0471405   0.0471405  -0.0471405), wk =   0.0047407
        k(    3) = (   0.0942809   0.0942809  -0.0942809), wk =   0.0047407
        k(    4) = (   0.1414214   0.1414214  -0.1414214), wk =   0.0047407
        k(    5) = (   0.1885618   0.1885618  -0.1885618), wk =   0.0047407
        k(    6) = (   0.2357023   0.2357023  -0.2357023), wk =   0.0047407
        k(    7) = (   0.2828427   0.2828427  -0.2828427), wk =   0.0047407
        k(    8) = (   0.3299832   0.3299832  -0.3299832), wk =   0.0047407
        k(    9) = (   0.0942809   0.0000000   0.0000000), wk =   0.0035556
        k(   10) = (   0.1414214   0.0471405  -0.0471405), wk =   0.0142222
        k(   11) = (   0.1885618   0.0942809  -0.0942809), wk =   0.0142222
        k(   12) = (   0.2357023   0.1414214  -0.1414214), wk =   0.0142222
        k(   13) = (   0.2828427   0.1885618  -0.1885618), wk =   0.0142222
        k(   14) = (   0.3299832   0.2357023  -0.2357023), wk =   0.0142222
        k(   15) = (   0.3771236   0.2828427  -0.2828427), wk =   0.0142222
        k(   16) = (  -0.2828427  -0.3771236   0.3771236), wk =   0.0142222
        k(   17) = (  -0.2357023  -0.3299832   0.3299832), wk =   0.0142222
        k(   18) = (  -0.1885618  -0.2828427   0.2828427), wk =   0.0142222
        k(   19) = (  -0.1414214  -0.2357023   0.2357023), wk =   0.0142222
        k(   20) = (  -0.0942809  -0.1885618   0.1885618), wk =   0.0142222
        k(   21) = (  -0.0471405  -0.1414214   0.1414214), wk =   0.0142222
        k(   22) = (   0.0000000  -0.0942809   0.0942809), wk =   0.0071111
        k(   23) = (   0.1885618   0.0000000   0.0000000), wk =   0.0035556
        k(   24) = (   0.2357023   0.0471405  -0.0471405), wk =   0.0142222
        k(   25) = (   0.2828427   0.0942809  -0.0942809), wk =   0.0142222
        k(   26) = (   0.3299832   0.1414214  -0.1414214), wk =   0.0142222
        k(   27) = (   0.3771236   0.1885618  -0.1885618), wk =   0.0142222
        k(   28) = (   0.4242641   0.2357023  -0.2357023), wk =   0.0142222
        k(   29) = (  -0.2357023  -0.4242641   0.4242641), wk =   0.0142222
        k(   30) = (  -0.1885618  -0.3771236   0.3771236), wk =   0.0142222
        k(   31) = (  -0.1414214  -0.3299832   0.3299832), wk =   0.0142222
        k(   32) = (  -0.0942809  -0.2828427   0.2828427), wk =   0.0142222
        k(   33) = (  -0.0471405  -0.2357023   0.2357023), wk =   0.0142222
        k(   34) = (   0.0000000  -0.1885618   0.1885618), wk =   0.0071111
        k(   35) = (   0.2828427   0.0000000   0.0000000), wk =   0.0035556
        k(   36) = (   0.3299832   0.0471405  -0.0471405), wk =   0.0142222
        k(   37) = (   0.3771236   0.0942809  -0.0942809), wk =   0.0142222
        k(   38) = (   0.4242641   0.1414214  -0.1414214), wk =   0.0142222
        k(   39) = (   0.4714045   0.1885618  -0.1885618), wk =   0.0142222
        k(   40) = (  -0.1885618  -0.4714045   0.4714045), wk =   0.0142222
        k(   41) = (  -0.1414214  -0.4242641   0.4242641), wk =   0.0142222
        k(   42) = (  -0.0942809  -0.3771236   0.3771236), wk =   0.0142222
        k(   43) = (  -0.0471405  -0.3299832   0.3299832), wk =   0.0142222
        k(   44) = (   0.0000000  -0.2828427   0.2828427), wk =   0.0071111
        k(   45) = (   0.3771236   0.0000000   0.0000000), wk =   0.0035556
        k(   46) = (   0.4242641   0.0471405  -0.0471405), wk =   0.0142222
        k(   47) = (   0.4714045   0.0942809  -0.0942809), wk =   0.0142222
        k(   48) = (   0.5185450   0.1414214  -0.1414214), wk =   0.0142222
        k(   49) = (  -0.1414214  -0.5185450   0.5185450), wk =   0.0142222
        k(   50) = (  -0.0942809  -0.4714045   0.4714045), wk =   0.0142222
        k(   51) = (  -0.0471405  -0.4242641   0.4242641), wk =   0.0142222
        k(   52) = (  -0.0000000  -0.3771236   0.3771236), wk =   0.0071111
        k(   53) = (   0.4714045   0.0000000   0.0000000), wk =   0.0035556
        k(   54) = (   0.5185450   0.0471405  -0.0471405), wk =   0.0142222
        k(   55) = (   0.5656854   0.0942809  -0.0942809), wk =   0.0142222
        k(   56) = (  -0.0942809  -0.5656854   0.5656854), wk =   0.0142222
        k(   57) = (  -0.0471405  -0.5185450   0.5185450), wk =   0.0142222
        k(   58) = (  -0.0000000  -0.4714045   0.4714045), wk =   0.0071111
        k(   59) = (   0.5656854   0.0000000   0.0000000), wk =   0.0035556
        k(   60) = (   0.6128259   0.0471405  -0.0471405), wk =   0.0142222
        k(   61) = (  -0.0471405  -0.6128259   0.6128259), wk =   0.0142222
        k(   62) = (   0.0000000  -0.5656854   0.5656854), wk =   0.0071111
        k(   63) = (   0.6599663   0.0000000   0.0000000), wk =   0.0035556
        k(   64) = (   0.0000000  -0.6599663   0.6599663), wk =   0.0071111
        k(   65) = (   0.1885618   0.0942809  -0.0000000), wk =   0.0142222
        k(   66) = (   0.2357023   0.1414214  -0.0471405), wk =   0.0284444
        k(   67) = (   0.2828427   0.1885618  -0.0942809), wk =   0.0284444
        k(   68) = (   0.3299832   0.2357023  -0.1414214), wk =   0.0284444
        k(   69) = (   0.3771236   0.2828427  -0.1885618), wk =   0.0284444
        k(   70) = (  -0.2828427  -0.3771236   0.4714045), wk =   0.0284444
        k(   71) = (   0.2828427   0.0942809   0.0000000), wk =   0.0142222
        k(   72) = (   0.3299832   0.1414214  -0.0471405), wk =   0.0284444
        k(   73) = (   0.3771236   0.1885618  -0.0942809), wk =   0.0284444
        k(   74) = (   0.4242641   0.2357023  -0.1414214), wk =   0.0284444
        k(   75) = (  -0.2357023  -0.4242641   0.5185450), wk =   0.0284444
        k(   76) = (  -0.1885618  -0.3771236   0.4714045), wk =   0.0284444
        k(   77) = (  -0.1414214  -0.3299832   0.4242641), wk =   0.0284444
        k(   78) = (  -0.0942809  -0.2828427   0.3771236), wk =   0.0284444
        k(   79) = (  -0.0471405  -0.2357023   0.3299832), wk =   0.0284444
        k(   80) = (   0.0000000  -0.1885618   0.2828427), wk =   0.0142222
        k(   81) = (   0.3771236   0.0942809   0.0000000), wk =   0.0142222
        k(   82) = (   0.4242641   0.1414214  -0.0471405), wk =   0.0284444
        k(   83) = (   0.4714045   0.1885618  -0.0942809), wk =   0.0284444
        k(   84) = (  -0.1885618  -0.4714045   0.5656854), wk =   0.0284444
        k(   85) = (  -0.1414214  -0.4242641   0.5185450), wk =   0.0284444
        k(   86) = (  -0.0942809  -0.3771236   0.4714045), wk =   0.0284444
        k(   87) = (  -0.0471405  -0.3299832   0.4242641), wk =   0.0284444
        k(   88) = (   0.0000000  -0.2828427   0.3771236), wk =   0.0142222
        k(   89) = (   0.4714045   0.0942809  -0.0000000), wk =   0.0142222
        k(   90) = (   0.5185450   0.1414214  -0.0471405), wk =   0.0284444
        k(   91) = (  -0.1414214  -0.5185450   0.6128259), wk =   0.0284444
        k(   92) = (  -0.0942809  -0.4714045   0.5656854), wk =   0.0284444
        k(   93) = (  -0.0471405  -0.4242641   0.5185450), wk =   0.0284444
        k(   94) = (  -0.0000000  -0.3771236   0.4714045), wk =   0.0142222
        k(   95) = (   0.5656854   0.0942809   0.0000000), wk =   0.0142222
        k(   96) = (  -0.0942809  -0.5656854   0.6599663), wk =   0.0284444
        k(   97) = (  -0.0471405  -0.5185450   0.6128259), wk =   0.0284444
        k(   98) = (   0.0000000  -0.4714045   0.5656854), wk =   0.0142222
        k(   99) = (  -0.0471405  -0.6128259   0.7071068), wk =   0.0142222
        k(  100) = (   0.0000000  -0.5656854   0.6599663), wk =   0.0142222
        k(  101) = (   0.3771236   0.1885618  -0.0000000), wk =   0.0142222
        k(  102) = (   0.4242641   0.2357023  -0.0471405), wk =   0.0284444
        k(  103) = (  -0.2357023  -0.4242641   0.6128259), wk =   0.0284444
        k(  104) = (  -0.1885618  -0.3771236   0.5656854), wk =   0.0284444
        k(  105) = (   0.4714045   0.1885618  -0.0000000), wk =   0.0142222
        k(  106) = (  -0.1885618  -0.4714045   0.6599663), wk =   0.0284444
        k(  107) = (  -0.1414214  -0.4242641   0.6128259), wk =   0.0284444
        k(  108) = (  -0.0942809  -0.3771236   0.5656854), wk =   0.0284444
        k(  109) = (  -0.0471405  -0.3299832   0.5185450), wk =   0.0284444
        k(  110) = (   0.0000000  -0.2828427   0.4714045), wk =   0.0142222
        k(  111) = (  -0.1414214  -0.5185450   0.7071068), wk =   0.0142222
        k(  112) = (  -0.0942809  -0.4714045   0.6599663), wk =   0.0284444
        k(  113) = (  -0.0471405  -0.4242641   0.6128259), wk =   0.0284444
        k(  114) = (   0.0000000  -0.3771236   0.5656854), wk =   0.0142222
        k(  115) = (  -0.0471405  -0.5185450   0.7071068), wk =   0.0142222
        k(  116) = (   0.0000000  -0.4714045   0.6599663), wk =   0.0142222
        k(  117) = (  -0.1414214  -0.4242641   0.7071068), wk =   0.0142222
        k(  118) = (  -0.0942809  -0.3771236   0.6599663), wk =   0.0284444
        k(  119) = (  -0.0471405  -0.4242641   0.7071068), wk =   0.0142222
        k(  120) = (  -0.0000000  -0.3771236   0.6599663), wk =   0.0142222

                       cryst. coord.
        k(    1) = (   0.0000000   0.0000000   0.0000000), wk =   0.0005926
        k(    2) = (   0.0000000   0.0000000   0.0666667), wk =   0.0047407
        k(    3) = (   0.0000000   0.0000000   0.1333333), wk =   0.0047407
        k(    4) = (   0.0000000   0.0000000   0.2000000), wk =   0.0047407
        k(    5) = (   0.0000000   0.0000000   0.2666667), wk =   0.0047407
        k(    6) = (   0.0000000   0.0000000   0.3333333), wk =   0.0047407
        k(    7) = (   0.0000000   0.0000000   0.4000000), wk =   0.0047407
        k(    8) = (   0.0000000   0.0000000   0.4666667), wk =   0.0047407
        k(    9) = (   0.0000000   0.0666667   0.0666667), wk =   0.0035556
        k(   10) = (   0.0000000   0.0666667   0.1333333), wk =   0.0142222
        k(   11) = (   0.0000000   0.0666667   0.2000000), wk =   0.0142222
        k(   12) = (   0.0000000   0.0666667   0.2666667), wk =   0.0142222
        k(   13) = (   0.0000000   0.0666667   0.3333333), wk =   0.0142222
        k(   14) = (   0.0000000   0.0666667   0.4000000), wk =   0.0142222
        k(   15) = (   0.0000000   0.0666667   0.4666667), wk =   0.0142222
        k(   16) = (   0.0000000   0.0666667  -0.4666667), wk =   0.0142222
        k(   17) = (   0.0000000   0.0666667  -0.4000000), wk =   0.0142222
        k(   18) = (   0.0000000   0.0666667  -0.3333333), wk =   0.0142222
        k(   19) = (   0.0000000   0.0666667  -0.2666667), wk =   0.0142222
        k(   20) = (   0.0000000   0.0666667  -0.2000000), wk =   0.0142222
        k(   21) = (   0.0000000   0.0666667  -0.1333333), wk =   0.0142222
        k(   22) = (   0.0000000   0.0666667  -0.0666667), wk =   0.0071111
        k(   23) = (   0.0000000   0.1333333   0.1333333), wk =   0.0035556
        k(   24) = (   0.0000000   0.1333333   0.2000000), wk =   0.0142222
        k(   25) = (   0.0000000   0.1333333   0.2666667), wk =   0.0142222
        k(   26) = (   0.0000000   0.1333333   0.3333333), wk =   0.0142222
        k(   27) = (   0.0000000   0.1333333   0.4000000), wk =   0.0142222
        k(   28) = (   0.0000000   0.1333333   0.4666667), wk =   0.0142222
        k(   29) = (   0.0000000   0.1333333  -0.4666667), wk =   0.0142222
        k(   30) = (   0.0000000   0.1333333  -0.4000000), wk =   0.0142222
        k(   31) = (   0.0000000   0.1333333  -0.3333333), wk =   0.0142222
        k(   32) = (   0.0000000   0.1333333  -0.2666667), wk =   0.0142222
        k(   33) = (   0.0000000   0.1333333  -0.2000000), wk =   0.0142222
        k(   34) = (   0.0000000   0.1333333  -0.1333333), wk =   0.0071111
        k(   35) = (   0.0000000   0.2000000   0.2000000), wk =   0.0035556
        k(   36) = (   0.0000000   0.2000000   0.2666667), wk =   0.0142222
        k(   37) = (   0.0000000   0.2000000   0.3333333), wk =   0.0142222
        k(   38) = (   0.0000000   0.2000000   0.4000000), wk =   0.0142222
        k(   39) = (   0.0000000   0.2000000   0.4666667), wk =   0.0142222
        k(   40) = (   0.0000000   0.2000000  -0.4666667), wk =   0.0142222
        k(   41) = (   0.0000000   0.2000000  -0.4000000), wk =   0.0142222
        k(   42) = (   0.0000000   0.2000000  -0.3333333), wk =   0.0142222
        k(   43) = (   0.0000000   0.2000000  -0.2666667), wk =   0.0142222
        k(   44) = (   0.0000000   0.2000000  -0.2000000), wk =   0.0071111
        k(   45) = (   0.0000000   0.2666667   0.2666667), wk =   0.0035556
        k(   46) = (   0.0000000   0.2666667   0.3333333), wk =   0.0142222
        k(   47) = (   0.0000000   0.2666667   0.4000000), wk =   0.0142222
        k(   48) = (   0.0000000   0.2666667   0.4666667), wk =   0.0142222
        k(   49) = (   0.0000000   0.2666667  -0.4666667), wk =   0.0142222
        k(   50) = (   0.0000000   0.2666667  -0.4000000), wk =   0.0142222
        k(   51) = (   0.0000000   0.2666667  -0.3333333), wk =   0.0142222
        k(   52) = (   0.0000000   0.2666667  -0.2666667), wk =   0.0071111
        k(   53) = (   0.0000000   0.3333333   0.3333333), wk =   0.0035556
        k(   54) = (   0.0000000   0.3333333   0.4000000), wk =   0.0142222
        k(   55) = (   0.0000000   0.3333333   0.4666667), wk =   0.0142222
        k(   56) = (   0.0000000   0.3333333  -0.4666667), wk =   0.0142222
        k(   57) = (   0.0000000   0.3333333  -0.4000000), wk =   0.0142222
        k(   58) = (   0.0000000   0.3333333  -0.3333333), wk =   0.0071111
        k(   59) = (   0.0000000   0.4000000   0.4000000), wk =   0.0035556
        k(   60) = (   0.0000000   0.4000000   0.4666667), wk =   0.0142222
        k(   61) = (   0.0000000   0.4000000  -0.4666667), wk =   0.0142222
        k(   62) = (   0.0000000   0.4000000  -0.4000000), wk =   0.0071111
        k(   63) = (   0.0000000   0.4666667   0.4666667), wk =   0.0035556
        k(   64) = (   0.0000000   0.4666667  -0.4666667), wk =   0.0071111
        k(   65) = (   0.0666667   0.1333333   0.2000000), wk =   0.0142222
        k(   66) = (   0.0666667   0.1333333   0.2666667), wk =   0.0284444
        k(   67) = (   0.0666667   0.1333333   0.3333333), wk =   0.0284444
        k(   68) = (   0.0666667   0.1333333   0.4000000), wk =   0.0284444
        k(   69) = (   0.0666667   0.1333333   0.4666667), wk =   0.0284444
        k(   70) = (   0.0666667   0.1333333  -0.4666667), wk =   0.0284444
        k(   71) = (   0.0666667   0.2000000   0.2666667), wk =   0.0142222
        k(   72) = (   0.0666667   0.2000000   0.3333333), wk =   0.0284444
        k(   73) = (   0.0666667   0.2000000   0.4000000), wk =   0.0284444
        k(   74) = (   0.0666667   0.2000000   0.4666667), wk =   0.0284444
        k(   75) = (   0.0666667   0.2000000  -0.4666667), wk =   0.0284444
        k(   76) = (   0.0666667   0.2000000  -0.4000000), wk =   0.0284444
        k(   77) = (   0.0666667   0.2000000  -0.3333333), wk =   0.0284444
        k(   78) = (   0.0666667   0.2000000  -0.2666667), wk =   0.0284444
        k(   79) = (   0.0666667   0.2000000  -0.2000000), wk =   0.0284444
        k(   80) = (   0.0666667   0.2000000  -0.1333333), wk =   0.0142222
        k(   81) = (   0.0666667   0.2666667   0.3333333), wk =   0.0142222
        k(   82) = (   0.0666667   0.2666667   0.4000000), wk =   0.0284444
        k(   83) = (   0.0666667   0.2666667   0.4666667), wk =   0.0284444
        k(   84) = (   0.0666667   0.2666667  -0.4666667), wk =   0.0284444
        k(   85) = (   0.0666667   0.2666667  -0.4000000), wk =   0.0284444
        k(   86) = (   0.0666667   0.2666667  -0.3333333), wk =   0.0284444
        k(   87) = (   0.0666667   0.2666667  -0.2666667), wk =   0.0284444
        k(   88) = (   0.0666667   0.2666667  -0.2000000), wk =   0.0142222
        k(   89) = (   0.0666667   0.3333333   0.4000000), wk =   0.0142222
        k(   90) = (   0.0666667   0.3333333   0.4666667), wk =   0.0284444
        k(   91) = (   0.0666667   0.3333333  -0.4666667), wk =   0.0284444
        k(   92) = (   0.0666667   0.3333333  -0.4000000), wk =   0.0284444
        k(   93) = (   0.0666667   0.3333333  -0.3333333), wk =   0.0284444
        k(   94) = (   0.0666667   0.3333333  -0.2666667), wk =   0.0142222
        k(   95) = (   0.0666667   0.4000000   0.4666667), wk =   0.0142222
        k(   96) = (   0.0666667   0.4000000  -0.4666667), wk =   0.0284444
        k(   97) = (   0.0666667   0.4000000  -0.4000000), wk =   0.0284444
        k(   98) = (   0.0666667   0.4000000  -0.3333333), wk =   0.0142222
        k(   99) = (   0.0666667   0.4666667  -0.4666667), wk =   0.0142222
        k(  100) = (   0.0666667   0.4666667  -0.4000000), wk =   0.0142222
        k(  101) = (   0.1333333   0.2666667   0.4000000), wk =   0.0142222
        k(  102) = (   0.1333333   0.2666667   0.4666667), wk =   0.0284444
        k(  103) = (   0.1333333   0.2666667  -0.4666667), wk =   0.0284444
        k(  104) = (   0.1333333   0.2666667  -0.4000000), wk =   0.0284444
        k(  105) = (   0.1333333   0.3333333   0.4666667), wk =   0.0142222
        k(  106) = (   0.1333333   0.3333333  -0.4666667), wk =   0.0284444
        k(  107) = (   0.1333333   0.3333333  -0.4000000), wk =   0.0284444
        k(  108) = (   0.1333333   0.3333333  -0.3333333), wk =   0.0284444
        k(  109) = (   0.1333333   0.3333333  -0.2666667), wk =   0.0284444
        k(  110) = (   0.1333333   0.3333333  -0.2000000), wk =   0.0142222
        k(  111) = (   0.1333333   0.4000000  -0.4666667), wk =   0.0142222
        k(  112) = (   0.1333333   0.4000000  -0.4000000), wk =   0.0284444
        k(  113) = (   0.1333333   0.4000000  -0.3333333), wk =   0.0284444
        k(  114) = (   0.1333333   0.4000000  -0.2666667), wk =   0.0142222
        k(  115) = (   0.1333333   0.4666667  -0.4000000), wk =   0.0142222
        k(  116) = (   0.1333333   0.4666667  -0.3333333), wk =   0.0142222
        k(  117) = (   0.2000000   0.4000000  -0.4000000), wk =   0.0142222
        k(  118) = (   0.2000000   0.4000000  -0.3333333), wk =   0.0284444
        k(  119) = (   0.2000000   0.4666667  -0.3333333), wk =   0.0142222
        k(  120) = (   0.2000000   0.4666667  -0.2666667), wk =   0.0142222

     Dense  grid:   135995 G-vectors     FFT dimensions: (  72,  72,  72)

     Largest allocated arrays     est. size (Mb)     dimensions
        Kohn-Sham Wavefunctions         0.30 Mb     (    1081,   18)
        NL pseudopotentials             0.59 Mb     (    1081,   36)
        Each V/rho on FFT grid          0.40 Mb     (   25920)
        Each G-vector array             0.06 Mb     (    8500)
        G-vector shells                 0.01 Mb     (     832)
     Largest temporary arrays     est. size (Mb)     dimensions
        Auxiliary wavefunctions         1.19 Mb     (    1081,   72)
        Each subspace H/S matrix        0.08 Mb     (      72,   72)
        Each <psi_i|beta_j> matrix      0.01 Mb     (      36,   18)
        Arrays for rho mixing           3.16 Mb     (   25920,    8)

     Initial potential from superposition of free atoms

     starting charge   27.82601, renormalised to   28.00000
     Starting wfc are random

     total cpu time spent up to now is        6.2 secs

     Self-consistent Calculation

     iteration #  1     ecut=   160.00 Ry     beta=0.70
     Davidson diagonalization with overlap
     ethr =  1.00E-02,  avg # of iterations =  7.0

     total cpu time spent up to now is       53.0 secs

     total energy              =    -233.14071579 Ry
     Harris-Foulkes estimate   =    -234.57565345 Ry
     estimated scf accuracy    <       2.29079099 Ry

     iteration #  2     ecut=   160.00 Ry     beta=0.70
     Davidson diagonalization with overlap
     ethr =  8.18E-03,  avg # of iterations =  2.0

     total cpu time spent up to now is       71.7 secs

     total energy              =    -233.44519278 Ry
     Harris-Foulkes estimate   =    -233.46932481 Ry
     estimated scf accuracy    <       0.06223498 Ry

     iteration #  3     ecut=   160.00 Ry     beta=0.70
     Davidson diagonalization with overlap
     ethr =  2.22E-04,  avg # of iterations =  2.2

     total cpu time spent up to now is       88.6 secs

     total energy              =    -233.44812884 Ry
     Harris-Foulkes estimate   =    -233.44894715 Ry
     estimated scf accuracy    <       0.00282322 Ry

     iteration #  4     ecut=   160.00 Ry     beta=0.70
     Davidson diagonalization with overlap
     ethr =  1.01E-05,  avg # of iterations =  2.1

     total cpu time spent up to now is      104.7 secs

     total energy              =    -233.44828022 Ry
     Harris-Foulkes estimate   =    -233.44827737 Ry
     estimated scf accuracy    <       0.00003096 Ry

     iteration #  5     ecut=   160.00 Ry     beta=0.70
     Davidson diagonalization with overlap
     ethr =  1.11E-07,  avg # of iterations =  2.3

     total cpu time spent up to now is      122.0 secs

     End of self-consistent calculation

          k = 0.0000 0.0000 0.0000 ( 16889 PWs)   bands (ev):

   -12.3739 -12.3739 -12.3739 -12.3221 -12.3221 -12.1099 -12.1099 -12.1099
   -12.1001 -12.1001  -2.4000   5.2264   8.6183   8.6183   8.6183  10.8763
    10.8763  10.8763

     occupation numbers 
     1.0000   1.0000   1.0000   1.0000   1.0000   1.0000   1.0000   1.0000
     1.0000   1.0000   1.0000   1.0000   0.0000   0.0000   0.0000   0.0000
     0.0000   0.0000

          k = 0.0471 0.0471-0.0471 ( 16967 PWs)   bands (ev):

   -12.3762 -12.3762 -12.3731 -12.3189 -12.3189 -12.1156 -12.1156 -12.1110
   -12.0949 -12.0949  -2.3622   5.0390   8.5383   8.5383   8.5881  10.9702
    10.9793  10.9793

     occupation numbers 
     1.0000   1.0000   1.0000   1.0000   1.0000   1.0000   1.0000   1.0000
     1.0000   1.0000   1.0000   1.0000   0.0000   0.0000   0.0000   0.0000
     0.0000   0.0000

          k = 0.0943 0.0943-0.0943 ( 16979 PWs)   bands (ev):

   -12.3815 -12.3815 -12.3709 -12.3111 -12.3111 -12.1244 -12.1244 -12.1140
   -12.0877 -12.0877  -2.2502   4.5530   8.3432   8.3432   8.4682  11.2330
    11.2331  11.3046

     occupation numbers 
     1.0000   1.0000   1.0000   1.0000   1.0000   1.0000   1.0000   1.0000
     1.0000   1.0000   1.0000   1.0000   0.0000   0.0000   0.0000   0.0000
     0.0000   0.0000

          k = 0.1414 0.1414-0.1414 ( 16994 PWs)   bands (ev):

   -12.3873 -12.3873 -12.3676 -12.3018 -12.3018 -12.1326 -12.1326 -12.1185
   -12.0816 -12.0816  -2.0684   3.9087   8.1098   8.1098   8.2721  11.5333
    11.5334  11.8869

     occupation numbers 
     1.0000   1.0000   1.0000   1.0000   1.0000   1.0000   1.0000   1.0000
     1.0000   1.0000   1.0000   1.0000   1.0000   1.0000   1.0000   0.0000
     0.0000   0.0000

          k = 0.1886 0.1886-0.1886 ( 17036 PWs)   bands (ev):

   -12.3922 -12.3922 -12.3636 -12.2931 -12.2931 -12.1394 -12.1394 -12.1238
   -12.0770 -12.0770  -1.8267   3.2184   7.8894   7.8894   8.0632  11.7947
    11.7947  12.6480

     occupation numbers 
     1.0000   1.0000   1.0000   1.0000   1.0000   1.0000   1.0000   1.0000
     1.0000   1.0000   1.0000   1.0000   1.0000   1.0000   1.0000   0.0000
     0.0000   0.0000

          k = 0.2357 0.2357-0.2357 ( 17024 PWs)   bands (ev):

   -12.3958 -12.3958 -12.3597 -12.2864 -12.2864 -12.1442 -12.1442 -12.1290
   -12.0738 -12.0738  -1.5454   2.5637   7.7094   7.7094   7.8864  11.9726
    11.9726  13.5157

     occupation numbers 
     1.0000   1.0000   1.0000   1.0000   1.0000   1.0000   1.0000   1.0000
     1.0000   1.0000   1.0000   1.0000   1.0000   1.0000   1.0000   0.0000
     0.0000   0.0000

          k = 0.2828 0.2828-0.2828 ( 17007 PWs)   bands (ev):

   -12.3981 -12.3981 -12.3566 -12.2820 -12.2820 -12.1470 -12.1470 -12.1331
   -12.0719 -12.0719  -1.2678   2.0220   7.5837   7.5837   7.7621  12.0677
    12.0677  14.3204

     occupation numbers 
     1.0000   1.0000   1.0000   1.0000   1.0000   1.0000   1.0000   1.0000
     1.0000   1.0000   1.0000   1.0000   1.0000   1.0000   1.0000   0.0000
     0.0000   0.0000

          k = 0.3300 0.3300-0.3300 ( 17013 PWs)   bands (ev):

   -12.3992 -12.3992 -12.3548 -12.2799 -12.2799 -12.1482 -12.1482 -12.1354
   -12.0711 -12.0711  -1.0782   1.6964   7.5194   7.5194   7.6986  12.1051
    12.1051  14.5144

     occupation numbers 
     1.0000   1.0000   1.0000   1.0000   1.0000   1.0000   1.0000   1.0000
     1.0000   1.0000   1.0000   1.0000   1.0000   1.0000   1.0000   0.0000
     0.0000   0.0000

          k = 0.0943 0.0000 0.0000 ( 16993 PWs)   bands (ev):

   -12.3758 -12.3758 -12.3755 -12.3196 -12.3158 -12.1249 -12.1073 -12.1073
   -12.1024 -12.0908  -2.3495   4.9838   8.3995   8.3995   8.8354  10.6842
    11.1581  11.1581

     occupation numbers 
     1.0000   1.0000   1.0000   1.0000   1.0000   1.0000   1.0000   1.0000
     1.0000   1.0000   1.0000   1.0000   0.0000   0.0000   0.0000   0.0000
     0.0000   0.0000

          k = 0.1414 0.0471-0.0471 ( 16988 PWs)   bands (ev):

   -12.3813 -12.3793 -12.3733 -12.3146 -12.3078 -12.1355 -12.1139 -12.1073
   -12.0963 -12.0852  -2.2620   4.6140   8.1650   8.1764   8.9450  10.6612
    11.4601  11.4900

     occupation numbers 
     1.0000   1.0000   1.0000   1.0000   1.0000   1.0000   1.0000   1.0000
     1.0000   1.0000   1.0000   1.0000   1.0000   1.0000   0.0000   0.0000
     0.0000   0.0000

          k = 0.1886 0.0943-0.0943 ( 16991 PWs)   bands (ev):

   -12.3880 -12.3846 -12.3693 -12.3065 -12.2979 -12.1450 -12.1227 -12.1111
   -12.0888 -12.0790  -2.1028   4.0423   7.8670   7.9382   8.8921  10.9000
    11.7873  11.9582

     occupation numbers 
     1.0000   1.0000   1.0000   1.0000   1.0000   1.0000   1.0000   1.0000
     1.0000   1.0000   1.0000   1.0000   1.0000   1.0000   0.0000   0.0000
     0.0000   0.0000

          k = 0.2357 0.1414-0.1414 ( 17028 PWs)   bands (ev):

   -12.3941 -12.3898 -12.3642 -12.2978 -12.2886 -12.1525 -12.1308 -12.1173
   -12.0826 -12.0735  -1.8795   3.3846   7.5652   7.7273   8.7482  11.2623
    12.0590  12.5332

     occupation numbers 
     1.0000   1.0000   1.0000   1.0000   1.0000   1.0000   1.0000   1.0000
     1.0000   1.0000   1.0000   1.0000   1.0000   1.0000   0.0000   0.0000
     0.0000   0.0000

          k = 0.2828 0.1886-0.1886 ( 17036 PWs)   bands (ev):

   -12.3988 -12.3941 -12.3587 -12.2900 -12.2814 -12.1571 -12.1377 -12.1246
   -12.0777 -12.0694  -1.6079   2.7287   7.3041   7.5660   8.5862  11.5914
    12.2276  13.2081

     occupation numbers 
     1.0000   1.0000   1.0000   1.0000   1.0000   1.0000   1.0000   1.0000
     1.0000   1.0000   1.0000   1.0000   1.0000   1.0000   0.0000   0.0000
     0.0000   0.0000

          k = 0.3300 0.2357-0.2357 ( 17025 PWs)   bands (ev):

   -12.4020 -12.3972 -12.3537 -12.2837 -12.2774 -12.1581 -12.1434 -12.1316
   -12.0740 -12.0669  -1.3215   2.1512   7.1039   7.4654   8.4477  11.8151
    12.2907  13.9344

     occupation numbers 
     1.0000   1.0000   1.0000   1.0000   1.0000   1.0000   1.0000   1.0000
     1.0000   1.0000   1.0000   1.0000   1.0000   1.0000   0.0000   0.0000
     0.0000   0.0000

          k = 0.3771 0.2828-0.2828 ( 17013 PWs)   bands (ev):

   -12.4035 -12.3993 -12.3502 -12.2791 -12.2764 -12.1557 -12.1481 -12.1374
   -12.0712 -12.0660  -1.0895   1.7456   6.9732   7.4308   8.3531  11.9506
    12.2773  14.4395

     occupation numbers 
     1.0000   1.0000   1.0000   1.0000   1.0000   1.0000   1.0000   1.0000
     1.0000   1.0000   1.0000   1.0000   1.0000   1.0000   0.0000   0.0000
     0.0000   0.0000

          k =-0.2828-0.3771 0.3771 ( 17027 PWs)   bands (ev):

   -12.4035 -12.4004 -12.3489 -12.2780 -12.2764 -12.1518 -12.1509 -12.1407
   -12.0693 -12.0667  -1.0185   1.6306   6.9160   7.4629   8.3112  12.0354
    12.2162  14.5466

     occupation numbers 
     1.0000   1.0000   1.0000   1.0000   1.0000   1.0000   1.0000   1.0000
     1.0000   1.0000   1.0000   1.0000   1.0000   1.0000   1.0000   0.0000
     0.0000   0.0000

          k =-0.2357-0.3300 0.3300 ( 17014 PWs)   bands (ev):

   -12.4020 -12.4004 -12.3503 -12.2814 -12.2760 -12.1539 -12.1466 -12.1391
   -12.0690 -12.0685  -1.1551   1.8555   6.9351   7.5596   8.3246  12.0825
    12.1172  14.3612

     occupation numbers 
     1.0000   1.0000   1.0000   1.0000   1.0000   1.0000   1.0000   1.0000
     1.0000   1.0000   1.0000   1.0000   1.0000   1.0000   0.7500   0.0000
     0.0000   0.0000

          k =-0.1886-0.2828 0.2828 ( 17042 PWs)   bands (ev):

   -12.3991 -12.3990 -12.3540 -12.2863 -12.2785 -12.1537 -12.1444 -12.1318
   -12.0728 -12.0689  -1.4161   2.3312   7.0326   7.7150   8.3902  11.9695
    12.0666  13.7086

     occupation numbers 
     1.0000   1.0000   1.0000   1.0000   1.0000   1.0000   1.0000   1.0000
     1.0000   1.0000   1.0000   1.0000   1.0000   1.0000   0.0000   0.0000
     0.0000   0.0000

          k =-0.1414-0.2357 0.2357 ( 17030 PWs)   bands (ev):

   -12.3963 -12.3947 -12.3591 -12.2927 -12.2842 -12.1504 -12.1409 -12.1229
   -12.0780 -12.0708  -1.7030   2.9432   7.2101   7.9182   8.4970  11.7563
    11.9191  12.9722

     occupation numbers 
     1.0000   1.0000   1.0000   1.0000   1.0000   1.0000   1.0000   1.0000
     1.0000   1.0000   1.0000   1.0000   1.0000   1.0000   0.0000   0.0000
     0.0000   0.0000

          k =-0.0943-0.1886 0.1886 ( 17008 PWs)   bands (ev):

   -12.3920 -12.3891 -12.3646 -12.3004 -12.2927 -12.1441 -12.1355 -12.1142
   -12.0847 -12.0745  -1.9609   3.6067   7.4673   8.1497   8.6195  11.4830
    11.5815  12.3863

     occupation numbers 
     1.0000   1.0000   1.0000   1.0000   1.0000   1.0000   1.0000   1.0000
     1.0000   1.0000   1.0000   1.0000   1.0000   1.0000   0.0000   0.0000
     0.0000   0.0000

          k =-0.0471-0.1414 0.1414 ( 16991 PWs)   bands (ev):

   -12.3865 -12.3829 -12.3695 -12.3087 -12.3027 -12.1355 -12.1284 -12.1069
   -12.0925 -12.0798  -2.1639   4.2443   7.7978   8.3732   8.7063  11.1874
    11.1998  11.9022

     occupation numbers 
     1.0000   1.0000   1.0000   1.0000   1.0000   1.0000   1.0000   1.0000
     1.0000   1.0000   1.0000   1.0000   1.0000   0.0000   0.0000   0.0000
     0.0000   0.0000

          k = 0.0000-0.0943 0.0943 ( 16970 PWs)   bands (ev):

   -12.3806 -12.3777 -12.3726 -12.3158 -12.3124 -12.1257 -12.1206 -12.1047
   -12.0979 -12.0868  -2.2996   4.7612   8.1787   8.5264   8.6914  10.9618
    10.9996  11.4222

     occupation numbers 
     1.0000   1.0000   1.0000   1.0000   1.0000   1.0000   1.0000   1.0000
     1.0000   1.0000   1.0000   1.0000   1.0000   0.0000   0.0000   0.0000
     0.0000   0.0000

          k = 0.1886 0.0000 0.0000 ( 16985 PWs)   bands (ev):

   -12.3808 -12.3808 -12.3774 -12.3123 -12.2996 -12.1487 -12.1094 -12.1003
   -12.1003 -12.0841  -2.1988   4.3981   7.9410   7.9410   9.3186  10.2954
    11.8025  11.8025

     occupation numbers 
     1.0000   1.0000   1.0000   1.0000   1.0000   1.0000   1.0000   1.0000
     1.0000   1.0000   1.0000   1.0000   1.0000   1.0000   0.0000   0.0000
     0.0000   0.0000

          k = 0.2357 0.0471-0.0471 ( 16990 PWs)   bands (ev):

   -12.3875 -12.3849 -12.3736 -12.3058 -12.2890 -12.1610 -12.1175 -12.1003
   -12.0930 -12.0800  -2.0627   3.9596   7.6503   7.7002   9.4682  10.2693
    12.1686  12.2129

     occupation numbers 
     1.0000   1.0000   1.0000   1.0000   1.0000   1.0000   1.0000   1.0000
     1.0000   1.0000   1.0000   1.0000   1.0000   1.0000   0.0000   0.0000
     0.0000   0.0000

          k = 0.2828 0.0943-0.0943 ( 17021 PWs)   bands (ev):

   -12.3952 -12.3898 -12.3666 -12.2974 -12.2787 -12.1710 -12.1268 -12.1070
   -12.0856 -12.0729  -1.8595   3.3929   7.2998   7.4925   9.4299  10.5539
    12.4769  12.6329

     occupation numbers 
     1.0000   1.0000   1.0000   1.0000   1.0000   1.0000   1.0000   1.0000
     1.0000   1.0000   1.0000   1.0000   1.0000   1.0000   0.0000   0.0000
     0.0000   0.0000

          k = 0.3300 0.1414-0.1414 ( 17036 PWs)   bands (ev):

   -12.4021 -12.3943 -12.3581 -12.2888 -12.2706 -12.1775 -12.1357 -12.1168
   -12.0792 -12.0662  -1.6012   2.7850   6.9613   7.3391   9.3002  10.9900
    12.6694  13.0017

     occupation numbers 
     1.0000   1.0000   1.0000   1.0000   1.0000   1.0000   1.0000   1.0000
     1.0000   1.0000   1.0000   1.0000   1.0000   1.0000   0.0000   0.0000
     0.0000   0.0000

          k = 0.3771 0.1886-0.1886 ( 17035 PWs)   bands (ev):

   -12.4074 -12.3980 -12.3495 -12.2809 -12.2663 -12.1794 -12.1440 -12.1273
   -12.0739 -12.0611  -1.3130   2.2116   6.6799   7.2509   9.1587  11.4028
    12.7321  13.3987

     occupation numbers 
     1.0000   1.0000   1.0000   1.0000   1.0000   1.0000   1.0000   1.0000
     1.0000   1.0000   1.0000   1.0000   1.0000   1.0000   0.0000   0.0000
     0.0000   0.0000

          k = 0.4243 0.2357-0.2357 ( 17023 PWs)   bands (ev):

   -12.4107 -12.4008 -12.3422 -12.2743 -12.2664 -12.1762 -12.1517 -12.1368
   -12.0697 -12.0580  -1.0497   1.7586   6.4747   7.2327   9.0428  11.6926
    12.6918  13.8894

     occupation numbers 
     1.0000   1.0000   1.0000   1.0000   1.0000   1.0000   1.0000   1.0000
     1.0000   1.0000   1.0000   1.0000   1.0000   1.0000   0.0000   0.0000
     0.0000   0.0000

          k =-0.2357-0.4243 0.4243 ( 17034 PWs)   bands (ev):

   -12.4119 -12.4026 -12.3377 -12.2699 -12.2692 -12.1686 -12.1583 -12.1440
   -12.0665 -12.0574  -0.9125   1.5442   6.3545   7.2848   8.9687  11.8753
    12.5837  14.2944

     occupation numbers 
     1.0000   1.0000   1.0000   1.0000   1.0000   1.0000   1.0000   1.0000
     1.0000   1.0000   1.0000   1.0000   1.0000   1.0000   0.0000   0.0000
     0.0000   0.0000

          k =-0.1886-0.3771 0.3771 ( 17029 PWs)   bands (ev):

   -12.4108 -12.4033 -12.3373 -12.2757 -12.2665 -12.1632 -12.1578 -12.1479
   -12.0646 -12.0594  -0.9881   1.6609   6.3253   7.4035   8.9404  11.9992
    12.4262  14.2234

     occupation numbers 
     1.0000   1.0000   1.0000   1.0000   1.0000   1.0000   1.0000   1.0000
     1.0000   1.0000   1.0000   1.0000   1.0000   1.0000   0.0000   0.0000
     0.0000   0.0000

          k =-0.1414-0.3300 0.3300 ( 17029 PWs)   bands (ev):

   -12.4076 -12.4028 -12.3411 -12.2822 -12.2673 -12.1648 -12.1497 -12.1438
   -12.0642 -12.0639  -1.2250   2.0528   6.3939   7.5806   8.9522  12.0615
    12.2181  13.6583

     occupation numbers 
     1.0000   1.0000   1.0000   1.0000   1.0000   1.0000   1.0000   1.0000
     1.0000   1.0000   1.0000   1.0000   1.0000   1.0000   0.0000   0.0000
     0.0000   0.0000

          k =-0.0943-0.2828 0.2828 ( 17037 PWs)   bands (ev):

   -12.4024 -12.4008 -12.3481 -12.2889 -12.2724 -12.1622 -12.1474 -12.1302
   -12.0710 -12.0654  -1.5131   2.5946   6.5690   7.8016   8.9850  11.9530
    11.9672  13.0835

     occupation numbers 
     1.0000   1.0000   1.0000   1.0000   1.0000   1.0000   1.0000   1.0000
     1.0000   1.0000   1.0000   1.0000   1.0000   1.0000   0.0000   0.0000
     0.0000   0.0000

          k =-0.0471-0.2357 0.2357 ( 17034 PWs)   bands (ev):

   -12.3971 -12.3957 -12.3566 -12.2959 -12.2812 -12.1557 -12.1429 -12.1169
   -12.0801 -12.0684  -1.7842   3.1900   6.8602   8.0407   8.9965  11.6383
    11.6481  12.7367

     occupation numbers 
     1.0000   1.0000   1.0000   1.0000   1.0000   1.0000   1.0000   1.0000
     1.0000   1.0000   1.0000   1.0000   1.0000   1.0000   0.0000   0.0000
     0.0000   0.0000

          k = 0.0000-0.1886 0.1886 ( 17012 PWs)   bands (ev):

   -12.3922 -12.3885 -12.3644 -12.3029 -12.2920 -12.1463 -12.1363 -12.1062
   -12.0902 -12.0733  -2.0061   3.7640   7.2737   8.2534   8.9176  11.3076
    11.3650  12.4079

     occupation numbers 
     1.0000   1.0000   1.0000   1.0000   1.0000   1.0000   1.0000   1.0000
     1.0000   1.0000   1.0000   1.0000   1.0000   1.0000   0.0000   0.0000
     0.0000   0.0000

          k = 0.2828 0.0000 0.0000 ( 17017 PWs)   bands (ev):

   -12.3879 -12.3879 -12.3763 -12.3005 -12.2774 -12.1764 -12.1208 -12.0903
   -12.0903 -12.0839  -1.9494   3.6637   7.4564   7.4564   9.7903   9.9151
    12.5875  12.5875

     occupation numbers 
     1.0000   1.0000   1.0000   1.0000   1.0000   1.0000   1.0000   1.0000
     1.0000   1.0000   1.0000   1.0000   1.0000   1.0000   0.0000   0.0000
     0.0000   0.0000

          k = 0.3300 0.0471-0.0471 ( 17033 PWs)   bands (ev):

   -12.3945 -12.3920 -12.3705 -12.2925 -12.2655 -12.1897 -12.1290 -12.0959
   -12.0840 -12.0766  -1.7670   3.2160   7.1650   7.2459   9.8320   9.9866
    12.9458  12.9587

     occupation numbers 
     1.0000   1.0000   1.0000   1.0000   1.0000   1.0000   1.0000   1.0000
     1.0000   1.0000   1.0000   1.0000   1.0000   1.0000   0.0000   0.0000
     0.0000   0.0000

          k = 0.3771 0.0943-0.0943 ( 17031 PWs)   bands (ev):

   -12.4027 -12.3963 -12.3602 -12.2835 -12.2557 -12.1995 -12.1386 -12.1081
   -12.0775 -12.0668  -1.5243   2.6922   6.7986   7.0909   9.7464  10.3709
    13.0993  13.2104

     occupation numbers 
     1.0000   1.0000   1.0000   1.0000   1.0000   1.0000   1.0000   1.0000
     1.0000   1.0000   1.0000   1.0000   1.0000   1.0000   0.0000   0.0000
     0.0000   0.0000

          k = 0.4243 0.1414-0.1414 ( 17006 PWs)   bands (ev):

   -12.4100 -12.4000 -12.3483 -12.2745 -12.2499 -12.2041 -12.1484 -12.1218
   -12.0718 -12.0585  -1.2402   2.1617   6.4454   7.0030   9.6263  10.9069
    13.1630  13.3090

     occupation numbers 
     1.0000   1.0000   1.0000   1.0000   1.0000   1.0000   1.0000   1.0000
     1.0000   1.0000   1.0000   1.0000   1.0000   1.0000   0.0000   0.0000
     0.0000   0.0000

          k = 0.4714 0.1886-0.1886 ( 17024 PWs)   bands (ev):

   -12.4156 -12.4030 -12.3369 -12.2662 -12.2496 -12.2024 -12.1581 -12.1347
   -12.0670 -12.0526  -0.9562   1.6996   6.1591   6.9877   9.5176  11.4338
    13.2706  13.3362

     occupation numbers 
     1.0000   1.0000   1.0000   1.0000   1.0000   1.0000   1.0000   1.0000
     1.0000   1.0000   1.0000   1.0000   1.0000   1.0000   0.0000   0.0000
     0.0000   0.0000

          k =-0.1886-0.4714 0.4714 ( 17031 PWs)   bands (ev):

   -12.4187 -12.4051 -12.3285 -12.2591 -12.2545 -12.1951 -12.1670 -12.1446
   -12.0634 -12.0495  -0.7616   1.4144   5.9653   7.0454   9.4409  11.8152
    13.1335  13.6831

     occupation numbers 
     1.0000   1.0000   1.0000   1.0000   1.0000   1.0000   1.0000   1.0000
     1.0000   1.0000   1.0000   1.0000   1.0000   1.0000   0.0000   0.0000
     0.0000   0.0000

          k =-0.1414-0.4243 0.4243 ( 17041 PWs)   bands (ev):

   -12.4190 -12.4062 -12.3248 -12.2632 -12.2546 -12.1832 -12.1738 -12.1499
   -12.0611 -12.0497  -0.7726   1.4303   5.8783   7.1721   9.3993  12.0471
    12.9243  13.8838

     occupation numbers 
     1.0000   1.0000   1.0000   1.0000   1.0000   1.0000   1.0000   1.0000
     1.0000   1.0000   1.0000   1.0000   1.0000   1.0000   0.0000   0.0000
     0.0000   0.0000

          k =-0.0943-0.3771 0.3771 ( 17031 PWs)   bands (ev):

   -12.4164 -12.4061 -12.3269 -12.2733 -12.2544 -12.1765 -12.1684 -12.1504
   -12.0604 -12.0534  -0.9803   1.7349   5.9110   7.3586   9.3800  12.1904
    12.6504  13.4924

     occupation numbers 
     1.0000   1.0000   1.0000   1.0000   1.0000   1.0000   1.0000   1.0000
     1.0000   1.0000   1.0000   1.0000   1.0000   1.0000   0.0000   0.0000
     0.0000   0.0000

          k =-0.0471-0.3300 0.3300 ( 17022 PWs)   bands (ev):

   -12.4112 -12.4046 -12.3345 -12.2825 -12.2597 -12.1737 -12.1561 -12.1436
   -12.0613 -12.0604  -1.2660   2.1951   6.0774   7.5881   9.3492  12.1854
    12.3174  12.9882

     occupation numbers 
     1.0000   1.0000   1.0000   1.0000   1.0000   1.0000   1.0000   1.0000
     1.0000   1.0000   1.0000   1.0000   1.0000   1.0000   0.0000   0.0000
     0.0000   0.0000

          k = 0.0000-0.2828 0.2828 ( 17042 PWs)   bands (ev):

   -12.4038 -12.4015 -12.3454 -12.2899 -12.2694 -12.1661 -12.1494 -12.1294
   -12.0700 -12.0640  -1.5467   2.7031   6.3917   7.8316   9.2439  11.8965
    11.9587  12.8301

     occupation numbers 
     1.0000   1.0000   1.0000   1.0000   1.0000   1.0000   1.0000   1.0000
     1.0000   1.0000   1.0000   1.0000   1.0000   1.0000   0.0000   0.0000
     0.0000   0.0000

          k = 0.3771 0.0000 0.0000 ( 17065 PWs)   bands (ev):

   -12.3955 -12.3955 -12.3704 -12.2847 -12.2517 -12.2065 -12.1361 -12.0902
   -12.0793 -12.0793  -1.6047   2.8809   7.0290   7.0290   9.6202  10.0364
    13.4150  13.4151

     occupation numbers 
     1.0000   1.0000   1.0000   1.0000   1.0000   1.0000   1.0000   1.0000
     1.0000   1.0000   1.0000   1.0000   1.0000   1.0000   0.0000   0.0000
     0.0000   0.0000

          k = 0.4243 0.0471-0.0471 ( 17032 PWs)   bands (ev):

   -12.4015 -12.3992 -12.3623 -12.2753 -12.2393 -12.2200 -12.1454 -12.1012
   -12.0737 -12.0698  -1.3789   2.4485   6.7615   6.8660   9.6511  10.0784
    13.6073  13.7603

     occupation numbers 
     1.0000   1.0000   1.0000   1.0000   1.0000   1.0000   1.0000   1.0000
     1.0000   1.0000   1.0000   1.0000   1.0000   1.0000   0.0000   0.0000
     0.0000   0.0000

          k = 0.4714 0.0943-0.0943 ( 17038 PWs)   bands (ev):

   -12.4095 -12.4026 -12.3491 -12.2656 -12.2324 -12.2268 -12.1558 -12.1167
   -12.0685 -12.0596  -1.1031   1.9807   6.4018   6.7703   9.7089  10.3764
    13.5101  13.9340

     occupation numbers 
     1.0000   1.0000   1.0000   1.0000   1.0000   1.0000   1.0000   1.0000
     1.0000   1.0000   1.0000   1.0000   1.0000   1.0000   0.0000   0.0000
     0.0000   0.0000

          k = 0.5185 0.1414-0.1414 ( 17038 PWs)   bands (ev):

   -12.4167 -12.4054 -12.3347 -12.2560 -12.2352 -12.2232 -12.1665 -12.1325
   -12.0640 -12.0512  -0.8076   1.5397   6.0541   6.7483   9.6622  10.9754
    13.4046  13.9295

     occupation numbers 
     1.0000   1.0000   1.0000   1.0000   1.0000   1.0000   1.0000   1.0000
     1.0000   1.0000   1.0000   1.0000   1.0000   1.0000   0.0000   0.0000
     0.0000   0.0000

          k =-0.1414-0.5185 0.5185 ( 17037 PWs)   bands (ev):

   -12.4219 -12.4074 -12.3228 -12.2474 -12.2362 -12.2210 -12.1769 -12.1451
   -12.0606 -12.0456  -0.5662   1.2163   5.7848   6.8011   9.6190  11.6460
    13.3917  13.7810

     occupation numbers 
     1.0000   1.0000   1.0000   1.0000   1.0000   1.0000   1.0000   1.0000
     1.0000   1.0000   1.0000   1.0000   1.0000   1.0000   0.0000   0.0000
     0.0000   0.0000

          k =-0.0943-0.4714 0.4714 ( 17023 PWs)   bands (ev):

   -12.4241 -12.4086 -12.3164 -12.2437 -12.2414 -12.2117 -12.1851 -12.1518
   -12.0585 -12.0435  -0.5156   1.1532   5.6304   6.9250   9.6005  12.1949
    13.4575  13.5224

     occupation numbers 
     1.0000   1.0000   1.0000   1.0000   1.0000   1.0000   1.0000   1.0000
     1.0000   1.0000   1.0000   1.0000   1.0000   1.0000   0.0000   0.0000
     0.0000   0.0000

          k =-0.0471-0.4243 0.4243 ( 17043 PWs)   bands (ev):

   -12.4229 -12.4085 -12.3164 -12.2580 -12.2411 -12.1939 -12.1877 -12.1533
   -12.0578 -12.0454  -0.6969   1.3868   5.6152   7.1110   9.5888  12.5168
    13.1720  13.2653

     occupation numbers 
     1.0000   1.0000   1.0000   1.0000   1.0000   1.0000   1.0000   1.0000
     1.0000   1.0000   1.0000   1.0000   1.0000   1.0000   0.0000   0.0000
     0.0000   0.0000

          k =-0.0000-0.3771 0.3771 ( 17022 PWs)   bands (ev):

   -12.4185 -12.4072 -12.3227 -12.2722 -12.2482 -12.1831 -12.1732 -12.1511
   -12.0587 -12.0512  -0.9800   1.7732   5.7594   7.3419   9.5326  12.5610
    12.7525  12.9025

     occupation numbers 
     1.0000   1.0000   1.0000   1.0000   1.0000   1.0000   1.0000   1.0000
     1.0000   1.0000   1.0000   1.0000   1.0000   1.0000   0.0000   0.0000
     0.0000   0.0000

          k = 0.4714 0.0000 0.0000 ( 17054 PWs)   bands (ev):

   -12.4023 -12.4023 -12.3593 -12.2656 -12.2375 -12.2240 -12.1546 -12.1026
   -12.0692 -12.0692  -1.1689   2.0958   6.6918   6.6918   9.4367   9.9976
    14.2239  14.2239

     occupation numbers 
     1.0000   1.0000   1.0000   1.0000   1.0000   1.0000   1.0000   1.0000
     1.0000   1.0000   1.0000   1.0000   1.0000   1.0000   0.0000   0.0000
     0.0000   0.0000

          k = 0.5185 0.0471-0.0471 ( 17049 PWs)   bands (ev):

   -12.4074 -12.4052 -12.3487 -12.2552 -12.2506 -12.2116 -12.1651 -12.1149
   -12.0648 -12.0621  -0.9038   1.6896   6.4625   6.5836   9.5140   9.9879
    14.2616  14.5115

     occupation numbers 
     1.0000   1.0000   1.0000   1.0000   1.0000   1.0000   1.0000   1.0000
     1.0000   1.0000   1.0000   1.0000   1.0000   1.0000   0.0000   0.0000
     0.0000   0.0000

          k = 0.5657 0.0943-0.0943 ( 17056 PWs)   bands (ev):

   -12.4146 -12.4075 -12.3333 -12.2578 -12.2447 -12.2043 -12.1763 -12.1317
   -12.0612 -12.0533  -0.6043   1.2824   6.1287   6.5490   9.5997  10.3348
    14.0632  14.5776

     occupation numbers 
     1.0000   1.0000   1.0000   1.0000   1.0000   1.0000   1.0000   1.0000
     1.0000   1.0000   1.0000   1.0000   1.0000   1.0000   0.0000   0.0000
     0.0000   0.0000

          k =-0.0943-0.5657 0.5657 ( 17049 PWs)   bands (ev):

   -12.4211 -12.4092 -12.3190 -12.2562 -12.2349 -12.2052 -12.1875 -12.1466
   -12.0585 -12.0460  -0.3272   0.9455   5.8105   6.5904   9.6025  11.0110
    13.8570  14.4368

     occupation numbers 
     1.0000   1.0000   1.0000   1.0000   1.0000   1.0000   1.0000   1.0000
     1.0000   1.0000   1.0000   1.0000   1.0000   1.0000   0.0000   0.0000
     0.0000   0.0000

          k =-0.0471-0.5185 0.5185 ( 17028 PWs)   bands (ev):

   -12.4252 -12.4100 -12.3115 -12.2428 -12.2280 -12.2177 -12.1963 -12.1539
   -12.0569 -12.0417  -0.2301   0.8376   5.5889   6.7047   9.6157  11.7924
    13.6287  14.1287

     occupation numbers 
     1.0000   1.0000   1.0000   1.0000   1.0000   1.0000   1.0000   1.0000
     1.0000   1.0000   1.0000   1.0000   1.0000   1.0000   0.0000   0.0000
     0.0000   0.0000

          k =-0.0000-0.4714 0.4714 ( 17024 PWs)   bands (ev):

   -12.4260 -12.4098 -12.3113 -12.2379 -12.2303 -12.2200 -12.1962 -12.1549
   -12.0567 -12.0414  -0.4107   1.0471   5.5131   6.8837   9.6322  12.4696
    13.3062  13.6903

     occupation numbers 
     1.0000   1.0000   1.0000   1.0000   1.0000   1.0000   1.0000   1.0000
     1.0000   1.0000   1.0000   1.0000   1.0000   1.0000   0.0000   0.0000
     0.0000   0.0000

          k = 0.5657 0.0000 0.0000 ( 17026 PWs)   bands (ev):

   -12.4074 -12.4074 -12.3430 -12.2680 -12.2442 -12.1957 -12.1756 -12.1205
   -12.0615 -12.0615  -0.6484   1.3342   6.4604   6.4604   9.3722   9.7968
    14.9326  14.9326

     occupation numbers 
     1.0000   1.0000   1.0000   1.0000   1.0000   1.0000   1.0000   1.0000
     1.0000   1.0000   1.0000   1.0000   1.0000   1.0000   0.0000   0.0000
     0.0000   0.0000

          k = 0.6128 0.0471-0.0471 ( 17055 PWs)   bands (ev):

   -12.4114 -12.4091 -12.3301 -12.2798 -12.2331 -12.1869 -12.1842 -12.1342
   -12.0589 -12.0565  -0.3495   0.9605   6.2793   6.4103   9.4803   9.8096
    14.8888  15.1038

     occupation numbers 
     1.0000   1.0000   1.0000   1.0000   1.0000   1.0000   1.0000   1.0000
     1.0000   1.0000   1.0000   1.0000   1.0000   1.0000   0.0000   0.0000
     0.0000   0.0000

          k =-0.0471-0.6128 0.6128 ( 17039 PWs)   bands (ev):

   -12.4174 -12.4102 -12.3147 -12.2830 -12.2223 -12.1985 -12.1808 -12.1500
   -12.0572 -12.0497  -0.0470   0.6235   5.9898   6.4363   9.5387  10.2749
    14.5934  14.9971

     occupation numbers 
     1.0000   1.0000   1.0000   1.0000   1.0000   1.0000   1.0000   1.0000
     1.0000   1.0000   1.0000   1.0000   1.0000   1.0000   0.0000   0.0000
     0.0000   0.0000

          k = 0.0000-0.5657 0.5657 ( 17032 PWs)   bands (ev):

   -12.4227 -12.4105 -12.3092 -12.2686 -12.2174 -12.2050 -12.1944 -12.1554
   -12.0565 -12.0441   0.0266   0.5538   5.7279   6.5369   9.5729  11.0122
    14.1619  14.6492

     occupation numbers 
     1.0000   1.0000   1.0000   1.0000   1.0000   1.0000   1.0000   1.0000
     1.0000   1.0000   1.0000   1.0000   1.0000   1.0000   0.0000   0.0000
     0.0000   0.0000

          k = 0.6600 0.0000 0.0000 ( 17062 PWs)   bands (ev):

   -12.4101 -12.4101 -12.3218 -12.2965 -12.2214 -12.1982 -12.1682 -12.1427
   -12.0574 -12.0574  -0.0508   0.6140   6.3430   6.3430   9.4242   9.5782
    15.3861  15.3862

     occupation numbers 
     1.0000   1.0000   1.0000   1.0000   1.0000   1.0000   1.0000   1.0000
     1.0000   1.0000   1.0000   1.0000   1.0000   1.0000   0.0000   0.0000
     0.0000   0.0000

          k = 0.0000-0.6600 0.6600 ( 17052 PWs)   bands (ev):

   -12.4127 -12.4105 -12.3095 -12.3041 -12.2106 -12.2092 -12.1605 -12.1551
   -12.0568 -12.0545   0.2470   0.3050   6.2176   6.3519   9.5009   9.7066
    15.1954  15.3450

     occupation numbers 
     1.0000   1.0000   1.0000   1.0000   1.0000   1.0000   1.0000   1.0000
     1.0000   1.0000   1.0000   1.0000   1.0000   1.0000   0.0000   0.0000
     0.0000   0.0000

          k = 0.1886 0.0943-0.0000 ( 16988 PWs)   bands (ev):

   -12.3863 -12.3829 -12.3714 -12.3093 -12.2985 -12.1469 -12.1202 -12.1005
   -12.0976 -12.0799  -2.1504   4.2174   7.7218   8.0981   9.1223  10.6092
    11.6594  12.0018

     occupation numbers 
     1.0000   1.0000   1.0000   1.0000   1.0000   1.0000   1.0000   1.0000
     1.0000   1.0000   1.0000   1.0000   1.0000   1.0000   0.0000   0.0000
     0.0000   0.0000

          k = 0.2357 0.1414-0.0471 ( 17007 PWs)   bands (ev):

   -12.3925 -12.3887 -12.3658 -12.3017 -12.2880 -12.1569 -12.1283 -12.1078
   -12.0881 -12.0739  -1.9692   3.6651   7.3143   7.9336   9.1504  10.8264
    11.9636  12.4469

     occupation numbers 
     1.0000   1.0000   1.0000   1.0000   1.0000   1.0000   1.0000   1.0000
     1.0000   1.0000   1.0000   1.0000   1.0000   1.0000   0.0000   0.0000
     0.0000   0.0000

          k = 0.2828 0.1886-0.0943 ( 17033 PWs)   bands (ev):

   -12.3985 -12.3942 -12.3585 -12.2936 -12.2786 -12.1644 -12.1356 -12.1181
   -12.0797 -12.0687  -1.7278   3.0473   6.9835   7.7321   9.0726  11.2005
    12.2662  12.8318

     occupation numbers 
     1.0000   1.0000   1.0000   1.0000   1.0000   1.0000   1.0000   1.0000
     1.0000   1.0000   1.0000   1.0000   1.0000   1.0000   0.0000   0.0000
     0.0000   0.0000

          k = 0.3300 0.2357-0.1414 ( 17036 PWs)   bands (ev):

   -12.4036 -12.3983 -12.3509 -12.2862 -12.2721 -12.1682 -12.1416 -12.1293
   -12.0733 -12.0647  -1.4459   2.4417   6.7388   7.5484   8.9635  11.5586
    12.4262  13.3143

     occupation numbers 
     1.0000   1.0000   1.0000   1.0000   1.0000   1.0000   1.0000   1.0000
     1.0000   1.0000   1.0000   1.0000   1.0000   1.0000   0.0000   0.0000
     0.0000   0.0000

          k = 0.3771 0.2828-0.1886 ( 17024 PWs)   bands (ev):

   -12.4073 -12.4009 -12.3446 -12.2798 -12.2694 -12.1678 -12.1470 -12.1393
   -12.0692 -12.0619  -1.1660   1.9281   6.5792   7.4132   8.8721  11.7897
    12.4669  13.9063

     occupation numbers 
     1.0000   1.0000   1.0000   1.0000   1.0000   1.0000   1.0000   1.0000
     1.0000   1.0000   1.0000   1.0000   1.0000   1.0000   0.0000   0.0000
     0.0000   0.0000

          k =-0.2828-0.3771 0.4714 ( 17030 PWs)   bands (ev):

   -12.4092 -12.4021 -12.3410 -12.2748 -12.2700 -12.1639 -12.1537 -12.1442
   -12.0672 -12.0604  -0.9729   1.6132   6.5006   7.3423   8.8219  11.8901
    12.4694  14.3605

     occupation numbers 
     1.0000   1.0000   1.0000   1.0000   1.0000   1.0000   1.0000   1.0000
     1.0000   1.0000   1.0000   1.0000   1.0000   1.0000   0.0000   0.0000
     0.0000   0.0000

          k = 0.2828 0.0943 0.0000 ( 17005 PWs)   bands (ev):

   -12.3922 -12.3901 -12.3694 -12.2989 -12.2779 -12.1738 -12.1245 -12.1013
   -12.0875 -12.0757  -1.9039   3.5281   7.2469   7.5751   9.6450  10.2339
    12.4849  12.6256

     occupation numbers 
     1.0000   1.0000   1.0000   1.0000   1.0000   1.0000   1.0000   1.0000
     1.0000   1.0000   1.0000   1.0000   1.0000   1.0000   0.0000   0.0000
     0.0000   0.0000

          k = 0.3300 0.1414-0.0471 ( 17028 PWs)   bands (ev):

   -12.3993 -12.3954 -12.3607 -12.2906 -12.2674 -12.1840 -12.1332 -12.1110
   -12.0792 -12.0690  -1.6810   2.9986   6.8603   7.4095   9.6596  10.5090
    12.7993  12.8625

     occupation numbers 
     1.0000   1.0000   1.0000   1.0000   1.0000   1.0000   1.0000   1.0000
     1.0000   1.0000   1.0000   1.0000   1.0000   1.0000   0.0000   0.0000
     0.0000   0.0000

          k = 0.3771 0.1886-0.0943 ( 17040 PWs)   bands (ev):

   -12.4065 -12.3995 -12.3501 -12.2822 -12.2597 -12.1902 -12.1420 -12.1235
   -12.0724 -12.0621  -1.4088   2.4417   6.5366   7.2479   9.5714  10.9707
    12.9003  13.1247

     occupation numbers 
     1.0000   1.0000   1.0000   1.0000   1.0000   1.0000   1.0000   1.0000
     1.0000   1.0000   1.0000   1.0000   1.0000   1.0000   0.0000   0.0000
     0.0000   0.0000

          k = 0.4243 0.2357-0.1414 ( 17035 PWs)   bands (ev):

   -12.4121 -12.4025 -12.3399 -12.2743 -12.2563 -12.1912 -12.1507 -12.1356
   -12.0677 -12.0564  -1.1190   1.9294   6.2894   7.1379   9.4697  11.4138
    12.9403  13.4097

     occupation numbers 
     1.0000   1.0000   1.0000   1.0000   1.0000   1.0000   1.0000   1.0000
     1.0000   1.0000   1.0000   1.0000   1.0000   1.0000   0.0000   0.0000
     0.0000   0.0000

          k =-0.2357-0.4243 0.5185 ( 17030 PWs)   bands (ev):

   -12.4156 -12.4045 -12.3322 -12.2677 -12.2576 -12.1870 -12.1596 -12.1444
   -12.0645 -12.0530  -0.8809   1.5567   6.1255   7.1002   9.3932  11.6995
    12.9401  13.7899

     occupation numbers 
     1.0000   1.0000   1.0000   1.0000   1.0000   1.0000   1.0000   1.0000
     1.0000   1.0000   1.0000   1.0000   1.0000   1.0000   0.0000   0.0000
     0.0000   0.0000

          k =-0.1886-0.3771 0.4714 ( 17038 PWs)   bands (ev):

[...]
    13.1523  13.3497

     occupation numbers 
     1.0000   1.0000   1.0000   1.0000   1.0000   1.0000   1.0000   1.0000
     1.0000   1.0000   1.0000   1.0000   1.0000   1.0000   0.0000   0.0000
     0.0000   0.0000

          k = 0.4243 0.1414-0.0471 ( 17029 PWs)   bands (ev):

   -12.4063 -12.4019 -12.3518 -12.2749 -12.2436 -12.2128 -12.1471 -12.1162
   -12.0697 -12.0630  -1.3043   2.3030   6.4867   6.9532   9.9050  10.3632
    13.1209  13.6454

     occupation numbers 
     1.0000   1.0000   1.0000   1.0000   1.0000   1.0000   1.0000   1.0000
     1.0000   1.0000   1.0000   1.0000   1.0000   1.0000   0.0000   0.0000
     0.0000   0.0000

          k = 0.4714 0.1886-0.0943 ( 17040 PWs)   bands (ev):

   -12.4138 -12.4049 -12.3384 -12.2659 -12.2387 -12.2165 -12.1574 -12.1311
   -12.0649 -12.0546  -1.0123   1.8249   6.1682   6.8518   9.8197  10.9365
    13.0632  13.7666

     occupation numbers 
     1.0000   1.0000   1.0000   1.0000   1.0000   1.0000   1.0000   1.0000
     1.0000   1.0000   1.0000   1.0000   1.0000   1.0000   0.0000   0.0000
     0.0000   0.0000

          k =-0.1886-0.4714 0.5657 ( 17030 PWs)   bands (ev):

   -12.4192 -12.4071 -12.3265 -12.2576 -12.2398 -12.2136 -12.1678 -12.1437
   -12.0614 -12.0486  -0.7410   1.4303   5.9176   6.8272   9.7525  11.5076
    13.1256  13.7280

     occupation numbers 
     1.0000   1.0000   1.0000   1.0000   1.0000   1.0000   1.0000   1.0000
     1.0000   1.0000   1.0000   1.0000   1.0000   1.0000   0.0000   0.0000
     0.0000   0.0000

          k =-0.1414-0.4243 0.5185 ( 17035 PWs)   bands (ev):

   -12.4219 -12.4084 -12.3191 -12.2531 -12.2438 -12.2061 -12.1765 -12.1512
   -12.0591 -12.0459  -0.6027   1.2449   5.7623   6.8833   9.7156  11.8914
    13.3196  13.5952

     occupation numbers 
     1.0000   1.0000   1.0000   1.0000   1.0000   1.0000   1.0000   1.0000
     1.0000   1.0000   1.0000   1.0000   1.0000   1.0000   0.0000   0.0000
     0.0000   0.0000

          k =-0.0943-0.3771 0.4714 ( 17028 PWs)   bands (ev):

   -12.4215 -12.4087 -12.3180 -12.2598 -12.2440 -12.1972 -12.1776 -12.1535
   -12.0582 -12.0469  -0.6982   1.3722   5.7218   7.0132   9.7023  12.0464
    13.1671  13.5530

     occupation numbers 
     1.0000   1.0000   1.0000   1.0000   1.0000   1.0000   1.0000   1.0000
     1.0000   1.0000   1.0000   1.0000   1.0000   1.0000   0.0000   0.0000
     0.0000   0.0000

          k =-0.0471-0.3300 0.4243 ( 17033 PWs)   bands (ev):

   -12.4179 -12.4078 -12.3235 -12.2709 -12.2469 -12.1921 -12.1650 -12.1518
   -12.0586 -12.0517  -0.9526   1.7294   5.8133   7.2019   9.6844  11.9715
    12.8736  13.3008

     occupation numbers 
     1.0000   1.0000   1.0000   1.0000   1.0000   1.0000   1.0000   1.0000
     1.0000   1.0000   1.0000   1.0000   1.0000   1.0000   0.0000   0.0000
     0.0000   0.0000

          k = 0.0000-0.2828 0.3771 ( 17028 PWs)   bands (ev):

   -12.4115 -12.4055 -12.3343 -12.2804 -12.2553 -12.1854 -12.1495 -12.1450
   -12.0606 -12.0599  -1.2446   2.1781   6.0520   7.4221   9.6045  11.6387
    12.8123  12.9271

     occupation numbers 
     1.0000   1.0000   1.0000   1.0000   1.0000   1.0000   1.0000   1.0000
     1.0000   1.0000   1.0000   1.0000   1.0000   1.0000   0.0000   0.0000
     0.0000   0.0000

          k = 0.4714 0.0943-0.0000 ( 17044 PWs)   bands (ev):

   -12.4047 -12.4047 -12.3529 -12.2656 -12.2335 -12.2268 -12.1552 -12.1116
   -12.0665 -12.0650  -1.1344   2.0379   6.5229   6.7148   9.7329  10.0745
    13.6669  14.1776

     occupation numbers 
     1.0000   1.0000   1.0000   1.0000   1.0000   1.0000   1.0000   1.0000
     1.0000   1.0000   1.0000   1.0000   1.0000   1.0000   0.0000   0.0000
     0.0000   0.0000

          k = 0.5185 0.1414-0.0471 ( 17049 PWs)   bands (ev):

   -12.4123 -12.4074 -12.3384 -12.2556 -12.2422 -12.2179 -12.1661 -12.1276
   -12.0618 -12.0562  -0.8461   1.6077   6.2138   6.6040   9.8495  10.3566
    13.5246  14.3810

     occupation numbers 
     1.0000   1.0000   1.0000   1.0000   1.0000   1.0000   1.0000   1.0000
     1.0000   1.0000   1.0000   1.0000   1.0000   1.0000   0.0000   0.0000
     0.0000   0.0000

          k =-0.1414-0.5185 0.6128 ( 17052 PWs)   bands (ev):

   -12.4192 -12.4095 -12.3232 -12.2465 -12.2440 -12.2147 -12.1773 -12.1433
   -12.0586 -12.0483  -0.5526   1.2179   5.9049   6.5783   9.8306  10.9960
    13.3833  14.3114

     occupation numbers 
     1.0000   1.0000   1.0000   1.0000   1.0000   1.0000   1.0000   1.0000
     1.0000   1.0000   1.0000   1.0000   1.0000   1.0000   0.0000   0.0000
     0.0000   0.0000

          k =-0.0943-0.4714 0.5657 ( 17025 PWs)   bands (ev):

   -12.4239 -12.4107 -12.3127 -12.2408 -12.2354 -12.2199 -12.1875 -12.1536
   -12.0566 -12.0433  -0.3561   0.9797   5.6717   6.6377   9.8219  11.7103
    13.3100  13.9985

     occupation numbers 
     1.0000   1.0000   1.0000   1.0000   1.0000   1.0000   1.0000   1.0000
     1.0000   1.0000   1.0000   1.0000   1.0000   1.0000   0.0000   0.0000
     0.0000   0.0000

          k =-0.0471-0.4243 0.5185 ( 17018 PWs)   bands (ev):

   -12.4253 -12.4109 -12.3097 -12.2417 -12.2293 -12.2208 -12.1923 -12.1567
   -12.0557 -12.0421  -0.4103   1.0457   5.5605   6.7735   9.8287  12.2646
    13.2559  13.5885

     occupation numbers 
     1.0000   1.0000   1.0000   1.0000   1.0000   1.0000   1.0000   1.0000
     1.0000   1.0000   1.0000   1.0000   1.0000   1.0000   0.0000   0.0000
     0.0000   0.0000

          k =-0.0000-0.3771 0.4714 ( 17037 PWs)   bands (ev):

   -12.4232 -12.4100 -12.3136 -12.2568 -12.2356 -12.2052 -12.1841 -12.1553
   -12.0563 -12.0450  -0.6593   1.3504   5.6014   6.9704   9.8101  12.3484
    12.9504  13.4883

     occupation numbers 
     1.0000   1.0000   1.0000   1.0000   1.0000   1.0000   1.0000   1.0000
     1.0000   1.0000   1.0000   1.0000   1.0000   1.0000   0.0000   0.0000
     0.0000   0.0000

          k = 0.5657 0.0943 0.0000 ( 17067 PWs)   bands (ev):

   -12.4098 -12.4096 -12.3369 -12.2632 -12.2445 -12.1996 -12.1760 -12.1275
   -12.0590 -12.0587  -0.6231   1.3058   6.3204   6.4364   9.6459   9.9527
    14.2803  14.8560

     occupation numbers 
     1.0000   1.0000   1.0000   1.0000   1.0000   1.0000   1.0000   1.0000
     1.0000   1.0000   1.0000   1.0000   1.0000   1.0000   0.0000   0.0000
     0.0000   0.0000

          k =-0.0943-0.5657 0.6600 ( 17065 PWs)   bands (ev):

   -12.4163 -12.4113 -12.3205 -12.2698 -12.2338 -12.1928 -12.1876 -12.1445
   -12.0564 -12.0512  -0.3169   0.9330   6.0495   6.3848   9.7732  10.3067
    14.1007  14.8257

     occupation numbers 
     1.0000   1.0000   1.0000   1.0000   1.0000   1.0000   1.0000   1.0000
     1.0000   1.0000   1.0000   1.0000   1.0000   1.0000   0.0000   0.0000
     0.0000   0.0000

          k =-0.0471-0.5185 0.6128 ( 17049 PWs)   bands (ev):

   -12.4221 -12.4121 -12.3078 -12.2653 -12.2245 -12.1992 -12.1963 -12.1568
   -12.0550 -12.0447  -0.0747   0.6665   5.7674   6.4397   9.7939  11.0155
    13.8844  14.4244

     occupation numbers 
     1.0000   1.0000   1.0000   1.0000   1.0000   1.0000   1.0000   1.0000
     1.0000   1.0000   1.0000   1.0000   1.0000   1.0000   0.0000   0.0000
     0.0000   0.0000

          k = 0.0000-0.4714 0.5657 ( 17026 PWs)   bands (ev):

   -12.4254 -12.4120 -12.3056 -12.2464 -12.2250 -12.2126 -12.2019 -12.1589
   -12.0547 -12.0414  -0.1385   0.7415   5.5856   6.5743   9.8252  11.7931
    13.5658  13.9166

     occupation numbers 
     1.0000   1.0000   1.0000   1.0000   1.0000   1.0000   1.0000   1.0000
     1.0000   1.0000   1.0000   1.0000   1.0000   1.0000   0.0000   0.0000
     0.0000   0.0000

          k =-0.0471-0.6128 0.7071 ( 17049 PWs)   bands (ev):

   -12.4124 -12.4123 -12.3160 -12.2912 -12.2217 -12.1986 -12.1730 -12.1485
   -12.0550 -12.0550  -0.0385   0.6088   6.2369   6.2756   9.6689   9.7856
    14.8775  15.1524

     occupation numbers 
     1.0000   1.0000   1.0000   1.0000   1.0000   1.0000   1.0000   1.0000
     1.0000   1.0000   1.0000   1.0000   1.0000   1.0000   0.0000   0.0000
     0.0000   0.0000

          k = 0.0000-0.5657 0.6600 ( 17039 PWs)   bands (ev):

   -12.4176 -12.4126 -12.3041 -12.2895 -12.2128 -12.2086 -12.1744 -12.1602
   -12.0545 -12.0493   0.1960   0.3711   5.9949   6.3099   9.7471  10.2749
    14.5662  14.7710

     occupation numbers 
     1.0000   1.0000   1.0000   1.0000   1.0000   1.0000   1.0000   1.0000
     1.0000   1.0000   1.0000   1.0000   1.0000   1.0000   0.0000   0.0000
     0.0000   0.0000

          k = 0.3771 0.1886-0.0000 ( 17038 PWs)   bands (ev):

   -12.4039 -12.4029 -12.3495 -12.2828 -12.2563 -12.1947 -12.1414 -12.1234
   -12.0691 -12.0643  -1.4419   2.5331   6.4409   7.2738   9.8470  10.6816
    12.8541  13.1720

     occupation numbers 
     1.0000   1.0000   1.0000   1.0000   1.0000   1.0000   1.0000   1.0000
     1.0000   1.0000   1.0000   1.0000   1.0000   1.0000   0.0000   0.0000
     0.0000   0.0000

          k = 0.4243 0.2357-0.0471 ( 17035 PWs)   bands (ev):

   -12.4116 -12.4061 -12.3367 -12.2745 -12.2476 -12.2017 -12.1502 -12.1382
   -12.0624 -12.0579  -1.1594   2.0477   6.1246   7.0975   9.8965  11.0908
    12.8169  13.4808

     occupation numbers 
     1.0000   1.0000   1.0000   1.0000   1.0000   1.0000   1.0000   1.0000
     1.0000   1.0000   1.0000   1.0000   1.0000   1.0000   0.0000   0.0000
     0.0000   0.0000

          k =-0.2357-0.4243 0.6128 ( 17025 PWs)   bands (ev):

   -12.4174 -12.4081 -12.3255 -12.2661 -12.2438 -12.2036 -12.1617 -12.1488
   -12.0596 -12.0512  -0.8718   1.6080   5.9183   6.9481   9.8754  11.5118
    12.9264  13.6481

     occupation numbers 
     1.0000   1.0000   1.0000   1.0000   1.0000   1.0000   1.0000   1.0000
     1.0000   1.0000   1.0000   1.0000   1.0000   1.0000   0.0000   0.0000
     0.0000   0.0000

          k =-0.1886-0.3771 0.5657 ( 17027 PWs)   bands (ev):

   -12.4206 -12.4091 -12.3189 -12.2592 -12.2444 -12.2017 -12.1721 -12.1533
   -12.0584 -12.0475  -0.6653   1.3202   5.8176   6.8649   9.8533  11.7190
    13.2216  13.6423

     occupation numbers 
     1.0000   1.0000   1.0000   1.0000   1.0000   1.0000   1.0000   1.0000
     1.0000   1.0000   1.0000   1.0000   1.0000   1.0000   0.0000   0.0000
     0.0000   0.0000

          k = 0.4714 0.1886-0.0000 ( 17042 PWs)   bands (ev):

   -12.4107 -12.4084 -12.3381 -12.2658 -12.2329 -12.2231 -12.1572 -12.1311
   -12.0596 -12.0593  -1.0329   1.8751   6.1720   6.7859  10.2048  10.4608
    12.9882  14.0354

     occupation numbers 
     1.0000   1.0000   1.0000   1.0000   1.0000   1.0000   1.0000   1.0000
     1.0000   1.0000   1.0000   1.0000   1.0000   1.0000   0.0000   0.0000
     0.0000   0.0000

          k =-0.1886-0.4714 0.6600 ( 17039 PWs)   bands (ev):

   -12.4174 -12.4111 -12.3230 -12.2566 -12.2306 -12.2242 -12.1687 -12.1462
   -12.0566 -12.0509  -0.7364   1.4571   5.9178   6.6347  10.2316  10.9931
    12.8849  14.1600

     occupation numbers 
     1.0000   1.0000   1.0000   1.0000   1.0000   1.0000   1.0000   1.0000
     1.0000   1.0000   1.0000   1.0000   1.0000   1.0000   0.0000   0.0000
     0.0000   0.0000

          k =-0.1414-0.4243 0.6128 ( 17039 PWs)   bands (ev):

   -12.4222 -12.4125 -12.3112 -12.2489 -12.2310 -12.2219 -12.1804 -12.1566
   -12.0547 -12.0452  -0.4813   1.1301   5.7395   6.5626  10.2168  11.5515
    12.9510  13.9212

     occupation numbers 
     1.0000   1.0000   1.0000   1.0000   1.0000   1.0000   1.0000   1.0000
     1.0000   1.0000   1.0000   1.0000   1.0000   1.0000   0.0000   0.0000
     0.0000   0.0000

          k =-0.0943-0.3771 0.5657 ( 17042 PWs)   bands (ev):

   -12.4239 -12.4129 -12.3068 -12.2471 -12.2285 -12.2216 -12.1861 -12.1601
   -12.0540 -12.0434  -0.4098   1.0435   5.6537   6.5898  10.2126  11.8312
    13.2056  13.5103

     occupation numbers 
     1.0000   1.0000   1.0000   1.0000   1.0000   1.0000   1.0000   1.0000
     1.0000   1.0000   1.0000   1.0000   1.0000   1.0000   0.0000   0.0000
     0.0000   0.0000

          k =-0.0471-0.3300 0.5185 ( 17027 PWs)   bands (ev):

   -12.4223 -12.4122 -12.3111 -12.2546 -12.2304 -12.2172 -12.1792 -12.1578
   -12.0545 -12.0457  -0.5858   1.2608   5.6798   6.7085  10.2016  11.7593
    12.8614  13.7761

     occupation numbers 
     1.0000   1.0000   1.0000   1.0000   1.0000   1.0000   1.0000   1.0000
     1.0000   1.0000   1.0000   1.0000   1.0000   1.0000   0.0000   0.0000
     0.0000   0.0000

          k = 0.0000-0.2828 0.4714 ( 17030 PWs)   bands (ev):

   -12.4176 -12.4102 -12.3222 -12.2653 -12.2367 -12.2113 -12.1631 -12.1512
   -12.0565 -12.0516  -0.8710   1.6353   5.8343   6.8933  10.1254  11.4026
    12.7310  13.7921

     occupation numbers 
     1.0000   1.0000   1.0000   1.0000   1.0000   1.0000   1.0000   1.0000
     1.0000   1.0000   1.0000   1.0000   1.0000   1.0000   0.0000   0.0000
     0.0000   0.0000

          k =-0.1414-0.5185 0.7071 ( 17044 PWs)   bands (ev):

   -12.4154 -12.4133 -12.3222 -12.2513 -12.2455 -12.2084 -12.1776 -12.1441
   -12.0540 -12.0529  -0.5500   1.2226   6.0276   6.4013  10.3289  10.3332
    13.3685  14.5864

     occupation numbers 
     1.0000   1.0000   1.0000   1.0000   1.0000   1.0000   1.0000   1.0000
     1.0000   1.0000   1.0000   1.0000   1.0000   1.0000   0.0000   0.0000
     0.0000   0.0000

          k =-0.0943-0.4714 0.6600 ( 17060 PWs)   bands (ev):

   -12.4209 -12.4152 -12.3059 -12.2549 -12.2357 -12.2043 -12.1898 -12.1594
   -12.0519 -12.0463  -0.2591   0.8802   5.8274   6.3023  10.3251  11.0093
    13.2228  14.2530

     occupation numbers 
     1.0000   1.0000   1.0000   1.0000   1.0000   1.0000   1.0000   1.0000
     1.0000   1.0000   1.0000   1.0000   1.0000   1.0000   0.0000   0.0000
     0.0000   0.0000

          k =-0.0471-0.4243 0.6128 ( 17053 PWs)   bands (ev):

   -12.4245 -12.4154 -12.2978 -12.2482 -12.2298 -12.2102 -12.1985 -12.1659
   -12.0513 -12.0424  -0.1238   0.7324   5.6589   6.3447  10.3371  11.6966
    13.1509  13.6403

     occupation numbers 
     1.0000   1.0000   1.0000   1.0000   1.0000   1.0000   1.0000   1.0000
     1.0000   1.0000   1.0000   1.0000   1.0000   1.0000   0.0000   0.0000
     0.0000   0.0000

          k = 0.0000-0.3771 0.5657 ( 17053 PWs)   bands (ev):

   -12.4249 -12.4145 -12.3009 -12.2398 -12.2329 -12.2179 -12.1954 -12.1636
   -12.0521 -12.0422  -0.2960   0.9257   5.5968   6.4917  10.3275  12.0154
    12.9492  13.5158

     occupation numbers 
     1.0000   1.0000   1.0000   1.0000   1.0000   1.0000   1.0000   1.0000
     1.0000   1.0000   1.0000   1.0000   1.0000   1.0000   0.0000   0.0000
     0.0000   0.0000

          k =-0.0471-0.5185 0.7071 ( 17062 PWs)   bands (ev):

   -12.4174 -12.4166 -12.3019 -12.2780 -12.2231 -12.2000 -12.1844 -12.1624
   -12.0503 -12.0497  -0.0044   0.5912   6.0163   6.1415  10.2938  10.3157
    13.9466  14.4907

     occupation numbers 
     1.0000   1.0000   1.0000   1.0000   1.0000   1.0000   1.0000   1.0000
     1.0000   1.0000   1.0000   1.0000   1.0000   1.0000   0.0000   0.0000
     0.0000   0.0000

          k = 0.0000-0.4714 0.6600 ( 17061 PWs)   bands (ev):

   -12.4219 -12.4167 -12.2921 -12.2715 -12.2170 -12.2091 -12.1898 -12.1708
   -12.0500 -12.0448   0.1472   0.4410   5.8151   6.1703  10.3307  11.0227
    13.7190  13.8339

     occupation numbers 
     1.0000   1.0000   1.0000   1.0000   1.0000   1.0000   1.0000   1.0000
     1.0000   1.0000   1.0000   1.0000   1.0000   1.0000   0.0000   0.0000
     0.0000   0.0000

          k =-0.1414-0.4243 0.7071 ( 17068 PWs)   bands (ev):

   -12.4212 -12.4153 -12.3067 -12.2464 -12.2380 -12.2159 -12.1830 -12.1602
   -12.0514 -12.0465  -0.4372   1.0915   5.7564   6.4148  10.6023  11.2255
    12.7749  14.0631

     occupation numbers 
     1.0000   1.0000   1.0000   1.0000   1.0000   1.0000   1.0000   1.0000
     1.0000   1.0000   1.0000   1.0000   1.0000   1.0000   0.0000   0.0000
     0.0000   0.0000

          k =-0.0943-0.3771 0.6600 ( 17041 PWs)   bands (ev):

   -12.4238 -12.4170 -12.2952 -12.2446 -12.2353 -12.2116 -12.1951 -12.1686
   -12.0497 -12.0431  -0.1894   0.8089   5.6839   6.2789  10.7072  11.6130
    12.8626  13.5363

     occupation numbers 
     1.0000   1.0000   1.0000   1.0000   1.0000   1.0000   1.0000   1.0000
     1.0000   1.0000   1.0000   1.0000   1.0000   1.0000   0.0000   0.0000
     0.0000   0.0000

          k =-0.0471-0.4243 0.7071 ( 17060 PWs)   bands (ev):

   -12.4218 -12.4196 -12.2869 -12.2636 -12.2256 -12.2041 -12.1947 -12.1754
   -12.0470 -12.0450   0.0436   0.5574   5.8279   6.0505  10.9150  11.0860
    13.0952  13.6345

     occupation numbers 
     1.0000   1.0000   1.0000   1.0000   1.0000   1.0000   1.0000   1.0000
     1.0000   1.0000   1.0000   1.0000   1.0000   1.0000   0.0000   0.0000
     0.0000   0.0000

          k =-0.0000-0.3771 0.6600 ( 17067 PWs)   bands (ev):

   -12.4235 -12.4196 -12.2825 -12.2593 -12.2239 -12.2090 -12.1974 -12.1783
   -12.0469 -12.0431   0.0962   0.5059   5.7526   6.0612  10.9482  11.5498
    12.9925  13.1810

     occupation numbers 
     1.0000   1.0000   1.0000   1.0000   1.0000   1.0000   1.0000   1.0000
     1.0000   1.0000   1.0000   1.0000   1.0000   1.0000   0.0000   0.0000
     0.0000   0.0000

     the Fermi energy is     8.3252 ev

!    total energy              =    -233.44828456 Ry
     Harris-Foulkes estimate   =    -233.44828471 Ry
     estimated scf accuracy    <       0.00000043 Ry

     The total energy is the sum of the following terms:

     one-electron contribution =     -95.31553947 Ry
     hartree contribution      =      58.35549034 Ry
     xc contribution           =     -28.70689353 Ry
     ewald contribution        =    -167.78134157 Ry
     smearing contrib. (-TS)   =      -0.00000032 Ry

     convergence has been achieved in   5 iterations

     Writing output data file Sn.save
 
     init_run     :      5.57s CPU      6.15s WALL (       1 calls)
     electrons    :    107.93s CPU    115.83s WALL (       1 calls)

     Called by init_run:
     wfcinit      :      5.22s CPU      5.67s WALL (       1 calls)
     potinit      :      0.06s CPU      0.10s WALL (       1 calls)

     Called by electrons:
     c_bands      :     94.97s CPU    101.71s WALL (       5 calls)
     sum_band     :     12.68s CPU     13.63s WALL (       5 calls)
     v_of_rho     :      0.24s CPU      0.44s WALL (       6 calls)
     v_h          :      0.02s CPU      0.07s WALL (       6 calls)
     v_xc         :      0.23s CPU      0.37s WALL (       6 calls)
     mix_rho      :      0.02s CPU      0.04s WALL (       5 calls)

     Called by c_bands:
     init_us_2    :      0.97s CPU      1.17s WALL (    1320 calls)
     cegterg      :     91.11s CPU     97.61s WALL (     600 calls)

     Called by sum_band:

     Called by *egterg:
     h_psi        :     82.56s CPU     88.32s WALL (    2584 calls)
     g_psi        :      0.40s CPU      0.41s WALL (    1864 calls)
     cdiaghg      :      2.59s CPU      2.61s WALL (    2464 calls)
     cegterg:over :      4.36s CPU      4.39s WALL (    1864 calls)
     cegterg:upda :      2.16s CPU      2.17s WALL (    1864 calls)
     cegterg:last :      1.37s CPU      1.38s WALL (     812 calls)

     Called by h_psi:
     h_psi:vloc   :     77.24s CPU     82.85s WALL (    2584 calls)
     h_psi:vnl    :      4.87s CPU      5.00s WALL (    2584 calls)
     add_vuspsi   :      1.79s CPU      1.81s WALL (    2584 calls)

     General routines
     calbec       :      3.06s CPU      3.17s WALL (    2584 calls)
     fft          :      0.19s CPU      0.42s WALL (      65 calls)
     fftw         :     77.31s CPU     83.19s WALL (   85972 calls)
     davcio       :      0.05s CPU      0.38s WALL (     120 calls)
 
     Parallel routines
     fft_scatter  :     33.92s CPU     36.97s WALL (   86037 calls)
 
     PWSCF        :  1m53.85s CPU     2m 2.81s WALL

 
   This run was terminated on:   0:18:45  28Feb2020            

=------------------------------------------------------------------------------=
   JOB DONE.
=------------------------------------------------------------------------------=
