
     Program PWSCF v.5.4.0 starts on 21Feb2020 at  0:52:49 

     This program is part of the open-source Quantum ESPRESSO suite
     for quantum simulation of materials; please cite
         "P. Giannozzi et al., J. Phys.:Condens. Matter 21 395502 (2009);
          URL http://www.quantum-espresso.org", 
     in publications or presentations arising from this work. More details at
     http://www.quantum-espresso.org/quote

     Parallel version (MPI & OpenMP), running on      16 processor cores
     Number of MPI processes:                16
     Threads/MPI process:                     1
     R & G space division:  proc/nbgrp/npool/nimage =      16
     Waiting for input...
     Reading input from standard input
Warning: card &IONS ignored
Warning: card / ignored
Warning: card &CELL ignored
Warning: card / ignored

     Current dimensions of program PWSCF are:
     Max number of different atomic species (ntypx) = 10
     Max number of k-points (npk) =  40000
     Max angular momentum in pseudopotentials (lmaxx) =  3

     Subspace diagonalization in iterative solution of the eigenvalue problem:
     a serial algorithm will be used

 
     Parallelization info
     --------------------
     sticks:   dense  smooth     PW     G-vecs:    dense   smooth      PW
     Min         136     136     38                 4208     4208     635
     Max         138     138     40                 4210     4210     637
     Sum        2185    2185    625                67337    67337   10177
 

     Title: 
     Sn                                                                         


     bravais-lattice index     =            0
     lattice parameter (alat)  =       8.8993  a.u.
     unit-cell volume          =     498.3785 (a.u.)^3
     number of atoms/cell      =            2
     number of atomic types    =            1
     number of electrons       =        28.00
     number of Kohn-Sham states=           18
     kinetic-energy cutoff     =     100.0000  Ry
     charge density cutoff     =     400.0000  Ry
     convergence threshold     =      1.0E-06
     mixing beta               =       0.7000
     number of iterations used =            8  plain     mixing
     Exchange-correlation      = PBE ( 1  4  3  4 0 0)

     celldm(1)=   8.899346  celldm(2)=   0.000000  celldm(3)=   0.000000
     celldm(4)=   0.000000  celldm(5)=   0.000000  celldm(6)=   0.000000

     crystal axes: (cart. coord. in units of alat)
               a(1) = (   0.000000   0.707107   0.707107 )  
               a(2) = (   0.707107   0.000000   0.707107 )  
               a(3) = (   0.707107   0.707107   0.000000 )  

     reciprocal axes: (cart. coord. in units 2 pi/alat)
               b(1) = ( -0.707107  0.707107  0.707107 )  
               b(2) = (  0.707107 -0.707107  0.707107 )  
               b(3) = (  0.707107  0.707107 -0.707107 )  


     PseudoPot. # 1 for Sn read from file:
     ../PseudopotentialDatabase/Sn_ONCV_PBE-1.0.upf
     MD5 check sum: 4ecdb67ea6112684f1b2ae1cab9d4ca6
     Pseudo is Norm-conserving, Zval = 14.0
     Generated using ONCVPSP code by D. R. Hamann
     Using radial grid of  602 points,  6 beta functions with: 
                l(1) =   0
                l(2) =   0
                l(3) =   1
                l(4) =   1
                l(5) =   2
                l(6) =   2

     atomic species   valence    mass     pseudopotential
        Sn            14.00   118.71000     Sn( 1.00)

     48 Sym. Ops., with inversion, found (24 have fractional translation)


                                    s                        frac. trans.

      isym =  1     identity                                     

 cryst.   s( 1) = (     1          0          0      )
                  (     0          1          0      )
                  (     0          0          1      )

 cart.    s( 1) = (  1.0000000  0.0000000  0.0000000 )
                  (  0.0000000  1.0000000  0.0000000 )
                  (  0.0000000  0.0000000  1.0000000 )


      isym =  2     180 deg rotation - cart. axis [0,0,1]        

 cryst.   s( 2) = (     0          1         -1      )
                  (     1          0         -1      )
                  (     0          0         -1      )

 cart.    s( 2) = ( -1.0000000  0.0000000  0.0000000 )
                  (  0.0000000 -1.0000000  0.0000000 )
                  (  0.0000000  0.0000000  1.0000000 )


      isym =  3     180 deg rotation - cart. axis [0,1,0]        

 cryst.   s( 3) = (     0         -1          1      )
                  (     0         -1          0      )
                  (     1         -1          0      )

 cart.    s( 3) = ( -1.0000000  0.0000000  0.0000000 )
                  (  0.0000000  1.0000000  0.0000000 )
                  (  0.0000000  0.0000000 -1.0000000 )


      isym =  4     180 deg rotation - cart. axis [1,0,0]        

 cryst.   s( 4) = (    -1          0          0      )
                  (    -1          0          1      )
                  (    -1          1          0      )

 cart.    s( 4) = (  1.0000000  0.0000000  0.0000000 )
                  (  0.0000000 -1.0000000  0.0000000 )
                  (  0.0000000  0.0000000 -1.0000000 )


      isym =  5     180 deg rotation - cart. axis [1,1,0]        

 cryst.   s( 5) = (    -1          0          1      )    f =( -0.2500000 )
                  (     0         -1          1      )       ( -0.2500000 )
                  (     0          0          1      )       ( -0.2500000 )

 cart.    s( 5) = (  0.0000000  1.0000000  0.0000000 )    f =( -0.3535534 )
                  (  1.0000000  0.0000000  0.0000000 )       ( -0.3535534 )
                  (  0.0000000  0.0000000 -1.0000000 )       ( -0.3535534 )


      isym =  6     180 deg rotation - cart. axis [1,-1,0]       

 cryst.   s( 6) = (     0         -1          0      )    f =( -0.2500000 )
                  (    -1          0          0      )       ( -0.2500000 )
                  (     0          0         -1      )       ( -0.2500000 )

 cart.    s( 6) = (  0.0000000 -1.0000000  0.0000000 )    f =( -0.3535534 )
                  ( -1.0000000  0.0000000  0.0000000 )       ( -0.3535534 )
                  (  0.0000000  0.0000000 -1.0000000 )       ( -0.3535534 )


      isym =  7      90 deg rotation - cart. axis [0,0,-1]       

 cryst.   s( 7) = (     0          1          0      )    f =( -0.2500000 )
                  (     0          1         -1      )       ( -0.2500000 )
                  (    -1          1          0      )       ( -0.2500000 )

 cart.    s( 7) = (  0.0000000  1.0000000  0.0000000 )    f =( -0.3535534 )
                  ( -1.0000000  0.0000000  0.0000000 )       ( -0.3535534 )
                  (  0.0000000  0.0000000  1.0000000 )       ( -0.3535534 )


      isym =  8      90 deg rotation - cart. axis [0,0,1]        

 cryst.   s( 8) = (     1          0         -1      )    f =( -0.2500000 )
                  (     1          0          0      )       ( -0.2500000 )
                  (     1         -1          0      )       ( -0.2500000 )

 cart.    s( 8) = (  0.0000000 -1.0000000  0.0000000 )    f =( -0.3535534 )
                  (  1.0000000  0.0000000  0.0000000 )       ( -0.3535534 )
                  (  0.0000000  0.0000000  1.0000000 )       ( -0.3535534 )


      isym =  9     180 deg rotation - cart. axis [1,0,1]        

 cryst.   s( 9) = (    -1          1          0      )    f =( -0.2500000 )
                  (     0          1          0      )       ( -0.2500000 )
                  (     0          1         -1      )       ( -0.2500000 )

 cart.    s( 9) = (  0.0000000  0.0000000  1.0000000 )    f =( -0.3535534 )
                  (  0.0000000 -1.0000000  0.0000000 )       ( -0.3535534 )
                  (  1.0000000  0.0000000  0.0000000 )       ( -0.3535534 )


      isym = 10     180 deg rotation - cart. axis [-1,0,1]       

 cryst.   s(10) = (     0          0         -1      )    f =( -0.2500000 )
                  (     0         -1          0      )       ( -0.2500000 )
                  (    -1          0          0      )       ( -0.2500000 )

 cart.    s(10) = (  0.0000000  0.0000000 -1.0000000 )    f =( -0.3535534 )
                  (  0.0000000 -1.0000000  0.0000000 )       ( -0.3535534 )
                  ( -1.0000000  0.0000000  0.0000000 )       ( -0.3535534 )


      isym = 11      90 deg rotation - cart. axis [0,1,0]        

 cryst.   s(11) = (     0          0          1      )    f =( -0.2500000 )
                  (    -1          0          1      )       ( -0.2500000 )
                  (     0         -1          1      )       ( -0.2500000 )

 cart.    s(11) = (  0.0000000  0.0000000  1.0000000 )    f =( -0.3535534 )
                  (  0.0000000  1.0000000  0.0000000 )       ( -0.3535534 )
                  ( -1.0000000  0.0000000  0.0000000 )       ( -0.3535534 )


      isym = 12      90 deg rotation - cart. axis [0,-1,0]       

 cryst.   s(12) = (     1         -1          0      )    f =( -0.2500000 )
                  (     1          0         -1      )       ( -0.2500000 )
                  (     1          0          0      )       ( -0.2500000 )

 cart.    s(12) = (  0.0000000  0.0000000 -1.0000000 )    f =( -0.3535534 )
                  (  0.0000000  1.0000000  0.0000000 )       ( -0.3535534 )
                  (  1.0000000  0.0000000  0.0000000 )       ( -0.3535534 )


      isym = 13     180 deg rotation - cart. axis [0,1,1]        

 cryst.   s(13) = (     1          0          0      )    f =( -0.2500000 )
                  (     1         -1          0      )       ( -0.2500000 )
                  (     1          0         -1      )       ( -0.2500000 )

 cart.    s(13) = ( -1.0000000  0.0000000  0.0000000 )    f =( -0.3535534 )
                  (  0.0000000  0.0000000  1.0000000 )       ( -0.3535534 )
                  (  0.0000000  1.0000000  0.0000000 )       ( -0.3535534 )


      isym = 14     180 deg rotation - cart. axis [0,1,-1]       

 cryst.   s(14) = (    -1          0          0      )    f =( -0.2500000 )
                  (     0          0         -1      )       ( -0.2500000 )
                  (     0         -1          0      )       ( -0.2500000 )

 cart.    s(14) = ( -1.0000000  0.0000000  0.0000000 )    f =( -0.3535534 )
                  (  0.0000000  0.0000000 -1.0000000 )       ( -0.3535534 )
                  (  0.0000000 -1.0000000  0.0000000 )       ( -0.3535534 )


      isym = 15      90 deg rotation - cart. axis [-1,0,0]       

 cryst.   s(15) = (     0         -1          1      )    f =( -0.2500000 )
                  (     0          0          1      )       ( -0.2500000 )
                  (    -1          0          1      )       ( -0.2500000 )

 cart.    s(15) = (  1.0000000  0.0000000  0.0000000 )    f =( -0.3535534 )
                  (  0.0000000  0.0000000  1.0000000 )       ( -0.3535534 )
                  (  0.0000000 -1.0000000  0.0000000 )       ( -0.3535534 )


      isym = 16      90 deg rotation - cart. axis [1,0,0]        

 cryst.   s(16) = (     0          1         -1      )    f =( -0.2500000 )
                  (    -1          1          0      )       ( -0.2500000 )
                  (     0          1          0      )       ( -0.2500000 )

 cart.    s(16) = (  1.0000000  0.0000000  0.0000000 )    f =( -0.3535534 )
                  (  0.0000000  0.0000000 -1.0000000 )       ( -0.3535534 )
                  (  0.0000000  1.0000000  0.0000000 )       ( -0.3535534 )


      isym = 17     120 deg rotation - cart. axis [-1,-1,-1]     

 cryst.   s(17) = (     0          0          1      )
                  (     1          0          0      )
                  (     0          1          0      )

 cart.    s(17) = (  0.0000000  1.0000000  0.0000000 )
                  (  0.0000000  0.0000000  1.0000000 )
                  (  1.0000000  0.0000000  0.0000000 )


      isym = 18     120 deg rotation - cart. axis [-1,1,1]       

 cryst.   s(18) = (     1         -1          0      )
                  (     0         -1          1      )
                  (     0         -1          0      )

 cart.    s(18) = (  0.0000000 -1.0000000  0.0000000 )
                  (  0.0000000  0.0000000  1.0000000 )
                  ( -1.0000000  0.0000000  0.0000000 )


      isym = 19     120 deg rotation - cart. axis [1,1,-1]       

 cryst.   s(19) = (    -1          1          0      )
                  (    -1          0          0      )
                  (    -1          0          1      )

 cart.    s(19) = (  0.0000000  1.0000000  0.0000000 )
                  (  0.0000000  0.0000000 -1.0000000 )
                  ( -1.0000000  0.0000000  0.0000000 )


      isym = 20     120 deg rotation - cart. axis [1,-1,1]       

 cryst.   s(20) = (     0          0         -1      )
                  (     0          1         -1      )
                  (     1          0         -1      )

 cart.    s(20) = (  0.0000000 -1.0000000  0.0000000 )
                  (  0.0000000  0.0000000 -1.0000000 )
                  (  1.0000000  0.0000000  0.0000000 )


      isym = 21     120 deg rotation - cart. axis [1,1,1]        

 cryst.   s(21) = (     0          1          0      )
                  (     0          0          1      )
                  (     1          0          0      )

 cart.    s(21) = (  0.0000000  0.0000000  1.0000000 )
                  (  1.0000000  0.0000000  0.0000000 )
                  (  0.0000000  1.0000000  0.0000000 )


      isym = 22     120 deg rotation - cart. axis [-1,1,-1]      

 cryst.   s(22) = (    -1          0          1      )
                  (    -1          1          0      )
                  (    -1          0          0      )

 cart.    s(22) = (  0.0000000  0.0000000  1.0000000 )
                  ( -1.0000000  0.0000000  0.0000000 )
                  (  0.0000000 -1.0000000  0.0000000 )


      isym = 23     120 deg rotation - cart. axis [1,-1,-1]      

 cryst.   s(23) = (     1          0         -1      )
                  (     0          0         -1      )
                  (     0          1         -1      )

 cart.    s(23) = (  0.0000000  0.0000000 -1.0000000 )
                  ( -1.0000000  0.0000000  0.0000000 )
                  (  0.0000000  1.0000000  0.0000000 )


      isym = 24     120 deg rotation - cart. axis [-1,-1,1]      

 cryst.   s(24) = (     0         -1          0      )
                  (     1         -1          0      )
                  (     0         -1          1      )

 cart.    s(24) = (  0.0000000  0.0000000 -1.0000000 )
                  (  1.0000000  0.0000000  0.0000000 )
                  (  0.0000000 -1.0000000  0.0000000 )


      isym = 25     inversion                                    

 cryst.   s(25) = (    -1          0          0      )    f =( -0.2500000 )
                  (     0         -1          0      )       ( -0.2500000 )
                  (     0          0         -1      )       ( -0.2500000 )

 cart.    s(25) = ( -1.0000000  0.0000000  0.0000000 )    f =( -0.3535534 )
                  (  0.0000000 -1.0000000  0.0000000 )       ( -0.3535534 )
                  (  0.0000000  0.0000000 -1.0000000 )       ( -0.3535534 )


      isym = 26     inv. 180 deg rotation - cart. axis [0,0,1]   

 cryst.   s(26) = (     0         -1          1      )    f =( -0.2500000 )
                  (    -1          0          1      )       ( -0.2500000 )
                  (     0          0          1      )       ( -0.2500000 )

 cart.    s(26) = (  1.0000000  0.0000000  0.0000000 )    f =( -0.3535534 )
                  (  0.0000000  1.0000000  0.0000000 )       ( -0.3535534 )
                  (  0.0000000  0.0000000 -1.0000000 )       ( -0.3535534 )


      isym = 27     inv. 180 deg rotation - cart. axis [0,1,0]   

 cryst.   s(27) = (     0          1         -1      )    f =( -0.2500000 )
                  (     0          1          0      )       ( -0.2500000 )
                  (    -1          1          0      )       ( -0.2500000 )

 cart.    s(27) = (  1.0000000  0.0000000  0.0000000 )    f =( -0.3535534 )
                  (  0.0000000 -1.0000000  0.0000000 )       ( -0.3535534 )
                  (  0.0000000  0.0000000  1.0000000 )       ( -0.3535534 )


      isym = 28     inv. 180 deg rotation - cart. axis [1,0,0]   

 cryst.   s(28) = (     1          0          0      )    f =( -0.2500000 )
                  (     1          0         -1      )       ( -0.2500000 )
                  (     1         -1          0      )       ( -0.2500000 )

 cart.    s(28) = ( -1.0000000  0.0000000  0.0000000 )    f =( -0.3535534 )
                  (  0.0000000  1.0000000  0.0000000 )       ( -0.3535534 )
                  (  0.0000000  0.0000000  1.0000000 )       ( -0.3535534 )


      isym = 29     inv. 180 deg rotation - cart. axis [1,1,0]   

 cryst.   s(29) = (     1          0         -1      )
                  (     0          1         -1      )
                  (     0          0         -1      )

 cart.    s(29) = (  0.0000000 -1.0000000  0.0000000 )
                  ( -1.0000000  0.0000000  0.0000000 )
                  (  0.0000000  0.0000000  1.0000000 )


      isym = 30     inv. 180 deg rotation - cart. axis [1,-1,0]  

 cryst.   s(30) = (     0          1          0      )
                  (     1          0          0      )
                  (     0          0          1      )

 cart.    s(30) = (  0.0000000  1.0000000  0.0000000 )
                  (  1.0000000  0.0000000  0.0000000 )
                  (  0.0000000  0.0000000  1.0000000 )


      isym = 31     inv.  90 deg rotation - cart. axis [0,0,-1]  

 cryst.   s(31) = (     0         -1          0      )
                  (     0         -1          1      )
                  (     1         -1          0      )

 cart.    s(31) = (  0.0000000 -1.0000000  0.0000000 )
                  (  1.0000000  0.0000000  0.0000000 )
                  (  0.0000000  0.0000000 -1.0000000 )


      isym = 32     inv.  90 deg rotation - cart. axis [0,0,1]   

 cryst.   s(32) = (    -1          0          1      )
                  (    -1          0          0      )
                  (    -1          1          0      )

 cart.    s(32) = (  0.0000000  1.0000000  0.0000000 )
                  ( -1.0000000  0.0000000  0.0000000 )
                  (  0.0000000  0.0000000 -1.0000000 )


      isym = 33     inv. 180 deg rotation - cart. axis [1,0,1]   

 cryst.   s(33) = (     1         -1          0      )
                  (     0         -1          0      )
                  (     0         -1          1      )

 cart.    s(33) = (  0.0000000  0.0000000 -1.0000000 )
                  (  0.0000000  1.0000000  0.0000000 )
                  ( -1.0000000  0.0000000  0.0000000 )


      isym = 34     inv. 180 deg rotation - cart. axis [-1,0,1]  

 cryst.   s(34) = (     0          0          1      )
                  (     0          1          0      )
                  (     1          0          0      )

 cart.    s(34) = (  0.0000000  0.0000000  1.0000000 )
                  (  0.0000000  1.0000000  0.0000000 )
                  (  1.0000000  0.0000000  0.0000000 )


      isym = 35     inv.  90 deg rotation - cart. axis [0,1,0]   

 cryst.   s(35) = (     0          0         -1      )
                  (     1          0         -1      )
                  (     0          1         -1      )

 cart.    s(35) = (  0.0000000  0.0000000 -1.0000000 )
                  (  0.0000000 -1.0000000  0.0000000 )
                  (  1.0000000  0.0000000  0.0000000 )


      isym = 36     inv.  90 deg rotation - cart. axis [0,-1,0]  

 cryst.   s(36) = (    -1          1          0      )
                  (    -1          0          1      )
                  (    -1          0          0      )

 cart.    s(36) = (  0.0000000  0.0000000  1.0000000 )
                  (  0.0000000 -1.0000000  0.0000000 )
                  ( -1.0000000  0.0000000  0.0000000 )


      isym = 37     inv. 180 deg rotation - cart. axis [0,1,1]   

 cryst.   s(37) = (    -1          0          0      )
                  (    -1          1          0      )
                  (    -1          0          1      )

 cart.    s(37) = (  1.0000000  0.0000000  0.0000000 )
                  (  0.0000000  0.0000000 -1.0000000 )
                  (  0.0000000 -1.0000000  0.0000000 )


      isym = 38     inv. 180 deg rotation - cart. axis [0,1,-1]  

 cryst.   s(38) = (     1          0          0      )
                  (     0          0          1      )
                  (     0          1          0      )

 cart.    s(38) = (  1.0000000  0.0000000  0.0000000 )
                  (  0.0000000  0.0000000  1.0000000 )
                  (  0.0000000  1.0000000  0.0000000 )


      isym = 39     inv.  90 deg rotation - cart. axis [-1,0,0]  

 cryst.   s(39) = (     0          1         -1      )
                  (     0          0         -1      )
                  (     1          0         -1      )

 cart.    s(39) = ( -1.0000000  0.0000000  0.0000000 )
                  (  0.0000000  0.0000000 -1.0000000 )
                  (  0.0000000  1.0000000  0.0000000 )


      isym = 40     inv.  90 deg rotation - cart. axis [1,0,0]   

 cryst.   s(40) = (     0         -1          1      )
                  (     1         -1          0      )
                  (     0         -1          0      )

 cart.    s(40) = ( -1.0000000  0.0000000  0.0000000 )
                  (  0.0000000  0.0000000  1.0000000 )
                  (  0.0000000 -1.0000000  0.0000000 )


      isym = 41     inv. 120 deg rotation - cart. axis [-1,-1,-1]

 cryst.   s(41) = (     0          0         -1      )    f =( -0.2500000 )
                  (    -1          0          0      )       ( -0.2500000 )
                  (     0         -1          0      )       ( -0.2500000 )

 cart.    s(41) = (  0.0000000 -1.0000000  0.0000000 )    f =( -0.3535534 )
                  (  0.0000000  0.0000000 -1.0000000 )       ( -0.3535534 )
                  ( -1.0000000  0.0000000  0.0000000 )       ( -0.3535534 )


      isym = 42     inv. 120 deg rotation - cart. axis [-1,1,1]  

 cryst.   s(42) = (    -1          1          0      )    f =( -0.2500000 )
                  (     0          1         -1      )       ( -0.2500000 )
                  (     0          1          0      )       ( -0.2500000 )

 cart.    s(42) = (  0.0000000  1.0000000  0.0000000 )    f =( -0.3535534 )
                  (  0.0000000  0.0000000 -1.0000000 )       ( -0.3535534 )
                  (  1.0000000  0.0000000  0.0000000 )       ( -0.3535534 )


      isym = 43     inv. 120 deg rotation - cart. axis [1,1,-1]  

 cryst.   s(43) = (     1         -1          0      )    f =( -0.2500000 )
                  (     1          0          0      )       ( -0.2500000 )
                  (     1          0         -1      )       ( -0.2500000 )

 cart.    s(43) = (  0.0000000 -1.0000000  0.0000000 )    f =( -0.3535534 )
                  (  0.0000000  0.0000000  1.0000000 )       ( -0.3535534 )
                  (  1.0000000  0.0000000  0.0000000 )       ( -0.3535534 )


      isym = 44     inv. 120 deg rotation - cart. axis [1,-1,1]  

 cryst.   s(44) = (     0          0          1      )    f =( -0.2500000 )
                  (     0         -1          1      )       ( -0.2500000 )
                  (    -1          0          1      )       ( -0.2500000 )

 cart.    s(44) = (  0.0000000  1.0000000  0.0000000 )    f =( -0.3535534 )
                  (  0.0000000  0.0000000  1.0000000 )       ( -0.3535534 )
                  ( -1.0000000  0.0000000  0.0000000 )       ( -0.3535534 )


      isym = 45     inv. 120 deg rotation - cart. axis [1,1,1]   

 cryst.   s(45) = (     0         -1          0      )    f =( -0.2500000 )
                  (     0          0         -1      )       ( -0.2500000 )
                  (    -1          0          0      )       ( -0.2500000 )

 cart.    s(45) = (  0.0000000  0.0000000 -1.0000000 )    f =( -0.3535534 )
                  ( -1.0000000  0.0000000  0.0000000 )       ( -0.3535534 )
                  (  0.0000000 -1.0000000  0.0000000 )       ( -0.3535534 )


      isym = 46     inv. 120 deg rotation - cart. axis [-1,1,-1] 

 cryst.   s(46) = (     1          0         -1      )    f =( -0.2500000 )
                  (     1         -1          0      )       ( -0.2500000 )
                  (     1          0          0      )       ( -0.2500000 )

 cart.    s(46) = (  0.0000000  0.0000000 -1.0000000 )    f =( -0.3535534 )
                  (  1.0000000  0.0000000  0.0000000 )       ( -0.3535534 )
                  (  0.0000000  1.0000000  0.0000000 )       ( -0.3535534 )


      isym = 47     inv. 120 deg rotation - cart. axis [1,-1,-1] 

 cryst.   s(47) = (    -1          0          1      )    f =( -0.2500000 )
                  (     0          0          1      )       ( -0.2500000 )
                  (     0         -1          1      )       ( -0.2500000 )

 cart.    s(47) = (  0.0000000  0.0000000  1.0000000 )    f =( -0.3535534 )
                  (  1.0000000  0.0000000  0.0000000 )       ( -0.3535534 )
                  (  0.0000000 -1.0000000  0.0000000 )       ( -0.3535534 )


      isym = 48     inv. 120 deg rotation - cart. axis [-1,-1,1] 

 cryst.   s(48) = (     0          1          0      )    f =( -0.2500000 )
                  (    -1          1          0      )       ( -0.2500000 )
                  (     0          1         -1      )       ( -0.2500000 )

 cart.    s(48) = (  0.0000000  0.0000000  1.0000000 )    f =( -0.3535534 )
                  ( -1.0000000  0.0000000  0.0000000 )       ( -0.3535534 )
                  (  0.0000000  1.0000000  0.0000000 )       ( -0.3535534 )


   Cartesian axes

     site n.     atom                  positions (alat units)
         1           Sn  tau(   1) = (   0.0000000   0.0000000   0.0000000  )
         2           Sn  tau(   2) = (   0.3535534   0.3535534   0.3535534  )

   Crystallographic axes

     site n.     atom                  positions (cryst. coord.)
         1           Sn  tau(   1) = (  0.0000000  0.0000000  0.0000000  )
         2           Sn  tau(   2) = (  0.2500000  0.2500000  0.2500000  )

     number of k points=   120  gaussian smearing, width (Ry)=  0.0100
                       cart. coord. in units 2pi/alat
        k(    1) = (   0.0000000   0.0000000   0.0000000), wk =   0.0005926
        k(    2) = (   0.0471405   0.0471405  -0.0471405), wk =   0.0047407
        k(    3) = (   0.0942809   0.0942809  -0.0942809), wk =   0.0047407
        k(    4) = (   0.1414214   0.1414214  -0.1414214), wk =   0.0047407
        k(    5) = (   0.1885618   0.1885618  -0.1885618), wk =   0.0047407
        k(    6) = (   0.2357023   0.2357023  -0.2357023), wk =   0.0047407
        k(    7) = (   0.2828427   0.2828427  -0.2828427), wk =   0.0047407
        k(    8) = (   0.3299832   0.3299832  -0.3299832), wk =   0.0047407
        k(    9) = (   0.0942809   0.0000000   0.0000000), wk =   0.0035556
        k(   10) = (   0.1414214   0.0471405  -0.0471405), wk =   0.0142222
        k(   11) = (   0.1885618   0.0942809  -0.0942809), wk =   0.0142222
        k(   12) = (   0.2357023   0.1414214  -0.1414214), wk =   0.0142222
        k(   13) = (   0.2828427   0.1885618  -0.1885618), wk =   0.0142222
        k(   14) = (   0.3299832   0.2357023  -0.2357023), wk =   0.0142222
        k(   15) = (   0.3771236   0.2828427  -0.2828427), wk =   0.0142222
        k(   16) = (  -0.2828427  -0.3771236   0.3771236), wk =   0.0142222
        k(   17) = (  -0.2357023  -0.3299832   0.3299832), wk =   0.0142222
        k(   18) = (  -0.1885618  -0.2828427   0.2828427), wk =   0.0142222
        k(   19) = (  -0.1414214  -0.2357023   0.2357023), wk =   0.0142222
        k(   20) = (  -0.0942809  -0.1885618   0.1885618), wk =   0.0142222
        k(   21) = (  -0.0471405  -0.1414214   0.1414214), wk =   0.0142222
        k(   22) = (   0.0000000  -0.0942809   0.0942809), wk =   0.0071111
        k(   23) = (   0.1885618   0.0000000   0.0000000), wk =   0.0035556
        k(   24) = (   0.2357023   0.0471405  -0.0471405), wk =   0.0142222
        k(   25) = (   0.2828427   0.0942809  -0.0942809), wk =   0.0142222
        k(   26) = (   0.3299832   0.1414214  -0.1414214), wk =   0.0142222
        k(   27) = (   0.3771236   0.1885618  -0.1885618), wk =   0.0142222
        k(   28) = (   0.4242641   0.2357023  -0.2357023), wk =   0.0142222
        k(   29) = (  -0.2357023  -0.4242641   0.4242641), wk =   0.0142222
        k(   30) = (  -0.1885618  -0.3771236   0.3771236), wk =   0.0142222
        k(   31) = (  -0.1414214  -0.3299832   0.3299832), wk =   0.0142222
        k(   32) = (  -0.0942809  -0.2828427   0.2828427), wk =   0.0142222
        k(   33) = (  -0.0471405  -0.2357023   0.2357023), wk =   0.0142222
        k(   34) = (   0.0000000  -0.1885618   0.1885618), wk =   0.0071111
        k(   35) = (   0.2828427   0.0000000   0.0000000), wk =   0.0035556
        k(   36) = (   0.3299832   0.0471405  -0.0471405), wk =   0.0142222
        k(   37) = (   0.3771236   0.0942809  -0.0942809), wk =   0.0142222
        k(   38) = (   0.4242641   0.1414214  -0.1414214), wk =   0.0142222
        k(   39) = (   0.4714045   0.1885618  -0.1885618), wk =   0.0142222
        k(   40) = (  -0.1885618  -0.4714045   0.4714045), wk =   0.0142222
        k(   41) = (  -0.1414214  -0.4242641   0.4242641), wk =   0.0142222
        k(   42) = (  -0.0942809  -0.3771236   0.3771236), wk =   0.0142222
        k(   43) = (  -0.0471405  -0.3299832   0.3299832), wk =   0.0142222
        k(   44) = (   0.0000000  -0.2828427   0.2828427), wk =   0.0071111
        k(   45) = (   0.3771236   0.0000000   0.0000000), wk =   0.0035556
        k(   46) = (   0.4242641   0.0471405  -0.0471405), wk =   0.0142222
        k(   47) = (   0.4714045   0.0942809  -0.0942809), wk =   0.0142222
        k(   48) = (   0.5185450   0.1414214  -0.1414214), wk =   0.0142222
        k(   49) = (  -0.1414214  -0.5185450   0.5185450), wk =   0.0142222
        k(   50) = (  -0.0942809  -0.4714045   0.4714045), wk =   0.0142222
        k(   51) = (  -0.0471405  -0.4242641   0.4242641), wk =   0.0142222
        k(   52) = (  -0.0000000  -0.3771236   0.3771236), wk =   0.0071111
        k(   53) = (   0.4714045   0.0000000   0.0000000), wk =   0.0035556
        k(   54) = (   0.5185450   0.0471405  -0.0471405), wk =   0.0142222
        k(   55) = (   0.5656854   0.0942809  -0.0942809), wk =   0.0142222
        k(   56) = (  -0.0942809  -0.5656854   0.5656854), wk =   0.0142222
        k(   57) = (  -0.0471405  -0.5185450   0.5185450), wk =   0.0142222
        k(   58) = (  -0.0000000  -0.4714045   0.4714045), wk =   0.0071111
        k(   59) = (   0.5656854   0.0000000   0.0000000), wk =   0.0035556
        k(   60) = (   0.6128259   0.0471405  -0.0471405), wk =   0.0142222
        k(   61) = (  -0.0471405  -0.6128259   0.6128259), wk =   0.0142222
        k(   62) = (   0.0000000  -0.5656854   0.5656854), wk =   0.0071111
        k(   63) = (   0.6599663   0.0000000   0.0000000), wk =   0.0035556
        k(   64) = (   0.0000000  -0.6599663   0.6599663), wk =   0.0071111
        k(   65) = (   0.1885618   0.0942809  -0.0000000), wk =   0.0142222
        k(   66) = (   0.2357023   0.1414214  -0.0471405), wk =   0.0284444
        k(   67) = (   0.2828427   0.1885618  -0.0942809), wk =   0.0284444
        k(   68) = (   0.3299832   0.2357023  -0.1414214), wk =   0.0284444
        k(   69) = (   0.3771236   0.2828427  -0.1885618), wk =   0.0284444
        k(   70) = (  -0.2828427  -0.3771236   0.4714045), wk =   0.0284444
        k(   71) = (   0.2828427   0.0942809   0.0000000), wk =   0.0142222
        k(   72) = (   0.3299832   0.1414214  -0.0471405), wk =   0.0284444
        k(   73) = (   0.3771236   0.1885618  -0.0942809), wk =   0.0284444
        k(   74) = (   0.4242641   0.2357023  -0.1414214), wk =   0.0284444
        k(   75) = (  -0.2357023  -0.4242641   0.5185450), wk =   0.0284444
        k(   76) = (  -0.1885618  -0.3771236   0.4714045), wk =   0.0284444
        k(   77) = (  -0.1414214  -0.3299832   0.4242641), wk =   0.0284444
        k(   78) = (  -0.0942809  -0.2828427   0.3771236), wk =   0.0284444
        k(   79) = (  -0.0471405  -0.2357023   0.3299832), wk =   0.0284444
        k(   80) = (   0.0000000  -0.1885618   0.2828427), wk =   0.0142222
        k(   81) = (   0.3771236   0.0942809   0.0000000), wk =   0.0142222
        k(   82) = (   0.4242641   0.1414214  -0.0471405), wk =   0.0284444
        k(   83) = (   0.4714045   0.1885618  -0.0942809), wk =   0.0284444
        k(   84) = (  -0.1885618  -0.4714045   0.5656854), wk =   0.0284444
        k(   85) = (  -0.1414214  -0.4242641   0.5185450), wk =   0.0284444
        k(   86) = (  -0.0942809  -0.3771236   0.4714045), wk =   0.0284444
        k(   87) = (  -0.0471405  -0.3299832   0.4242641), wk =   0.0284444
        k(   88) = (   0.0000000  -0.2828427   0.3771236), wk =   0.0142222
        k(   89) = (   0.4714045   0.0942809  -0.0000000), wk =   0.0142222
        k(   90) = (   0.5185450   0.1414214  -0.0471405), wk =   0.0284444
        k(   91) = (  -0.1414214  -0.5185450   0.6128259), wk =   0.0284444
        k(   92) = (  -0.0942809  -0.4714045   0.5656854), wk =   0.0284444
        k(   93) = (  -0.0471405  -0.4242641   0.5185450), wk =   0.0284444
        k(   94) = (  -0.0000000  -0.3771236   0.4714045), wk =   0.0142222
        k(   95) = (   0.5656854   0.0942809   0.0000000), wk =   0.0142222
        k(   96) = (  -0.0942809  -0.5656854   0.6599663), wk =   0.0284444
        k(   97) = (  -0.0471405  -0.5185450   0.6128259), wk =   0.0284444
        k(   98) = (   0.0000000  -0.4714045   0.5656854), wk =   0.0142222
        k(   99) = (  -0.0471405  -0.6128259   0.7071068), wk =   0.0142222
        k(  100) = (   0.0000000  -0.5656854   0.6599663), wk =   0.0142222
        k(  101) = (   0.3771236   0.1885618  -0.0000000), wk =   0.0142222
        k(  102) = (   0.4242641   0.2357023  -0.0471405), wk =   0.0284444
        k(  103) = (  -0.2357023  -0.4242641   0.6128259), wk =   0.0284444
        k(  104) = (  -0.1885618  -0.3771236   0.5656854), wk =   0.0284444
        k(  105) = (   0.4714045   0.1885618  -0.0000000), wk =   0.0142222
        k(  106) = (  -0.1885618  -0.4714045   0.6599663), wk =   0.0284444
        k(  107) = (  -0.1414214  -0.4242641   0.6128259), wk =   0.0284444
        k(  108) = (  -0.0942809  -0.3771236   0.5656854), wk =   0.0284444
        k(  109) = (  -0.0471405  -0.3299832   0.5185450), wk =   0.0284444
        k(  110) = (   0.0000000  -0.2828427   0.4714045), wk =   0.0142222
        k(  111) = (  -0.1414214  -0.5185450   0.7071068), wk =   0.0142222
        k(  112) = (  -0.0942809  -0.4714045   0.6599663), wk =   0.0284444
        k(  113) = (  -0.0471405  -0.4242641   0.6128259), wk =   0.0284444
        k(  114) = (   0.0000000  -0.3771236   0.5656854), wk =   0.0142222
        k(  115) = (  -0.0471405  -0.5185450   0.7071068), wk =   0.0142222
        k(  116) = (   0.0000000  -0.4714045   0.6599663), wk =   0.0142222
        k(  117) = (  -0.1414214  -0.4242641   0.7071068), wk =   0.0142222
        k(  118) = (  -0.0942809  -0.3771236   0.6599663), wk =   0.0284444
        k(  119) = (  -0.0471405  -0.4242641   0.7071068), wk =   0.0142222
        k(  120) = (  -0.0000000  -0.3771236   0.6599663), wk =   0.0142222

                       cryst. coord.
        k(    1) = (   0.0000000   0.0000000   0.0000000), wk =   0.0005926
        k(    2) = (   0.0000000   0.0000000   0.0666667), wk =   0.0047407
        k(    3) = (   0.0000000   0.0000000   0.1333333), wk =   0.0047407
        k(    4) = (   0.0000000   0.0000000   0.2000000), wk =   0.0047407
        k(    5) = (   0.0000000   0.0000000   0.2666667), wk =   0.0047407
        k(    6) = (   0.0000000   0.0000000   0.3333333), wk =   0.0047407
        k(    7) = (   0.0000000   0.0000000   0.4000000), wk =   0.0047407
        k(    8) = (   0.0000000   0.0000000   0.4666667), wk =   0.0047407
        k(    9) = (   0.0000000   0.0666667   0.0666667), wk =   0.0035556
        k(   10) = (   0.0000000   0.0666667   0.1333333), wk =   0.0142222
        k(   11) = (   0.0000000   0.0666667   0.2000000), wk =   0.0142222
        k(   12) = (   0.0000000   0.0666667   0.2666667), wk =   0.0142222
        k(   13) = (   0.0000000   0.0666667   0.3333333), wk =   0.0142222
        k(   14) = (   0.0000000   0.0666667   0.4000000), wk =   0.0142222
        k(   15) = (   0.0000000   0.0666667   0.4666667), wk =   0.0142222
        k(   16) = (   0.0000000   0.0666667  -0.4666667), wk =   0.0142222
        k(   17) = (   0.0000000   0.0666667  -0.4000000), wk =   0.0142222
        k(   18) = (   0.0000000   0.0666667  -0.3333333), wk =   0.0142222
        k(   19) = (   0.0000000   0.0666667  -0.2666667), wk =   0.0142222
        k(   20) = (   0.0000000   0.0666667  -0.2000000), wk =   0.0142222
        k(   21) = (   0.0000000   0.0666667  -0.1333333), wk =   0.0142222
        k(   22) = (   0.0000000   0.0666667  -0.0666667), wk =   0.0071111
        k(   23) = (   0.0000000   0.1333333   0.1333333), wk =   0.0035556
        k(   24) = (   0.0000000   0.1333333   0.2000000), wk =   0.0142222
        k(   25) = (   0.0000000   0.1333333   0.2666667), wk =   0.0142222
        k(   26) = (   0.0000000   0.1333333   0.3333333), wk =   0.0142222
        k(   27) = (   0.0000000   0.1333333   0.4000000), wk =   0.0142222
        k(   28) = (   0.0000000   0.1333333   0.4666667), wk =   0.0142222
        k(   29) = (   0.0000000   0.1333333  -0.4666667), wk =   0.0142222
        k(   30) = (   0.0000000   0.1333333  -0.4000000), wk =   0.0142222
        k(   31) = (   0.0000000   0.1333333  -0.3333333), wk =   0.0142222
        k(   32) = (   0.0000000   0.1333333  -0.2666667), wk =   0.0142222
        k(   33) = (   0.0000000   0.1333333  -0.2000000), wk =   0.0142222
        k(   34) = (   0.0000000   0.1333333  -0.1333333), wk =   0.0071111
        k(   35) = (   0.0000000   0.2000000   0.2000000), wk =   0.0035556
        k(   36) = (   0.0000000   0.2000000   0.2666667), wk =   0.0142222
        k(   37) = (   0.0000000   0.2000000   0.3333333), wk =   0.0142222
        k(   38) = (   0.0000000   0.2000000   0.4000000), wk =   0.0142222
        k(   39) = (   0.0000000   0.2000000   0.4666667), wk =   0.0142222
        k(   40) = (   0.0000000   0.2000000  -0.4666667), wk =   0.0142222
        k(   41) = (   0.0000000   0.2000000  -0.4000000), wk =   0.0142222
        k(   42) = (   0.0000000   0.2000000  -0.3333333), wk =   0.0142222
        k(   43) = (   0.0000000   0.2000000  -0.2666667), wk =   0.0142222
        k(   44) = (   0.0000000   0.2000000  -0.2000000), wk =   0.0071111
        k(   45) = (   0.0000000   0.2666667   0.2666667), wk =   0.0035556
        k(   46) = (   0.0000000   0.2666667   0.3333333), wk =   0.0142222
        k(   47) = (   0.0000000   0.2666667   0.4000000), wk =   0.0142222
        k(   48) = (   0.0000000   0.2666667   0.4666667), wk =   0.0142222
        k(   49) = (   0.0000000   0.2666667  -0.4666667), wk =   0.0142222
        k(   50) = (   0.0000000   0.2666667  -0.4000000), wk =   0.0142222
        k(   51) = (   0.0000000   0.2666667  -0.3333333), wk =   0.0142222
        k(   52) = (   0.0000000   0.2666667  -0.2666667), wk =   0.0071111
        k(   53) = (   0.0000000   0.3333333   0.3333333), wk =   0.0035556
        k(   54) = (   0.0000000   0.3333333   0.4000000), wk =   0.0142222
        k(   55) = (   0.0000000   0.3333333   0.4666667), wk =   0.0142222
        k(   56) = (   0.0000000   0.3333333  -0.4666667), wk =   0.0142222
        k(   57) = (   0.0000000   0.3333333  -0.4000000), wk =   0.0142222
        k(   58) = (   0.0000000   0.3333333  -0.3333333), wk =   0.0071111
        k(   59) = (   0.0000000   0.4000000   0.4000000), wk =   0.0035556
        k(   60) = (   0.0000000   0.4000000   0.4666667), wk =   0.0142222
        k(   61) = (   0.0000000   0.4000000  -0.4666667), wk =   0.0142222
        k(   62) = (   0.0000000   0.4000000  -0.4000000), wk =   0.0071111
        k(   63) = (   0.0000000   0.4666667   0.4666667), wk =   0.0035556
        k(   64) = (   0.0000000   0.4666667  -0.4666667), wk =   0.0071111
        k(   65) = (   0.0666667   0.1333333   0.2000000), wk =   0.0142222
        k(   66) = (   0.0666667   0.1333333   0.2666667), wk =   0.0284444
        k(   67) = (   0.0666667   0.1333333   0.3333333), wk =   0.0284444
        k(   68) = (   0.0666667   0.1333333   0.4000000), wk =   0.0284444
        k(   69) = (   0.0666667   0.1333333   0.4666667), wk =   0.0284444
        k(   70) = (   0.0666667   0.1333333  -0.4666667), wk =   0.0284444
        k(   71) = (   0.0666667   0.2000000   0.2666667), wk =   0.0142222
        k(   72) = (   0.0666667   0.2000000   0.3333333), wk =   0.0284444
        k(   73) = (   0.0666667   0.2000000   0.4000000), wk =   0.0284444
        k(   74) = (   0.0666667   0.2000000   0.4666667), wk =   0.0284444
        k(   75) = (   0.0666667   0.2000000  -0.4666667), wk =   0.0284444
        k(   76) = (   0.0666667   0.2000000  -0.4000000), wk =   0.0284444
        k(   77) = (   0.0666667   0.2000000  -0.3333333), wk =   0.0284444
        k(   78) = (   0.0666667   0.2000000  -0.2666667), wk =   0.0284444
        k(   79) = (   0.0666667   0.2000000  -0.2000000), wk =   0.0284444
        k(   80) = (   0.0666667   0.2000000  -0.1333333), wk =   0.0142222
        k(   81) = (   0.0666667   0.2666667   0.3333333), wk =   0.0142222
        k(   82) = (   0.0666667   0.2666667   0.4000000), wk =   0.0284444
        k(   83) = (   0.0666667   0.2666667   0.4666667), wk =   0.0284444
        k(   84) = (   0.0666667   0.2666667  -0.4666667), wk =   0.0284444
        k(   85) = (   0.0666667   0.2666667  -0.4000000), wk =   0.0284444
        k(   86) = (   0.0666667   0.2666667  -0.3333333), wk =   0.0284444
        k(   87) = (   0.0666667   0.2666667  -0.2666667), wk =   0.0284444
        k(   88) = (   0.0666667   0.2666667  -0.2000000), wk =   0.0142222
        k(   89) = (   0.0666667   0.3333333   0.4000000), wk =   0.0142222
        k(   90) = (   0.0666667   0.3333333   0.4666667), wk =   0.0284444
        k(   91) = (   0.0666667   0.3333333  -0.4666667), wk =   0.0284444
        k(   92) = (   0.0666667   0.3333333  -0.4000000), wk =   0.0284444
        k(   93) = (   0.0666667   0.3333333  -0.3333333), wk =   0.0284444
        k(   94) = (   0.0666667   0.3333333  -0.2666667), wk =   0.0142222
        k(   95) = (   0.0666667   0.4000000   0.4666667), wk =   0.0142222
        k(   96) = (   0.0666667   0.4000000  -0.4666667), wk =   0.0284444
        k(   97) = (   0.0666667   0.4000000  -0.4000000), wk =   0.0284444
        k(   98) = (   0.0666667   0.4000000  -0.3333333), wk =   0.0142222
        k(   99) = (   0.0666667   0.4666667  -0.4666667), wk =   0.0142222
        k(  100) = (   0.0666667   0.4666667  -0.4000000), wk =   0.0142222
        k(  101) = (   0.1333333   0.2666667   0.4000000), wk =   0.0142222
        k(  102) = (   0.1333333   0.2666667   0.4666667), wk =   0.0284444
        k(  103) = (   0.1333333   0.2666667  -0.4666667), wk =   0.0284444
        k(  104) = (   0.1333333   0.2666667  -0.4000000), wk =   0.0284444
        k(  105) = (   0.1333333   0.3333333   0.4666667), wk =   0.0142222
        k(  106) = (   0.1333333   0.3333333  -0.4666667), wk =   0.0284444
        k(  107) = (   0.1333333   0.3333333  -0.4000000), wk =   0.0284444
        k(  108) = (   0.1333333   0.3333333  -0.3333333), wk =   0.0284444
        k(  109) = (   0.1333333   0.3333333  -0.2666667), wk =   0.0284444
        k(  110) = (   0.1333333   0.3333333  -0.2000000), wk =   0.0142222
        k(  111) = (   0.1333333   0.4000000  -0.4666667), wk =   0.0142222
        k(  112) = (   0.1333333   0.4000000  -0.4000000), wk =   0.0284444
        k(  113) = (   0.1333333   0.4000000  -0.3333333), wk =   0.0284444
        k(  114) = (   0.1333333   0.4000000  -0.2666667), wk =   0.0142222
        k(  115) = (   0.1333333   0.4666667  -0.4000000), wk =   0.0142222
        k(  116) = (   0.1333333   0.4666667  -0.3333333), wk =   0.0142222
        k(  117) = (   0.2000000   0.4000000  -0.4000000), wk =   0.0142222
        k(  118) = (   0.2000000   0.4000000  -0.3333333), wk =   0.0284444
        k(  119) = (   0.2000000   0.4666667  -0.3333333), wk =   0.0142222
        k(  120) = (   0.2000000   0.4666667  -0.2666667), wk =   0.0142222

     Dense  grid:    67337 G-vectors     FFT dimensions: (  60,  60,  60)

     Largest allocated arrays     est. size (Mb)     dimensions
        Kohn-Sham Wavefunctions         0.15 Mb     (     536,   18)
        NL pseudopotentials             0.29 Mb     (     536,   36)
        Each V/rho on FFT grid          0.22 Mb     (   14400)
        Each G-vector array             0.03 Mb     (    4210)
        G-vector shells                 0.00 Mb     (     508)
     Largest temporary arrays     est. size (Mb)     dimensions
        Auxiliary wavefunctions         0.59 Mb     (     536,   72)
        Each subspace H/S matrix        0.08 Mb     (      72,   72)
        Each <psi_i|beta_j> matrix      0.01 Mb     (      36,   18)
        Arrays for rho mixing           1.76 Mb     (   14400,    8)

     Initial potential from superposition of free atoms

     starting charge   27.82674, renormalised to   28.00000
     Starting wfc are random

     total cpu time spent up to now is        2.0 secs

     Self-consistent Calculation

     iteration #  1     ecut=   100.00 Ry     beta=0.70
     Davidson diagonalization with overlap
     ethr =  1.00E-02,  avg # of iterations =  7.5

     Threshold (ethr) on eigenvalues was too large:
     Diagonalizing with lowered threshold

     Davidson diagonalization with overlap
     ethr =  1.17E-04,  avg # of iterations =  6.1

     total cpu time spent up to now is       18.7 secs

     total energy              =    -256.21714326 Ry
     Harris-Foulkes estimate   =    -256.22999634 Ry
     estimated scf accuracy    <       0.03200497 Ry

     iteration #  2     ecut=   100.00 Ry     beta=0.70
     Davidson diagonalization with overlap
     ethr =  1.14E-04,  avg # of iterations =  2.0

     total cpu time spent up to now is       22.6 secs

     total energy              =    -256.22160813 Ry
     Harris-Foulkes estimate   =    -256.22184428 Ry
     estimated scf accuracy    <       0.00184007 Ry

     iteration #  3     ecut=   100.00 Ry     beta=0.70
     Davidson diagonalization with overlap
     ethr =  6.57E-06,  avg # of iterations =  2.7

     total cpu time spent up to now is       26.2 secs

     total energy              =    -256.22178248 Ry
     Harris-Foulkes estimate   =    -256.22176331 Ry
     estimated scf accuracy    <       0.00010999 Ry

     iteration #  4     ecut=   100.00 Ry     beta=0.70
     Davidson diagonalization with overlap
     ethr =  3.93E-07,  avg # of iterations =  2.6

     total cpu time spent up to now is       29.7 secs

     End of self-consistent calculation

          k = 0.0000 0.0000 0.0000 (  8393 PWs)   bands (ev):

   -14.0578 -14.0578 -14.0578 -14.0085 -14.0085 -13.7584 -13.7584 -13.7584
   -13.7573 -13.7573  -2.5781   6.3614   7.6170   7.6170   7.6170   9.4141
     9.4149   9.6831

     occupation numbers 
     1.0000   1.0000   1.0000   1.0000   1.0000   1.0000   1.0000   1.0000
     1.0000   1.0000   1.0000   1.0000   0.1910   0.1910   0.1910   0.0000
     0.0000   0.0000

          k = 0.0471 0.0471-0.0471 (  8432 PWs)   bands (ev):

   -14.0607 -14.0607 -14.0568 -14.0046 -14.0046 -13.7693 -13.7693 -13.7595
   -13.7471 -13.7471  -2.5383   5.9135   7.5348   7.5348   7.8207   9.4141
     9.4149   9.7907

     occupation numbers 
     1.0000   1.0000   1.0000   1.0000   1.0000   1.0000   1.0000   1.0000
     1.0000   1.0000   1.0000   1.0000   0.4920   0.4920   0.0014   0.0000
     0.0000   0.0000

          k = 0.0943 0.0943-0.0943 (  8411 PWs)   bands (ev):

   -14.0671 -14.0671 -14.0542 -13.9953 -13.9953 -13.7806 -13.7806 -13.7627
   -13.7375 -13.7375  -2.4202   5.0803   7.3382   7.3382   7.9378   9.4148
    10.0484  10.0499

     occupation numbers 
     1.0000   1.0000   1.0000   1.0000   1.0000   1.0000   1.0000   1.0000
     1.0000   1.0000   1.0000   1.0000   0.9785   0.9785   0.0000   0.0000
     0.0000   0.0000

          k = 0.1414 0.1414-0.1414 (  8399 PWs)   bands (ev):

   -14.0739 -14.0739 -14.0502 -13.9846 -13.9846 -13.7910 -13.7910 -13.7675
   -13.7296 -13.7296  -2.2276   4.1890   7.1075   7.1075   7.8480   9.4142
     9.4148  10.3416

     occupation numbers 
     1.0000   1.0000   1.0000   1.0000   1.0000   1.0000   1.0000   1.0000
     1.0000   1.0000   1.0000   1.0000   1.0000   1.0000   0.0005   0.0000
     0.0000   0.0000

          k = 0.1886 0.1886-0.1886 (  8405 PWs)   bands (ev):

   -14.0795 -14.0795 -14.0455 -13.9748 -13.9748 -13.7995 -13.7995 -13.7731
   -13.7235 -13.7235  -1.9693   3.3309   6.8927   6.8927   7.6928   9.4142
     9.4148  10.5670

     occupation numbers 
     1.0000   1.0000   1.0000   1.0000   1.0000   1.0000   1.0000   1.0000
     1.0000   1.0000   1.0000   1.0000   1.0000   1.0000   0.0482   0.0000
     0.0000   0.0000

          k = 0.2357 0.2357-0.2357 (  8423 PWs)   bands (ev):

   -14.0834 -14.0834 -14.0408 -13.9673 -13.9673 -13.8058 -13.8058 -13.7786
   -13.7192 -13.7192  -1.6645   2.5583   6.7189   6.7189   7.5481   9.4142
     9.4148  10.6858

     occupation numbers 
     1.0000   1.0000   1.0000   1.0000   1.0000   1.0000   1.0000   1.0000
     1.0000   1.0000   1.0000   1.0000   1.0000   1.0000   0.4373   0.0000
     0.0000   0.0000

          k = 0.2828 0.2828-0.2828 (  8438 PWs)   bands (ev):

   -14.0859 -14.0859 -14.0371 -13.9624 -13.9624 -13.8095 -13.8095 -13.7830
   -13.7165 -13.7165  -1.3567   1.9316   6.5983   6.5983   7.4429   9.4143
     9.4147  10.7235

     occupation numbers 
     1.0000   1.0000   1.0000   1.0000   1.0000   1.0000   1.0000   1.0000
     1.0000   1.0000   1.0000   1.0000   1.0000   1.0000   0.8251   0.0000
     0.0000   0.0000

          k = 0.3300 0.3300-0.3300 (  8424 PWs)   bands (ev):

   -14.0870 -14.0870 -14.0350 -13.9601 -13.9601 -13.8113 -13.8113 -13.7854
   -13.7152 -13.7152  -1.1400   1.5534   6.5368   6.5368   7.3885   9.4142
     9.4147  10.7277

     occupation numbers 
     1.0000   1.0000   1.0000   1.0000   1.0000   1.0000   1.0000   1.0000
     1.0000   1.0000   1.0000   1.0000   1.0000   1.0000   0.9333   0.0000
     0.0000   0.0000

          k = 0.0943 0.0000 0.0000 (  8444 PWs)   bands (ev):

   -14.0602 -14.0599 -14.0599 -14.0057 -14.0005 -13.7794 -13.7599 -13.7555
   -13.7555 -13.7427  -2.5250   5.8278   7.3859   7.3859   8.1281   9.4137
     9.4150   9.5190

     occupation numbers 
     1.0000   1.0000   1.0000   1.0000   1.0000   1.0000   1.0000   1.0000
     1.0000   1.0000   1.0000   1.0000   0.9367   0.9367   0.0000   0.0000
     0.0000   0.0000

          k = 0.1414 0.0471-0.0471 (  8423 PWs)   bands (ev):

   -14.0670 -14.0641 -14.0573 -13.9998 -13.9910 -13.7917 -13.7698 -13.7558
   -13.7462 -13.7354  -2.4327   5.2109   7.1582   7.1887   8.3893   9.4135
     9.4151   9.5234

     occupation numbers 
     1.0000   1.0000   1.0000   1.0000   1.0000   1.0000   1.0000   1.0000
     1.0000   1.0000   1.0000   1.0000   1.0000   0.9998   0.0000   0.0000
     0.0000   0.0000

          k = 0.1886 0.0943-0.0943 (  8408 PWs)   bands (ev):

   -14.0749 -14.0704 -14.0526 -13.9904 -13.9796 -13.8031 -13.7806 -13.7605
   -13.7369 -13.7272  -2.2643   4.3982   6.9220   6.9472   8.3827   9.4140
     9.4150   9.7842

     occupation numbers 
     1.0000   1.0000   1.0000   1.0000   1.0000   1.0000   1.0000   1.0000
     1.0000   1.0000   1.0000   1.0000   1.0000   1.0000   0.0000   0.0000
     0.0000   0.0000

          k = 0.2357 0.1414-0.1414 (  8385 PWs)   bands (ev):

   -14.0818 -14.0763 -14.0466 -13.9805 -13.9691 -13.8122 -13.7904 -13.7675
   -13.7292 -13.7201  -2.0266   3.5605   6.6877   6.7172   8.2464   9.4141
     9.4149  10.1206

     occupation numbers 
     1.0000   1.0000   1.0000   1.0000   1.0000   1.0000   1.0000   1.0000
     1.0000   1.0000   1.0000   1.0000   1.0000   1.0000   0.0000   0.0000
     0.0000   0.0000

          k = 0.2828 0.1886-0.1886 (  8416 PWs)   bands (ev):

   -14.0871 -14.0812 -14.0400 -13.9716 -13.9611 -13.8180 -13.7989 -13.7754
   -13.7231 -13.7147  -1.7340   2.7747   6.4530   6.5634   8.0916   9.4142
     9.4148  10.3774

     occupation numbers 
     1.0000   1.0000   1.0000   1.0000   1.0000   1.0000   1.0000   1.0000
     1.0000   1.0000   1.0000   1.0000   1.0000   1.0000   0.0000   0.0000
     0.0000   0.0000

          k = 0.3300 0.2357-0.2357 (  8427 PWs)   bands (ev):

   -14.0905 -14.0848 -14.0340 -13.9645 -13.9567 -13.8199 -13.8058 -13.7831
   -13.7185 -13.7112  -1.4194   2.1021   6.2652   6.4702   7.9634   9.4142
     9.4148  10.5203

     occupation numbers 
     1.0000   1.0000   1.0000   1.0000   1.0000   1.0000   1.0000   1.0000
     1.0000   1.0000   1.0000   1.0000   1.0000   1.0000   0.0000   0.0000
     0.0000   0.0000

          k = 0.3771 0.2828-0.2828 (  8426 PWs)   bands (ev):

   -14.0921 -14.0872 -14.0298 -13.9593 -13.9559 -13.8181 -13.8113 -13.7890
   -13.7153 -13.7098  -1.1571   1.6313   6.1353   6.4414   7.8796   9.4142
     9.4148  10.6001

     occupation numbers 
     1.0000   1.0000   1.0000   1.0000   1.0000   1.0000   1.0000   1.0000
     1.0000   1.0000   1.0000   1.0000   1.0000   1.0000   0.0002   0.0000
     0.0000   0.0000

          k =-0.2828-0.3771 0.3771 (  8413 PWs)   bands (ev):

   -14.0920 -14.0885 -14.0283 -13.9579 -13.9561 -13.8153 -13.8139 -13.7918
   -13.7133 -13.7103  -1.0748   1.4966   6.0691   6.4775   7.8476   9.4143
     9.4148  10.6666

     occupation numbers 
     1.0000   1.0000   1.0000   1.0000   1.0000   1.0000   1.0000   1.0000
     1.0000   1.0000   1.0000   1.0000   1.0000   1.0000   0.0005   0.0000
     0.0000   0.0000

          k =-0.2357-0.3300 0.3300 (  8430 PWs)   bands (ev):

   -14.0902 -14.0886 -14.0300 -13.9618 -13.9555 -13.8172 -13.8093 -13.7900
   -13.7128 -13.7128  -1.2321   1.7592   6.0706   6.5756   7.8687   9.4142
     9.4148  10.7346

     occupation numbers 
     1.0000   1.0000   1.0000   1.0000   1.0000   1.0000   1.0000   1.0000
     1.0000   1.0000   1.0000   1.0000   1.0000   1.0000   0.0002   0.0000
     0.0000   0.0000

          k =-0.1886-0.2828 0.2828 (  8415 PWs)   bands (ev):

   -14.0873 -14.0868 -14.0343 -13.9674 -13.9581 -13.8162 -13.8049 -13.7836
   -13.7172 -13.7138  -1.5240   2.3107   6.1421   6.7303   7.9398   9.4143
     9.4148  10.6760

     occupation numbers 
     1.0000   1.0000   1.0000   1.0000   1.0000   1.0000   1.0000   1.0000
     1.0000   1.0000   1.0000   1.0000   1.0000   1.0000   0.0000   0.0000
     0.0000   0.0000

          k =-0.1414-0.2357 0.2357 (  8398 PWs)   bands (ev):

   -14.0843 -14.0819 -14.0404 -13.9746 -13.9644 -13.8117 -13.7996 -13.7748
   -13.7234 -13.7167  -1.8368   3.0278   6.2853   6.9312   8.0503   9.4142
     9.4148  10.5177

     occupation numbers 
     1.0000   1.0000   1.0000   1.0000   1.0000   1.0000   1.0000   1.0000
     1.0000   1.0000   1.0000   1.0000   1.0000   1.0000   0.0000   0.0000
     0.0000   0.0000

          k =-0.0943-0.1886 0.1886 (  8393 PWs)   bands (ev):

   -14.0796 -14.0755 -14.0470 -13.9833 -13.9740 -13.8038 -13.7926 -13.7657
   -13.7315 -13.7216  -2.1134   3.8343   6.5011   7.1599   8.1724   9.4141
     9.4149  10.2792

     occupation numbers 
     1.0000   1.0000   1.0000   1.0000   1.0000   1.0000   1.0000   1.0000
     1.0000   1.0000   1.0000   1.0000   1.0000   0.9999   0.0000   0.0000
     0.0000   0.0000

          k =-0.0471-0.1414 0.1414 (  8415 PWs)   bands (ev):

   -14.0732 -14.0683 -14.0528 -13.9928 -13.9854 -13.7934 -13.7838 -13.7576
   -13.7412 -13.7285  -2.3290   4.6662   6.7907   7.3811   8.2345   9.4140
     9.4150  10.0060

     occupation numbers 
     1.0000   1.0000   1.0000   1.0000   1.0000   1.0000   1.0000   1.0000
     1.0000   1.0000   1.0000   1.0000   1.0000   0.9427   0.0000   0.0000
     0.0000   0.0000

          k = 0.0000-0.0943 0.0943 (  8427 PWs)   bands (ev):

   -14.0662 -14.0621 -14.0565 -14.0010 -13.9966 -13.7815 -13.7743 -13.7526
   -13.7508 -13.7371  -2.4723   5.4258   7.1564   7.5312   8.1017   9.4140
     9.4150   9.8055

     occupation numbers 
     1.0000   1.0000   1.0000   1.0000   1.0000   1.0000   1.0000   1.0000
     1.0000   1.0000   1.0000   1.0000   1.0000   0.5071   0.0000   0.0000
     0.0000   0.0000

          k = 0.1886 0.0000 0.0000 (  8412 PWs)   bands (ev):

   -14.0657 -14.0657 -14.0633 -13.9974 -13.9810 -13.8064 -13.7679 -13.7476
   -13.7476 -13.7348  -2.3662   4.9445   6.9164   6.9164   8.8971   9.1661
     9.4147   9.4157

     occupation numbers 
     1.0000   1.0000   1.0000   1.0000   1.0000   1.0000   1.0000   1.0000
     1.0000   1.0000   1.0000   1.0000   1.0000   1.0000   0.0000   0.0000
     0.0000   0.0000

          k = 0.2357 0.0471-0.0471 (  8399 PWs)   bands (ev):

   -14.0740 -14.0705 -14.0585 -13.9899 -13.9687 -13.8204 -13.7764 -13.7486
   -13.7400 -13.7287  -2.2226   4.3607   6.6501   6.6759   9.0390   9.2034
     9.4147   9.4166

     occupation numbers 
     1.0000   1.0000   1.0000   1.0000   1.0000   1.0000   1.0000   1.0000
     1.0000   1.0000   1.0000   1.0000   1.0000   1.0000   0.0000   0.0000
     0.0000   0.0000

          k = 0.2828 0.0943-0.0943 (  8384 PWs)   bands (ev):

   -14.0830 -14.0761 -14.0502 -13.9803 -13.9570 -13.8319 -13.7868 -13.7570
   -13.7316 -13.7195  -2.0068   3.6415   6.3411   6.4727   8.9396   9.4127
     9.4151   9.5476

     occupation numbers 
     1.0000   1.0000   1.0000   1.0000   1.0000   1.0000   1.0000   1.0000
     1.0000   1.0000   1.0000   1.0000   1.0000   1.0000   0.0000   0.0000
     0.0000   0.0000

          k = 0.3300 0.1414-0.1414 (  8408 PWs)   bands (ev):

   -14.0908 -14.0813 -14.0402 -13.9705 -13.9480 -13.8395 -13.7971 -13.7683
   -13.7242 -13.7111  -1.7298   2.9060   6.0367   6.3259   8.7883   9.4141
     9.4151   9.9633

     occupation numbers 
     1.0000   1.0000   1.0000   1.0000   1.0000   1.0000   1.0000   1.0000
     1.0000   1.0000   1.0000   1.0000   1.0000   1.0000   0.0000   0.0000
     0.0000   0.0000

          k = 0.3771 0.1886-0.1886 (  8420 PWs)   bands (ev):

   -14.0967 -14.0856 -14.0300 -13.9615 -13.9433 -13.8419 -13.8067 -13.7802
   -13.7182 -13.7048  -1.4160   2.2324   5.7763   6.2447   8.6446   9.4141
     9.4150  10.2881

     occupation numbers 
     1.0000   1.0000   1.0000   1.0000   1.0000   1.0000   1.0000   1.0000
     1.0000   1.0000   1.0000   1.0000   1.0000   1.0000   0.0000   0.0000
     0.0000   0.0000

          k = 0.4243 0.2357-0.2357 (  8428 PWs)   bands (ev):

   -14.1004 -14.0888 -14.0213 -13.9538 -13.9437 -13.8385 -13.8153 -13.7911
   -13.7134 -13.7009  -1.1220   1.7049   5.5782   6.2329   8.5371   9.4142
     9.4150  10.4703

     occupation numbers 
     1.0000   1.0000   1.0000   1.0000   1.0000   1.0000   1.0000   1.0000
     1.0000   1.0000   1.0000   1.0000   1.0000   1.0000   0.0000   0.0000
     0.0000   0.0000

          k =-0.2357-0.4243 0.4243 (  8417 PWs)   bands (ev):

   -14.1016 -14.0910 -14.0159 -13.9482 -13.9479 -13.8301 -13.8226 -13.7993
   -13.7102 -13.6999  -0.9643   1.4531   5.4523   6.2902   8.4775   9.4142
     9.4149  10.5864

     occupation numbers 
     1.0000   1.0000   1.0000   1.0000   1.0000   1.0000   1.0000   1.0000
     1.0000   1.0000   1.0000   1.0000   1.0000   1.0000   0.0000   0.0000
     0.0000   0.0000

          k =-0.1886-0.3771 0.3771 (  8417 PWs)   bands (ev):

   -14.1003 -14.0920 -14.0151 -13.9551 -13.9447 -13.8276 -13.8181 -13.8037
   -13.7085 -13.7019  -1.0511   1.5898   5.4056   6.4128   8.4678   9.4142
     9.4150  10.6964

     occupation numbers 
     1.0000   1.0000   1.0000   1.0000   1.0000   1.0000   1.0000   1.0000
     1.0000   1.0000   1.0000   1.0000   1.0000   1.0000   0.0000   0.0000
     0.0000   0.0000

          k =-0.1414-0.3300 0.3300 (  8426 PWs)   bands (ev):

   -14.0965 -14.0916 -14.0194 -13.9628 -13.9454 -13.8288 -13.8082 -13.8001
   -13.7085 -13.7070  -1.3177   2.0460   5.4460   6.5925   8.5024   9.4142
     9.4150  10.8027

     occupation numbers 
     1.0000   1.0000   1.0000   1.0000   1.0000   1.0000   1.0000   1.0000
     1.0000   1.0000   1.0000   1.0000   1.0000   1.0000   0.0000   0.0000
     0.0000   0.0000

          k =-0.0943-0.2828 0.2828 (  8409 PWs)   bands (ev):

   -14.0905 -14.0895 -14.0277 -13.9704 -13.9510 -13.8252 -13.8047 -13.7858
   -13.7148 -13.7105  -1.6334   2.6772   5.5847   6.8150   8.5634   9.4142
     9.4151  10.7266

     occupation numbers 
     1.0000   1.0000   1.0000   1.0000   1.0000   1.0000   1.0000   1.0000
     1.0000   1.0000   1.0000   1.0000   1.0000   1.0000   0.0000   0.0000
     0.0000   0.0000

          k =-0.0471-0.2357 0.2357 (  8377 PWs)   bands (ev):

   -14.0855 -14.0828 -14.0378 -13.9782 -13.9608 -13.8172 -13.7996 -13.7712
   -13.7251 -13.7145  -1.9254   3.3809   5.8396   7.0549   8.6056   9.4141
     9.4152  10.4480

     occupation numbers 
     1.0000   1.0000   1.0000   1.0000   1.0000   1.0000   1.0000   1.0000
     1.0000   1.0000   1.0000   1.0000   1.0000   1.0000   0.0000   0.0000
     0.0000   0.0000

          k = 0.0000-0.1886 0.1886 (  8394 PWs)   bands (ev):

   -14.0799 -14.0745 -14.0470 -13.9861 -13.9731 -13.8061 -13.7922 -13.7594
   -13.7362 -13.7206  -2.1619   4.0728   6.2375   7.2670   8.5276   9.4141
     9.4152  10.1699

     occupation numbers 
     1.0000   1.0000   1.0000   1.0000   1.0000   1.0000   1.0000   1.0000
     1.0000   1.0000   1.0000   1.0000   1.0000   0.9971   0.0000   0.0000
     0.0000   0.0000

          k = 0.2828 0.0000 0.0000 (  8404 PWs)   bands (ev):

   -14.0738 -14.0738 -14.0626 -13.9840 -13.9550 -13.8375 -13.7807 -13.7363
   -13.7363 -13.7343  -2.1033   4.0269   6.4304   6.4304   8.8065   9.3997
     9.4145   9.4558

     occupation numbers 
     1.0000   1.0000   1.0000   1.0000   1.0000   1.0000   1.0000   1.0000
     1.0000   1.0000   1.0000   1.0000   1.0000   1.0000   0.0000   0.0000
     0.0000   0.0000

          k = 0.3300 0.0471-0.0471 (  8377 PWs)   bands (ev):

   -14.0817 -14.0786 -14.0556 -13.9749 -13.9413 -13.8525 -13.7900 -13.7456
   -13.7293 -13.7229  -1.9101   3.4902   6.1498   6.2224   8.8069   9.4091
     9.4146   9.5194

     occupation numbers 
     1.0000   1.0000   1.0000   1.0000   1.0000   1.0000   1.0000   1.0000
     1.0000   1.0000   1.0000   1.0000   1.0000   1.0000   0.0000   0.0000
     0.0000   0.0000

          k = 0.3771 0.0943-0.0943 (  8404 PWs)   bands (ev):

   -14.0913 -14.0835 -14.0435 -13.9647 -13.9301 -13.8636 -13.8007 -13.7595
   -13.7220 -13.7113  -1.6511   2.8698   5.7992   6.0720   8.9207   9.4127
     9.4147   9.6820

     occupation numbers 
     1.0000   1.0000   1.0000   1.0000   1.0000   1.0000   1.0000   1.0000
     1.0000   1.0000   1.0000   1.0000   1.0000   1.0000   0.0000   0.0000
     0.0000   0.0000

          k = 0.4243 0.1414-0.1414 (  8421 PWs)   bands (ev):

   -14.0997 -14.0878 -14.0296 -13.9544 -13.9236 -13.8688 -13.8118 -13.7751
   -13.7156 -13.7017  -1.3440   2.2520   5.4583   5.9896   8.8989   9.4139
     9.4149  10.1260

     occupation numbers 
     1.0000   1.0000   1.0000   1.0000   1.0000   1.0000   1.0000   1.0000
     1.0000   1.0000   1.0000   1.0000   1.0000   1.0000   0.0000   0.0000
     0.0000   0.0000

          k = 0.4714 0.1886-0.1886 (  8425 PWs)   bands (ev):

   -14.1060 -14.0913 -14.0163 -13.9448 -13.9235 -13.8670 -13.8226 -13.7899
   -13.7104 -13.6947  -1.0308   1.7171   5.1774   5.9796   8.8372   9.4141
     9.4150  10.5774

     occupation numbers 
     1.0000   1.0000   1.0000   1.0000   1.0000   1.0000   1.0000   1.0000
     1.0000   1.0000   1.0000   1.0000   1.0000   1.0000   0.0000   0.0000
     0.0000   0.0000

          k =-0.1886-0.4714 0.4714 (  8419 PWs)   bands (ev):

   -14.1095 -14.0939 -14.0063 -13.9366 -13.9295 -13.8583 -13.8324 -13.8015
   -13.7066 -13.6911  -0.8094   1.3840   4.9795   6.0420   8.8036   9.4142
     9.4150  10.8165

     occupation numbers 
     1.0000   1.0000   1.0000   1.0000   1.0000   1.0000   1.0000   1.0000
     1.0000   1.0000   1.0000   1.0000   1.0000   1.0000   0.0000   0.0000
     0.0000   0.0000

          k =-0.1414-0.4243 0.4243 (  8430 PWs)   bands (ev):

   -14.1098 -14.0954 -14.0016 -13.9400 -13.9312 -13.8441 -13.8397 -13.8085
   -13.7044 -13.6912  -0.8203   1.4006   4.8789   6.1729   8.8111   9.4142
     9.4151  10.9408

     occupation numbers 
     1.0000   1.0000   1.0000   1.0000   1.0000   1.0000   1.0000   1.0000
     1.0000   1.0000   1.0000   1.0000   1.0000   1.0000   0.0000   0.0000
     0.0000   0.0000

          k =-0.0943-0.3771 0.3771 (  8425 PWs)   bands (ev):

   -14.1068 -14.0954 -14.0034 -13.9523 -13.9308 -13.8422 -13.8259 -13.8108
   -13.7040 -13.6952  -1.0538   1.7523   4.8903   6.3633   8.8498   9.4142
     9.4152  11.0565

     occupation numbers 
     1.0000   1.0000   1.0000   1.0000   1.0000   1.0000   1.0000   1.0000
     1.0000   1.0000   1.0000   1.0000   1.0000   1.0000   0.0000   0.0000
     0.0000   0.0000

          k =-0.0471-0.3300 0.3300 (  8422 PWs)   bands (ev):

   -14.1007 -14.0938 -14.0118 -13.9631 -13.9367 -13.8385 -13.8100 -13.8053
   -13.7056 -13.7029  -1.3679   2.2771   5.0353   6.5965   8.8861   9.4142
     9.4154  11.1198

     occupation numbers 
     1.0000   1.0000   1.0000   1.0000   1.0000   1.0000   1.0000   1.0000
     1.0000   1.0000   1.0000   1.0000   1.0000   1.0000   0.0000   0.0000
     0.0000   0.0000

          k = 0.0000-0.2828 0.2828 (  8404 PWs)   bands (ev):

   -14.0922 -14.0905 -14.0247 -13.9715 -13.9476 -13.8294 -13.8058 -13.7863
   -13.7136 -13.7091  -1.6713   2.8474   5.3436   6.8437   8.8437   9.4141
     9.4154  10.7675

     occupation numbers 
     1.0000   1.0000   1.0000   1.0000   1.0000   1.0000   1.0000   1.0000
     1.0000   1.0000   1.0000   1.0000   1.0000   1.0000   0.0000   0.0000
     0.0000   0.0000

          k = 0.3771 0.0000 0.0000 (  8424 PWs)   bands (ev):

   -14.0825 -14.0825 -14.0562 -13.9661 -13.9252 -13.8713 -13.7980 -13.7413
   -13.7239 -13.7239  -1.7389   3.1215   6.0059   6.0059   8.5208   9.4094
     9.4145   9.5086

     occupation numbers 
     1.0000   1.0000   1.0000   1.0000   1.0000   1.0000   1.0000   1.0000
     1.0000   1.0000   1.0000   1.0000   1.0000   1.0000   0.0000   0.0000
     0.0000   0.0000

          k = 0.4243 0.0471-0.0471 (  8407 PWs)   bands (ev):

   -14.0896 -14.0868 -14.0466 -13.9555 -13.9109 -13.8865 -13.8086 -13.7529
   -13.7176 -13.7139  -1.4989   2.6304   5.7383   5.8458   8.5661   9.4037
     9.4145   9.4535

     occupation numbers 
     1.0000   1.0000   1.0000   1.0000   1.0000   1.0000   1.0000   1.0000
     1.0000   1.0000   1.0000   1.0000   1.0000   1.0000   0.0000   0.0000
     0.0000   0.0000

          k = 0.4714 0.0943-0.0943 (  8418 PWs)   bands (ev):

   -14.0989 -14.0907 -14.0313 -13.9444 -13.9023 -13.8949 -13.8202 -13.7701
   -13.7118 -13.7025  -1.2028   2.1013   5.3721   5.7539   8.7213   9.4127
     9.4146   9.6363

     occupation numbers 
     1.0000   1.0000   1.0000   1.0000   1.0000   1.0000   1.0000   1.0000
     1.0000   1.0000   1.0000   1.0000   1.0000   1.0000   0.0000   0.0000
     0.0000   0.0000

          k = 0.5185 0.1414-0.1414 (  8423 PWs)   bands (ev):

   -14.1073 -14.0940 -14.0146 -13.9334 -13.9043 -13.8918 -13.8323 -13.7881
   -13.7069 -13.6930  -0.8804   1.6037   5.0150   5.7357   8.7606   9.4139
     9.4147  10.2061

     occupation numbers 
     1.0000   1.0000   1.0000   1.0000   1.0000   1.0000   1.0000   1.0000
     1.0000   1.0000   1.0000   1.0000   1.0000   1.0000   0.0000   0.0000
     0.0000   0.0000

          k =-0.1414-0.5185 0.5185 (  8427 PWs)   bands (ev):

   -14.1131 -14.0965 -14.0009 -13.9235 -13.9065 -13.8880 -13.8437 -13.8027
   -13.7033 -13.6866  -0.6095   1.2346   4.7345   5.7922   8.7760   9.4141
     9.4148  10.9341

     occupation numbers 
     1.0000   1.0000   1.0000   1.0000   1.0000   1.0000   1.0000   1.0000
     1.0000   1.0000   1.0000   1.0000   1.0000   1.0000   0.0000   0.0000
     0.0000   0.0000

          k =-0.0943-0.4714 0.4714 (  8420 PWs)   bands (ev):

   -14.1156 -14.0979 -13.9933 -13.9165 -13.9164 -13.8760 -13.8526 -13.8110
   -13.7012 -13.6842  -0.5477   1.1573   4.5674   5.9197   8.8235   9.4142
     9.4149  11.4653

     occupation numbers 
     1.0000   1.0000   1.0000   1.0000   1.0000   1.0000   1.0000   1.0000
     1.0000   1.0000   1.0000   1.0000   1.0000   1.0000   0.0000   0.0000
     0.0000   0.0000

          k =-0.0471-0.4243 0.4243 (  8414 PWs)   bands (ev):

   -14.1143 -14.0981 -13.9925 -13.9336 -13.9161 -13.8552 -13.8550 -13.8135
   -13.7009 -13.6862  -0.7482   1.4168   4.5419   6.1094   8.8987   9.4142
     9.4151  11.6496

     occupation numbers 
     1.0000   1.0000   1.0000   1.0000   1.0000   1.0000   1.0000   1.0000
     1.0000   1.0000   1.0000   1.0000   1.0000   1.0000   0.0000   0.0000
     0.0000   0.0000

          k =-0.0000-0.3771 0.3771 (  8432 PWs)   bands (ev):

   -14.1091 -14.0967 -13.9987 -13.9509 -13.9239 -13.8495 -13.8304 -13.8124
   -13.7023 -13.6927  -1.0583   1.8370   4.6884   6.3448   8.9557   9.4142
     9.4155  11.5814

     occupation numbers 
     1.0000   1.0000   1.0000   1.0000   1.0000   1.0000   1.0000   1.0000
     1.0000   1.0000   1.0000   1.0000   1.0000   1.0000   0.0000   0.0000
     0.0000   0.0000

          k = 0.4714 0.0000 0.0000 (  8404 PWs)   bands (ev):

   -14.0904 -14.0904 -14.0436 -13.9446 -13.9061 -13.8933 -13.8189 -13.7552
   -13.7125 -13.7125  -1.2770   2.2454   5.6727   5.6727   8.3418   9.2096
     9.4145   9.4160

     occupation numbers 
     1.0000   1.0000   1.0000   1.0000   1.0000   1.0000   1.0000   1.0000
     1.0000   1.0000   1.0000   1.0000   1.0000   1.0000   0.0000   0.0000
     0.0000   0.0000

          k = 0.5185 0.0471-0.0471 (  8406 PWs)   bands (ev):

   -14.0964 -14.0937 -14.0314 -13.9327 -13.9208 -13.8792 -13.8308 -13.7687
   -13.7076 -13.7047  -0.9940   1.7975   5.4355   5.5668   8.4324   9.1297
     9.4146   9.4155

     occupation numbers 
     1.0000   1.0000   1.0000   1.0000   1.0000   1.0000   1.0000   1.0000
     1.0000   1.0000   1.0000   1.0000   1.0000   1.0000   0.0000   0.0000
     0.0000   0.0000

          k = 0.5657 0.0943-0.0943 (  8418 PWs)   bands (ev):

   -14.1047 -14.0964 -14.0137 -13.9288 -13.9208 -13.8707 -13.8434 -13.7876
   -13.7036 -13.6951  -0.6702   1.3504   5.0803   5.5349   8.5793   9.4042
     9.4147   9.4429

     occupation numbers 
     1.0000   1.0000   1.0000   1.0000   1.0000   1.0000   1.0000   1.0000
     1.0000   1.0000   1.0000   1.0000   1.0000   1.0000   0.0000   0.0000
     0.0000   0.0000

          k =-0.0943-0.5657 0.5657 (  8422 PWs)   bands (ev):

   -14.1122 -14.0984 -13.9973 -13.9267 -13.9095 -13.8717 -13.8559 -13.8047
   -13.7007 -13.6869  -0.3635   0.9778   4.7386   5.5787   8.6347   9.4139
     9.4147  10.1314

     occupation numbers 
     1.0000   1.0000   1.0000   1.0000   1.0000   1.0000   1.0000   1.0000
     1.0000   1.0000   1.0000   1.0000   1.0000   1.0000   0.0000   0.0000
     0.0000   0.0000

          k =-0.0471-0.5185 0.5185 (  8434 PWs)   bands (ev):

   -14.1170 -14.0995 -13.9887 -13.9111 -13.9016 -13.8858 -13.8655 -13.8134
   -13.6992 -13.6821  -0.2462   0.8496   4.4991   5.6956   8.7052   9.4141
     9.4147  11.0097

     occupation numbers 
     1.0000   1.0000   1.0000   1.0000   1.0000   1.0000   1.0000   1.0000
     1.0000   1.0000   1.0000   1.0000   1.0000   1.0000   0.0000   0.0000
     0.0000   0.0000

          k =-0.0000-0.4714 0.4714 (  8468 PWs)   bands (ev):

   -14.1178 -14.0994 -13.9879 -13.9094 -13.9041 -13.8848 -13.8651 -13.8150
   -13.6993 -13.6818  -0.4388   1.0692   4.4190   5.8777   8.8083   9.4142
     9.4149  11.8774

     occupation numbers 
     1.0000   1.0000   1.0000   1.0000   1.0000   1.0000   1.0000   1.0000
     1.0000   1.0000   1.0000   1.0000   1.0000   1.0000   0.0000   0.0000
     0.0000   0.0000

          k = 0.5657 0.0000 0.0000 (  8404 PWs)   bands (ev):

   -14.0963 -14.0963 -14.0251 -13.9404 -13.9203 -13.8609 -13.8427 -13.7753
   -13.7038 -13.7038  -0.7230   1.4111   5.4447   5.4447   8.2833   8.8449
     9.4145   9.4148

     occupation numbers 
     1.0000   1.0000   1.0000   1.0000   1.0000   1.0000   1.0000   1.0000
     1.0000   1.0000   1.0000   1.0000   1.0000   1.0000   0.0000   0.0000
     0.0000   0.0000

          k = 0.6128 0.0471-0.0471 (  8392 PWs)   bands (ev):

   -14.1008 -14.0982 -14.0104 -13.9537 -13.9077 -13.8555 -13.8477 -13.7907
   -13.7009 -13.6983  -0.4024   1.0059   5.2509   5.3959   8.4111   8.8227
     9.4145   9.4148

     occupation numbers 
     1.0000   1.0000   1.0000   1.0000   1.0000   1.0000   1.0000   1.0000
     1.0000   1.0000   1.0000   1.0000   1.0000   1.0000   0.0000   0.0000
     0.0000   0.0000

          k =-0.0471-0.6128 0.6128 (  8413 PWs)   bands (ev):

   -14.1078 -14.0995 -13.9929 -13.9570 -13.8955 -13.8685 -13.8436 -13.8086
   -13.6991 -13.6909  -0.0719   0.6410   4.9327   5.4235   8.5119   9.2888
     9.4146   9.4163

     occupation numbers 
     1.0000   1.0000   1.0000   1.0000   1.0000   1.0000   1.0000   1.0000
     1.0000   1.0000   1.0000   1.0000   1.0000   1.0000   0.0000   0.0000
     0.0000   0.0000

          k = 0.0000-0.5657 0.5657 (  8430 PWs)   bands (ev):

   -14.1140 -14.1000 -13.9866 -13.9403 -13.8898 -13.8756 -13.8589 -13.8151
   -13.6985 -13.6848   0.0236   0.5545   4.6451   5.5256   8.5884   9.4139
     9.4146  10.0898

     occupation numbers 
     1.0000   1.0000   1.0000   1.0000   1.0000   1.0000   1.0000   1.0000
     1.0000   1.0000   1.0000   1.0000   1.0000   1.0000   0.0000   0.0000
     0.0000   0.0000

          k = 0.6600 0.0000 0.0000 (  8412 PWs)   bands (ev):

   -14.0994 -14.0994 -14.0011 -13.9725 -13.8945 -13.8683 -13.8294 -13.8004
   -13.6992 -13.6992  -0.0841   0.6308   5.3290   5.3290   8.3508   8.5427
     9.4145   9.4146

     occupation numbers 
     1.0000   1.0000   1.0000   1.0000   1.0000   1.0000   1.0000   1.0000
     1.0000   1.0000   1.0000   1.0000   1.0000   1.0000   0.0000   0.0000
     0.0000   0.0000

          k = 0.0000-0.6600 0.6600 (  8400 PWs)   bands (ev):

   -14.1024 -14.0998 -13.9872 -13.9809 -13.8823 -13.8807 -13.8206 -13.8146
   -13.6986 -13.6961   0.2396   0.2967   5.1889   5.3384   8.4501   8.6667
     9.4146   9.4146

     occupation numbers 
     1.0000   1.0000   1.0000   1.0000   1.0000   1.0000   1.0000   1.0000
     1.0000   1.0000   1.0000   1.0000   1.0000   1.0000   0.0000   0.0000
     0.0000   0.0000

          k = 0.1886 0.0943-0.0000 (  8412 PWs)   bands (ev):

   -14.0729 -14.0681 -14.0555 -13.9938 -13.9800 -13.8048 -13.7768 -13.7518
   -13.7445 -13.7287  -2.3150   4.6660   6.6916   7.1276   8.6715   9.4128
     9.4153   9.4871

     occupation numbers 
     1.0000   1.0000   1.0000   1.0000   1.0000   1.0000   1.0000   1.0000
     1.0000   1.0000   1.0000   1.0000   1.0000   1.0000   0.0000   0.0000
     0.0000   0.0000

          k = 0.2357 0.1414-0.0471 (  8405 PWs)   bands (ev):

   -14.0801 -14.0749 -14.0489 -13.9850 -13.9681 -13.8165 -13.7864 -13.7593
   -13.7344 -13.7211  -2.1229   3.9538   6.3011   6.9690   8.7202   9.4139
     9.4153   9.7262

     occupation numbers 
     1.0000   1.0000   1.0000   1.0000   1.0000   1.0000   1.0000   1.0000
     1.0000   1.0000   1.0000   1.0000   1.0000   1.0000   0.0000   0.0000
     0.0000   0.0000

          k = 0.2828 0.1886-0.0943 (  8407 PWs)   bands (ev):

   -14.0868 -14.0814 -14.0402 -13.9758 -13.9576 -13.8254 -13.7952 -13.7704
   -13.7249 -13.7145  -1.8649   3.1971   6.0109   6.7624   8.6225   9.4142
     9.4151  10.0886

     occupation numbers 
     1.0000   1.0000   1.0000   1.0000   1.0000   1.0000   1.0000   1.0000
     1.0000   1.0000   1.0000   1.0000   1.0000   1.0000   0.0000   0.0000
     0.0000   0.0000

          k = 0.3300 0.2357-0.1414 (  8420 PWs)   bands (ev):

   -14.0924 -14.0861 -14.0312 -13.9674 -13.9504 -13.8303 -13.8029 -13.7822
   -13.7177 -13.7092  -1.5598   2.4810   5.8078   6.5695   8.5003   9.4141
     9.4150  10.3693

     occupation numbers 
     1.0000   1.0000   1.0000   1.0000   1.0000   1.0000   1.0000   1.0000
     1.0000   1.0000   1.0000   1.0000   1.0000   1.0000   0.0000   0.0000
     0.0000   0.0000

          k = 0.3771 0.2828-0.1886 (  8423 PWs)   bands (ev):

   -14.0965 -14.0891 -14.0237 -13.9601 -13.9476 -13.8303 -13.8099 -13.7925
   -13.7131 -13.7053  -1.2501   1.8832   5.6797   6.4253   8.4038   9.4142
     9.4150  10.5050

     occupation numbers 
     1.0000   1.0000   1.0000   1.0000   1.0000   1.0000   1.0000   1.0000
     1.0000   1.0000   1.0000   1.0000   1.0000   1.0000   0.0000   0.0000
     0.0000   0.0000

          k =-0.2828-0.3771 0.4714 (  8427 PWs)   bands (ev):

   -14.0986 -14.0904 -14.0194 -13.9543 -13.9486 -13.8261 -13.8173 -13.7981
   -13.7110 -13.7032  -1.0302   1.5155   5.6181   6.3487   8.3522   9.4142
     9.4150  10.5480

     occupation numbers 
     1.0000   1.0000   1.0000   1.0000   1.0000   1.0000   1.0000   1.0000
     1.0000   1.0000   1.0000   1.0000   1.0000   1.0000   0.0000   0.0000
     0.0000   0.0000

          k = 0.2828 0.0943 0.0000 (  8384 PWs)   bands (ev):

   -14.0795 -14.0764 -14.0538 -13.9821 -13.9558 -13.8348 -13.7843 -13.7511
   -13.7331 -13.7230  -2.0546   3.8370   6.2152   6.5822   9.1294   9.2808
     9.4148   9.4190

     occupation numbers 
     1.0000   1.0000   1.0000   1.0000   1.0000   1.0000   1.0000   1.0000
     1.0000   1.0000   1.0000   1.0000   1.0000   1.0000   0.0000   0.0000
     0.0000   0.0000

          k = 0.3300 0.1414-0.0471 (  8387 PWs)   bands (ev):

   -14.0875 -14.0826 -14.0435 -13.9727 -13.9439 -13.8464 -13.7942 -13.7622
   -13.7240 -13.7145  -1.8172   3.2038   5.8402   6.4197   9.1447   9.4123
     9.4155   9.5580

     occupation numbers 
     1.0000   1.0000   1.0000   1.0000   1.0000   1.0000   1.0000   1.0000
     1.0000   1.0000   1.0000   1.0000   1.0000   1.0000   0.0000   0.0000
     0.0000   0.0000

          k = 0.3771 0.1886-0.0943 (  8416 PWs)   bands (ev):

   -14.0957 -14.0874 -14.0312 -13.9631 -13.9353 -13.8536 -13.8043 -13.7763
   -13.7166 -13.7061  -1.5242   2.5495   5.5446   6.2508   9.0388   9.4139
     9.4155  10.0073

     occupation numbers 
     1.0000   1.0000   1.0000   1.0000   1.0000   1.0000   1.0000   1.0000
     1.0000   1.0000   1.0000   1.0000   1.0000   1.0000   0.0000   0.0000
     0.0000   0.0000

          k = 0.4243 0.2357-0.1414 (  8424 PWs)   bands (ev):

   -14.1021 -14.0909 -14.0192 -13.9540 -13.9318 -13.8548 -13.8143 -13.7900
   -13.7113 -13.6992  -1.2069   1.9542   5.3228   6.1333   8.9371   9.4142
     9.4153  10.3539

     occupation numbers 
     1.0000   1.0000   1.0000   1.0000   1.0000   1.0000   1.0000   1.0000
     1.0000   1.0000   1.0000   1.0000   1.0000   1.0000   0.0000   0.0000
     0.0000   0.0000

          k =-0.2357-0.4243 0.5185 (  8427 PWs)   bands (ev):

   -14.1059 -14.0932 -14.0101 -13.9462 -13.9336 -13.8499 -13.8241 -13.8005
   -13.7078 -13.6950  -0.9392   1.5203   5.1711   6.0926   8.8717   9.4142
     9.4153  10.5020

     occupation numbers 
     1.0000   1.0000   1.0000   1.0000   1.0000   1.0000   1.0000   1.0000
     1.0000   1.0000   1.0000   1.0000   1.0000   1.0000   0.0000   0.0000
     0.0000   0.0000

          k =-0.1886-0.3771 0.4714 (  8418 PWs)   bands (ev):

   -14.1069 -14.0944 -14.0059 -13.9442 -13.9359 -13.8427 -13.8299 -13.8061
   -13.7060 -13.6941  -0.8565   1.3970   5.0927   6.1339   8.8521   9.4142
     9.4153  10.5579

     occupation numbers 
[...]
     9.4146   9.5375

     occupation numbers 
     1.0000   1.0000   1.0000   1.0000   1.0000   1.0000   1.0000   1.0000
     1.0000   1.0000   1.0000   1.0000   1.0000   1.0000   0.0000   0.0000
     0.0000   0.0000

          k = 0.4243 0.1414-0.0471 (  8405 PWs)   bands (ev):

   -14.0954 -14.0900 -14.0340 -13.9550 -13.9163 -13.8785 -13.8104 -13.7689
   -13.7134 -13.7067  -1.4166   2.4481   5.4570   5.9396   9.0146   9.4127
     9.4148   9.6827

     occupation numbers 
     1.0000   1.0000   1.0000   1.0000   1.0000   1.0000   1.0000   1.0000
     1.0000   1.0000   1.0000   1.0000   1.0000   1.0000   0.0000   0.0000
     0.0000   0.0000

          k = 0.4714 0.1886-0.0943 (  8424 PWs)   bands (ev):

   -14.1039 -14.0936 -14.0184 -13.9445 -13.9107 -13.8827 -13.8219 -13.7858
   -13.7081 -13.6970  -1.0997   1.9044   5.1434   5.8337   9.0414   9.4139
     9.4151  10.1775

     occupation numbers 
     1.0000   1.0000   1.0000   1.0000   1.0000   1.0000   1.0000   1.0000
     1.0000   1.0000   1.0000   1.0000   1.0000   1.0000   0.0000   0.0000
     0.0000   0.0000

          k =-0.1886-0.4714 0.5657 (  8430 PWs)   bands (ev):

   -14.1101 -14.0962 -14.0046 -13.9349 -13.9121 -13.8793 -13.8334 -13.8005
   -13.7043 -13.6901  -0.7987   1.4533   4.8932   5.8085   9.0270   9.4141
     9.4152  10.7073

     occupation numbers 
     1.0000   1.0000   1.0000   1.0000   1.0000   1.0000   1.0000   1.0000
     1.0000   1.0000   1.0000   1.0000   1.0000   1.0000   0.0000   0.0000
     0.0000   0.0000

          k =-0.1414-0.4243 0.5185 (  8419 PWs)   bands (ev):

   -14.1132 -14.0978 -13.9959 -13.9291 -13.9175 -13.8702 -13.8429 -13.8098
   -13.7019 -13.6869  -0.6399   1.2371   4.7309   5.8676   9.0425   9.4142
     9.4154  10.9176

     occupation numbers 
     1.0000   1.0000   1.0000   1.0000   1.0000   1.0000   1.0000   1.0000
     1.0000   1.0000   1.0000   1.0000   1.0000   1.0000   0.0000   0.0000
     0.0000   0.0000

          k =-0.0943-0.3771 0.4714 (  8422 PWs)   bands (ev):

   -14.1126 -14.0982 -13.9941 -13.9363 -13.9188 -13.8609 -13.8423 -13.8131
   -13.7011 -13.6879  -0.7463   1.3813   4.6776   6.0030   9.0927   9.4142
     9.4157  10.9511

     occupation numbers 
     1.0000   1.0000   1.0000   1.0000   1.0000   1.0000   1.0000   1.0000
     1.0000   1.0000   1.0000   1.0000   1.0000   1.0000   0.0000   0.0000
     0.0000   0.0000

          k =-0.0471-0.3300 0.4243 (  8427 PWs)   bands (ev):

   -14.1084 -14.0973 -13.9998 -13.9496 -13.9220 -13.8569 -13.8255 -13.8118
   -13.7020 -13.6932  -1.0286   1.7842   4.7562   6.1991   9.1535   9.4142
     9.4163  10.8933

     occupation numbers 
     1.0000   1.0000   1.0000   1.0000   1.0000   1.0000   1.0000   1.0000
     1.0000   1.0000   1.0000   1.0000   1.0000   1.0000   0.0000   0.0000
     0.0000   0.0000

          k = 0.0000-0.2828 0.3771 (  8409 PWs)   bands (ev):

   -14.1011 -14.0948 -14.0120 -13.9608 -13.9313 -13.8494 -13.8088 -13.8029
   -13.7047 -13.7023  -1.3466   2.2788   4.9947   6.4288   9.1594   9.4141
     9.4165  10.5804

     occupation numbers 
     1.0000   1.0000   1.0000   1.0000   1.0000   1.0000   1.0000   1.0000
     1.0000   1.0000   1.0000   1.0000   1.0000   1.0000   0.0000   0.0000
     0.0000   0.0000

          k = 0.4714 0.0943-0.0000 (  8396 PWs)   bands (ev):

   -14.0934 -14.0932 -14.0359 -13.9445 -13.9016 -13.8967 -13.8196 -13.7646
   -13.7095 -13.7085  -1.2383   2.1758   5.4935   5.6933   8.6479   9.3530
     9.4146   9.4205

     occupation numbers 
     1.0000   1.0000   1.0000   1.0000   1.0000   1.0000   1.0000   1.0000
     1.0000   1.0000   1.0000   1.0000   1.0000   1.0000   0.0000   0.0000
     0.0000   0.0000

          k = 0.5185 0.1414-0.0471 (  8409 PWs)   bands (ev):

   -14.1021 -14.0964 -14.0191 -13.9330 -13.9114 -13.8865 -13.8318 -13.7825
   -13.7045 -13.6985  -0.9279   1.7008   5.1721   5.5785   8.8526   9.4120
     9.4147   9.5577

     occupation numbers 
     1.0000   1.0000   1.0000   1.0000   1.0000   1.0000   1.0000   1.0000
     1.0000   1.0000   1.0000   1.0000   1.0000   1.0000   0.0000   0.0000
     0.0000   0.0000

          k =-0.1414-0.5185 0.6128 (  8405 PWs)   bands (ev):

   -14.1101 -14.0988 -14.0017 -13.9221 -13.9137 -13.8829 -13.8443 -13.8006
   -13.7010 -13.6896  -0.6063   1.2688   4.8462   5.5533   8.9164   9.4139
     9.4149  10.1820

     occupation numbers 
     1.0000   1.0000   1.0000   1.0000   1.0000   1.0000   1.0000   1.0000
     1.0000   1.0000   1.0000   1.0000   1.0000   1.0000   0.0000   0.0000
     0.0000   0.0000

          k =-0.0943-0.4714 0.5657 (  8426 PWs)   bands (ev):

   -14.1154 -14.1003 -13.9896 -13.9139 -13.9053 -13.8886 -13.8556 -13.8128
   -13.6988 -13.6839  -0.3834   0.9987   4.5969   5.6158   8.9660   9.4141
     9.4150  10.9855

     occupation numbers 
     1.0000   1.0000   1.0000   1.0000   1.0000   1.0000   1.0000   1.0000
     1.0000   1.0000   1.0000   1.0000   1.0000   1.0000   0.0000   0.0000
     0.0000   0.0000

          k =-0.0471-0.4243 0.5185 (  8427 PWs)   bands (ev):

   -14.1170 -14.1007 -13.9858 -13.9151 -13.9016 -13.8862 -13.8604 -13.8168
   -13.6982 -13.6825  -0.4381   1.0656   4.4749   5.7560   9.0486   9.4142
     9.4153  11.5593

     occupation numbers 
     1.0000   1.0000   1.0000   1.0000   1.0000   1.0000   1.0000   1.0000
     1.0000   1.0000   1.0000   1.0000   1.0000   1.0000   0.0000   0.0000
     0.0000   0.0000

          k =-0.0000-0.3771 0.4714 (  8413 PWs)   bands (ev):

   -14.1146 -14.0997 -13.9893 -13.9326 -13.9093 -13.8702 -13.8488 -13.8157
   -13.6992 -13.6858  -0.7103   1.3927   4.5179   5.9590   9.1403   9.4142
     9.4159  11.4755

     occupation numbers 
     1.0000   1.0000   1.0000   1.0000   1.0000   1.0000   1.0000   1.0000
     1.0000   1.0000   1.0000   1.0000   1.0000   1.0000   0.0000   0.0000
     0.0000   0.0000

          k = 0.5657 0.0943 0.0000 (  8397 PWs)   bands (ev):

   -14.0990 -14.0989 -14.0179 -13.9350 -13.9205 -13.8654 -13.8431 -13.7829
   -13.7010 -13.7010  -0.6935   1.3801   5.2917   5.4099   8.5720   9.0486
     9.4146   9.4151

     occupation numbers 
     1.0000   1.0000   1.0000   1.0000   1.0000   1.0000   1.0000   1.0000
     1.0000   1.0000   1.0000   1.0000   1.0000   1.0000   0.0000   0.0000
     0.0000   0.0000

          k =-0.0943-0.5657 0.6600 (  8400 PWs)   bands (ev):

   -14.1066 -14.1008 -13.9992 -13.9422 -13.9084 -13.8576 -13.8561 -13.8022
   -13.6983 -13.6926  -0.3616   0.9765   4.9966   5.3570   8.7644   9.3636
     9.4147   9.4197

     occupation numbers 
     1.0000   1.0000   1.0000   1.0000   1.0000   1.0000   1.0000   1.0000
     1.0000   1.0000   1.0000   1.0000   1.0000   1.0000   0.0000   0.0000
     0.0000   0.0000

          k =-0.0471-0.5185 0.6128 (  8421 PWs)   bands (ev):

   -14.1134 -14.1018 -13.9848 -13.9367 -13.8977 -13.8687 -13.8617 -13.8165
   -13.6969 -13.6855  -0.0904   0.6828   4.6880   5.4143   8.8359   9.4139
     9.4148  10.1181

     occupation numbers 
     1.0000   1.0000   1.0000   1.0000   1.0000   1.0000   1.0000   1.0000
     1.0000   1.0000   1.0000   1.0000   1.0000   1.0000   0.0000   0.0000
     0.0000   0.0000

          k = 0.0000-0.4714 0.5657 (  8439 PWs)   bands (ev):

   -14.1172 -14.1018 -13.9820 -13.9150 -13.8975 -13.8807 -13.8717 -13.8192
   -13.6968 -13.6818  -0.1481   0.7533   4.4914   5.5521   8.9327   9.4141
     9.4150  11.0219

     occupation numbers 
     1.0000   1.0000   1.0000   1.0000   1.0000   1.0000   1.0000   1.0000
     1.0000   1.0000   1.0000   1.0000   1.0000   1.0000   0.0000   0.0000
     0.0000   0.0000

          k =-0.0471-0.6128 0.7071 (  8407 PWs)   bands (ev):

   -14.1020 -14.1019 -13.9944 -13.9664 -13.8948 -13.8686 -13.8349 -13.8069
   -13.6967 -13.6966  -0.0680   0.6275   5.2084   5.2474   8.6174   8.7820
     9.4146   9.4147

     occupation numbers 
     1.0000   1.0000   1.0000   1.0000   1.0000   1.0000   1.0000   1.0000
     1.0000   1.0000   1.0000   1.0000   1.0000   1.0000   0.0000   0.0000
     0.0000   0.0000

          k = 0.0000-0.5657 0.6600 (  8406 PWs)   bands (ev):

   -14.1081 -14.1023 -13.9809 -13.9642 -13.8846 -13.8798 -13.8362 -13.8204
   -13.6961 -13.6905   0.1936   0.3682   4.9373   5.2826   8.7397   9.2882
     9.4147   9.4163

     occupation numbers 
     1.0000   1.0000   1.0000   1.0000   1.0000   1.0000   1.0000   1.0000
     1.0000   1.0000   1.0000   1.0000   1.0000   1.0000   0.0000   0.0000
     0.0000   0.0000

          k = 0.3771 0.1886-0.0000 (  8408 PWs)   bands (ev):

   -14.0923 -14.0918 -14.0305 -13.9637 -13.9314 -13.8585 -13.8035 -13.7762
   -13.7126 -13.7090  -1.5616   2.6878   5.3971   6.2794   9.4057   9.4134
     9.4812   9.6014

     occupation numbers 
     1.0000   1.0000   1.0000   1.0000   1.0000   1.0000   1.0000   1.0000
     1.0000   1.0000   1.0000   1.0000   1.0000   1.0000   0.0000   0.0000
     0.0000   0.0000

          k = 0.4243 0.2357-0.0471 (  8415 PWs)   bands (ev):

   -14.1013 -14.0953 -14.0156 -13.9542 -13.9218 -13.8665 -13.8138 -13.7928
   -13.7057 -13.7007  -1.2565   2.1434   5.0829   6.0908   9.4006   9.4140
     9.4508  10.0783

     occupation numbers 
     1.0000   1.0000   1.0000   1.0000   1.0000   1.0000   1.0000   1.0000
     1.0000   1.0000   1.0000   1.0000   1.0000   1.0000   0.0000   0.0000
     0.0000   0.0000

          k =-0.2357-0.4243 0.6128 (  8430 PWs)   bands (ev):

   -14.1080 -14.0975 -14.0027 -13.9444 -13.9176 -13.8685 -13.8260 -13.8058
   -13.7027 -13.6929  -0.9407   1.6447   4.8895   5.9301   9.3672   9.4142
     9.4249  10.4141

     occupation numbers 
     1.0000   1.0000   1.0000   1.0000   1.0000   1.0000   1.0000   1.0000
     1.0000   1.0000   1.0000   1.0000   1.0000   1.0000   0.0000   0.0000
     0.0000   0.0000

          k =-0.1886-0.3771 0.5657 (  8413 PWs)   bands (ev):

   -14.1116 -14.0986 -13.9952 -13.9362 -13.9186 -13.8657 -13.8375 -13.8120
   -13.7012 -13.6887  -0.7083   1.3137   4.7989   5.8403   9.3376   9.4142
     9.4209  10.4927

     occupation numbers 
     1.0000   1.0000   1.0000   1.0000   1.0000   1.0000   1.0000   1.0000
     1.0000   1.0000   1.0000   1.0000   1.0000   1.0000   0.0000   0.0000
     0.0000   0.0000

          k = 0.4714 0.1886-0.0000 (  8406 PWs)   bands (ev):

   -14.1001 -14.0979 -14.0181 -13.9445 -13.9042 -13.8901 -13.8217 -13.7857
   -13.7026 -13.7019  -1.1250   1.9834   5.1238   5.7621   9.3901   9.4126
     9.4222   9.6940

     occupation numbers 
     1.0000   1.0000   1.0000   1.0000   1.0000   1.0000   1.0000   1.0000
     1.0000   1.0000   1.0000   1.0000   1.0000   1.0000   0.0000   0.0000
     0.0000   0.0000

          k =-0.1886-0.4714 0.6600 (  8421 PWs)   bands (ev):

   -14.1079 -14.1009 -14.0008 -13.9338 -13.8997 -13.8931 -13.8344 -13.8033
   -13.6991 -13.6924  -0.8027   1.5247   4.8615   5.5993   9.4114   9.4139
     9.5289  10.1761

     occupation numbers 
     1.0000   1.0000   1.0000   1.0000   1.0000   1.0000   1.0000   1.0000
     1.0000   1.0000   1.0000   1.0000   1.0000   1.0000   0.0000   0.0000
     0.0000   0.0000

          k =-0.1414-0.4243 0.6128 (  8437 PWs)   bands (ev):

   -14.1135 -14.1025 -13.9873 -13.9245 -13.9005 -13.8902 -13.8471 -13.8159
   -13.6970 -13.6861  -0.5196   1.1598   4.6780   5.5218   9.4115   9.4141
     9.5490  10.7055

     occupation numbers 
     1.0000   1.0000   1.0000   1.0000   1.0000   1.0000   1.0000   1.0000
     1.0000   1.0000   1.0000   1.0000   1.0000   1.0000   0.0000   0.0000
     0.0000   0.0000

          k =-0.0943-0.3771 0.5657 (  8429 PWs)   bands (ev):

   -14.1154 -14.1029 -13.9822 -13.9220 -13.9001 -13.8876 -13.8534 -13.8204
   -13.6962 -13.6841  -0.4370   1.0600   4.5861   5.5508   9.4120   9.4142
     9.5969  10.8028

     occupation numbers 
     1.0000   1.0000   1.0000   1.0000   1.0000   1.0000   1.0000   1.0000
     1.0000   1.0000   1.0000   1.0000   1.0000   1.0000   0.0000   0.0000
     0.0000   0.0000

          k =-0.0471-0.3300 0.5185 (  8419 PWs)   bands (ev):

   -14.1135 -14.1022 -13.9866 -13.9309 -13.9024 -13.8834 -13.8445 -13.8178
   -13.6970 -13.6866  -0.6324   1.3010   4.6076   5.6767   9.4125   9.4142
     9.6606  10.7261

     occupation numbers 
     1.0000   1.0000   1.0000   1.0000   1.0000   1.0000   1.0000   1.0000
     1.0000   1.0000   1.0000   1.0000   1.0000   1.0000   0.0000   0.0000
     0.0000   0.0000

          k = 0.0000-0.2828 0.4714 (  8416 PWs)   bands (ev):

   -14.1081 -14.1000 -13.9990 -13.9435 -13.9096 -13.8772 -13.8271 -13.8089
   -13.6995 -13.6931  -0.9447   1.7080   4.7673   5.8727   9.4124   9.4141
     9.6781  10.3825

     occupation numbers 
     1.0000   1.0000   1.0000   1.0000   1.0000   1.0000   1.0000   1.0000
     1.0000   1.0000   1.0000   1.0000   1.0000   1.0000   0.0000   0.0000
     0.0000   0.0000

          k =-0.1414-0.5185 0.7071 (  8409 PWs)   bands (ev):

   -14.1055 -14.1034 -14.0005 -13.9215 -13.9214 -13.8758 -13.8447 -13.8013
   -13.6961 -13.6944  -0.6085   1.2878   4.9748   5.3568   9.2949   9.4122
     9.4161   9.5851

     occupation numbers 
     1.0000   1.0000   1.0000   1.0000   1.0000   1.0000   1.0000   1.0000
     1.0000   1.0000   1.0000   1.0000   1.0000   1.0000   0.0000   0.0000
     0.0000   0.0000

          k =-0.0943-0.4714 0.6600 (  8428 PWs)   bands (ev):

   -14.1119 -14.1054 -13.9820 -13.9252 -13.9100 -13.8712 -13.8581 -13.8192
   -13.6936 -13.6872  -0.2903   0.9179   4.7560   5.2514   9.4087   9.4139
     9.4656  10.1851

     occupation numbers 
     1.0000   1.0000   1.0000   1.0000   1.0000   1.0000   1.0000   1.0000
     1.0000   1.0000   1.0000   1.0000   1.0000   1.0000   0.0000   0.0000
     0.0000   0.0000

          k =-0.0471-0.4243 0.6128 (  8420 PWs)   bands (ev):

   -14.1161 -14.1058 -13.9728 -13.9174 -13.9026 -13.8785 -13.8674 -13.8272
   -13.6930 -13.6829  -0.1354   0.7519   4.5712   5.2967   9.4118   9.4141
     9.5409  11.0086

     occupation numbers 
     1.0000   1.0000   1.0000   1.0000   1.0000   1.0000   1.0000   1.0000
     1.0000   1.0000   1.0000   1.0000   1.0000   1.0000   0.0000   0.0000
     0.0000   0.0000

          k = 0.0000-0.3771 0.5657 (  8415 PWs)   bands (ev):

   -14.1166 -14.1048 -13.9758 -13.9136 -13.9002 -13.8881 -13.8633 -13.8249
   -13.6941 -13.6827  -0.3194   0.9551   4.5062   5.4502   9.4127   9.4141
     9.6363  11.3022

     occupation numbers 
     1.0000   1.0000   1.0000   1.0000   1.0000   1.0000   1.0000   1.0000
     1.0000   1.0000   1.0000   1.0000   1.0000   1.0000   0.0000   0.0000
     0.0000   0.0000

          k =-0.0471-0.5185 0.7071 (  8431 PWs)   bands (ev):

   -14.1078 -14.1070 -13.9780 -13.9513 -13.8961 -13.8700 -13.8481 -13.8226
   -13.6917 -13.6909  -0.0241   0.6135   4.9603   5.0871   9.3006   9.3951
     9.4165   9.4292

     occupation numbers 
     1.0000   1.0000   1.0000   1.0000   1.0000   1.0000   1.0000   1.0000
     1.0000   1.0000   1.0000   1.0000   1.0000   1.0000   0.0000   0.0000
     0.0000   0.0000

          k = 0.0000-0.4714 0.6600 (  8418 PWs)   bands (ev):

   -14.1132 -14.1072 -13.9668 -13.9435 -13.8888 -13.8799 -13.8543 -13.8327
   -13.6914 -13.6855   0.1488   0.4480   4.7351   5.1173   9.4036   9.4139
     9.4408  10.1584

     occupation numbers 
     1.0000   1.0000   1.0000   1.0000   1.0000   1.0000   1.0000   1.0000
     1.0000   1.0000   1.0000   1.0000   1.0000   1.0000   0.0000   0.0000
     0.0000   0.0000

          k =-0.1414-0.4243 0.7071 (  8408 PWs)   bands (ev):

   -14.1122 -14.1058 -13.9822 -13.9219 -13.9064 -13.8852 -13.8498 -13.8201
   -13.6934 -13.6874  -0.4786   1.1407   4.6812   5.3637   9.4136   9.4140
    10.1158  10.2641

     occupation numbers 
     1.0000   1.0000   1.0000   1.0000   1.0000   1.0000   1.0000   1.0000
     1.0000   1.0000   1.0000   1.0000   1.0000   1.0000   0.0000   0.0000
     0.0000   0.0000

          k =-0.0943-0.3771 0.6600 (  8425 PWs)   bands (ev):

   -14.1153 -14.1076 -13.9693 -13.9150 -13.9072 -13.8804 -13.8634 -13.8304
   -13.6913 -13.6837  -0.2073   0.8371   4.6006   5.2194   9.4137   9.4141
    10.1562  10.7417

     occupation numbers 
     1.0000   1.0000   1.0000   1.0000   1.0000   1.0000   1.0000   1.0000
     1.0000   1.0000   1.0000   1.0000   1.0000   1.0000   0.0000   0.0000
     0.0000   0.0000

          k =-0.0471-0.4243 0.7071 (  8427 PWs)   bands (ev):

   -14.1130 -14.1105 -13.9605 -13.9347 -13.8983 -13.8738 -13.8606 -13.8381
   -13.6882 -13.6858   0.0355   0.5803   4.7497   4.9792   9.4139   9.4140
    10.2274  10.2351

     occupation numbers 
     1.0000   1.0000   1.0000   1.0000   1.0000   1.0000   1.0000   1.0000
     1.0000   1.0000   1.0000   1.0000   1.0000   1.0000   0.0000   0.0000
     0.0000   0.0000

          k =-0.0000-0.3771 0.6600 (  8428 PWs)   bands (ev):

   -14.1150 -14.1106 -13.9554 -13.9295 -13.8960 -13.8792 -13.8640 -13.8417
   -13.6881 -13.6837   0.0964   0.5232   4.6652   4.9907   9.4139   9.4141
    10.2963  10.9609

     occupation numbers 
     1.0000   1.0000   1.0000   1.0000   1.0000   1.0000   1.0000   1.0000
     1.0000   1.0000   1.0000   1.0000   1.0000   1.0000   0.0000   0.0000
     0.0000   0.0000

     the Fermi energy is     7.5329 ev

!    total energy              =    -256.22179135 Ry
     Harris-Foulkes estimate   =    -256.22179101 Ry
     estimated scf accuracy    <       0.00000089 Ry

     The total energy is the sum of the following terms:

     one-electron contribution =    -136.18359499 Ry
     hartree contribution      =      79.21723325 Ry
     xc contribution           =     -31.47398589 Ry
     ewald contribution        =    -167.78134157 Ry
     smearing contrib. (-TS)   =      -0.00010214 Ry

     convergence has been achieved in   4 iterations

     Writing output data file Sn.save
 
     init_run     :      1.29s CPU      1.77s WALL (       1 calls)
     electrons    :     25.73s CPU     27.76s WALL (       1 calls)

     Called by init_run:
     wfcinit      :      1.10s CPU      1.42s WALL (       1 calls)
     potinit      :      0.01s CPU      0.03s WALL (       1 calls)

     Called by electrons:
     c_bands      :     22.96s CPU     24.90s WALL (       5 calls)
     sum_band     :      2.71s CPU      2.76s WALL (       5 calls)
     v_of_rho     :      0.05s CPU      0.05s WALL (       5 calls)
     v_h          :      0.00s CPU      0.00s WALL (       5 calls)
     v_xc         :      0.04s CPU      0.04s WALL (       5 calls)
     mix_rho      :      0.01s CPU      0.01s WALL (       5 calls)

     Called by c_bands:
     init_us_2    :      0.19s CPU      0.21s WALL (    1320 calls)
     cegterg      :     21.85s CPU     23.70s WALL (     600 calls)

     Called by sum_band:

     Called by *egterg:
     h_psi        :     18.54s CPU     20.35s WALL (    3239 calls)
     g_psi        :      0.10s CPU      0.10s WALL (    2519 calls)
     cdiaghg      :      2.12s CPU      2.27s WALL (    2999 calls)
     cegterg:over :      0.78s CPU      0.81s WALL (    2519 calls)
     cegterg:upda :      0.36s CPU      0.37s WALL (    2519 calls)
     cegterg:last :      0.19s CPU      0.19s WALL (     840 calls)

     Called by h_psi:
     h_psi:vloc   :     17.68s CPU     19.42s WALL (    3239 calls)
     h_psi:vnl    :      0.79s CPU      0.86s WALL (    3239 calls)
     add_vuspsi   :      0.27s CPU      0.29s WALL (    3239 calls)

     General routines
     calbec       :      0.50s CPU      0.55s WALL (    3239 calls)
     fft          :      0.03s CPU      0.09s WALL (      56 calls)
     fftw         :     18.49s CPU     20.15s WALL (   90932 calls)
     davcio       :      0.00s CPU      0.12s WALL (     120 calls)
 
     Parallel routines
     fft_scatter  :      8.24s CPU      8.93s WALL (   90988 calls)
 
     PWSCF        :    27.15s CPU        30.04s WALL

 
   This run was terminated on:   0:53:19  21Feb2020            

=------------------------------------------------------------------------------=
   JOB DONE.
=------------------------------------------------------------------------------=
