
     Program PWSCF v.5.4.0 starts on 17Mar2020 at 13:59:50 

     This program is part of the open-source Quantum ESPRESSO suite
     for quantum simulation of materials; please cite
         "P. Giannozzi et al., J. Phys.:Condens. Matter 21 395502 (2009);
          URL http://www.quantum-espresso.org", 
     in publications or presentations arising from this work. More details at
     http://www.quantum-espresso.org/quote

     Parallel version (MPI & OpenMP), running on      16 processor cores
     Number of MPI processes:                16
     Threads/MPI process:                     1
     R & G space division:  proc/nbgrp/npool/nimage =      16
     Waiting for input...
     Reading input from standard input
Warning: card &IONS ignored
Warning: card / ignored
Warning: card &CELL ignored
Warning: card / ignored

     Current dimensions of program PWSCF are:
     Max number of different atomic species (ntypx) = 10
     Max number of k-points (npk) =  40000
     Max angular momentum in pseudopotentials (lmaxx) =  3
               file Sn.rel-pbe-dn-kjpaw_psl.0.2.UPF: wavefunction(s)  5P 5P 4D 4D renormalized

     Subspace diagonalization in iterative solution of the eigenvalue problem:
     a serial algorithm will be used

 
     Parallelization info
     --------------------
     sticks:   dense  smooth     PW     G-vecs:    dense   smooth      PW
     Min         157     157     43                 5226     5226     773
     Max         158     158     44                 5229     5229     775
     Sum        2527    2527    703                83659    83659   12387
 

     Title: 
     Sn                                                                         


     bravais-lattice index     =            0
     lattice parameter (alat)  =       8.9127  a.u.
     unit-cell volume          =     500.6268 (a.u.)^3
     number of atoms/cell      =            2
     number of atomic types    =            1
     number of electrons       =        28.00
     number of Kohn-Sham states=           36
     kinetic-energy cutoff     =     115.0000  Ry
     charge density cutoff     =     460.0000  Ry
     convergence threshold     =      1.0E-06
     mixing beta               =       0.7000
     number of iterations used =            8  plain     mixing
     Exchange-correlation      =  SLA  PW   PBX  PBC ( 1  4  3  4 0 0)
     Non magnetic calculation with spin-orbit


     celldm(1)=   8.912709  celldm(2)=   0.000000  celldm(3)=   0.000000
     celldm(4)=   0.000000  celldm(5)=   0.000000  celldm(6)=   0.000000

     crystal axes: (cart. coord. in units of alat)
               a(1) = (   0.000000   0.707107   0.707107 )  
               a(2) = (   0.707107   0.000000   0.707107 )  
               a(3) = (   0.707107   0.707107   0.000000 )  

     reciprocal axes: (cart. coord. in units 2 pi/alat)
               b(1) = ( -0.707107  0.707107  0.707107 )  
               b(2) = (  0.707107 -0.707107  0.707107 )  
               b(3) = (  0.707107  0.707107 -0.707107 )  


     PseudoPot. # 1 for Sn read from file:
     ../PseudopotentialDatabase/Sn.rel-pbe-dn-kjpaw_psl.0.2.UPF
     MD5 check sum: 79f626d90b2bb8cc2658247f48f3d9cb
     Pseudo is Projector augmented-wave + core cor, Zval = 14.0
     Generated using "atomic" code by A. Dal Corso  v.5.0.2 svn rev. 9415
     Shape of augmentation charge: BESSEL
     Using radial grid of 1243 points, 10 beta functions with: 
                l(1) =   0
                l(2) =   0
                l(3) =   1
                l(4) =   1
                l(5) =   1
                l(6) =   1
                l(7) =   2
                l(8) =   2
                l(9) =   2
               l(10) =   2
     Q(r) pseudized with 0 coefficients 


     atomic species   valence    mass     pseudopotential
        Sn            14.00   118.71000     Sn( 1.00)

     48 Sym. Ops., with inversion, found (24 have fractional translation)


                                    s                        frac. trans.

      isym =  1     identity                                     

 cryst.   s( 1) = (     1          0          0      )
                  (     0          1          0      )
                  (     0          0          1      )

 cart.    s( 1) = (  1.0000000  0.0000000  0.0000000 )
                  (  0.0000000  1.0000000  0.0000000 )
                  (  0.0000000  0.0000000  1.0000000 )


      isym =  2     180 deg rotation - cart. axis [0,0,1]        

 cryst.   s( 2) = (     0          1         -1      )
                  (     1          0         -1      )
                  (     0          0         -1      )

 cart.    s( 2) = ( -1.0000000  0.0000000  0.0000000 )
                  (  0.0000000 -1.0000000  0.0000000 )
                  (  0.0000000  0.0000000  1.0000000 )


      isym =  3     180 deg rotation - cart. axis [0,1,0]        

 cryst.   s( 3) = (     0         -1          1      )
                  (     0         -1          0      )
                  (     1         -1          0      )

 cart.    s( 3) = ( -1.0000000  0.0000000  0.0000000 )
                  (  0.0000000  1.0000000  0.0000000 )
                  (  0.0000000  0.0000000 -1.0000000 )


      isym =  4     180 deg rotation - cart. axis [1,0,0]        

 cryst.   s( 4) = (    -1          0          0      )
                  (    -1          0          1      )
                  (    -1          1          0      )

 cart.    s( 4) = (  1.0000000  0.0000000  0.0000000 )
                  (  0.0000000 -1.0000000  0.0000000 )
                  (  0.0000000  0.0000000 -1.0000000 )


      isym =  5     180 deg rotation - cart. axis [1,1,0]        

 cryst.   s( 5) = (    -1          0          1      )    f =( -0.2500000 )
                  (     0         -1          1      )       ( -0.2500000 )
                  (     0          0          1      )       ( -0.2500000 )

 cart.    s( 5) = (  0.0000000  1.0000000  0.0000000 )    f =( -0.3535534 )
                  (  1.0000000  0.0000000  0.0000000 )       ( -0.3535534 )
                  (  0.0000000  0.0000000 -1.0000000 )       ( -0.3535534 )


      isym =  6     180 deg rotation - cart. axis [1,-1,0]       

 cryst.   s( 6) = (     0         -1          0      )    f =( -0.2500000 )
                  (    -1          0          0      )       ( -0.2500000 )
                  (     0          0         -1      )       ( -0.2500000 )

 cart.    s( 6) = (  0.0000000 -1.0000000  0.0000000 )    f =( -0.3535534 )
                  ( -1.0000000  0.0000000  0.0000000 )       ( -0.3535534 )
                  (  0.0000000  0.0000000 -1.0000000 )       ( -0.3535534 )


      isym =  7      90 deg rotation - cart. axis [0,0,-1]       

 cryst.   s( 7) = (     0          1          0      )    f =( -0.2500000 )
                  (     0          1         -1      )       ( -0.2500000 )
                  (    -1          1          0      )       ( -0.2500000 )

 cart.    s( 7) = (  0.0000000  1.0000000  0.0000000 )    f =( -0.3535534 )
                  ( -1.0000000  0.0000000  0.0000000 )       ( -0.3535534 )
                  (  0.0000000  0.0000000  1.0000000 )       ( -0.3535534 )


      isym =  8      90 deg rotation - cart. axis [0,0,1]        

 cryst.   s( 8) = (     1          0         -1      )    f =( -0.2500000 )
                  (     1          0          0      )       ( -0.2500000 )
                  (     1         -1          0      )       ( -0.2500000 )

 cart.    s( 8) = (  0.0000000 -1.0000000  0.0000000 )    f =( -0.3535534 )
                  (  1.0000000  0.0000000  0.0000000 )       ( -0.3535534 )
                  (  0.0000000  0.0000000  1.0000000 )       ( -0.3535534 )


      isym =  9     180 deg rotation - cart. axis [1,0,1]        

 cryst.   s( 9) = (    -1          1          0      )    f =( -0.2500000 )
                  (     0          1          0      )       ( -0.2500000 )
                  (     0          1         -1      )       ( -0.2500000 )

 cart.    s( 9) = (  0.0000000  0.0000000  1.0000000 )    f =( -0.3535534 )
                  (  0.0000000 -1.0000000  0.0000000 )       ( -0.3535534 )
                  (  1.0000000  0.0000000  0.0000000 )       ( -0.3535534 )


      isym = 10     180 deg rotation - cart. axis [-1,0,1]       

 cryst.   s(10) = (     0          0         -1      )    f =( -0.2500000 )
                  (     0         -1          0      )       ( -0.2500000 )
                  (    -1          0          0      )       ( -0.2500000 )

 cart.    s(10) = (  0.0000000  0.0000000 -1.0000000 )    f =( -0.3535534 )
                  (  0.0000000 -1.0000000  0.0000000 )       ( -0.3535534 )
                  ( -1.0000000  0.0000000  0.0000000 )       ( -0.3535534 )


      isym = 11      90 deg rotation - cart. axis [0,1,0]        

 cryst.   s(11) = (     0          0          1      )    f =( -0.2500000 )
                  (    -1          0          1      )       ( -0.2500000 )
                  (     0         -1          1      )       ( -0.2500000 )

 cart.    s(11) = (  0.0000000  0.0000000  1.0000000 )    f =( -0.3535534 )
                  (  0.0000000  1.0000000  0.0000000 )       ( -0.3535534 )
                  ( -1.0000000  0.0000000  0.0000000 )       ( -0.3535534 )


      isym = 12      90 deg rotation - cart. axis [0,-1,0]       

 cryst.   s(12) = (     1         -1          0      )    f =( -0.2500000 )
                  (     1          0         -1      )       ( -0.2500000 )
                  (     1          0          0      )       ( -0.2500000 )

 cart.    s(12) = (  0.0000000  0.0000000 -1.0000000 )    f =( -0.3535534 )
                  (  0.0000000  1.0000000  0.0000000 )       ( -0.3535534 )
                  (  1.0000000  0.0000000  0.0000000 )       ( -0.3535534 )


      isym = 13     180 deg rotation - cart. axis [0,1,1]        

 cryst.   s(13) = (     1          0          0      )    f =( -0.2500000 )
                  (     1         -1          0      )       ( -0.2500000 )
                  (     1          0         -1      )       ( -0.2500000 )

 cart.    s(13) = ( -1.0000000  0.0000000  0.0000000 )    f =( -0.3535534 )
                  (  0.0000000  0.0000000  1.0000000 )       ( -0.3535534 )
                  (  0.0000000  1.0000000  0.0000000 )       ( -0.3535534 )


      isym = 14     180 deg rotation - cart. axis [0,1,-1]       

 cryst.   s(14) = (    -1          0          0      )    f =( -0.2500000 )
                  (     0          0         -1      )       ( -0.2500000 )
                  (     0         -1          0      )       ( -0.2500000 )

 cart.    s(14) = ( -1.0000000  0.0000000  0.0000000 )    f =( -0.3535534 )
                  (  0.0000000  0.0000000 -1.0000000 )       ( -0.3535534 )
                  (  0.0000000 -1.0000000  0.0000000 )       ( -0.3535534 )


      isym = 15      90 deg rotation - cart. axis [-1,0,0]       

 cryst.   s(15) = (     0         -1          1      )    f =( -0.2500000 )
                  (     0          0          1      )       ( -0.2500000 )
                  (    -1          0          1      )       ( -0.2500000 )

 cart.    s(15) = (  1.0000000  0.0000000  0.0000000 )    f =( -0.3535534 )
                  (  0.0000000  0.0000000  1.0000000 )       ( -0.3535534 )
                  (  0.0000000 -1.0000000  0.0000000 )       ( -0.3535534 )


      isym = 16      90 deg rotation - cart. axis [1,0,0]        

 cryst.   s(16) = (     0          1         -1      )    f =( -0.2500000 )
                  (    -1          1          0      )       ( -0.2500000 )
                  (     0          1          0      )       ( -0.2500000 )

 cart.    s(16) = (  1.0000000  0.0000000  0.0000000 )    f =( -0.3535534 )
                  (  0.0000000  0.0000000 -1.0000000 )       ( -0.3535534 )
                  (  0.0000000  1.0000000  0.0000000 )       ( -0.3535534 )


      isym = 17     120 deg rotation - cart. axis [-1,-1,-1]     

 cryst.   s(17) = (     0          0          1      )
                  (     1          0          0      )
                  (     0          1          0      )

 cart.    s(17) = (  0.0000000  1.0000000  0.0000000 )
                  (  0.0000000  0.0000000  1.0000000 )
                  (  1.0000000  0.0000000  0.0000000 )


      isym = 18     120 deg rotation - cart. axis [-1,1,1]       

 cryst.   s(18) = (     1         -1          0      )
                  (     0         -1          1      )
                  (     0         -1          0      )

 cart.    s(18) = (  0.0000000 -1.0000000  0.0000000 )
                  (  0.0000000  0.0000000  1.0000000 )
                  ( -1.0000000  0.0000000  0.0000000 )


      isym = 19     120 deg rotation - cart. axis [1,1,-1]       

 cryst.   s(19) = (    -1          1          0      )
                  (    -1          0          0      )
                  (    -1          0          1      )

 cart.    s(19) = (  0.0000000  1.0000000  0.0000000 )
                  (  0.0000000  0.0000000 -1.0000000 )
                  ( -1.0000000  0.0000000  0.0000000 )


      isym = 20     120 deg rotation - cart. axis [1,-1,1]       

 cryst.   s(20) = (     0          0         -1      )
                  (     0          1         -1      )
                  (     1          0         -1      )

 cart.    s(20) = (  0.0000000 -1.0000000  0.0000000 )
                  (  0.0000000  0.0000000 -1.0000000 )
                  (  1.0000000  0.0000000  0.0000000 )


      isym = 21     120 deg rotation - cart. axis [1,1,1]        

 cryst.   s(21) = (     0          1          0      )
                  (     0          0          1      )
                  (     1          0          0      )

 cart.    s(21) = (  0.0000000  0.0000000  1.0000000 )
                  (  1.0000000  0.0000000  0.0000000 )
                  (  0.0000000  1.0000000  0.0000000 )


      isym = 22     120 deg rotation - cart. axis [-1,1,-1]      

 cryst.   s(22) = (    -1          0          1      )
                  (    -1          1          0      )
                  (    -1          0          0      )

 cart.    s(22) = (  0.0000000  0.0000000  1.0000000 )
                  ( -1.0000000  0.0000000  0.0000000 )
                  (  0.0000000 -1.0000000  0.0000000 )


      isym = 23     120 deg rotation - cart. axis [1,-1,-1]      

 cryst.   s(23) = (     1          0         -1      )
                  (     0          0         -1      )
                  (     0          1         -1      )

 cart.    s(23) = (  0.0000000  0.0000000 -1.0000000 )
                  ( -1.0000000  0.0000000  0.0000000 )
                  (  0.0000000  1.0000000  0.0000000 )


      isym = 24     120 deg rotation - cart. axis [-1,-1,1]      

 cryst.   s(24) = (     0         -1          0      )
                  (     1         -1          0      )
                  (     0         -1          1      )

 cart.    s(24) = (  0.0000000  0.0000000 -1.0000000 )
                  (  1.0000000  0.0000000  0.0000000 )
                  (  0.0000000 -1.0000000  0.0000000 )


      isym = 25     inversion                                    

 cryst.   s(25) = (    -1          0          0      )    f =( -0.2500000 )
                  (     0         -1          0      )       ( -0.2500000 )
                  (     0          0         -1      )       ( -0.2500000 )

 cart.    s(25) = ( -1.0000000  0.0000000  0.0000000 )    f =( -0.3535534 )
                  (  0.0000000 -1.0000000  0.0000000 )       ( -0.3535534 )
                  (  0.0000000  0.0000000 -1.0000000 )       ( -0.3535534 )


      isym = 26     inv. 180 deg rotation - cart. axis [0,0,1]   

 cryst.   s(26) = (     0         -1          1      )    f =( -0.2500000 )
                  (    -1          0          1      )       ( -0.2500000 )
                  (     0          0          1      )       ( -0.2500000 )

 cart.    s(26) = (  1.0000000  0.0000000  0.0000000 )    f =( -0.3535534 )
                  (  0.0000000  1.0000000  0.0000000 )       ( -0.3535534 )
                  (  0.0000000  0.0000000 -1.0000000 )       ( -0.3535534 )


      isym = 27     inv. 180 deg rotation - cart. axis [0,1,0]   

 cryst.   s(27) = (     0          1         -1      )    f =( -0.2500000 )
                  (     0          1          0      )       ( -0.2500000 )
                  (    -1          1          0      )       ( -0.2500000 )

 cart.    s(27) = (  1.0000000  0.0000000  0.0000000 )    f =( -0.3535534 )
                  (  0.0000000 -1.0000000  0.0000000 )       ( -0.3535534 )
                  (  0.0000000  0.0000000  1.0000000 )       ( -0.3535534 )


      isym = 28     inv. 180 deg rotation - cart. axis [1,0,0]   

 cryst.   s(28) = (     1          0          0      )    f =( -0.2500000 )
                  (     1          0         -1      )       ( -0.2500000 )
                  (     1         -1          0      )       ( -0.2500000 )

 cart.    s(28) = ( -1.0000000  0.0000000  0.0000000 )    f =( -0.3535534 )
                  (  0.0000000  1.0000000  0.0000000 )       ( -0.3535534 )
                  (  0.0000000  0.0000000  1.0000000 )       ( -0.3535534 )


      isym = 29     inv. 180 deg rotation - cart. axis [1,1,0]   

 cryst.   s(29) = (     1          0         -1      )
                  (     0          1         -1      )
                  (     0          0         -1      )

 cart.    s(29) = (  0.0000000 -1.0000000  0.0000000 )
                  ( -1.0000000  0.0000000  0.0000000 )
                  (  0.0000000  0.0000000  1.0000000 )


      isym = 30     inv. 180 deg rotation - cart. axis [1,-1,0]  

 cryst.   s(30) = (     0          1          0      )
                  (     1          0          0      )
                  (     0          0          1      )

 cart.    s(30) = (  0.0000000  1.0000000  0.0000000 )
                  (  1.0000000  0.0000000  0.0000000 )
                  (  0.0000000  0.0000000  1.0000000 )


      isym = 31     inv.  90 deg rotation - cart. axis [0,0,-1]  

 cryst.   s(31) = (     0         -1          0      )
                  (     0         -1          1      )
                  (     1         -1          0      )

 cart.    s(31) = (  0.0000000 -1.0000000  0.0000000 )
                  (  1.0000000  0.0000000  0.0000000 )
                  (  0.0000000  0.0000000 -1.0000000 )


      isym = 32     inv.  90 deg rotation - cart. axis [0,0,1]   

 cryst.   s(32) = (    -1          0          1      )
                  (    -1          0          0      )
                  (    -1          1          0      )

 cart.    s(32) = (  0.0000000  1.0000000  0.0000000 )
                  ( -1.0000000  0.0000000  0.0000000 )
                  (  0.0000000  0.0000000 -1.0000000 )


      isym = 33     inv. 180 deg rotation - cart. axis [1,0,1]   

 cryst.   s(33) = (     1         -1          0      )
                  (     0         -1          0      )
                  (     0         -1          1      )

 cart.    s(33) = (  0.0000000  0.0000000 -1.0000000 )
                  (  0.0000000  1.0000000  0.0000000 )
                  ( -1.0000000  0.0000000  0.0000000 )


      isym = 34     inv. 180 deg rotation - cart. axis [-1,0,1]  

 cryst.   s(34) = (     0          0          1      )
                  (     0          1          0      )
                  (     1          0          0      )

 cart.    s(34) = (  0.0000000  0.0000000  1.0000000 )
                  (  0.0000000  1.0000000  0.0000000 )
                  (  1.0000000  0.0000000  0.0000000 )


      isym = 35     inv.  90 deg rotation - cart. axis [0,1,0]   

 cryst.   s(35) = (     0          0         -1      )
                  (     1          0         -1      )
                  (     0          1         -1      )

 cart.    s(35) = (  0.0000000  0.0000000 -1.0000000 )
                  (  0.0000000 -1.0000000  0.0000000 )
                  (  1.0000000  0.0000000  0.0000000 )


      isym = 36     inv.  90 deg rotation - cart. axis [0,-1,0]  

 cryst.   s(36) = (    -1          1          0      )
                  (    -1          0          1      )
                  (    -1          0          0      )

 cart.    s(36) = (  0.0000000  0.0000000  1.0000000 )
                  (  0.0000000 -1.0000000  0.0000000 )
                  ( -1.0000000  0.0000000  0.0000000 )


      isym = 37     inv. 180 deg rotation - cart. axis [0,1,1]   

 cryst.   s(37) = (    -1          0          0      )
                  (    -1          1          0      )
                  (    -1          0          1      )

 cart.    s(37) = (  1.0000000  0.0000000  0.0000000 )
                  (  0.0000000  0.0000000 -1.0000000 )
                  (  0.0000000 -1.0000000  0.0000000 )


      isym = 38     inv. 180 deg rotation - cart. axis [0,1,-1]  

 cryst.   s(38) = (     1          0          0      )
                  (     0          0          1      )
                  (     0          1          0      )

 cart.    s(38) = (  1.0000000  0.0000000  0.0000000 )
                  (  0.0000000  0.0000000  1.0000000 )
                  (  0.0000000  1.0000000  0.0000000 )


      isym = 39     inv.  90 deg rotation - cart. axis [-1,0,0]  

 cryst.   s(39) = (     0          1         -1      )
                  (     0          0         -1      )
                  (     1          0         -1      )

 cart.    s(39) = ( -1.0000000  0.0000000  0.0000000 )
                  (  0.0000000  0.0000000 -1.0000000 )
                  (  0.0000000  1.0000000  0.0000000 )


      isym = 40     inv.  90 deg rotation - cart. axis [1,0,0]   

 cryst.   s(40) = (     0         -1          1      )
                  (     1         -1          0      )
                  (     0         -1          0      )

 cart.    s(40) = ( -1.0000000  0.0000000  0.0000000 )
                  (  0.0000000  0.0000000  1.0000000 )
                  (  0.0000000 -1.0000000  0.0000000 )


      isym = 41     inv. 120 deg rotation - cart. axis [-1,-1,-1]

 cryst.   s(41) = (     0          0         -1      )    f =( -0.2500000 )
                  (    -1          0          0      )       ( -0.2500000 )
                  (     0         -1          0      )       ( -0.2500000 )

 cart.    s(41) = (  0.0000000 -1.0000000  0.0000000 )    f =( -0.3535534 )
                  (  0.0000000  0.0000000 -1.0000000 )       ( -0.3535534 )
                  ( -1.0000000  0.0000000  0.0000000 )       ( -0.3535534 )


      isym = 42     inv. 120 deg rotation - cart. axis [-1,1,1]  

 cryst.   s(42) = (    -1          1          0      )    f =( -0.2500000 )
                  (     0          1         -1      )       ( -0.2500000 )
                  (     0          1          0      )       ( -0.2500000 )

 cart.    s(42) = (  0.0000000  1.0000000  0.0000000 )    f =( -0.3535534 )
                  (  0.0000000  0.0000000 -1.0000000 )       ( -0.3535534 )
                  (  1.0000000  0.0000000  0.0000000 )       ( -0.3535534 )


      isym = 43     inv. 120 deg rotation - cart. axis [1,1,-1]  

 cryst.   s(43) = (     1         -1          0      )    f =( -0.2500000 )
                  (     1          0          0      )       ( -0.2500000 )
                  (     1          0         -1      )       ( -0.2500000 )

 cart.    s(43) = (  0.0000000 -1.0000000  0.0000000 )    f =( -0.3535534 )
                  (  0.0000000  0.0000000  1.0000000 )       ( -0.3535534 )
                  (  1.0000000  0.0000000  0.0000000 )       ( -0.3535534 )


      isym = 44     inv. 120 deg rotation - cart. axis [1,-1,1]  

 cryst.   s(44) = (     0          0          1      )    f =( -0.2500000 )
                  (     0         -1          1      )       ( -0.2500000 )
                  (    -1          0          1      )       ( -0.2500000 )

 cart.    s(44) = (  0.0000000  1.0000000  0.0000000 )    f =( -0.3535534 )
                  (  0.0000000  0.0000000  1.0000000 )       ( -0.3535534 )
                  ( -1.0000000  0.0000000  0.0000000 )       ( -0.3535534 )


      isym = 45     inv. 120 deg rotation - cart. axis [1,1,1]   

 cryst.   s(45) = (     0         -1          0      )    f =( -0.2500000 )
                  (     0          0         -1      )       ( -0.2500000 )
                  (    -1          0          0      )       ( -0.2500000 )

 cart.    s(45) = (  0.0000000  0.0000000 -1.0000000 )    f =( -0.3535534 )
                  ( -1.0000000  0.0000000  0.0000000 )       ( -0.3535534 )
                  (  0.0000000 -1.0000000  0.0000000 )       ( -0.3535534 )


      isym = 46     inv. 120 deg rotation - cart. axis [-1,1,-1] 

 cryst.   s(46) = (     1          0         -1      )    f =( -0.2500000 )
                  (     1         -1          0      )       ( -0.2500000 )
                  (     1          0          0      )       ( -0.2500000 )

 cart.    s(46) = (  0.0000000  0.0000000 -1.0000000 )    f =( -0.3535534 )
                  (  1.0000000  0.0000000  0.0000000 )       ( -0.3535534 )
                  (  0.0000000  1.0000000  0.0000000 )       ( -0.3535534 )


      isym = 47     inv. 120 deg rotation - cart. axis [1,-1,-1] 

 cryst.   s(47) = (    -1          0          1      )    f =( -0.2500000 )
                  (     0          0          1      )       ( -0.2500000 )
                  (     0         -1          1      )       ( -0.2500000 )

 cart.    s(47) = (  0.0000000  0.0000000  1.0000000 )    f =( -0.3535534 )
                  (  1.0000000  0.0000000  0.0000000 )       ( -0.3535534 )
                  (  0.0000000 -1.0000000  0.0000000 )       ( -0.3535534 )


      isym = 48     inv. 120 deg rotation - cart. axis [-1,-1,1] 

 cryst.   s(48) = (     0          1          0      )    f =( -0.2500000 )
                  (    -1          1          0      )       ( -0.2500000 )
                  (     0          1         -1      )       ( -0.2500000 )

 cart.    s(48) = (  0.0000000  0.0000000  1.0000000 )    f =( -0.3535534 )
                  ( -1.0000000  0.0000000  0.0000000 )       ( -0.3535534 )
                  (  0.0000000  1.0000000  0.0000000 )       ( -0.3535534 )


   Cartesian axes

     site n.     atom                  positions (alat units)
         1           Sn  tau(   1) = (   0.0000000   0.0000000   0.0000000  )
         2           Sn  tau(   2) = (   0.3535534   0.3535534   0.3535534  )

   Crystallographic axes

     site n.     atom                  positions (cryst. coord.)
         1           Sn  tau(   1) = (  0.0000000  0.0000000  0.0000000  )
         2           Sn  tau(   2) = (  0.2500000  0.2500000  0.2500000  )

     number of k points=   145  gaussian smearing, width (Ry)=  0.0001
                       cart. coord. in units 2pi/alat
        k(    1) = (   0.0000000   0.0000000   0.0000000), wk =   0.0002441
        k(    2) = (   0.0441942   0.0441942  -0.0441942), wk =   0.0019531
        k(    3) = (   0.0883883   0.0883883  -0.0883883), wk =   0.0019531
        k(    4) = (   0.1325825   0.1325825  -0.1325825), wk =   0.0019531
        k(    5) = (   0.1767767   0.1767767  -0.1767767), wk =   0.0019531
        k(    6) = (   0.2209709   0.2209709  -0.2209709), wk =   0.0019531
        k(    7) = (   0.2651650   0.2651650  -0.2651650), wk =   0.0019531
        k(    8) = (   0.3093592   0.3093592  -0.3093592), wk =   0.0019531
        k(    9) = (  -0.3535534  -0.3535534   0.3535534), wk =   0.0009766
        k(   10) = (   0.0883883   0.0000000   0.0000000), wk =   0.0014648
        k(   11) = (   0.1325825   0.0441942  -0.0441942), wk =   0.0058594
        k(   12) = (   0.1767767   0.0883883  -0.0883883), wk =   0.0058594
        k(   13) = (   0.2209709   0.1325825  -0.1325825), wk =   0.0058594
        k(   14) = (   0.2651650   0.1767767  -0.1767767), wk =   0.0058594
        k(   15) = (   0.3093592   0.2209709  -0.2209709), wk =   0.0058594
        k(   16) = (   0.3535534   0.2651650  -0.2651650), wk =   0.0058594
        k(   17) = (  -0.3093592  -0.3977476   0.3977476), wk =   0.0058594
        k(   18) = (  -0.2651650  -0.3535534   0.3535534), wk =   0.0058594
        k(   19) = (  -0.2209709  -0.3093592   0.3093592), wk =   0.0058594
        k(   20) = (  -0.1767767  -0.2651650   0.2651650), wk =   0.0058594
        k(   21) = (  -0.1325825  -0.2209709   0.2209709), wk =   0.0058594
        k(   22) = (  -0.0883883  -0.1767767   0.1767767), wk =   0.0058594
        k(   23) = (  -0.0441942  -0.1325825   0.1325825), wk =   0.0058594
        k(   24) = (   0.0000000  -0.0883883   0.0883883), wk =   0.0029297
        k(   25) = (   0.1767767   0.0000000   0.0000000), wk =   0.0014648
        k(   26) = (   0.2209709   0.0441942  -0.0441942), wk =   0.0058594
        k(   27) = (   0.2651650   0.0883883  -0.0883883), wk =   0.0058594
        k(   28) = (   0.3093592   0.1325825  -0.1325825), wk =   0.0058594
        k(   29) = (   0.3535534   0.1767767  -0.1767767), wk =   0.0058594
        k(   30) = (   0.3977476   0.2209709  -0.2209709), wk =   0.0058594
        k(   31) = (  -0.2651650  -0.4419417   0.4419417), wk =   0.0058594
        k(   32) = (  -0.2209709  -0.3977476   0.3977476), wk =   0.0058594
        k(   33) = (  -0.1767767  -0.3535534   0.3535534), wk =   0.0058594
        k(   34) = (  -0.1325825  -0.3093592   0.3093592), wk =   0.0058594
        k(   35) = (  -0.0883883  -0.2651650   0.2651650), wk =   0.0058594
        k(   36) = (  -0.0441942  -0.2209709   0.2209709), wk =   0.0058594
        k(   37) = (   0.0000000  -0.1767767   0.1767767), wk =   0.0029297
        k(   38) = (   0.2651650   0.0000000   0.0000000), wk =   0.0014648
        k(   39) = (   0.3093592   0.0441942  -0.0441942), wk =   0.0058594
        k(   40) = (   0.3535534   0.0883883  -0.0883883), wk =   0.0058594
        k(   41) = (   0.3977476   0.1325825  -0.1325825), wk =   0.0058594
        k(   42) = (   0.4419417   0.1767767  -0.1767767), wk =   0.0058594
        k(   43) = (  -0.2209709  -0.4861359   0.4861359), wk =   0.0058594
        k(   44) = (  -0.1767767  -0.4419417   0.4419417), wk =   0.0058594
        k(   45) = (  -0.1325825  -0.3977476   0.3977476), wk =   0.0058594
        k(   46) = (  -0.0883883  -0.3535534   0.3535534), wk =   0.0058594
        k(   47) = (  -0.0441942  -0.3093592   0.3093592), wk =   0.0058594
        k(   48) = (   0.0000000  -0.2651650   0.2651650), wk =   0.0029297
        k(   49) = (   0.3535534   0.0000000   0.0000000), wk =   0.0014648
        k(   50) = (   0.3977476   0.0441942  -0.0441942), wk =   0.0058594
        k(   51) = (   0.4419417   0.0883883  -0.0883883), wk =   0.0058594
        k(   52) = (   0.4861359   0.1325825  -0.1325825), wk =   0.0058594
        k(   53) = (  -0.1767767  -0.5303301   0.5303301), wk =   0.0058594
        k(   54) = (  -0.1325825  -0.4861359   0.4861359), wk =   0.0058594
        k(   55) = (  -0.0883883  -0.4419417   0.4419417), wk =   0.0058594
        k(   56) = (  -0.0441942  -0.3977476   0.3977476), wk =   0.0058594
        k(   57) = (   0.0000000  -0.3535534   0.3535534), wk =   0.0029297
        k(   58) = (   0.4419417   0.0000000   0.0000000), wk =   0.0014648
        k(   59) = (   0.4861359   0.0441942  -0.0441942), wk =   0.0058594
        k(   60) = (   0.5303301   0.0883883  -0.0883883), wk =   0.0058594
        k(   61) = (  -0.1325825  -0.5745243   0.5745243), wk =   0.0058594
        k(   62) = (  -0.0883883  -0.5303301   0.5303301), wk =   0.0058594
        k(   63) = (  -0.0441942  -0.4861359   0.4861359), wk =   0.0058594
        k(   64) = (   0.0000000  -0.4419417   0.4419417), wk =   0.0029297
        k(   65) = (   0.5303301   0.0000000   0.0000000), wk =   0.0014648
        k(   66) = (   0.5745243   0.0441942  -0.0441942), wk =   0.0058594
        k(   67) = (  -0.0883883  -0.6187184   0.6187184), wk =   0.0058594
        k(   68) = (  -0.0441942  -0.5745243   0.5745243), wk =   0.0058594
        k(   69) = (   0.0000000  -0.5303301   0.5303301), wk =   0.0029297
        k(   70) = (   0.6187184   0.0000000   0.0000000), wk =   0.0014648
        k(   71) = (  -0.0441942  -0.6629126   0.6629126), wk =   0.0058594
        k(   72) = (   0.0000000  -0.6187184   0.6187184), wk =   0.0029297
        k(   73) = (  -0.7071068   0.0000000   0.0000000), wk =   0.0007324
        k(   74) = (   0.1767767   0.0883883   0.0000000), wk =   0.0058594
        k(   75) = (   0.2209709   0.1325825  -0.0441942), wk =   0.0117188
        k(   76) = (   0.2651650   0.1767767  -0.0883883), wk =   0.0117188
        k(   77) = (   0.3093592   0.2209709  -0.1325825), wk =   0.0117188
        k(   78) = (   0.3535534   0.2651650  -0.1767767), wk =   0.0117188
        k(   79) = (  -0.3093592  -0.3977476   0.4861359), wk =   0.0117188
        k(   80) = (  -0.2651650  -0.3535534   0.4419417), wk =   0.0058594
        k(   81) = (   0.2651650   0.0883883   0.0000000), wk =   0.0058594
        k(   82) = (   0.3093592   0.1325825  -0.0441942), wk =   0.0117188
        k(   83) = (   0.3535534   0.1767767  -0.0883883), wk =   0.0117188
        k(   84) = (   0.3977476   0.2209709  -0.1325825), wk =   0.0117188
        k(   85) = (  -0.2651650  -0.4419417   0.5303301), wk =   0.0117188
        k(   86) = (  -0.2209709  -0.3977476   0.4861359), wk =   0.0117188
        k(   87) = (  -0.1767767  -0.3535534   0.4419417), wk =   0.0117188
        k(   88) = (  -0.1325825  -0.3093592   0.3977476), wk =   0.0117188
        k(   89) = (  -0.0883883  -0.2651650   0.3535534), wk =   0.0117188
        k(   90) = (  -0.0441942  -0.2209709   0.3093592), wk =   0.0117188
        k(   91) = (   0.0000000  -0.1767767   0.2651650), wk =   0.0058594
        k(   92) = (   0.3535534   0.0883883   0.0000000), wk =   0.0058594
        k(   93) = (   0.3977476   0.1325825  -0.0441942), wk =   0.0117188
        k(   94) = (   0.4419417   0.1767767  -0.0883883), wk =   0.0117188
        k(   95) = (  -0.2209709  -0.4861359   0.5745243), wk =   0.0117188
        k(   96) = (  -0.1767767  -0.4419417   0.5303301), wk =   0.0117188
        k(   97) = (  -0.1325825  -0.3977476   0.4861359), wk =   0.0117188
        k(   98) = (  -0.0883883  -0.3535534   0.4419417), wk =   0.0117188
        k(   99) = (  -0.0441942  -0.3093592   0.3977476), wk =   0.0117188
        k(  100) = (   0.0000000  -0.2651650   0.3535534), wk =   0.0058594
        k(  101) = (   0.4419417   0.0883883   0.0000000), wk =   0.0058594
        k(  102) = (   0.4861359   0.1325825  -0.0441942), wk =   0.0117188
        k(  103) = (  -0.1767767  -0.5303301   0.6187184), wk =   0.0117188
        k(  104) = (  -0.1325825  -0.4861359   0.5745243), wk =   0.0117188
        k(  105) = (  -0.0883883  -0.4419417   0.5303301), wk =   0.0117188
        k(  106) = (  -0.0441942  -0.3977476   0.4861359), wk =   0.0117188
        k(  107) = (   0.0000000  -0.3535534   0.4419417), wk =   0.0058594
        k(  108) = (   0.5303301   0.0883883   0.0000000), wk =   0.0058594
        k(  109) = (  -0.1325825  -0.5745243   0.6629126), wk =   0.0117188
        k(  110) = (  -0.0883883  -0.5303301   0.6187184), wk =   0.0117188
        k(  111) = (  -0.0441942  -0.4861359   0.5745243), wk =   0.0117188
        k(  112) = (   0.0000000  -0.4419417   0.5303301), wk =   0.0058594
        k(  113) = (  -0.0883883  -0.6187184   0.7071068), wk =   0.0058594
        k(  114) = (  -0.0441942  -0.5745243   0.6629126), wk =   0.0117188
        k(  115) = (  -0.0000000  -0.5303301   0.6187184), wk =   0.0058594
        k(  116) = (  -0.7071068   0.0883883   0.0000000), wk =   0.0029297
        k(  117) = (   0.3535534   0.1767767   0.0000000), wk =   0.0058594
        k(  118) = (   0.3977476   0.2209709  -0.0441942), wk =   0.0117188
        k(  119) = (  -0.2651650  -0.4419417   0.6187184), wk =   0.0117188
        k(  120) = (  -0.2209709  -0.3977476   0.5745243), wk =   0.0117188
        k(  121) = (  -0.1767767  -0.3535534   0.5303301), wk =   0.0058594
        k(  122) = (   0.4419417   0.1767767   0.0000000), wk =   0.0058594
        k(  123) = (  -0.2209709  -0.4861359   0.6629126), wk =   0.0117188
        k(  124) = (  -0.1767767  -0.4419417   0.6187184), wk =   0.0117188
        k(  125) = (  -0.1325825  -0.3977476   0.5745243), wk =   0.0117188
        k(  126) = (  -0.0883883  -0.3535534   0.5303301), wk =   0.0117188
        k(  127) = (  -0.0441942  -0.3093592   0.4861359), wk =   0.0117188
        k(  128) = (   0.0000000  -0.2651650   0.4419417), wk =   0.0058594
        k(  129) = (  -0.1767767  -0.5303301   0.7071068), wk =   0.0058594
        k(  130) = (  -0.1325825  -0.4861359   0.6629126), wk =   0.0117188
        k(  131) = (  -0.0883883  -0.4419417   0.6187184), wk =   0.0117188
        k(  132) = (  -0.0441942  -0.3977476   0.5745243), wk =   0.0117188
        k(  133) = (   0.0000000  -0.3535534   0.5303301), wk =   0.0058594
        k(  134) = (  -0.0883883  -0.5303301   0.7071068), wk =   0.0058594
        k(  135) = (  -0.0441942  -0.4861359   0.6629126), wk =   0.0117188
        k(  136) = (   0.0000000  -0.4419417   0.6187184), wk =   0.0058594
        k(  137) = (  -0.7071068   0.1767767   0.0000000), wk =   0.0029297
        k(  138) = (  -0.1767767  -0.4419417   0.7071068), wk =   0.0058594
        k(  139) = (  -0.1325825  -0.3977476   0.6629126), wk =   0.0117188
        k(  140) = (  -0.0883883  -0.3535534   0.6187184), wk =   0.0058594
        k(  141) = (  -0.0883883  -0.4419417   0.7071068), wk =   0.0058594
        k(  142) = (  -0.0441942  -0.3977476   0.6629126), wk =   0.0117188
        k(  143) = (  -0.0000000  -0.3535534   0.6187184), wk =   0.0058594
        k(  144) = (  -0.7071068   0.2651650   0.0000000), wk =   0.0029297
        k(  145) = (  -0.7071068   0.3535534   0.0000000), wk =   0.0014648

                       cryst. coord.
        k(    1) = (   0.0000000   0.0000000   0.0000000), wk =   0.0002441
        k(    2) = (   0.0000000   0.0000000   0.0625000), wk =   0.0019531
        k(    3) = (   0.0000000   0.0000000   0.1250000), wk =   0.0019531
        k(    4) = (   0.0000000   0.0000000   0.1875000), wk =   0.0019531
        k(    5) = (   0.0000000   0.0000000   0.2500000), wk =   0.0019531
        k(    6) = (   0.0000000   0.0000000   0.3125000), wk =   0.0019531
        k(    7) = (   0.0000000   0.0000000   0.3750000), wk =   0.0019531
        k(    8) = (   0.0000000   0.0000000   0.4375000), wk =   0.0019531
        k(    9) = (   0.0000000   0.0000000  -0.5000000), wk =   0.0009766
        k(   10) = (   0.0000000   0.0625000   0.0625000), wk =   0.0014648
        k(   11) = (   0.0000000   0.0625000   0.1250000), wk =   0.0058594
        k(   12) = (   0.0000000   0.0625000   0.1875000), wk =   0.0058594
        k(   13) = (   0.0000000   0.0625000   0.2500000), wk =   0.0058594
        k(   14) = (   0.0000000   0.0625000   0.3125000), wk =   0.0058594
        k(   15) = (   0.0000000   0.0625000   0.3750000), wk =   0.0058594
        k(   16) = (   0.0000000   0.0625000   0.4375000), wk =   0.0058594
        k(   17) = (   0.0000000   0.0625000  -0.5000000), wk =   0.0058594
        k(   18) = (   0.0000000   0.0625000  -0.4375000), wk =   0.0058594
        k(   19) = (   0.0000000   0.0625000  -0.3750000), wk =   0.0058594
        k(   20) = (   0.0000000   0.0625000  -0.3125000), wk =   0.0058594
        k(   21) = (   0.0000000   0.0625000  -0.2500000), wk =   0.0058594
        k(   22) = (   0.0000000   0.0625000  -0.1875000), wk =   0.0058594
        k(   23) = (   0.0000000   0.0625000  -0.1250000), wk =   0.0058594
        k(   24) = (   0.0000000   0.0625000  -0.0625000), wk =   0.0029297
        k(   25) = (   0.0000000   0.1250000   0.1250000), wk =   0.0014648
        k(   26) = (   0.0000000   0.1250000   0.1875000), wk =   0.0058594
        k(   27) = (   0.0000000   0.1250000   0.2500000), wk =   0.0058594
        k(   28) = (   0.0000000   0.1250000   0.3125000), wk =   0.0058594
        k(   29) = (   0.0000000   0.1250000   0.3750000), wk =   0.0058594
        k(   30) = (   0.0000000   0.1250000   0.4375000), wk =   0.0058594
        k(   31) = (   0.0000000   0.1250000  -0.5000000), wk =   0.0058594
        k(   32) = (   0.0000000   0.1250000  -0.4375000), wk =   0.0058594
        k(   33) = (   0.0000000   0.1250000  -0.3750000), wk =   0.0058594
        k(   34) = (   0.0000000   0.1250000  -0.3125000), wk =   0.0058594
        k(   35) = (   0.0000000   0.1250000  -0.2500000), wk =   0.0058594
        k(   36) = (   0.0000000   0.1250000  -0.1875000), wk =   0.0058594
        k(   37) = (   0.0000000   0.1250000  -0.1250000), wk =   0.0029297
        k(   38) = (   0.0000000   0.1875000   0.1875000), wk =   0.0014648
        k(   39) = (   0.0000000   0.1875000   0.2500000), wk =   0.0058594
        k(   40) = (   0.0000000   0.1875000   0.3125000), wk =   0.0058594
        k(   41) = (   0.0000000   0.1875000   0.3750000), wk =   0.0058594
        k(   42) = (   0.0000000   0.1875000   0.4375000), wk =   0.0058594
        k(   43) = (   0.0000000   0.1875000  -0.5000000), wk =   0.0058594
        k(   44) = (   0.0000000   0.1875000  -0.4375000), wk =   0.0058594
        k(   45) = (   0.0000000   0.1875000  -0.3750000), wk =   0.0058594
        k(   46) = (   0.0000000   0.1875000  -0.3125000), wk =   0.0058594
        k(   47) = (   0.0000000   0.1875000  -0.2500000), wk =   0.0058594
        k(   48) = (   0.0000000   0.1875000  -0.1875000), wk =   0.0029297
        k(   49) = (   0.0000000   0.2500000   0.2500000), wk =   0.0014648
        k(   50) = (   0.0000000   0.2500000   0.3125000), wk =   0.0058594
        k(   51) = (   0.0000000   0.2500000   0.3750000), wk =   0.0058594
        k(   52) = (   0.0000000   0.2500000   0.4375000), wk =   0.0058594
        k(   53) = (   0.0000000   0.2500000  -0.5000000), wk =   0.0058594
        k(   54) = (   0.0000000   0.2500000  -0.4375000), wk =   0.0058594
        k(   55) = (   0.0000000   0.2500000  -0.3750000), wk =   0.0058594
        k(   56) = (   0.0000000   0.2500000  -0.3125000), wk =   0.0058594
        k(   57) = (   0.0000000   0.2500000  -0.2500000), wk =   0.0029297
        k(   58) = (   0.0000000   0.3125000   0.3125000), wk =   0.0014648
        k(   59) = (   0.0000000   0.3125000   0.3750000), wk =   0.0058594
        k(   60) = (   0.0000000   0.3125000   0.4375000), wk =   0.0058594
        k(   61) = (   0.0000000   0.3125000  -0.5000000), wk =   0.0058594
        k(   62) = (   0.0000000   0.3125000  -0.4375000), wk =   0.0058594
        k(   63) = (   0.0000000   0.3125000  -0.3750000), wk =   0.0058594
        k(   64) = (   0.0000000   0.3125000  -0.3125000), wk =   0.0029297
        k(   65) = (   0.0000000   0.3750000   0.3750000), wk =   0.0014648
        k(   66) = (   0.0000000   0.3750000   0.4375000), wk =   0.0058594
        k(   67) = (   0.0000000   0.3750000  -0.5000000), wk =   0.0058594
        k(   68) = (   0.0000000   0.3750000  -0.4375000), wk =   0.0058594
        k(   69) = (   0.0000000   0.3750000  -0.3750000), wk =   0.0029297
        k(   70) = (   0.0000000   0.4375000   0.4375000), wk =   0.0014648
        k(   71) = (   0.0000000   0.4375000  -0.5000000), wk =   0.0058594
        k(   72) = (   0.0000000   0.4375000  -0.4375000), wk =   0.0029297
        k(   73) = (   0.0000000  -0.5000000  -0.5000000), wk =   0.0007324
        k(   74) = (   0.0625000   0.1250000   0.1875000), wk =   0.0058594
        k(   75) = (   0.0625000   0.1250000   0.2500000), wk =   0.0117188
        k(   76) = (   0.0625000   0.1250000   0.3125000), wk =   0.0117188
        k(   77) = (   0.0625000   0.1250000   0.3750000), wk =   0.0117188
        k(   78) = (   0.0625000   0.1250000   0.4375000), wk =   0.0117188
        k(   79) = (   0.0625000   0.1250000  -0.5000000), wk =   0.0117188
        k(   80) = (   0.0625000   0.1250000  -0.4375000), wk =   0.0058594
        k(   81) = (   0.0625000   0.1875000   0.2500000), wk =   0.0058594
        k(   82) = (   0.0625000   0.1875000   0.3125000), wk =   0.0117188
        k(   83) = (   0.0625000   0.1875000   0.3750000), wk =   0.0117188
        k(   84) = (   0.0625000   0.1875000   0.4375000), wk =   0.0117188
        k(   85) = (   0.0625000   0.1875000  -0.5000000), wk =   0.0117188
        k(   86) = (   0.0625000   0.1875000  -0.4375000), wk =   0.0117188
        k(   87) = (   0.0625000   0.1875000  -0.3750000), wk =   0.0117188
        k(   88) = (   0.0625000   0.1875000  -0.3125000), wk =   0.0117188
        k(   89) = (   0.0625000   0.1875000  -0.2500000), wk =   0.0117188
        k(   90) = (   0.0625000   0.1875000  -0.1875000), wk =   0.0117188
        k(   91) = (   0.0625000   0.1875000  -0.1250000), wk =   0.0058594
        k(   92) = (   0.0625000   0.2500000   0.3125000), wk =   0.0058594
        k(   93) = (   0.0625000   0.2500000   0.3750000), wk =   0.0117188
        k(   94) = (   0.0625000   0.2500000   0.4375000), wk =   0.0117188
        k(   95) = (   0.0625000   0.2500000  -0.5000000), wk =   0.0117188
        k(   96) = (   0.0625000   0.2500000  -0.4375000), wk =   0.0117188
        k(   97) = (   0.0625000   0.2500000  -0.3750000), wk =   0.0117188
        k(   98) = (   0.0625000   0.2500000  -0.3125000), wk =   0.0117188
        k(   99) = (   0.0625000   0.2500000  -0.2500000), wk =   0.0117188
        k(  100) = (   0.0625000   0.2500000  -0.1875000), wk =   0.0058594
        k(  101) = (   0.0625000   0.3125000   0.3750000), wk =   0.0058594
        k(  102) = (   0.0625000   0.3125000   0.4375000), wk =   0.0117188
        k(  103) = (   0.0625000   0.3125000  -0.5000000), wk =   0.0117188
        k(  104) = (   0.0625000   0.3125000  -0.4375000), wk =   0.0117188
        k(  105) = (   0.0625000   0.3125000  -0.3750000), wk =   0.0117188
        k(  106) = (   0.0625000   0.3125000  -0.3125000), wk =   0.0117188
        k(  107) = (   0.0625000   0.3125000  -0.2500000), wk =   0.0058594
        k(  108) = (   0.0625000   0.3750000   0.4375000), wk =   0.0058594
        k(  109) = (   0.0625000   0.3750000  -0.5000000), wk =   0.0117188
        k(  110) = (   0.0625000   0.3750000  -0.4375000), wk =   0.0117188
        k(  111) = (   0.0625000   0.3750000  -0.3750000), wk =   0.0117188
        k(  112) = (   0.0625000   0.3750000  -0.3125000), wk =   0.0058594
        k(  113) = (   0.0625000   0.4375000  -0.5000000), wk =   0.0058594
        k(  114) = (   0.0625000   0.4375000  -0.4375000), wk =   0.0117188
        k(  115) = (   0.0625000   0.4375000  -0.3750000), wk =   0.0058594
        k(  116) = (   0.0625000  -0.5000000  -0.4375000), wk =   0.0029297
        k(  117) = (   0.1250000   0.2500000   0.3750000), wk =   0.0058594
        k(  118) = (   0.1250000   0.2500000   0.4375000), wk =   0.0117188
        k(  119) = (   0.1250000   0.2500000  -0.5000000), wk =   0.0117188
        k(  120) = (   0.1250000   0.2500000  -0.4375000), wk =   0.0117188
        k(  121) = (   0.1250000   0.2500000  -0.3750000), wk =   0.0058594
        k(  122) = (   0.1250000   0.3125000   0.4375000), wk =   0.0058594
        k(  123) = (   0.1250000   0.3125000  -0.5000000), wk =   0.0117188
        k(  124) = (   0.1250000   0.3125000  -0.4375000), wk =   0.0117188
        k(  125) = (   0.1250000   0.3125000  -0.3750000), wk =   0.0117188
        k(  126) = (   0.1250000   0.3125000  -0.3125000), wk =   0.0117188
        k(  127) = (   0.1250000   0.3125000  -0.2500000), wk =   0.0117188
        k(  128) = (   0.1250000   0.3125000  -0.1875000), wk =   0.0058594
        k(  129) = (   0.1250000   0.3750000  -0.5000000), wk =   0.0058594
        k(  130) = (   0.1250000   0.3750000  -0.4375000), wk =   0.0117188
        k(  131) = (   0.1250000   0.3750000  -0.3750000), wk =   0.0117188
        k(  132) = (   0.1250000   0.3750000  -0.3125000), wk =   0.0117188
        k(  133) = (   0.1250000   0.3750000  -0.2500000), wk =   0.0058594
        k(  134) = (   0.1250000   0.4375000  -0.4375000), wk =   0.0058594
        k(  135) = (   0.1250000   0.4375000  -0.3750000), wk =   0.0117188
        k(  136) = (   0.1250000   0.4375000  -0.3125000), wk =   0.0058594
        k(  137) = (   0.1250000  -0.5000000  -0.3750000), wk =   0.0029297
        k(  138) = (   0.1875000   0.3750000  -0.4375000), wk =   0.0058594
        k(  139) = (   0.1875000   0.3750000  -0.3750000), wk =   0.0117188
        k(  140) = (   0.1875000   0.3750000  -0.3125000), wk =   0.0058594
        k(  141) = (   0.1875000   0.4375000  -0.3750000), wk =   0.0058594
        k(  142) = (   0.1875000   0.4375000  -0.3125000), wk =   0.0117188
        k(  143) = (   0.1875000   0.4375000  -0.2500000), wk =   0.0058594
        k(  144) = (   0.1875000  -0.5000000  -0.3125000), wk =   0.0029297
        k(  145) = (   0.2500000  -0.5000000  -0.2500000), wk =   0.0014648

     Dense  grid:    83659 G-vectors     FFT dimensions: (  64,  64,  64)

     Largest allocated arrays     est. size (Mb)     dimensions
        Kohn-Sham Wavefunctions         0.73 Mb     (    1334,   36)
        NL pseudopotentials             0.69 Mb     (     667,   68)
        Each V/rho on FFT grid          0.25 Mb     (   16384)
        Each G-vector array             0.04 Mb     (    5229)
        G-vector shells                 0.00 Mb     (     598)
     Largest temporary arrays     est. size (Mb)     dimensions
        Auxiliary wavefunctions         2.93 Mb     (    1334,  144)
        Each subspace H/S matrix        0.32 Mb     (     144,  144)
        Each <psi_i|beta_j> matrix      0.07 Mb     (      68,   2,   36)
        Arrays for rho mixing           2.00 Mb     (   16384,    8)

     Check: negative/imaginary core charge=   -0.000008    0.000000

     Initial potential from superposition of free atoms

     starting charge   27.99781, renormalised to   28.00000
     Starting wfc are   36 randomized atomic wfcs
     Checking if some PAW data can be deallocated... 

     total cpu time spent up to now is       22.5 secs

     Self-consistent Calculation

     iteration #  1     ecut=   115.00 Ry     beta=0.70
     Davidson diagonalization with overlap
     ethr =  1.00E-02,  avg # of iterations =  4.1

     Threshold (ethr) on eigenvalues was too large:
     Diagonalizing with lowered threshold

     Davidson diagonalization with overlap
     ethr =  4.52E-05,  avg # of iterations =  4.2

     total cpu time spent up to now is      200.7 secs

     total energy              =    -885.88303818 Ry
     Harris-Foulkes estimate   =    -885.88556652 Ry
     estimated scf accuracy    <       0.01951325 Ry

     iteration #  2     ecut=   115.00 Ry     beta=0.70
     Davidson diagonalization with overlap
     ethr =  6.97E-05,  avg # of iterations =  1.0

     total cpu time spent up to now is      256.0 secs

     total energy              =    -885.88309035 Ry
     Harris-Foulkes estimate   =    -885.88329124 Ry
     estimated scf accuracy    <       0.00137795 Ry

     iteration #  3     ecut=   115.00 Ry     beta=0.70
     Davidson diagonalization with overlap
     ethr =  4.92E-06,  avg # of iterations =  2.6

     total cpu time spent up to now is      323.2 secs

     total energy              =    -885.88326530 Ry
     Harris-Foulkes estimate   =    -885.88327563 Ry
     estimated scf accuracy    <       0.00002036 Ry

     iteration #  4     ecut=   115.00 Ry     beta=0.70
     Davidson diagonalization with overlap
     ethr =  7.27E-08,  avg # of iterations =  4.0

     total cpu time spent up to now is      415.2 secs

     total energy              =    -885.88331247 Ry
     Harris-Foulkes estimate   =    -885.88331266 Ry
     estimated scf accuracy    <       0.00000510 Ry

     iteration #  5     ecut=   115.00 Ry     beta=0.70
     Davidson diagonalization with overlap
     ethr =  1.82E-08,  avg # of iterations =  2.0

     total cpu time spent up to now is      487.7 secs

     total energy              =    -885.88331344 Ry
     Harris-Foulkes estimate   =    -885.88331392 Ry
     estimated scf accuracy    <       0.00000110 Ry

     iteration #  6     ecut=   115.00 Ry     beta=0.70
     Davidson diagonalization with overlap
     ethr =  3.95E-09,  avg # of iterations =  2.0

     total cpu time spent up to now is      556.2 secs

     End of self-consistent calculation

          k = 0.0000 0.0000 0.0000 ( 10417 PWs)   bands (ev):

   -14.5214 -14.5214 -14.5214 -14.5214 -14.4415 -14.4415 -14.4415 -14.4415
   -13.5938 -13.5938 -13.4250 -13.4250 -13.4250 -13.4250 -13.3874 -13.3874
   -13.3874 -13.3874 -13.2858 -13.2858  -2.5428  -2.5428   6.3490   6.3490
     7.1787   7.1787   7.8298   7.8298   7.8298   7.8298   9.3591   9.3591
     9.8338   9.8338   9.8338   9.8338

     occupation numbers 
     1.0000   1.0000   1.0000   1.0000   1.0000   1.0000   1.0000   1.0000
     1.0000   1.0000   1.0000   1.0000   1.0000   1.0000   1.0000   1.0000
     1.0000   1.0000   1.0000   1.0000   1.0000   1.0000   1.0000   1.0000
     1.0000   1.0000   0.0000   0.0000   0.0000   0.0000   0.0000   0.0000
     0.0000   0.0000   0.0000   0.0000

          k = 0.0442 0.0442-0.0442 ( 10423 PWs)   bands (ev):

   -14.5218 -14.5218 -14.5207 -14.5207 -14.4423 -14.4423 -14.4410 -14.4410
   -13.5920 -13.5920 -13.4300 -13.4300 -13.4281 -13.4281 -13.3841 -13.3841
   -13.3832 -13.3832 -13.2867 -13.2867  -2.5080  -2.5080   5.9404   5.9404
     7.2252   7.2252   7.7550   7.7550   7.8902   7.8902   9.5168   9.5168
     9.9169   9.9169   9.9310   9.9310

     occupation numbers 
     1.0000   1.0000   1.0000   1.0000   1.0000   1.0000   1.0000   1.0000
     1.0000   1.0000   1.0000   1.0000   1.0000   1.0000   1.0000   1.0000
     1.0000   1.0000   1.0000   1.0000   1.0000   1.0000   1.0000   1.0000
     1.0000   1.0000   0.0000   0.0000   0.0000   0.0000   0.0000   0.0000
     0.0000   0.0000   0.0000   0.0000

          k = 0.0884 0.0884-0.0884 ( 10423 PWs)   bands (ev):

   -14.5229 -14.5229 -14.5184 -14.5184 -14.4445 -14.4445 -14.4396 -14.4396
   -13.5868 -13.5868 -13.4409 -13.4409 -13.4350 -13.4350 -13.3767 -13.3767
   -13.3743 -13.3743 -13.2894 -13.2894  -2.4047  -2.4047   5.1773   5.1773
     7.1189   7.1189   7.5731   7.5731   7.9366   7.9366   9.8440   9.8440
    10.1690  10.1690  10.2729  10.2729

     occupation numbers 
     1.0000   1.0000   1.0000   1.0000   1.0000   1.0000   1.0000   1.0000
     1.0000   1.0000   1.0000   1.0000   1.0000   1.0000   1.0000   1.0000
     1.0000   1.0000   1.0000   1.0000   1.0000   1.0000   1.0000   1.0000
     1.0000   1.0000   1.0000   1.0000   0.0000   0.0000   0.0000   0.0000
     0.0000   0.0000   0.0000   0.0000

          k = 0.1326 0.1326-0.1326 ( 10444 PWs)   bands (ev):

   -14.5243 -14.5243 -14.5147 -14.5147 -14.4480 -14.4480 -14.4375 -14.4375
   -13.5787 -13.5787 -13.4538 -13.4538 -13.4428 -13.4428 -13.3680 -13.3680
   -13.3646 -13.3646 -13.2937 -13.2937  -2.2358  -2.2358   4.3491   4.3491
     6.9234   6.9234   7.3547   7.3547   7.8579   7.8579  10.1303  10.1303
    10.4441  10.4441  10.9424  10.9424

     occupation numbers 
     1.0000   1.0000   1.0000   1.0000   1.0000   1.0000   1.0000   1.0000
     1.0000   1.0000   1.0000   1.0000   1.0000   1.0000   1.0000   1.0000
     1.0000   1.0000   1.0000   1.0000   1.0000   1.0000   1.0000   1.0000
     1.0000   1.0000   1.0000   1.0000   0.0000   0.0000   0.0000   0.0000
     0.0000   0.0000   0.0000   0.0000

          k = 0.1768 0.1768-0.1768 ( 10429 PWs)   bands (ev):

   -14.5260 -14.5260 -14.5099 -14.5099 -14.4526 -14.4526 -14.4352 -14.4352
   -13.5684 -13.5684 -13.4672 -13.4672 -13.4502 -13.4502 -13.3596 -13.3596
   -13.3553 -13.3553 -13.2992 -13.2992  -2.0074  -2.0074   3.5390   3.5390
     6.7233   6.7233   7.1459   7.1459   7.7190   7.7190  10.3612  10.3612
    10.6670  10.6670  11.7520  11.7520

     occupation numbers 
     1.0000   1.0000   1.0000   1.0000   1.0000   1.0000   1.0000   1.0000
     1.0000   1.0000   1.0000   1.0000   1.0000   1.0000   1.0000   1.0000
     1.0000   1.0000   1.0000   1.0000   1.0000   1.0000   1.0000   1.0000
     1.0000   1.0000   1.0000   1.0000   0.0000   0.0000   0.0000   0.0000
     0.0000   0.0000   0.0000   0.0000

          k = 0.2210 0.2210-0.2210 ( 10426 PWs)   bands (ev):

   -14.5274 -14.5274 -14.5043 -14.5043 -14.4580 -14.4580 -14.4330 -14.4330
   -13.5566 -13.5566 -13.4804 -13.4804 -13.4563 -13.4563 -13.3525 -13.3525
   -13.3470 -13.3470 -13.3056 -13.3056  -1.7327  -1.7327   2.7920   2.7920
     6.5515   6.5515   6.9699   6.9699   7.5796   7.5796  10.5098  10.5098
    10.7929  10.7929  12.6140  12.6141

     occupation numbers 
     1.0000   1.0000   1.0000   1.0000   1.0000   1.0000   1.0000   1.0000
     1.0000   1.0000   1.0000   1.0000   1.0000   1.0000   1.0000   1.0000
     1.0000   1.0000   1.0000   1.0000   1.0000   1.0000   1.0000   1.0000
     1.0000   1.0000   1.0000   1.0000   0.1250   0.1250   0.0000   0.0000
     0.0000   0.0000   0.0000   0.0000

          k = 0.2652 0.2652-0.2652 ( 10438 PWs)   bands (ev):

   -14.5286 -14.5286 -14.4983 -14.4983 -14.4639 -14.4639 -14.4313 -14.4313
   -13.5442 -13.5442 -13.4931 -13.4931 -13.4610 -13.4610 -13.3470 -13.3470
   -13.3394 -13.3394 -13.3123 -13.3123  -1.4397  -1.4397   2.1527   2.1527
     6.4222   6.4222   6.8386   6.8386   7.4687   7.4687  10.5787  10.5787
    10.8357  10.8357  13.2785  13.2785

     occupation numbers 
     1.0000   1.0000   1.0000   1.0000   1.0000   1.0000   1.0000   1.0000
     1.0000   1.0000   1.0000   1.0000   1.0000   1.0000   1.0000   1.0000
     1.0000   1.0000   1.0000   1.0000   1.0000   1.0000   1.0000   1.0000
     1.0000   1.0000   1.0000   1.0000   1.0000   1.0000   0.0000   0.0000
     0.0000   0.0000   0.0000   0.0000

          k = 0.3094 0.3094-0.3094 ( 10437 PWs)   bands (ev):

   -14.5294 -14.5294 -14.4927 -14.4927 -14.4693 -14.4693 -14.4302 -14.4302
   -13.5319 -13.5319 -13.5052 -13.5052 -13.4638 -13.4638 -13.3436 -13.3436
   -13.3326 -13.3326 -13.3190 -13.3190  -1.1884  -1.1884   1.6905   1.6905
     6.3426   6.3426   6.7580   6.7580   7.3988   7.3988  10.5999  10.5999
    10.8385  10.8385  13.3099  13.3099

     occupation numbers 
     1.0000   1.0000   1.0000   1.0000   1.0000   1.0000   1.0000   1.0000
     1.0000   1.0000   1.0000   1.0000   1.0000   1.0000   1.0000   1.0000
     1.0000   1.0000   1.0000   1.0000   1.0000   1.0000   1.0000   1.0000
     1.0000   1.0000   1.0000   1.0000   1.0000   1.0000   0.0000   0.0000
     0.0000   0.0000   0.0000   0.0000

          k =-0.3536-0.3536 0.3536 ( 10452 PWs)   bands (ev):

   -14.5296 -14.5296 -14.4901 -14.4901 -14.4719 -14.4719 -14.4298 -14.4298
   -13.5232 -13.5232 -13.5137 -13.5137 -13.4648 -13.4648 -13.3424 -13.3424
   -13.3270 -13.3270 -13.3245 -13.3245  -1.0821  -1.0821   1.5134   1.5134
     6.3157   6.3157   6.7308   6.7308   7.3750   7.3750  10.6033  10.6033
    10.8355  10.8355  13.2855  13.2855

     occupation numbers 
     1.0000   1.0000   1.0000   1.0000   1.0000   1.0000   1.0000   1.0000
     1.0000   1.0000   1.0000   1.0000   1.0000   1.0000   1.0000   1.0000
     1.0000   1.0000   1.0000   1.0000   1.0000   1.0000   1.0000   1.0000
     1.0000   1.0000   1.0000   1.0000   1.0000   1.0000   0.0000   0.0000
     0.0000   0.0000   0.0000   0.0000

          k = 0.0884 0.0000 0.0000 ( 10441 PWs)   bands (ev):

   -14.5215 -14.5215 -14.5208 -14.5208 -14.4422 -14.4422 -14.4411 -14.4411
   -13.5914 -13.5914 -13.4323 -13.4323 -13.4280 -13.4280 -13.3835 -13.3835
   -13.3818 -13.3818 -13.2870 -13.2870  -2.4964  -2.4964   5.8596   5.8596
     7.1580   7.1580   7.5740   7.5740   8.1476   8.1476   9.4355   9.4355
     9.9294   9.9294  10.0651  10.0651

     occupation numbers 
     1.0000   1.0000   1.0000   1.0000   1.0000   1.0000   1.0000   1.0000
     1.0000   1.0000   1.0000   1.0000   1.0000   1.0000   1.0000   1.0000
     1.0000   1.0000   1.0000   1.0000   1.0000   1.0000   1.0000   1.0000
     1.0000   1.0000   1.0000   1.0000   0.0000   0.0000   0.0000   0.0000
     0.0000   0.0000   0.0000   0.0000

          k = 0.1326 0.0442-0.0442 ( 10437 PWs)   bands (ev):

   -14.5223 -14.5223 -14.5191 -14.5191 -14.4438 -14.4438 -14.4401 -14.4401
   -13.5874 -13.5874 -13.4411 -13.4411 -13.4328 -13.4328 -13.3783 -13.3783
   -13.3746 -13.3746 -13.2890 -13.2890  -2.4158  -2.4158   5.2940   5.2940
     7.0189   7.0189   7.3632   7.3632   8.3503   8.3503   9.5038   9.5038
    10.2152  10.2152  10.3674  10.3674

     occupation numbers 
     1.0000   1.0000   1.0000   1.0000   1.0000   1.0000   1.0000   1.0000
     1.0000   1.0000   1.0000   1.0000   1.0000   1.0000   1.0000   1.0000
     1.0000   1.0000   1.0000   1.0000   1.0000   1.0000   1.0000   1.0000
     1.0000   1.0000   1.0000   1.0000   0.0000   0.0000   0.0000   0.0000
     0.0000   0.0000   0.0000   0.0000

          k = 0.1768 0.0884-0.0884 ( 10454 PWs)   bands (ev):

   -14.5237 -14.5237 -14.5159 -14.5159 -14.4469 -14.4469 -14.4381 -14.4381
   -13.5802 -13.5802 -13.4528 -13.4528 -13.4398 -13.4398 -13.3718 -13.3718
   -13.3647 -13.3647 -13.2926 -13.2926  -2.2683  -2.2683   4.5416   4.5416
     6.8142   6.8142   7.1448   7.1448   8.3456   8.3456   9.7472   9.7472
    10.5493  10.5493  10.8809  10.8809

     occupation numbers 
     1.0000   1.0000   1.0000   1.0000   1.0000   1.0000   1.0000   1.0000
     1.0000   1.0000   1.0000   1.0000   1.0000   1.0000   1.0000   1.0000
     1.0000   1.0000   1.0000   1.0000   1.0000   1.0000   1.0000   1.0000
     1.0000   1.0000   1.0000   1.0000   0.0000   0.0000   0.0000   0.0000
     0.0000   0.0000   0.0000   0.0000

          k = 0.2210 0.1326-0.1326 ( 10434 PWs)   bands (ev):

   -14.5253 -14.5253 -14.5115 -14.5115 -14.4512 -14.4512 -14.4358 -14.4358
   -13.5707 -13.5707 -13.4653 -13.4653 -13.4470 -13.4470 -13.3653 -13.3653
   -13.3546 -13.3546 -13.2974 -13.2974  -2.0587  -2.0587   3.7549   3.7549
     6.5985   6.5985   6.9272   6.9272   8.2285   8.2285  10.0517  10.0517
    10.8046  10.8046  11.5197  11.5197

     occupation numbers 
     1.0000   1.0000   1.0000   1.0000   1.0000   1.0000   1.0000   1.0000
     1.0000   1.0000   1.0000   1.0000   1.0000   1.0000   1.0000   1.0000
     1.0000   1.0000   1.0000   1.0000   1.0000   1.0000   1.0000   1.0000
     1.0000   1.0000   1.0000   1.0000   0.0000   0.0000   0.0000   0.0000
     0.0000   0.0000   0.0000   0.0000

          k = 0.2652 0.1768-0.1768 ( 10434 PWs)   bands (ev):

   -14.5269 -14.5269 -14.5061 -14.5061 -14.4565 -14.4565 -14.4335 -14.4335
   -13.5595 -13.5595 -13.4778 -13.4778 -13.4535 -13.4535 -13.3596 -13.3596
   -13.3456 -13.3456 -13.3028 -13.3028  -1.7974  -1.7974   3.0023   3.0023
     6.4038   6.4038   6.7411   6.7411   8.0849   8.0849  10.3044  10.3044
    10.9449  10.9449  12.1965  12.1965

     occupation numbers 
     1.0000   1.0000   1.0000   1.0000   1.0000   1.0000   1.0000   1.0000
     1.0000   1.0000   1.0000   1.0000   1.0000   1.0000   1.0000   1.0000
     1.0000   1.0000   1.0000   1.0000   1.0000   1.0000   1.0000   1.0000
     1.0000   1.0000   1.0000   1.0000   0.0000   0.0000   0.0000   0.0000
     0.0000   0.0000   0.0000   0.0000

          k = 0.3094 0.2210-0.2210 ( 10429 PWs)   bands (ev):

   -14.5282 -14.5282 -14.5002 -14.5002 -14.4622 -14.4622 -14.4315 -14.4315
   -13.5474 -13.5474 -13.4898 -13.4898 -13.4587 -13.4587 -13.3549 -13.3549
   -13.3380 -13.3380 -13.3084 -13.3084  -1.5056  -1.5056   2.3327   2.3327
     6.2435   6.2435   6.6066   6.6066   7.9570   7.9570  10.4601  10.4601
    10.9769  10.9769  12.8627  12.8627

     occupation numbers 
     1.0000   1.0000   1.0000   1.0000   1.0000   1.0000   1.0000   1.0000
     1.0000   1.0000   1.0000   1.0000   1.0000   1.0000   1.0000   1.0000
     1.0000   1.0000   1.0000   1.0000   1.0000   1.0000   1.0000   1.0000
     1.0000   1.0000   1.0000   1.0000   0.0000   0.0000   0.0000   0.0000
     0.0000   0.0000   0.0000   0.0000

          k = 0.3536 0.2652-0.2652 ( 10422 PWs)   bands (ev):

   -14.5291 -14.5291 -14.4944 -14.4944 -14.4679 -14.4679 -14.4301 -14.4301
   -13.5355 -13.5355 -13.5012 -13.5012 -13.4622 -13.4622 -13.3516 -13.3516
   -13.3323 -13.3323 -13.3132 -13.3132  -1.2302  -1.2302   1.8072   1.8072
     6.1251   6.1251   6.5325   6.5325   7.8636   7.8636  10.5434  10.5434
    10.9461  10.9461  13.2979  13.2979

     occupation numbers 
     1.0000   1.0000   1.0000   1.0000   1.0000   1.0000   1.0000   1.0000
     1.0000   1.0000   1.0000   1.0000   1.0000   1.0000   1.0000   1.0000
     1.0000   1.0000   1.0000   1.0000   1.0000   1.0000   1.0000   1.0000
     1.0000   1.0000   1.0000   1.0000   0.0000   0.0000   0.0000   0.0000
     0.0000   0.0000   0.0000   0.0000

          k =-0.3094-0.3977 0.3977 ( 10422 PWs)   bands (ev):

   -14.5295 -14.5295 -14.4903 -14.4903 -14.4719 -14.4719 -14.4295 -14.4295
   -13.5256 -13.5256 -13.5107 -13.5107 -13.4639 -13.4639 -13.3502 -13.3502
   -13.3290 -13.3290 -13.3162 -13.3162  -1.0624  -1.0624   1.5245   1.5245
     6.0544   6.0544   6.5205   6.5205   7.8132   7.8132  10.5945  10.5945
    10.8980  10.8980  13.3951  13.3951

     occupation numbers 
     1.0000   1.0000   1.0000   1.0000   1.0000   1.0000   1.0000   1.0000
     1.0000   1.0000   1.0000   1.0000   1.0000   1.0000   1.0000   1.0000
     1.0000   1.0000   1.0000   1.0000   1.0000   1.0000   1.0000   1.0000
     1.0000   1.0000   1.0000   1.0000   0.0000   0.0000   0.0000   0.0000
     0.0000   0.0000   0.0000   0.0000

          k =-0.2652-0.3536 0.3536 ( 10420 PWs)   bands (ev):

   -14.5295 -14.5295 -14.4912 -14.4912 -14.4711 -14.4711 -14.4296 -14.4296
   -13.5284 -13.5284 -13.5080 -13.5080 -13.4635 -13.4635 -13.3507 -13.3507
   -13.3295 -13.3295 -13.3157 -13.3157  -1.0994  -1.0994   1.5847   1.5847
     6.0363   6.0363   6.5685   6.5685   7.8090   7.8090  10.6280  10.6280
    10.8622  10.8622  13.4075  13.4075

     occupation numbers 
     1.0000   1.0000   1.0000   1.0000   1.0000   1.0000   1.0000   1.0000
     1.0000   1.0000   1.0000   1.0000   1.0000   1.0000   1.0000   1.0000
     1.0000   1.0000   1.0000   1.0000   1.0000   1.0000   1.0000   1.0000
     1.0000   1.0000   1.0000   1.0000   0.0000   0.0000   0.0000   0.0000
     0.0000   0.0000   0.0000   0.0000

          k =-0.2210-0.3094 0.3094 ( 10425 PWs)   bands (ev):

   -14.5289 -14.5289 -14.4961 -14.4961 -14.4663 -14.4663 -14.4305 -14.4305
   -13.5394 -13.5394 -13.4975 -13.4975 -13.4611 -13.4611 -13.3531 -13.3531
   -13.3334 -13.3334 -13.3119 -13.3119  -1.3161  -1.3161   1.9623   1.9623
     6.0742   6.0742   6.6724   6.6724   7.8503   7.8503  10.6226  10.6226
    10.8532  10.8532  13.2885  13.2885

     occupation numbers 
     1.0000   1.0000   1.0000   1.0000   1.0000   1.0000   1.0000   1.0000
     1.0000   1.0000   1.0000   1.0000   1.0000   1.0000   1.0000   1.0000
     1.0000   1.0000   1.0000   1.0000   1.0000   1.0000   1.0000   1.0000
     1.0000   1.0000   1.0000   1.0000   0.0000   0.0000   0.0000   0.0000
     0.0000   0.0000   0.0000   0.0000

          k =-0.1768-0.2652 0.2652 ( 10404 PWs)   bands (ev):

   -14.5279 -14.5279 -14.5020 -14.5020 -14.4605 -14.4605 -14.4320 -14.4320
   -13.5515 -13.5515 -13.4859 -13.4859 -13.4569 -13.4569 -13.3571 -13.3571
   -13.3395 -13.3395 -13.3067 -13.3067  -1.6047  -1.6047   2.5446   2.5446
     6.1701   6.1701   6.8256   6.8256   7.9325   7.9325  10.5489  10.5489
    10.8426  10.8426  12.7171  12.7171

     occupation numbers 
     1.0000   1.0000   1.0000   1.0000   1.0000   1.0000   1.0000   1.0000
     1.0000   1.0000   1.0000   1.0000   1.0000   1.0000   1.0000   1.0000
     1.0000   1.0000   1.0000   1.0000   1.0000   1.0000   1.0000   1.0000
     1.0000   1.0000   1.0000   1.0000   0.0000   0.0000   0.0000   0.0000
     0.0000   0.0000   0.0000   0.0000

          k =-0.1326-0.2210 0.2210 ( 10418 PWs)   bands (ev):

   -14.5265 -14.5265 -14.5078 -14.5078 -14.4549 -14.4549 -14.4341 -14.4341
   -13.5634 -13.5634 -13.4737 -13.4737 -13.4512 -13.4512 -13.3623 -13.3623
   -13.3475 -13.3475 -13.3011 -13.3011  -1.8898  -1.8898   3.2464   3.2464
     6.3247   6.3247   7.0179   7.0179   8.0435   8.0435  10.3927  10.3927
    10.7478  10.7478  11.9902  11.9902

     occupation numbers 
     1.0000   1.0000   1.0000   1.0000   1.0000   1.0000   1.0000   1.0000
     1.0000   1.0000   1.0000   1.0000   1.0000   1.0000   1.0000   1.0000
     1.0000   1.0000   1.0000   1.0000   1.0000   1.0000   1.0000   1.0000
     1.0000   1.0000   1.0000   1.0000   0.0000   0.0000   0.0000   0.0000
     0.0000   0.0000   0.0000   0.0000

          k =-0.0884-0.1768 0.1768 ( 10429 PWs)   bands (ev):

   -14.5249 -14.5249 -14.5129 -14.5129 -14.4499 -14.4499 -14.4364 -14.4364
   -13.5741 -13.5741 -13.4612 -13.4612 -13.4444 -13.4444 -13.3685 -13.3685
   -13.3569 -13.3569 -13.2958 -13.2958  -2.1354  -2.1354   4.0129   4.0129
     6.5364   6.5364   7.2320   7.2320   8.1552   8.1552  10.1606  10.1606
    10.4951  10.4951  11.3364  11.3364

     occupation numbers 
     1.0000   1.0000   1.0000   1.0000   1.0000   1.0000   1.0000   1.0000
     1.0000   1.0000   1.0000   1.0000   1.0000   1.0000   1.0000   1.0000
     1.0000   1.0000   1.0000   1.0000   1.0000   1.0000   1.0000   1.0000
     1.0000   1.0000   1.0000   1.0000   0.0000   0.0000   0.0000   0.0000
     0.0000   0.0000   0.0000   0.0000

          k =-0.0442-0.1326 0.1326 ( 10436 PWs)   bands (ev):

   -14.5234 -14.5234 -14.5169 -14.5169 -14.4460 -14.4460 -14.4386 -14.4386
   -13.5829 -13.5829 -13.4486 -13.4486 -13.4374 -13.4374 -13.3749 -13.3749
   -13.3671 -13.3671 -13.2913 -13.2913  -2.3249  -2.3249   4.7906   4.7906
     6.7985   6.7985   7.4378   7.4378   8.2052   8.2052   9.8941   9.8941
    10.1505  10.1505  10.7696  10.7696

     occupation numbers 
     1.0000   1.0000   1.0000   1.0000   1.0000   1.0000   1.0000   1.0000
     1.0000   1.0000   1.0000   1.0000   1.0000   1.0000   1.0000   1.0000
     1.0000   1.0000   1.0000   1.0000   1.0000   1.0000   1.0000   1.0000
     1.0000   1.0000   1.0000   1.0000   0.0000   0.0000   0.0000   0.0000
     0.0000   0.0000   0.0000   0.0000

          k = 0.0000-0.0884 0.0884 ( 10423 PWs)   bands (ev):

   -14.5223 -14.5223 -14.5195 -14.5195 -14.4434 -14.4434 -14.4403 -14.4403
   -13.5891 -13.5891 -13.4373 -13.4373 -13.4313 -13.4313 -13.3807 -13.3807
   -13.3769 -13.3769 -13.2882 -13.2882  -2.4504  -2.4504   5.4928   5.4928
     7.0797   7.0797   7.6002   7.6002   8.0994   8.0994   9.6516   9.6516
     9.9357   9.9357  10.2686  10.2686

     occupation numbers 
     1.0000   1.0000   1.0000   1.0000   1.0000   1.0000   1.0000   1.0000
     1.0000   1.0000   1.0000   1.0000   1.0000   1.0000   1.0000   1.0000
     1.0000   1.0000   1.0000   1.0000   1.0000   1.0000   1.0000   1.0000
     1.0000   1.0000   0.0000   0.0000   0.0000   0.0000   0.0000   0.0000
     0.0000   0.0000   0.0000   0.0000

          k = 0.1768 0.0000 0.0000 ( 10425 PWs)   bands (ev):

   -14.5217 -14.5217 -14.5191 -14.5191 -14.4440 -14.4440 -14.4402 -14.4402
   -13.5845 -13.5845 -13.4471 -13.4471 -13.4345 -13.4345 -13.3740 -13.3740
   -13.3724 -13.3724 -13.2901 -13.2901  -2.3577  -2.3577   5.0447   5.0447
     6.8285   6.8285   7.0847   7.0847   8.8151   8.8151   9.1983   9.1983
    10.5163  10.5163  10.6225  10.6225

     occupation numbers 
     1.0000   1.0000   1.0000   1.0000   1.0000   1.0000   1.0000   1.0000
     1.0000   1.0000   1.0000   1.0000   1.0000   1.0000   1.0000   1.0000
     1.0000   1.0000   1.0000   1.0000   1.0000   1.0000   1.0000   1.0000
     1.0000   1.0000   1.0000   1.0000   0.0000   0.0000   0.0000   0.0000
     0.0000   0.0000   0.0000   0.0000

          k = 0.2210 0.0442-0.0442 ( 10414 PWs)   bands (ev):

   -14.5226 -14.5226 -14.5168 -14.5168 -14.4463 -14.4463 -14.4388 -14.4388
   -13.5785 -13.5785 -13.4564 -13.4564 -13.4391 -13.4391 -13.3706 -13.3706
   -13.3642 -13.3642 -13.2927 -13.2927  -2.2320  -2.2320   4.5028   4.5028
     6.6089   6.6089   6.8430   6.8430   8.9612   8.9612   9.2278   9.2278
    10.8880  10.8880  11.0179  11.0179

     occupation numbers 
     1.0000   1.0000   1.0000   1.0000   1.0000   1.0000   1.0000   1.0000
     1.0000   1.0000   1.0000   1.0000   1.0000   1.0000   1.0000   1.0000
     1.0000   1.0000   1.0000   1.0000   1.0000   1.0000   1.0000   1.0000
     1.0000   1.0000   1.0000   1.0000   0.0000   0.0000   0.0000   0.0000
     0.0000   0.0000   0.0000   0.0000

          k = 0.2652 0.0884-0.0884 ( 10423 PWs)   bands (ev):

   -14.5242 -14.5242 -14.5129 -14.5129 -14.4501 -14.4501 -14.4366 -14.4366
   -13.5700 -13.5700 -13.4673 -13.4673 -13.4447 -13.4447 -13.3681 -13.3681
   -13.3540 -13.3540 -13.2962 -13.2962  -2.0424  -2.0424   3.8282   3.8282
     6.3586   6.3586   6.6209   6.6209   8.8882   8.8882   9.5159   9.5159
    11.1845  11.1845  11.4417  11.4417

     occupation numbers 
     1.0000   1.0000   1.0000   1.0000   1.0000   1.0000   1.0000   1.0000
     1.0000   1.0000   1.0000   1.0000   1.0000   1.0000   1.0000   1.0000
     1.0000   1.0000   1.0000   1.0000   1.0000   1.0000   1.0000   1.0000
     1.0000   1.0000   1.0000   1.0000   0.0000   0.0000   0.0000   0.0000
     0.0000   0.0000   0.0000   0.0000

          k = 0.3094 0.1326-0.1326 ( 10416 PWs)   bands (ev):

   -14.5259 -14.5259 -14.5079 -14.5079 -14.4551 -14.4551 -14.4341 -14.4341
   -13.5596 -13.5596 -13.4783 -13.4783 -13.4502 -13.4502 -13.3660 -13.3660
   -13.3445 -13.3445 -13.3000 -13.3000  -1.7966  -1.7966   3.1276   3.1276
     6.1035   6.1035   6.4439   6.4439   8.7535   8.7535   9.8878   9.8878
    11.3559  11.3559  11.7604  11.7604

     occupation numbers 
     1.0000   1.0000   1.0000   1.0000   1.0000   1.0000   1.0000   1.0000
     1.0000   1.0000   1.0000   1.0000   1.0000   1.0000   1.0000   1.0000
     1.0000   1.0000   1.0000   1.0000   1.0000   1.0000   1.0000   1.0000
     1.0000   1.0000   1.0000   1.0000   0.0000   0.0000   0.0000   0.0000
     0.0000   0.0000   0.0000   0.0000

          k = 0.3536 0.1768-0.1768 ( 10424 PWs)   bands (ev):

   -14.5274 -14.5274 -14.5022 -14.5022 -14.4607 -14.4607 -14.4318 -14.4318
   -13.5485 -13.5485 -13.4886 -13.4886 -13.4552 -13.4552 -13.3645 -13.3645
   -13.3370 -13.3370 -13.3033 -13.3033  -1.5108  -1.5108   2.4674   2.4674
     5.8705   5.8705   6.3301   6.3301   8.6143   8.6143  10.2062  10.2062
    11.3936  11.3936  12.1181  12.1181

     occupation numbers 
     1.0000   1.0000   1.0000   1.0000   1.0000   1.0000   1.0000   1.0000
     1.0000   1.0000   1.0000   1.0000   1.0000   1.0000   1.0000   1.0000
     1.0000   1.0000   1.0000   1.0000   1.0000   1.0000   1.0000   1.0000
     1.0000   1.0000   1.0000   1.0000   0.0000   0.0000   0.0000   0.0000
     0.0000   0.0000   0.0000   0.0000

          k = 0.3977 0.2210-0.2210 ( 10424 PWs)   bands (ev):

   -14.5285 -14.5285 -14.4964 -14.4964 -14.4665 -14.4665 -14.4300 -14.4300
   -13.5377 -13.5377 -13.4980 -13.4980 -13.4592 -13.4592 -13.3638 -13.3638
   -13.3321 -13.3321 -13.3053 -13.3053  -1.2208  -1.2208   1.9099   1.9099
     5.6803   5.6803   6.2820   6.2820   8.5002   8.5002  10.4038  10.4038
    11.3388  11.3388  12.6332  12.6332

     occupation numbers 
     1.0000   1.0000   1.0000   1.0000   1.0000   1.0000   1.0000   1.0000
     1.0000   1.0000   1.0000   1.0000   1.0000   1.0000   1.0000   1.0000
     1.0000   1.0000   1.0000   1.0000   1.0000   1.0000   1.0000   1.0000
     1.0000   1.0000   1.0000   1.0000   0.0000   0.0000   0.0000   0.0000
     0.0000   0.0000   0.0000   0.0000

          k =-0.2652-0.4419 0.4419 ( 10429 PWs)   bands (ev):

   -14.5292 -14.5292 -14.4914 -14.4914 -14.4715 -14.4715 -14.4289 -14.4289
   -13.5289 -13.5289 -13.5055 -13.5055 -13.4614 -13.4614 -13.3637 -13.3637
   -13.3296 -13.3296 -13.3061 -13.3061  -1.0026  -1.0026   1.5448   1.5448
     5.5449   5.5449   6.2978   6.2978   8.4246   8.4246  10.5223  10.5223
    11.2409  11.2409  13.1990  13.1990

     occupation numbers 
     1.0000   1.0000   1.0000   1.0000   1.0000   1.0000   1.0000   1.0000
     1.0000   1.0000   1.0000   1.0000   1.0000   1.0000   1.0000   1.0000
     1.0000   1.0000   1.0000   1.0000   1.0000   1.0000   1.0000   1.0000
     1.0000   1.0000   1.0000   1.0000   0.0000   0.0000   0.0000   0.0000
     0.0000   0.0000   0.0000   0.0000

          k =-0.2210-0.3977 0.3977 ( 10425 PWs)   bands (ev):

   -14.5294 -14.5294 -14.4900 -14.4900 -14.4730 -14.4730 -14.4286 -14.4286
   -13.5273 -13.5273 -13.5070 -13.5070 -13.4615 -13.4615 -13.3643 -13.3643
   -13.3288 -13.3288 -13.3063 -13.3063  -0.9672  -0.9672   1.4896   1.4896
     5.4721   5.4721   6.3744   6.3744   8.3925   8.3925  10.6186  10.6186
    11.1296  11.1296  13.5038  13.5038

     occupation numbers 
     1.0000   1.0000   1.0000   1.0000   1.0000   1.0000   1.0000   1.0000
     1.0000   1.0000   1.0000   1.0000   1.0000   1.0000   1.0000   1.0000
     1.0000   1.0000   1.0000   1.0000   1.0000   1.0000   1.0000   1.0000
     1.0000   1.0000   1.0000   1.0000   0.0000   0.0000   0.0000   0.0000
     0.0000   0.0000   0.0000   0.0000

          k =-0.1768-0.3536 0.3536 ( 10410 PWs)   bands (ev):

   -14.5291 -14.5291 -14.4936 -14.4936 -14.4695 -14.4695 -14.4291 -14.4291
   -13.5347 -13.5347 -13.5008 -13.5008 -13.4595 -13.4595 -13.3653 -13.3653
   -13.3295 -13.3295 -13.3061 -13.3061  -1.1392  -1.1392   1.7688   1.7688
     5.4681   5.4681   6.5064   6.5064   8.4029   8.4029  10.7078  10.7078
    11.0140  11.0140  13.2473  13.2473

     occupation numbers 
     1.0000   1.0000   1.0000   1.0000   1.0000   1.0000   1.0000   1.0000
     1.0000   1.0000   1.0000   1.0000   1.0000   1.0000   1.0000   1.0000
     1.0000   1.0000   1.0000   1.0000   1.0000   1.0000   1.0000   1.0000
     1.0000   1.0000   1.0000   1.0000   0.0000   0.0000   0.0000   0.0000
     0.0000   0.0000   0.0000   0.0000

          k =-0.1326-0.3094 0.3094 ( 10416 PWs)   bands (ev):

   -14.5283 -14.5283 -14.4991 -14.4991 -14.4640 -14.4640 -14.4304 -14.4304
   -13.5451 -13.5451 -13.4920 -13.4920 -13.4556 -13.4556 -13.3667 -13.3667
   -13.3326 -13.3326 -13.3047 -13.3047  -1.4171  -1.4171   2.2753   2.2753
     5.5397   5.5397   6.6854   6.6854   8.4484   8.4484  10.7294  10.7294
    10.9145  10.9145  12.5991  12.5991

     occupation numbers 
     1.0000   1.0000   1.0000   1.0000   1.0000   1.0000   1.0000   1.0000
     1.0000   1.0000   1.0000   1.0000   1.0000   1.0000   1.0000   1.0000
     1.0000   1.0000   1.0000   1.0000   1.0000   1.0000   1.0000   1.0000
     1.0000   1.0000   1.0000   1.0000   0.0000   0.0000   0.0000   0.0000
     0.0000   0.0000   0.0000   0.0000

          k =-0.0884-0.2652 0.2652 ( 10415 PWs)   bands (ev):

   -14.5271 -14.5271 -14.5048 -14.5048 -14.4583 -14.4583 -14.4324 -14.4324
   -13.5562 -13.5562 -13.4821 -13.4821 -13.4508 -13.4508 -13.3686 -13.3686
   -13.3385 -13.3385 -13.3019 -13.3019  -1.7092  -1.7092   2.9027   2.9027
     5.6962   5.6962   6.8975   6.8975   8.5100   8.5100  10.5735  10.5735
    10.8273  10.8273  11.9930  11.9930

     occupation numbers 
     1.0000   1.0000   1.0000   1.0000   1.0000   1.0000   1.0000   1.0000
     1.0000   1.0000   1.0000   1.0000   1.0000   1.0000   1.0000   1.0000
     1.0000   1.0000   1.0000   1.0000   1.0000   1.0000   1.0000   1.0000
     1.0000   1.0000   1.0000   1.0000   0.0000   0.0000   0.0000   0.0000
     0.0000   0.0000   0.0000   0.0000

          k =-0.0442-0.2210 0.2210 ( 10429 PWs)   bands (ev):

   -14.5257 -14.5257 -14.5099 -14.5099 -14.4532 -14.4532 -14.4347 -14.4347
   -13.5669 -13.5669 -13.4712 -13.4712 -13.4456 -13.4456 -13.3708 -13.3708
   -13.3470 -13.3470 -13.2982 -13.2982  -1.9698  -1.9698   3.5776   3.5776
     5.9515   5.9515   7.1193   7.1193   8.5441   8.5441  10.3242  10.3242
    10.5621  10.5621  11.6096  11.6096

     occupation numbers 
     1.0000   1.0000   1.0000   1.0000   1.0000   1.0000   1.0000   1.0000
     1.0000   1.0000   1.0000   1.0000   1.0000   1.0000   1.0000   1.0000
     1.0000   1.0000   1.0000   1.0000   1.0000   1.0000   1.0000   1.0000
     1.0000   1.0000   1.0000   1.0000   0.0000   0.0000   0.0000   0.0000
[...]

     occupation numbers 
     1.0000   1.0000   1.0000   1.0000   1.0000   1.0000   1.0000   1.0000
     1.0000   1.0000   1.0000   1.0000   1.0000   1.0000   1.0000   1.0000
     1.0000   1.0000   1.0000   1.0000   1.0000   1.0000   1.0000   1.0000
     1.0000   1.0000   1.0000   1.0000   0.0000   0.0000   0.0000   0.0000
     0.0000   0.0000   0.0000   0.0000

          k =-0.1326-0.3977 0.5745 ( 10422 PWs)   bands (ev):

   -14.5280 -14.5280 -14.4934 -14.4934 -14.4712 -14.4712 -14.4273 -14.4273
   -13.5306 -13.5306 -13.4961 -13.4961 -13.4513 -13.4513 -13.3977 -13.3977
   -13.3288 -13.3288 -13.2894 -13.2894  -0.4972  -0.4972   1.1510   1.1510
     4.6471   4.6471   5.6259   5.6259   9.4610   9.4610  10.7197  10.7197
    11.9852  11.9852  12.6989  12.6989

     occupation numbers 
     1.0000   1.0000   1.0000   1.0000   1.0000   1.0000   1.0000   1.0000
     1.0000   1.0000   1.0000   1.0000   1.0000   1.0000   1.0000   1.0000
     1.0000   1.0000   1.0000   1.0000   1.0000   1.0000   1.0000   1.0000
     1.0000   1.0000   1.0000   1.0000   0.0000   0.0000   0.0000   0.0000
     0.0000   0.0000   0.0000   0.0000

          k =-0.0884-0.3536 0.5303 ( 10423 PWs)   bands (ev):

   -14.5282 -14.5282 -14.4928 -14.4928 -14.4718 -14.4718 -14.4271 -14.4271
   -13.5311 -13.5311 -13.4962 -13.4962 -13.4510 -13.4510 -13.3973 -13.3973
   -13.3289 -13.3289 -13.2897 -13.2897  -0.5517  -0.5517   1.2202   1.2202
     4.6147   4.6147   5.6943   5.6943   9.5048   9.5048  10.7136  10.7136
    12.0429  12.0429  12.6653  12.6653

     occupation numbers 
     1.0000   1.0000   1.0000   1.0000   1.0000   1.0000   1.0000   1.0000
     1.0000   1.0000   1.0000   1.0000   1.0000   1.0000   1.0000   1.0000
     1.0000   1.0000   1.0000   1.0000   1.0000   1.0000   1.0000   1.0000
     1.0000   1.0000   1.0000   1.0000   0.0000   0.0000   0.0000   0.0000
     0.0000   0.0000   0.0000   0.0000

          k =-0.0442-0.3094 0.4861 ( 10424 PWs)   bands (ev):

   -14.5281 -14.5281 -14.4950 -14.4950 -14.4695 -14.4695 -14.4278 -14.4278
   -13.5333 -13.5333 -13.4968 -13.4968 -13.4507 -13.4507 -13.3928 -13.3928
   -13.3291 -13.3291 -13.2919 -13.2919  -0.7952  -0.7952   1.5393   1.5393
     4.6860   4.6860   5.8363   5.8363   9.5522   9.5522  10.6016  10.6016
    11.4846  11.4846  12.8707  12.8707

     occupation numbers 
     1.0000   1.0000   1.0000   1.0000   1.0000   1.0000   1.0000   1.0000
     1.0000   1.0000   1.0000   1.0000   1.0000   1.0000   1.0000   1.0000
     1.0000   1.0000   1.0000   1.0000   1.0000   1.0000   1.0000   1.0000
     1.0000   1.0000   1.0000   1.0000   0.0000   0.0000   0.0000   0.0000
     0.0000   0.0000   0.0000   0.0000

          k = 0.0000-0.2652 0.4419 ( 10416 PWs)   bands (ev):

   -14.5275 -14.5275 -14.4985 -14.4985 -14.4656 -14.4656 -14.4292 -14.4292
   -13.5381 -13.5381 -13.4955 -13.4955 -13.4507 -13.4507 -13.3856 -13.3856
   -13.3302 -13.3302 -13.2953 -13.2953  -1.0930  -1.0930   1.9579   1.9579
     4.8800   4.8800   6.0265   6.0265   9.5427   9.5427  10.2582  10.2582
    11.3108  11.3108  12.6431  12.6431

     occupation numbers 
     1.0000   1.0000   1.0000   1.0000   1.0000   1.0000   1.0000   1.0000
     1.0000   1.0000   1.0000   1.0000   1.0000   1.0000   1.0000   1.0000
     1.0000   1.0000   1.0000   1.0000   1.0000   1.0000   1.0000   1.0000
     1.0000   1.0000   1.0000   1.0000   0.0000   0.0000   0.0000   0.0000
     0.0000   0.0000   0.0000   0.0000

          k =-0.1768-0.5303 0.7071 ( 10432 PWs)   bands (ev):

   -14.5247 -14.5247 -14.5031 -14.5031 -14.4606 -14.4606 -14.4321 -14.4321
   -13.5325 -13.5325 -13.4982 -13.4982 -13.4494 -13.4494 -13.3936 -13.3936
   -13.3273 -13.3273 -13.2933 -13.2933  -0.8020  -0.8020   1.5770   1.5770
     5.0451   5.0451   5.5027   5.5027   9.1956   9.1956   9.5894   9.5894
    11.9945  11.9945  13.5926  13.5926

     occupation numbers 
     1.0000   1.0000   1.0000   1.0000   1.0000   1.0000   1.0000   1.0000
     1.0000   1.0000   1.0000   1.0000   1.0000   1.0000   1.0000   1.0000
     1.0000   1.0000   1.0000   1.0000   1.0000   1.0000   1.0000   1.0000
     1.0000   1.0000   1.0000   1.0000   0.0000   0.0000   0.0000   0.0000
     0.0000   0.0000   0.0000   0.0000

          k =-0.1326-0.4861 0.6629 ( 10426 PWs)   bands (ev):

   -14.5258 -14.5258 -14.4999 -14.4999 -14.4644 -14.4644 -14.4300 -14.4300
   -13.5307 -13.5307 -13.4968 -13.4968 -13.4471 -13.4471 -13.4024 -13.4024
   -13.3270 -13.3270 -13.2898 -13.2898  -0.4985  -0.4985   1.1936   1.1936
     4.8173   4.8173   5.3805   5.3805   9.3671   9.3671  10.0544  10.0544
    11.8222  11.8222  13.5491  13.5492

     occupation numbers 
     1.0000   1.0000   1.0000   1.0000   1.0000   1.0000   1.0000   1.0000
     1.0000   1.0000   1.0000   1.0000   1.0000   1.0000   1.0000   1.0000
     1.0000   1.0000   1.0000   1.0000   1.0000   1.0000   1.0000   1.0000
     1.0000   1.0000   1.0000   1.0000   0.0000   0.0000   0.0000   0.0000
     0.0000   0.0000   0.0000   0.0000

          k =-0.0884-0.4419 0.6187 ( 10433 PWs)   bands (ev):

   -14.5268 -14.5268 -14.4967 -14.4967 -14.4680 -14.4680 -14.4282 -14.4282
   -13.5308 -13.5308 -13.4942 -13.4942 -13.4454 -13.4454 -13.4084 -13.4084
   -13.3277 -13.3277 -13.2871 -13.2871  -0.2608  -0.2608   0.9185   0.9185
     4.6221   4.6221   5.3690   5.3690   9.4263   9.4263  10.7686  10.7686
    11.7238  11.7238  12.9801  12.9801

     occupation numbers 
     1.0000   1.0000   1.0000   1.0000   1.0000   1.0000   1.0000   1.0000
     1.0000   1.0000   1.0000   1.0000   1.0000   1.0000   1.0000   1.0000
     1.0000   1.0000   1.0000   1.0000   1.0000   1.0000   1.0000   1.0000
     1.0000   1.0000   1.0000   1.0000   0.0000   0.0000   0.0000   0.0000
     0.0000   0.0000   0.0000   0.0000

          k =-0.0442-0.3977 0.5745 ( 10439 PWs)   bands (ev):

   -14.5276 -14.5276 -14.4944 -14.4944 -14.4706 -14.4706 -14.4272 -14.4272
   -13.5313 -13.5313 -13.4932 -13.4932 -13.4455 -13.4455 -13.4088 -13.4088
   -13.3284 -13.3284 -13.2863 -13.2863  -0.2628  -0.2628   0.9233   0.9233
     4.5111   4.5111   5.4565   5.4565   9.5029   9.5029  11.2281  11.2281
    11.9322  11.9322  12.2713  12.2713

     occupation numbers 
     1.0000   1.0000   1.0000   1.0000   1.0000   1.0000   1.0000   1.0000
     1.0000   1.0000   1.0000   1.0000   1.0000   1.0000   1.0000   1.0000
     1.0000   1.0000   1.0000   1.0000   1.0000   1.0000   1.0000   1.0000
     1.0000   1.0000   1.0000   1.0000   0.0000   0.0000   0.0000   0.0000
     0.0000   0.0000   0.0000   0.0000

          k = 0.0000-0.3536 0.5303 ( 10423 PWs)   bands (ev):

   -14.5280 -14.5280 -14.4937 -14.4937 -14.4712 -14.4712 -14.4270 -14.4270
   -13.5318 -13.5318 -13.4947 -13.4947 -13.4478 -13.4478 -13.4028 -13.4028
   -13.3288 -13.3288 -13.2880 -13.2880  -0.4979  -0.4979   1.1920   1.1920
     4.5240   4.5240   5.6212   5.6212   9.5779   9.5779  11.0945  11.0945
    11.5631  11.5631  12.7414  12.7414

     occupation numbers 
     1.0000   1.0000   1.0000   1.0000   1.0000   1.0000   1.0000   1.0000
     1.0000   1.0000   1.0000   1.0000   1.0000   1.0000   1.0000   1.0000
     1.0000   1.0000   1.0000   1.0000   1.0000   1.0000   1.0000   1.0000
     1.0000   1.0000   1.0000   1.0000   0.0000   0.0000   0.0000   0.0000
     0.0000   0.0000   0.0000   0.0000

          k =-0.0884-0.5303 0.7071 ( 10428 PWs)   bands (ev):

   -14.5239 -14.5239 -14.5031 -14.5031 -14.4606 -14.4606 -14.4323 -14.4323
   -13.5285 -13.5285 -13.4990 -13.4990 -13.4420 -13.4420 -13.4096 -13.4096
   -13.3235 -13.3235 -13.2907 -13.2907  -0.2763  -0.2763   0.9265   0.9265
     4.9638   4.9638   5.2210   5.2210   9.1602   9.1602   9.4152   9.4152
    12.6618  12.6618  13.8836  13.8836

     occupation numbers 
     1.0000   1.0000   1.0000   1.0000   1.0000   1.0000   1.0000   1.0000
     1.0000   1.0000   1.0000   1.0000   1.0000   1.0000   1.0000   1.0000
     1.0000   1.0000   1.0000   1.0000   1.0000   1.0000   1.0000   1.0000
     1.0000   1.0000   1.0000   1.0000   0.0000   0.0000   0.0000   0.0000
     0.0000   0.0000   0.0000   0.0000

          k =-0.0442-0.4861 0.6629 ( 10442 PWs)   bands (ev):

   -14.5252 -14.5252 -14.5002 -14.5002 -14.4642 -14.4642 -14.4300 -14.4300
   -13.5297 -13.5297 -13.4952 -13.4952 -13.4384 -13.4384 -13.4170 -13.4170
   -13.3254 -13.3254 -13.2873 -13.2873   0.0068   0.0068   0.6272   0.6272
     4.7607   4.7607   5.1739   5.1739   9.3174   9.3174  10.0002  10.0002
    12.4800  12.4800  13.1982  13.1982

     occupation numbers 
     1.0000   1.0000   1.0000   1.0000   1.0000   1.0000   1.0000   1.0000
     1.0000   1.0000   1.0000   1.0000   1.0000   1.0000   1.0000   1.0000
     1.0000   1.0000   1.0000   1.0000   1.0000   1.0000   1.0000   1.0000
     1.0000   1.0000   1.0000   1.0000   0.0000   0.0000   0.0000   0.0000
     0.0000   0.0000   0.0000   0.0000

          k = 0.0000-0.4419 0.6187 ( 10458 PWs)   bands (ev):

   -14.5265 -14.5265 -14.4971 -14.4971 -14.4677 -14.4677 -14.4282 -14.4282
   -13.5309 -13.5309 -13.4927 -13.4927 -13.4399 -13.4399 -13.4168 -13.4168
   -13.3272 -13.3272 -13.2856 -13.2856   0.0046   0.0046   0.6387   0.6387
     4.5732   4.5732   5.2735   5.2735   9.4073   9.4073  10.8064  10.8064
    12.2897  12.2897  12.3859  12.3859

     occupation numbers 
     1.0000   1.0000   1.0000   1.0000   1.0000   1.0000   1.0000   1.0000
     1.0000   1.0000   1.0000   1.0000   1.0000   1.0000   1.0000   1.0000
     1.0000   1.0000   1.0000   1.0000   1.0000   1.0000   1.0000   1.0000
     1.0000   1.0000   1.0000   1.0000   0.0000   0.0000   0.0000   0.0000
     0.0000   0.0000   0.0000   0.0000

          k =-0.7071 0.1768 0.0000 ( 10426 PWs)   bands (ev):

   -14.5235 -14.5235 -14.5033 -14.5033 -14.4604 -14.4604 -14.4324 -14.4324
   -13.5277 -13.5277 -13.4986 -13.4986 -13.4330 -13.4330 -13.4217 -13.4217
   -13.3222 -13.3222 -13.2897 -13.2897   0.2886   0.2886   0.3198   0.3198
     4.9619   4.9619   5.1004   5.1004   9.1770   9.1770   9.3169   9.3169
    13.3040  13.3040  13.4636  13.4637

     occupation numbers 
     1.0000   1.0000   1.0000   1.0000   1.0000   1.0000   1.0000   1.0000
     1.0000   1.0000   1.0000   1.0000   1.0000   1.0000   1.0000   1.0000
     1.0000   1.0000   1.0000   1.0000   1.0000   1.0000   1.0000   1.0000
     1.0000   1.0000   1.0000   1.0000   0.0000   0.0000   0.0000   0.0000
     0.0000   0.0000   0.0000   0.0000

          k =-0.1768-0.4419 0.7071 ( 10415 PWs)   bands (ev):

   -14.5270 -14.5270 -14.4975 -14.4975 -14.4669 -14.4669 -14.4287 -14.4287
   -13.5324 -13.5324 -13.4961 -13.4961 -13.4491 -13.4491 -13.3977 -13.3977
   -13.3288 -13.3288 -13.2901 -13.2901  -0.6685  -0.6685   1.4045   1.4045
     4.7406   4.7406   5.5363   5.5363   9.8907   9.8907  10.1702  10.1702
    11.2668  11.2668  13.3261  13.3261

     occupation numbers 
     1.0000   1.0000   1.0000   1.0000   1.0000   1.0000   1.0000   1.0000
     1.0000   1.0000   1.0000   1.0000   1.0000   1.0000   1.0000   1.0000
     1.0000   1.0000   1.0000   1.0000   1.0000   1.0000   1.0000   1.0000
     1.0000   1.0000   1.0000   1.0000   0.0000   0.0000   0.0000   0.0000
     0.0000   0.0000   0.0000   0.0000

          k =-0.1326-0.3977 0.6629 ( 10430 PWs)   bands (ev):

   -14.5274 -14.5274 -14.4954 -14.4954 -14.4695 -14.4695 -14.4275 -14.4275
   -13.5315 -13.5315 -13.4938 -13.4938 -13.4470 -13.4470 -13.4056 -13.4056
   -13.3288 -13.3288 -13.2870 -13.2870  -0.3852  -0.3852   1.0661   1.0661
     4.6132   4.6132   5.3816   5.3816   9.9624   9.9624  10.6136  10.6136
    11.3770  11.3770  12.8674  12.8674

     occupation numbers 
     1.0000   1.0000   1.0000   1.0000   1.0000   1.0000   1.0000   1.0000
     1.0000   1.0000   1.0000   1.0000   1.0000   1.0000   1.0000   1.0000
     1.0000   1.0000   1.0000   1.0000   1.0000   1.0000   1.0000   1.0000
     1.0000   1.0000   1.0000   1.0000   0.0000   0.0000   0.0000   0.0000
     0.0000   0.0000   0.0000   0.0000

          k =-0.0884-0.3536 0.6187 ( 10422 PWs)   bands (ev):

   -14.5275 -14.5275 -14.4945 -14.4945 -14.4705 -14.4705 -14.4271 -14.4271
   -13.5315 -13.5315 -13.4925 -13.4925 -13.4460 -13.4460 -13.4087 -13.4087
   -13.3289 -13.3289 -13.2859 -13.2859  -0.2475  -0.2475   0.9089   0.9089
     4.5727   4.5727   5.3251   5.3251   9.9674   9.9674  10.7329  10.7329
    11.8768  11.8768  12.2123  12.2123

     occupation numbers 
     1.0000   1.0000   1.0000   1.0000   1.0000   1.0000   1.0000   1.0000
     1.0000   1.0000   1.0000   1.0000   1.0000   1.0000   1.0000   1.0000
     1.0000   1.0000   1.0000   1.0000   1.0000   1.0000   1.0000   1.0000
     1.0000   1.0000   1.0000   1.0000   0.0000   0.0000   0.0000   0.0000
     0.0000   0.0000   0.0000   0.0000

          k =-0.0884-0.4419 0.7071 ( 10432 PWs)   bands (ev):

   -14.5263 -14.5263 -14.4980 -14.4980 -14.4667 -14.4667 -14.4286 -14.4286
   -13.5310 -13.5310 -13.4934 -13.4934 -13.4428 -13.4428 -13.4121 -13.4121
   -13.3276 -13.3276 -13.2863 -13.2863  -0.1930  -0.1930   0.8567   0.8567
     4.7240   4.7240   5.1501   5.1501   9.9500   9.9500  10.1658  10.1658
    11.6455  11.6455  13.0336  13.0336

     occupation numbers 
     1.0000   1.0000   1.0000   1.0000   1.0000   1.0000   1.0000   1.0000
     1.0000   1.0000   1.0000   1.0000   1.0000   1.0000   1.0000   1.0000
     1.0000   1.0000   1.0000   1.0000   1.0000   1.0000   1.0000   1.0000
     1.0000   1.0000   1.0000   1.0000   0.0000   0.0000   0.0000   0.0000
     0.0000   0.0000   0.0000   0.0000

          k =-0.0442-0.3977 0.6629 ( 10431 PWs)   bands (ev):

   -14.5268 -14.5268 -14.4964 -14.4964 -14.4687 -14.4687 -14.4276 -14.4276
   -13.5317 -13.5317 -13.4909 -13.4909 -13.4400 -13.4400 -13.4178 -13.4178
   -13.3285 -13.3285 -13.2843 -13.2843   0.0263   0.0263   0.6281   0.6281
     4.6419   4.6419   5.0708   5.0708  10.0921  10.0921  10.8021  10.8021
    11.5703  11.5703  12.1844  12.1844

     occupation numbers 
     1.0000   1.0000   1.0000   1.0000   1.0000   1.0000   1.0000   1.0000
     1.0000   1.0000   1.0000   1.0000   1.0000   1.0000   1.0000   1.0000
     1.0000   1.0000   1.0000   1.0000   1.0000   1.0000   1.0000   1.0000
     1.0000   1.0000   1.0000   1.0000   0.0000   0.0000   0.0000   0.0000
     0.0000   0.0000   0.0000   0.0000

          k =-0.0000-0.3536 0.6187 ( 10432 PWs)   bands (ev):

   -14.5272 -14.5272 -14.4954 -14.4954 -14.4697 -14.4697 -14.4272 -14.4272
   -13.5318 -13.5318 -13.4910 -13.4910 -13.4422 -13.4422 -13.4148 -13.4148
   -13.3289 -13.3289 -13.2846 -13.2846  -0.0953  -0.0953   0.7576   0.7576
     4.5813   4.5813   5.1701   5.1701  10.1408  10.1408  10.9843  10.9843
    11.4573  11.4573  12.0923  12.0923

     occupation numbers 
     1.0000   1.0000   1.0000   1.0000   1.0000   1.0000   1.0000   1.0000
     1.0000   1.0000   1.0000   1.0000   1.0000   1.0000   1.0000   1.0000
     1.0000   1.0000   1.0000   1.0000   1.0000   1.0000   1.0000   1.0000
     1.0000   1.0000   1.0000   1.0000   0.0000   0.0000   0.0000   0.0000
     0.0000   0.0000   0.0000   0.0000

          k =-0.7071 0.2652 0.0000 ( 10444 PWs)   bands (ev):

   -14.5259 -14.5259 -14.4984 -14.4984 -14.4664 -14.4664 -14.4287 -14.4287
   -13.5310 -13.5310 -13.4921 -13.4921 -13.4357 -13.4357 -13.4222 -13.4222
   -13.3271 -13.3271 -13.2850 -13.2850   0.2994   0.2994   0.3410   0.3410
     4.7856   4.7856   4.9505   4.9505   9.9491   9.9491  10.1463  10.1463
    12.2610  12.2610  12.3648  12.3648

     occupation numbers 
     1.0000   1.0000   1.0000   1.0000   1.0000   1.0000   1.0000   1.0000
     1.0000   1.0000   1.0000   1.0000   1.0000   1.0000   1.0000   1.0000
     1.0000   1.0000   1.0000   1.0000   1.0000   1.0000   1.0000   1.0000
     1.0000   1.0000   1.0000   1.0000   0.0000   0.0000   0.0000   0.0000
     0.0000   0.0000   0.0000   0.0000

          k =-0.7071 0.3536 0.0000 ( 10412 PWs)   bands (ev):

   -14.5268 -14.5268 -14.4963 -14.4963 -14.4689 -14.4689 -14.4274 -14.4274
   -13.5321 -13.5321 -13.4895 -13.4895 -13.4367 -13.4367 -13.4226 -13.4226
   -13.3288 -13.3288 -13.2833 -13.2833   0.3043   0.3043   0.3496   0.3496
     4.7195   4.7195   4.8924   4.8924  10.5444  10.5444  10.8691  10.8691
    11.5456  11.5456  11.5709  11.5709

     occupation numbers 
     1.0000   1.0000   1.0000   1.0000   1.0000   1.0000   1.0000   1.0000
     1.0000   1.0000   1.0000   1.0000   1.0000   1.0000   1.0000   1.0000
     1.0000   1.0000   1.0000   1.0000   1.0000   1.0000   1.0000   1.0000
     1.0000   1.0000   1.0000   1.0000   0.0000   0.0000   0.0000   0.0000
     0.0000   0.0000   0.0000   0.0000

     the Fermi energy is     7.5785 ev

!    total energy              =    -885.88331358 Ry
     Harris-Foulkes estimate   =    -885.88331358 Ry
     estimated scf accuracy    <          7.3E-09 Ry

     total all-electron energy =    -24716.583128 Ry

     The total energy is the sum of the following terms:

     one-electron contribution =    -155.27737184 Ry
     hartree contribution      =      78.92593686 Ry
     xc contribution           =     -54.74113430 Ry
     ewald contribution        =    -167.52979533 Ry
     one-center paw contrib.   =    -587.26094890 Ry
     smearing contrib. (-TS)   =      -0.00000006 Ry

     convergence has been achieved in   6 iterations

     Writing output data file Sn.save
 
     init_run     :     20.18s CPU     21.36s WALL (       1 calls)
     electrons    :    506.73s CPU    533.80s WALL (       1 calls)

     Called by init_run:
     wfcinit      :     19.46s CPU     20.52s WALL (       1 calls)
     potinit      :      0.24s CPU      0.26s WALL (       1 calls)

     Called by electrons:
     c_bands      :    433.31s CPU    456.54s WALL (       7 calls)
     sum_band     :     71.33s CPU     74.88s WALL (       7 calls)
     v_of_rho     :      0.14s CPU      0.15s WALL (       7 calls)
     v_h          :      0.01s CPU      0.01s WALL (       7 calls)
     v_xc         :      0.12s CPU      0.14s WALL (       7 calls)
     newd         :      0.81s CPU      0.93s WALL (       7 calls)
     PAW_pot      :      1.35s CPU      1.43s WALL (       7 calls)
     mix_rho      :      0.05s CPU      0.09s WALL (       7 calls)

     Called by c_bands:
     init_us_2    :      1.40s CPU      1.66s WALL (    2175 calls)
     cegterg      :    410.22s CPU    433.02s WALL (    1015 calls)

     Called by sum_band:
     sum_band:bec :      3.31s CPU      3.38s WALL (    1015 calls)
     addusdens    :      0.81s CPU      0.98s WALL (       7 calls)

     Called by *egterg:
     h_psi        :    344.60s CPU    362.84s WALL (    4042 calls)
     s_psi        :     10.53s CPU     10.59s WALL (    4042 calls)
     g_psi        :      1.28s CPU      1.30s WALL (    2882 calls)
     cdiaghg      :     17.86s CPU     18.10s WALL (    3752 calls)
     cegterg:over :     21.85s CPU     21.93s WALL (    2882 calls)
     cegterg:upda :     11.79s CPU     11.84s WALL (    2882 calls)
     cegterg:last :      7.65s CPU      7.67s WALL (    1155 calls)

     Called by h_psi:
     h_psi:vloc   :    319.65s CPU    337.66s WALL (    4042 calls)
     h_psi:vnl    :     23.79s CPU     23.99s WALL (    4042 calls)
     add_vuspsi   :     10.83s CPU     10.88s WALL (    4042 calls)

     General routines
     calbec       :     17.11s CPU     17.30s WALL (    5057 calls)
     fft          :      0.18s CPU      0.19s WALL (     135 calls)
     fftw         :    349.52s CPU    369.05s WALL (  512292 calls)
     davcio       :      0.09s CPU      0.67s WALL (     145 calls)
 
     Parallel routines
     fft_scatter  :    207.43s CPU    219.02s WALL (  512427 calls)

     PAW routines
     PAW_pot      :      1.35s CPU      1.43s WALL (       7 calls)
     PAW_symme    :      0.05s CPU      0.05s WALL (      14 calls)
 
     PWSCF        :  8m49.23s CPU     9m18.33s WALL

 
   This run was terminated on:  14: 9: 8  17Mar2020            

=------------------------------------------------------------------------------=
   JOB DONE.
=------------------------------------------------------------------------------=
