
     Program PWSCF v.5.4.0 starts on 21Feb2020 at  0:52:49 

     This program is part of the open-source Quantum ESPRESSO suite
     for quantum simulation of materials; please cite
         "P. Giannozzi et al., J. Phys.:Condens. Matter 21 395502 (2009);
          URL http://www.quantum-espresso.org", 
     in publications or presentations arising from this work. More details at
     http://www.quantum-espresso.org/quote

     Parallel version (MPI & OpenMP), running on      16 processor cores
     Number of MPI processes:                16
     Threads/MPI process:                     1
     R & G space division:  proc/nbgrp/npool/nimage =      16
     Waiting for input...
     Reading input from standard input
Warning: card &IONS ignored
Warning: card / ignored
Warning: card &CELL ignored
Warning: card / ignored

     Current dimensions of program PWSCF are:
     Max number of different atomic species (ntypx) = 10
     Max number of k-points (npk) =  40000
     Max angular momentum in pseudopotentials (lmaxx) =  3

     Subspace diagonalization in iterative solution of the eigenvalue problem:
     a serial algorithm will be used

 
     Parallelization info
     --------------------
     sticks:   dense  smooth     PW     G-vecs:    dense   smooth      PW
     Min         136     136     38                 4208     4208     629
     Max         138     138     39                 4210     4210     631
     Sum        2185    2185    613                67337    67337   10081
 

     Title: 
     Sn                                                                         


     bravais-lattice index     =            0
     lattice parameter (alat)  =       8.8993  a.u.
     unit-cell volume          =     498.3785 (a.u.)^3
     number of atoms/cell      =            2
     number of atomic types    =            1
     number of electrons       =        28.00
     number of Kohn-Sham states=           18
     kinetic-energy cutoff     =     100.0000  Ry
     charge density cutoff     =     400.0000  Ry
     convergence threshold     =      1.0E-06
     mixing beta               =       0.7000
     number of iterations used =            8  plain     mixing
     Exchange-correlation      = PBE ( 1  4  3  4 0 0)

     celldm(1)=   8.899346  celldm(2)=   0.000000  celldm(3)=   0.000000
     celldm(4)=   0.000000  celldm(5)=   0.000000  celldm(6)=   0.000000

     crystal axes: (cart. coord. in units of alat)
               a(1) = (   0.000000   0.707107   0.707107 )  
               a(2) = (   0.707107   0.000000   0.707107 )  
               a(3) = (   0.707107   0.707107   0.000000 )  

     reciprocal axes: (cart. coord. in units 2 pi/alat)
               b(1) = ( -0.707107  0.707107  0.707107 )  
               b(2) = (  0.707107 -0.707107  0.707107 )  
               b(3) = (  0.707107  0.707107 -0.707107 )  


     PseudoPot. # 1 for Sn read from file:
     ../PseudopotentialDatabase/Sn_ONCV_PBE-1.0.upf
     MD5 check sum: 4ecdb67ea6112684f1b2ae1cab9d4ca6
     Pseudo is Norm-conserving, Zval = 14.0
     Generated using ONCVPSP code by D. R. Hamann
     Using radial grid of  602 points,  6 beta functions with: 
                l(1) =   0
                l(2) =   0
                l(3) =   1
                l(4) =   1
                l(5) =   2
                l(6) =   2

     atomic species   valence    mass     pseudopotential
        Sn            14.00   118.71000     Sn( 1.00)

     48 Sym. Ops., with inversion, found (24 have fractional translation)


                                    s                        frac. trans.

      isym =  1     identity                                     

 cryst.   s( 1) = (     1          0          0      )
                  (     0          1          0      )
                  (     0          0          1      )

 cart.    s( 1) = (  1.0000000  0.0000000  0.0000000 )
                  (  0.0000000  1.0000000  0.0000000 )
                  (  0.0000000  0.0000000  1.0000000 )


      isym =  2     180 deg rotation - cart. axis [0,0,1]        

 cryst.   s( 2) = (     0          1         -1      )
                  (     1          0         -1      )
                  (     0          0         -1      )

 cart.    s( 2) = ( -1.0000000  0.0000000  0.0000000 )
                  (  0.0000000 -1.0000000  0.0000000 )
                  (  0.0000000  0.0000000  1.0000000 )


      isym =  3     180 deg rotation - cart. axis [0,1,0]        

 cryst.   s( 3) = (     0         -1          1      )
                  (     0         -1          0      )
                  (     1         -1          0      )

 cart.    s( 3) = ( -1.0000000  0.0000000  0.0000000 )
                  (  0.0000000  1.0000000  0.0000000 )
                  (  0.0000000  0.0000000 -1.0000000 )


      isym =  4     180 deg rotation - cart. axis [1,0,0]        

 cryst.   s( 4) = (    -1          0          0      )
                  (    -1          0          1      )
                  (    -1          1          0      )

 cart.    s( 4) = (  1.0000000  0.0000000  0.0000000 )
                  (  0.0000000 -1.0000000  0.0000000 )
                  (  0.0000000  0.0000000 -1.0000000 )


      isym =  5     180 deg rotation - cart. axis [1,1,0]        

 cryst.   s( 5) = (    -1          0          1      )    f =( -0.2500000 )
                  (     0         -1          1      )       ( -0.2500000 )
                  (     0          0          1      )       ( -0.2500000 )

 cart.    s( 5) = (  0.0000000  1.0000000  0.0000000 )    f =( -0.3535534 )
                  (  1.0000000  0.0000000  0.0000000 )       ( -0.3535534 )
                  (  0.0000000  0.0000000 -1.0000000 )       ( -0.3535534 )


      isym =  6     180 deg rotation - cart. axis [1,-1,0]       

 cryst.   s( 6) = (     0         -1          0      )    f =( -0.2500000 )
                  (    -1          0          0      )       ( -0.2500000 )
                  (     0          0         -1      )       ( -0.2500000 )

 cart.    s( 6) = (  0.0000000 -1.0000000  0.0000000 )    f =( -0.3535534 )
                  ( -1.0000000  0.0000000  0.0000000 )       ( -0.3535534 )
                  (  0.0000000  0.0000000 -1.0000000 )       ( -0.3535534 )


      isym =  7      90 deg rotation - cart. axis [0,0,-1]       

 cryst.   s( 7) = (     0          1          0      )    f =( -0.2500000 )
                  (     0          1         -1      )       ( -0.2500000 )
                  (    -1          1          0      )       ( -0.2500000 )

 cart.    s( 7) = (  0.0000000  1.0000000  0.0000000 )    f =( -0.3535534 )
                  ( -1.0000000  0.0000000  0.0000000 )       ( -0.3535534 )
                  (  0.0000000  0.0000000  1.0000000 )       ( -0.3535534 )


      isym =  8      90 deg rotation - cart. axis [0,0,1]        

 cryst.   s( 8) = (     1          0         -1      )    f =( -0.2500000 )
                  (     1          0          0      )       ( -0.2500000 )
                  (     1         -1          0      )       ( -0.2500000 )

 cart.    s( 8) = (  0.0000000 -1.0000000  0.0000000 )    f =( -0.3535534 )
                  (  1.0000000  0.0000000  0.0000000 )       ( -0.3535534 )
                  (  0.0000000  0.0000000  1.0000000 )       ( -0.3535534 )


      isym =  9     180 deg rotation - cart. axis [1,0,1]        

 cryst.   s( 9) = (    -1          1          0      )    f =( -0.2500000 )
                  (     0          1          0      )       ( -0.2500000 )
                  (     0          1         -1      )       ( -0.2500000 )

 cart.    s( 9) = (  0.0000000  0.0000000  1.0000000 )    f =( -0.3535534 )
                  (  0.0000000 -1.0000000  0.0000000 )       ( -0.3535534 )
                  (  1.0000000  0.0000000  0.0000000 )       ( -0.3535534 )


      isym = 10     180 deg rotation - cart. axis [-1,0,1]       

 cryst.   s(10) = (     0          0         -1      )    f =( -0.2500000 )
                  (     0         -1          0      )       ( -0.2500000 )
                  (    -1          0          0      )       ( -0.2500000 )

 cart.    s(10) = (  0.0000000  0.0000000 -1.0000000 )    f =( -0.3535534 )
                  (  0.0000000 -1.0000000  0.0000000 )       ( -0.3535534 )
                  ( -1.0000000  0.0000000  0.0000000 )       ( -0.3535534 )


      isym = 11      90 deg rotation - cart. axis [0,1,0]        

 cryst.   s(11) = (     0          0          1      )    f =( -0.2500000 )
                  (    -1          0          1      )       ( -0.2500000 )
                  (     0         -1          1      )       ( -0.2500000 )

 cart.    s(11) = (  0.0000000  0.0000000  1.0000000 )    f =( -0.3535534 )
                  (  0.0000000  1.0000000  0.0000000 )       ( -0.3535534 )
                  ( -1.0000000  0.0000000  0.0000000 )       ( -0.3535534 )


      isym = 12      90 deg rotation - cart. axis [0,-1,0]       

 cryst.   s(12) = (     1         -1          0      )    f =( -0.2500000 )
                  (     1          0         -1      )       ( -0.2500000 )
                  (     1          0          0      )       ( -0.2500000 )

 cart.    s(12) = (  0.0000000  0.0000000 -1.0000000 )    f =( -0.3535534 )
                  (  0.0000000  1.0000000  0.0000000 )       ( -0.3535534 )
                  (  1.0000000  0.0000000  0.0000000 )       ( -0.3535534 )


      isym = 13     180 deg rotation - cart. axis [0,1,1]        

 cryst.   s(13) = (     1          0          0      )    f =( -0.2500000 )
                  (     1         -1          0      )       ( -0.2500000 )
                  (     1          0         -1      )       ( -0.2500000 )

 cart.    s(13) = ( -1.0000000  0.0000000  0.0000000 )    f =( -0.3535534 )
                  (  0.0000000  0.0000000  1.0000000 )       ( -0.3535534 )
                  (  0.0000000  1.0000000  0.0000000 )       ( -0.3535534 )


      isym = 14     180 deg rotation - cart. axis [0,1,-1]       

 cryst.   s(14) = (    -1          0          0      )    f =( -0.2500000 )
                  (     0          0         -1      )       ( -0.2500000 )
                  (     0         -1          0      )       ( -0.2500000 )

 cart.    s(14) = ( -1.0000000  0.0000000  0.0000000 )    f =( -0.3535534 )
                  (  0.0000000  0.0000000 -1.0000000 )       ( -0.3535534 )
                  (  0.0000000 -1.0000000  0.0000000 )       ( -0.3535534 )


      isym = 15      90 deg rotation - cart. axis [-1,0,0]       

 cryst.   s(15) = (     0         -1          1      )    f =( -0.2500000 )
                  (     0          0          1      )       ( -0.2500000 )
                  (    -1          0          1      )       ( -0.2500000 )

 cart.    s(15) = (  1.0000000  0.0000000  0.0000000 )    f =( -0.3535534 )
                  (  0.0000000  0.0000000  1.0000000 )       ( -0.3535534 )
                  (  0.0000000 -1.0000000  0.0000000 )       ( -0.3535534 )


      isym = 16      90 deg rotation - cart. axis [1,0,0]        

 cryst.   s(16) = (     0          1         -1      )    f =( -0.2500000 )
                  (    -1          1          0      )       ( -0.2500000 )
                  (     0          1          0      )       ( -0.2500000 )

 cart.    s(16) = (  1.0000000  0.0000000  0.0000000 )    f =( -0.3535534 )
                  (  0.0000000  0.0000000 -1.0000000 )       ( -0.3535534 )
                  (  0.0000000  1.0000000  0.0000000 )       ( -0.3535534 )


      isym = 17     120 deg rotation - cart. axis [-1,-1,-1]     

 cryst.   s(17) = (     0          0          1      )
                  (     1          0          0      )
                  (     0          1          0      )

 cart.    s(17) = (  0.0000000  1.0000000  0.0000000 )
                  (  0.0000000  0.0000000  1.0000000 )
                  (  1.0000000  0.0000000  0.0000000 )


      isym = 18     120 deg rotation - cart. axis [-1,1,1]       

 cryst.   s(18) = (     1         -1          0      )
                  (     0         -1          1      )
                  (     0         -1          0      )

 cart.    s(18) = (  0.0000000 -1.0000000  0.0000000 )
                  (  0.0000000  0.0000000  1.0000000 )
                  ( -1.0000000  0.0000000  0.0000000 )


      isym = 19     120 deg rotation - cart. axis [1,1,-1]       

 cryst.   s(19) = (    -1          1          0      )
                  (    -1          0          0      )
                  (    -1          0          1      )

 cart.    s(19) = (  0.0000000  1.0000000  0.0000000 )
                  (  0.0000000  0.0000000 -1.0000000 )
                  ( -1.0000000  0.0000000  0.0000000 )


      isym = 20     120 deg rotation - cart. axis [1,-1,1]       

 cryst.   s(20) = (     0          0         -1      )
                  (     0          1         -1      )
                  (     1          0         -1      )

 cart.    s(20) = (  0.0000000 -1.0000000  0.0000000 )
                  (  0.0000000  0.0000000 -1.0000000 )
                  (  1.0000000  0.0000000  0.0000000 )


      isym = 21     120 deg rotation - cart. axis [1,1,1]        

 cryst.   s(21) = (     0          1          0      )
                  (     0          0          1      )
                  (     1          0          0      )

 cart.    s(21) = (  0.0000000  0.0000000  1.0000000 )
                  (  1.0000000  0.0000000  0.0000000 )
                  (  0.0000000  1.0000000  0.0000000 )


      isym = 22     120 deg rotation - cart. axis [-1,1,-1]      

 cryst.   s(22) = (    -1          0          1      )
                  (    -1          1          0      )
                  (    -1          0          0      )

 cart.    s(22) = (  0.0000000  0.0000000  1.0000000 )
                  ( -1.0000000  0.0000000  0.0000000 )
                  (  0.0000000 -1.0000000  0.0000000 )


      isym = 23     120 deg rotation - cart. axis [1,-1,-1]      

 cryst.   s(23) = (     1          0         -1      )
                  (     0          0         -1      )
                  (     0          1         -1      )

 cart.    s(23) = (  0.0000000  0.0000000 -1.0000000 )
                  ( -1.0000000  0.0000000  0.0000000 )
                  (  0.0000000  1.0000000  0.0000000 )


      isym = 24     120 deg rotation - cart. axis [-1,-1,1]      

 cryst.   s(24) = (     0         -1          0      )
                  (     1         -1          0      )
                  (     0         -1          1      )

 cart.    s(24) = (  0.0000000  0.0000000 -1.0000000 )
                  (  1.0000000  0.0000000  0.0000000 )
                  (  0.0000000 -1.0000000  0.0000000 )


      isym = 25     inversion                                    

 cryst.   s(25) = (    -1          0          0      )    f =( -0.2500000 )
                  (     0         -1          0      )       ( -0.2500000 )
                  (     0          0         -1      )       ( -0.2500000 )

 cart.    s(25) = ( -1.0000000  0.0000000  0.0000000 )    f =( -0.3535534 )
                  (  0.0000000 -1.0000000  0.0000000 )       ( -0.3535534 )
                  (  0.0000000  0.0000000 -1.0000000 )       ( -0.3535534 )


      isym = 26     inv. 180 deg rotation - cart. axis [0,0,1]   

 cryst.   s(26) = (     0         -1          1      )    f =( -0.2500000 )
                  (    -1          0          1      )       ( -0.2500000 )
                  (     0          0          1      )       ( -0.2500000 )

 cart.    s(26) = (  1.0000000  0.0000000  0.0000000 )    f =( -0.3535534 )
                  (  0.0000000  1.0000000  0.0000000 )       ( -0.3535534 )
                  (  0.0000000  0.0000000 -1.0000000 )       ( -0.3535534 )


      isym = 27     inv. 180 deg rotation - cart. axis [0,1,0]   

 cryst.   s(27) = (     0          1         -1      )    f =( -0.2500000 )
                  (     0          1          0      )       ( -0.2500000 )
                  (    -1          1          0      )       ( -0.2500000 )

 cart.    s(27) = (  1.0000000  0.0000000  0.0000000 )    f =( -0.3535534 )
                  (  0.0000000 -1.0000000  0.0000000 )       ( -0.3535534 )
                  (  0.0000000  0.0000000  1.0000000 )       ( -0.3535534 )


      isym = 28     inv. 180 deg rotation - cart. axis [1,0,0]   

 cryst.   s(28) = (     1          0          0      )    f =( -0.2500000 )
                  (     1          0         -1      )       ( -0.2500000 )
                  (     1         -1          0      )       ( -0.2500000 )

 cart.    s(28) = ( -1.0000000  0.0000000  0.0000000 )    f =( -0.3535534 )
                  (  0.0000000  1.0000000  0.0000000 )       ( -0.3535534 )
                  (  0.0000000  0.0000000  1.0000000 )       ( -0.3535534 )


      isym = 29     inv. 180 deg rotation - cart. axis [1,1,0]   

 cryst.   s(29) = (     1          0         -1      )
                  (     0          1         -1      )
                  (     0          0         -1      )

 cart.    s(29) = (  0.0000000 -1.0000000  0.0000000 )
                  ( -1.0000000  0.0000000  0.0000000 )
                  (  0.0000000  0.0000000  1.0000000 )


      isym = 30     inv. 180 deg rotation - cart. axis [1,-1,0]  

 cryst.   s(30) = (     0          1          0      )
                  (     1          0          0      )
                  (     0          0          1      )

 cart.    s(30) = (  0.0000000  1.0000000  0.0000000 )
                  (  1.0000000  0.0000000  0.0000000 )
                  (  0.0000000  0.0000000  1.0000000 )


      isym = 31     inv.  90 deg rotation - cart. axis [0,0,-1]  

 cryst.   s(31) = (     0         -1          0      )
                  (     0         -1          1      )
                  (     1         -1          0      )

 cart.    s(31) = (  0.0000000 -1.0000000  0.0000000 )
                  (  1.0000000  0.0000000  0.0000000 )
                  (  0.0000000  0.0000000 -1.0000000 )


      isym = 32     inv.  90 deg rotation - cart. axis [0,0,1]   

 cryst.   s(32) = (    -1          0          1      )
                  (    -1          0          0      )
                  (    -1          1          0      )

 cart.    s(32) = (  0.0000000  1.0000000  0.0000000 )
                  ( -1.0000000  0.0000000  0.0000000 )
                  (  0.0000000  0.0000000 -1.0000000 )


      isym = 33     inv. 180 deg rotation - cart. axis [1,0,1]   

 cryst.   s(33) = (     1         -1          0      )
                  (     0         -1          0      )
                  (     0         -1          1      )

 cart.    s(33) = (  0.0000000  0.0000000 -1.0000000 )
                  (  0.0000000  1.0000000  0.0000000 )
                  ( -1.0000000  0.0000000  0.0000000 )


      isym = 34     inv. 180 deg rotation - cart. axis [-1,0,1]  

 cryst.   s(34) = (     0          0          1      )
                  (     0          1          0      )
                  (     1          0          0      )

 cart.    s(34) = (  0.0000000  0.0000000  1.0000000 )
                  (  0.0000000  1.0000000  0.0000000 )
                  (  1.0000000  0.0000000  0.0000000 )


      isym = 35     inv.  90 deg rotation - cart. axis [0,1,0]   

 cryst.   s(35) = (     0          0         -1      )
                  (     1          0         -1      )
                  (     0          1         -1      )

 cart.    s(35) = (  0.0000000  0.0000000 -1.0000000 )
                  (  0.0000000 -1.0000000  0.0000000 )
                  (  1.0000000  0.0000000  0.0000000 )


      isym = 36     inv.  90 deg rotation - cart. axis [0,-1,0]  

 cryst.   s(36) = (    -1          1          0      )
                  (    -1          0          1      )
                  (    -1          0          0      )

 cart.    s(36) = (  0.0000000  0.0000000  1.0000000 )
                  (  0.0000000 -1.0000000  0.0000000 )
                  ( -1.0000000  0.0000000  0.0000000 )


      isym = 37     inv. 180 deg rotation - cart. axis [0,1,1]   

 cryst.   s(37) = (    -1          0          0      )
                  (    -1          1          0      )
                  (    -1          0          1      )

 cart.    s(37) = (  1.0000000  0.0000000  0.0000000 )
                  (  0.0000000  0.0000000 -1.0000000 )
                  (  0.0000000 -1.0000000  0.0000000 )


      isym = 38     inv. 180 deg rotation - cart. axis [0,1,-1]  

 cryst.   s(38) = (     1          0          0      )
                  (     0          0          1      )
                  (     0          1          0      )

 cart.    s(38) = (  1.0000000  0.0000000  0.0000000 )
                  (  0.0000000  0.0000000  1.0000000 )
                  (  0.0000000  1.0000000  0.0000000 )


      isym = 39     inv.  90 deg rotation - cart. axis [-1,0,0]  

 cryst.   s(39) = (     0          1         -1      )
                  (     0          0         -1      )
                  (     1          0         -1      )

 cart.    s(39) = ( -1.0000000  0.0000000  0.0000000 )
                  (  0.0000000  0.0000000 -1.0000000 )
                  (  0.0000000  1.0000000  0.0000000 )


      isym = 40     inv.  90 deg rotation - cart. axis [1,0,0]   

 cryst.   s(40) = (     0         -1          1      )
                  (     1         -1          0      )
                  (     0         -1          0      )

 cart.    s(40) = ( -1.0000000  0.0000000  0.0000000 )
                  (  0.0000000  0.0000000  1.0000000 )
                  (  0.0000000 -1.0000000  0.0000000 )


      isym = 41     inv. 120 deg rotation - cart. axis [-1,-1,-1]

 cryst.   s(41) = (     0          0         -1      )    f =( -0.2500000 )
                  (    -1          0          0      )       ( -0.2500000 )
                  (     0         -1          0      )       ( -0.2500000 )

 cart.    s(41) = (  0.0000000 -1.0000000  0.0000000 )    f =( -0.3535534 )
                  (  0.0000000  0.0000000 -1.0000000 )       ( -0.3535534 )
                  ( -1.0000000  0.0000000  0.0000000 )       ( -0.3535534 )


      isym = 42     inv. 120 deg rotation - cart. axis [-1,1,1]  

 cryst.   s(42) = (    -1          1          0      )    f =( -0.2500000 )
                  (     0          1         -1      )       ( -0.2500000 )
                  (     0          1          0      )       ( -0.2500000 )

 cart.    s(42) = (  0.0000000  1.0000000  0.0000000 )    f =( -0.3535534 )
                  (  0.0000000  0.0000000 -1.0000000 )       ( -0.3535534 )
                  (  1.0000000  0.0000000  0.0000000 )       ( -0.3535534 )


      isym = 43     inv. 120 deg rotation - cart. axis [1,1,-1]  

 cryst.   s(43) = (     1         -1          0      )    f =( -0.2500000 )
                  (     1          0          0      )       ( -0.2500000 )
                  (     1          0         -1      )       ( -0.2500000 )

 cart.    s(43) = (  0.0000000 -1.0000000  0.0000000 )    f =( -0.3535534 )
                  (  0.0000000  0.0000000  1.0000000 )       ( -0.3535534 )
                  (  1.0000000  0.0000000  0.0000000 )       ( -0.3535534 )


      isym = 44     inv. 120 deg rotation - cart. axis [1,-1,1]  

 cryst.   s(44) = (     0          0          1      )    f =( -0.2500000 )
                  (     0         -1          1      )       ( -0.2500000 )
                  (    -1          0          1      )       ( -0.2500000 )

 cart.    s(44) = (  0.0000000  1.0000000  0.0000000 )    f =( -0.3535534 )
                  (  0.0000000  0.0000000  1.0000000 )       ( -0.3535534 )
                  ( -1.0000000  0.0000000  0.0000000 )       ( -0.3535534 )


      isym = 45     inv. 120 deg rotation - cart. axis [1,1,1]   

 cryst.   s(45) = (     0         -1          0      )    f =( -0.2500000 )
                  (     0          0         -1      )       ( -0.2500000 )
                  (    -1          0          0      )       ( -0.2500000 )

 cart.    s(45) = (  0.0000000  0.0000000 -1.0000000 )    f =( -0.3535534 )
                  ( -1.0000000  0.0000000  0.0000000 )       ( -0.3535534 )
                  (  0.0000000 -1.0000000  0.0000000 )       ( -0.3535534 )


      isym = 46     inv. 120 deg rotation - cart. axis [-1,1,-1] 

 cryst.   s(46) = (     1          0         -1      )    f =( -0.2500000 )
                  (     1         -1          0      )       ( -0.2500000 )
                  (     1          0          0      )       ( -0.2500000 )

 cart.    s(46) = (  0.0000000  0.0000000 -1.0000000 )    f =( -0.3535534 )
                  (  1.0000000  0.0000000  0.0000000 )       ( -0.3535534 )
                  (  0.0000000  1.0000000  0.0000000 )       ( -0.3535534 )


      isym = 47     inv. 120 deg rotation - cart. axis [1,-1,-1] 

 cryst.   s(47) = (    -1          0          1      )    f =( -0.2500000 )
                  (     0          0          1      )       ( -0.2500000 )
                  (     0         -1          1      )       ( -0.2500000 )

 cart.    s(47) = (  0.0000000  0.0000000  1.0000000 )    f =( -0.3535534 )
                  (  1.0000000  0.0000000  0.0000000 )       ( -0.3535534 )
                  (  0.0000000 -1.0000000  0.0000000 )       ( -0.3535534 )


      isym = 48     inv. 120 deg rotation - cart. axis [-1,-1,1] 

 cryst.   s(48) = (     0          1          0      )    f =( -0.2500000 )
                  (    -1          1          0      )       ( -0.2500000 )
                  (     0          1         -1      )       ( -0.2500000 )

 cart.    s(48) = (  0.0000000  0.0000000  1.0000000 )    f =( -0.3535534 )
                  ( -1.0000000  0.0000000  0.0000000 )       ( -0.3535534 )
                  (  0.0000000  1.0000000  0.0000000 )       ( -0.3535534 )


   Cartesian axes

     site n.     atom                  positions (alat units)
         1           Sn  tau(   1) = (   0.0000000   0.0000000   0.0000000  )
         2           Sn  tau(   2) = (   0.3535534   0.3535534   0.3535534  )

   Crystallographic axes

     site n.     atom                  positions (cryst. coord.)
         1           Sn  tau(   1) = (  0.0000000  0.0000000  0.0000000  )
         2           Sn  tau(   2) = (  0.2500000  0.2500000  0.2500000  )

     number of k points=    47  gaussian smearing, width (Ry)=  0.0100
                       cart. coord. in units 2pi/alat
        k(    1) = (   0.0000000   0.0000000   0.0000000), wk =   0.0020000
        k(    2) = (   0.0707107   0.0707107  -0.0707107), wk =   0.0160000
        k(    3) = (   0.1414214   0.1414214  -0.1414214), wk =   0.0160000
        k(    4) = (   0.2121320   0.2121320  -0.2121320), wk =   0.0160000
        k(    5) = (   0.2828427   0.2828427  -0.2828427), wk =   0.0160000
        k(    6) = (  -0.3535534  -0.3535534   0.3535534), wk =   0.0080000
        k(    7) = (   0.1414214   0.0000000   0.0000000), wk =   0.0120000
        k(    8) = (   0.2121320   0.0707107  -0.0707107), wk =   0.0480000
        k(    9) = (   0.2828427   0.1414214  -0.1414214), wk =   0.0480000
        k(   10) = (   0.3535534   0.2121320  -0.2121320), wk =   0.0480000
        k(   11) = (  -0.2828427  -0.4242641   0.4242641), wk =   0.0480000
        k(   12) = (  -0.2121320  -0.3535534   0.3535534), wk =   0.0480000
        k(   13) = (  -0.1414214  -0.2828427   0.2828427), wk =   0.0480000
        k(   14) = (  -0.0707107  -0.2121320   0.2121320), wk =   0.0480000
        k(   15) = (   0.0000000  -0.1414214   0.1414214), wk =   0.0240000
        k(   16) = (   0.2828427   0.0000000   0.0000000), wk =   0.0120000
        k(   17) = (   0.3535534   0.0707107  -0.0707107), wk =   0.0480000
        k(   18) = (   0.4242641   0.1414214  -0.1414214), wk =   0.0480000
        k(   19) = (  -0.2121320  -0.4949747   0.4949747), wk =   0.0480000
        k(   20) = (  -0.1414214  -0.4242641   0.4242641), wk =   0.0480000
        k(   21) = (  -0.0707107  -0.3535534   0.3535534), wk =   0.0480000
        k(   22) = (   0.0000000  -0.2828427   0.2828427), wk =   0.0240000
        k(   23) = (   0.4242641   0.0000000   0.0000000), wk =   0.0120000
        k(   24) = (   0.4949747   0.0707107  -0.0707107), wk =   0.0480000
        k(   25) = (  -0.1414214  -0.5656854   0.5656854), wk =   0.0480000
        k(   26) = (  -0.0707107  -0.4949747   0.4949747), wk =   0.0480000
        k(   27) = (  -0.0000000  -0.4242641   0.4242641), wk =   0.0240000
        k(   28) = (   0.5656854   0.0000000   0.0000000), wk =   0.0120000
        k(   29) = (  -0.0707107  -0.6363961   0.6363961), wk =   0.0480000
        k(   30) = (   0.0000000  -0.5656854   0.5656854), wk =   0.0240000
        k(   31) = (  -0.7071068   0.0000000   0.0000000), wk =   0.0060000
        k(   32) = (   0.2828427   0.1414214   0.0000000), wk =   0.0480000
        k(   33) = (   0.3535534   0.2121320  -0.0707107), wk =   0.0960000
        k(   34) = (  -0.2828427  -0.4242641   0.5656854), wk =   0.0960000
        k(   35) = (  -0.2121320  -0.3535534   0.4949747), wk =   0.0480000
        k(   36) = (   0.4242641   0.1414214  -0.0000000), wk =   0.0480000
        k(   37) = (  -0.2121320  -0.4949747   0.6363961), wk =   0.0960000
        k(   38) = (  -0.1414214  -0.4242641   0.5656854), wk =   0.0960000
        k(   39) = (  -0.0707107  -0.3535534   0.4949747), wk =   0.0960000
        k(   40) = (   0.0000000  -0.2828427   0.4242641), wk =   0.0480000
        k(   41) = (  -0.1414214  -0.5656854   0.7071068), wk =   0.0480000
        k(   42) = (  -0.0707107  -0.4949747   0.6363961), wk =   0.0960000
        k(   43) = (  -0.0000000  -0.4242641   0.5656854), wk =   0.0480000
        k(   44) = (  -0.7071068   0.1414214   0.0000000), wk =   0.0240000
        k(   45) = (  -0.1414214  -0.4242641   0.7071068), wk =   0.0480000
        k(   46) = (  -0.0707107  -0.3535534   0.6363961), wk =   0.0480000
        k(   47) = (  -0.7071068   0.2828427   0.0000000), wk =   0.0240000

                       cryst. coord.
        k(    1) = (   0.0000000   0.0000000   0.0000000), wk =   0.0020000
        k(    2) = (   0.0000000   0.0000000   0.1000000), wk =   0.0160000
        k(    3) = (   0.0000000   0.0000000   0.2000000), wk =   0.0160000
        k(    4) = (   0.0000000   0.0000000   0.3000000), wk =   0.0160000
        k(    5) = (   0.0000000   0.0000000   0.4000000), wk =   0.0160000
        k(    6) = (   0.0000000   0.0000000  -0.5000000), wk =   0.0080000
        k(    7) = (   0.0000000   0.1000000   0.1000000), wk =   0.0120000
        k(    8) = (   0.0000000   0.1000000   0.2000000), wk =   0.0480000
        k(    9) = (   0.0000000   0.1000000   0.3000000), wk =   0.0480000
        k(   10) = (   0.0000000   0.1000000   0.4000000), wk =   0.0480000
        k(   11) = (   0.0000000   0.1000000  -0.5000000), wk =   0.0480000
        k(   12) = (   0.0000000   0.1000000  -0.4000000), wk =   0.0480000
        k(   13) = (   0.0000000   0.1000000  -0.3000000), wk =   0.0480000
        k(   14) = (   0.0000000   0.1000000  -0.2000000), wk =   0.0480000
        k(   15) = (   0.0000000   0.1000000  -0.1000000), wk =   0.0240000
        k(   16) = (   0.0000000   0.2000000   0.2000000), wk =   0.0120000
        k(   17) = (   0.0000000   0.2000000   0.3000000), wk =   0.0480000
        k(   18) = (   0.0000000   0.2000000   0.4000000), wk =   0.0480000
        k(   19) = (   0.0000000   0.2000000  -0.5000000), wk =   0.0480000
        k(   20) = (   0.0000000   0.2000000  -0.4000000), wk =   0.0480000
        k(   21) = (   0.0000000   0.2000000  -0.3000000), wk =   0.0480000
        k(   22) = (   0.0000000   0.2000000  -0.2000000), wk =   0.0240000
        k(   23) = (   0.0000000   0.3000000   0.3000000), wk =   0.0120000
        k(   24) = (   0.0000000   0.3000000   0.4000000), wk =   0.0480000
        k(   25) = (   0.0000000   0.3000000  -0.5000000), wk =   0.0480000
        k(   26) = (   0.0000000   0.3000000  -0.4000000), wk =   0.0480000
        k(   27) = (   0.0000000   0.3000000  -0.3000000), wk =   0.0240000
        k(   28) = (   0.0000000   0.4000000   0.4000000), wk =   0.0120000
        k(   29) = (   0.0000000   0.4000000  -0.5000000), wk =   0.0480000
        k(   30) = (   0.0000000   0.4000000  -0.4000000), wk =   0.0240000
        k(   31) = (   0.0000000  -0.5000000  -0.5000000), wk =   0.0060000
        k(   32) = (   0.1000000   0.2000000   0.3000000), wk =   0.0480000
        k(   33) = (   0.1000000   0.2000000   0.4000000), wk =   0.0960000
        k(   34) = (   0.1000000   0.2000000  -0.5000000), wk =   0.0960000
        k(   35) = (   0.1000000   0.2000000  -0.4000000), wk =   0.0480000
        k(   36) = (   0.1000000   0.3000000   0.4000000), wk =   0.0480000
        k(   37) = (   0.1000000   0.3000000  -0.5000000), wk =   0.0960000
        k(   38) = (   0.1000000   0.3000000  -0.4000000), wk =   0.0960000
        k(   39) = (   0.1000000   0.3000000  -0.3000000), wk =   0.0960000
        k(   40) = (   0.1000000   0.3000000  -0.2000000), wk =   0.0480000
        k(   41) = (   0.1000000   0.4000000  -0.5000000), wk =   0.0480000
        k(   42) = (   0.1000000   0.4000000  -0.4000000), wk =   0.0960000
        k(   43) = (   0.1000000   0.4000000  -0.3000000), wk =   0.0480000
        k(   44) = (   0.1000000  -0.5000000  -0.4000000), wk =   0.0240000
        k(   45) = (   0.2000000   0.4000000  -0.4000000), wk =   0.0480000
        k(   46) = (   0.2000000   0.4000000  -0.3000000), wk =   0.0480000
        k(   47) = (   0.2000000  -0.5000000  -0.3000000), wk =   0.0240000

     Dense  grid:    67337 G-vectors     FFT dimensions: (  60,  60,  60)

     Largest allocated arrays     est. size (Mb)     dimensions
        Kohn-Sham Wavefunctions         0.15 Mb     (     532,   18)
        NL pseudopotentials             0.29 Mb     (     532,   36)
        Each V/rho on FFT grid          0.22 Mb     (   14400)
        Each G-vector array             0.03 Mb     (    4210)
        G-vector shells                 0.00 Mb     (     521)
     Largest temporary arrays     est. size (Mb)     dimensions
        Auxiliary wavefunctions         0.58 Mb     (     532,   72)
        Each subspace H/S matrix        0.08 Mb     (      72,   72)
        Each <psi_i|beta_j> matrix      0.01 Mb     (      36,   18)
        Arrays for rho mixing           1.76 Mb     (   14400,    8)

     Initial potential from superposition of free atoms

     starting charge   27.82674, renormalised to   28.00000
     Starting wfc are random

     total cpu time spent up to now is        1.2 secs

     Self-consistent Calculation

     iteration #  1     ecut=   100.00 Ry     beta=0.70
     Davidson diagonalization with overlap
     ethr =  1.00E-02,  avg # of iterations =  7.6

     Threshold (ethr) on eigenvalues was too large:
     Diagonalizing with lowered threshold

     Davidson diagonalization with overlap
     ethr =  1.16E-04,  avg # of iterations =  5.9

     total cpu time spent up to now is        7.7 secs

     total energy              =    -256.21702817 Ry
     Harris-Foulkes estimate   =    -256.22986174 Ry
     estimated scf accuracy    <       0.03191849 Ry

     iteration #  2     ecut=   100.00 Ry     beta=0.70
     Davidson diagonalization with overlap
     ethr =  1.14E-04,  avg # of iterations =  2.1

     total cpu time spent up to now is        9.3 secs

     total energy              =    -256.22147035 Ry
     Harris-Foulkes estimate   =    -256.22170431 Ry
     estimated scf accuracy    <       0.00182598 Ry

     iteration #  3     ecut=   100.00 Ry     beta=0.70
     Davidson diagonalization with overlap
     ethr =  6.52E-06,  avg # of iterations =  2.4

     total cpu time spent up to now is       10.7 secs

     total energy              =    -256.22164178 Ry
     Harris-Foulkes estimate   =    -256.22162268 Ry
     estimated scf accuracy    <       0.00010928 Ry

     iteration #  4     ecut=   100.00 Ry     beta=0.70
     Davidson diagonalization with overlap
     ethr =  3.90E-07,  avg # of iterations =  3.0

     total cpu time spent up to now is       12.2 secs

     End of self-consistent calculation

          k = 0.0000 0.0000 0.0000 (  8393 PWs)   bands (ev):

   -14.0581 -14.0581 -14.0581 -14.0088 -14.0088 -13.7587 -13.7587 -13.7587
   -13.7575 -13.7575  -2.5786   6.3608   7.6165   7.6165   7.6165   9.4140
     9.4147   9.6828

     occupation numbers 
     1.0000   1.0000   1.0000   1.0000   1.0000   1.0000   1.0000   1.0000
     1.0000   1.0000   1.0000   1.0000   0.0933   0.0933   0.0933   0.0000
     0.0000   0.0000

          k = 0.0707 0.0707-0.0707 (  8420 PWs)   bands (ev):

   -14.0640 -14.0640 -14.0560 -14.0006 -14.0006 -13.7753 -13.7753 -13.7612
   -13.7424 -13.7424  -2.4894   5.5137   7.4448   7.4448   7.9124   9.4139
     9.4148   9.9084

     occupation numbers 
     1.0000   1.0000   1.0000   1.0000   1.0000   1.0000   1.0000   1.0000
     1.0000   1.0000   1.0000   1.0000   0.6787   0.6787   0.0000   0.0000
     0.0000   0.0000

          k = 0.1414 0.1414-0.1414 (  8399 PWs)   bands (ev):

   -14.0742 -14.0742 -14.0505 -13.9848 -13.9848 -13.7912 -13.7912 -13.7678
   -13.7299 -13.7299  -2.2281   4.1885   7.1070   7.1070   7.8475   9.4140
     9.4147  10.3412

     occupation numbers 
     1.0000   1.0000   1.0000   1.0000   1.0000   1.0000   1.0000   1.0000
     1.0000   1.0000   1.0000   1.0000   1.0000   1.0000   0.0001   0.0000
     0.0000   0.0000

          k = 0.2121 0.2121-0.2121 (  8411 PWs)   bands (ev):

   -14.0819 -14.0819 -14.0434 -13.9710 -13.9710 -13.8032 -13.8032 -13.7762
   -13.7214 -13.7214  -1.8213   2.9302   6.7993   6.7993   7.6162   9.4140
     9.4146  10.6389

     occupation numbers 
     1.0000   1.0000   1.0000   1.0000   1.0000   1.0000   1.0000   1.0000
     1.0000   1.0000   1.0000   1.0000   1.0000   1.0000   0.0939   0.0000
     0.0000   0.0000

          k = 0.2828 0.2828-0.2828 (  8438 PWs)   bands (ev):

   -14.0862 -14.0862 -14.0374 -13.9627 -13.9627 -13.8098 -13.8098 -13.7833
   -13.7167 -13.7167  -1.3572   1.9311   6.5979   6.5979   7.4424   9.4141
     9.4146  10.7231

     occupation numbers 
     1.0000   1.0000   1.0000   1.0000   1.0000   1.0000   1.0000   1.0000
     1.0000   1.0000   1.0000   1.0000   1.0000   1.0000   0.6875   0.0000
     0.0000   0.0000

          k =-0.3536-0.3536 0.3536 (  8424 PWs)   bands (ev):

   -14.0875 -14.0875 -14.0351 -13.9601 -13.9601 -13.8117 -13.8117 -13.7860
   -13.7153 -13.7153  -1.1085   1.5007   6.5286   6.5286   7.3811   9.4141
     9.4146  10.7271

     occupation numbers 
     1.0000   1.0000   1.0000   1.0000   1.0000   1.0000   1.0000   1.0000
     1.0000   1.0000   1.0000   1.0000   1.0000   1.0000   0.8700   0.0000
     0.0000   0.0000

          k = 0.1414 0.0000 0.0000 (  8432 PWs)   bands (ev):

   -14.0627 -14.0627 -14.0623 -14.0025 -13.9921 -13.7926 -13.7635 -13.7524
   -13.7524 -13.7381  -2.4593   5.3963   7.1617   7.1617   8.5201   9.3505
     9.4151   9.4153

     occupation numbers 
     1.0000   1.0000   1.0000   1.0000   1.0000   1.0000   1.0000   1.0000
     1.0000   1.0000   1.0000   1.0000   0.9997   0.9997   0.0000   0.0000
     0.0000   0.0000

          k = 0.2121 0.0707-0.0707 (  8401 PWs)   bands (ev):

   -14.0750 -14.0702 -14.0555 -13.9912 -13.9750 -13.8118 -13.7777 -13.7551
   -13.7396 -13.7277  -2.2538   4.4164   6.7845   6.8016   8.7483   9.4116
     9.4150   9.4652

     occupation numbers 
     1.0000   1.0000   1.0000   1.0000   1.0000   1.0000   1.0000   1.0000
     1.0000   1.0000   1.0000   1.0000   1.0000   1.0000   0.0000   0.0000
     0.0000   0.0000

          k = 0.2828 0.1414-0.1414 (  8408 PWs)   bands (ev):

   -14.0865 -14.0788 -14.0441 -13.9765 -13.9593 -13.8257 -13.7929 -13.7675
   -13.7276 -13.7159  -1.8903   3.2333   6.3592   6.5167   8.5490   9.4139
     9.4148  10.0088

     occupation numbers 
     1.0000   1.0000   1.0000   1.0000   1.0000   1.0000   1.0000   1.0000
     1.0000   1.0000   1.0000   1.0000   1.0000   1.0000   0.0000   0.0000
     0.0000   0.0000

          k = 0.3536 0.2121-0.2121 (  8420 PWs)   bands (ev):

   -14.0941 -14.0853 -14.0319 -13.9638 -13.9513 -13.8301 -13.8059 -13.7823
   -13.7189 -13.7080  -1.4267   2.1757   6.0074   6.3646   8.3287   9.4141
     9.4147  10.3913

     occupation numbers 
     1.0000   1.0000   1.0000   1.0000   1.0000   1.0000   1.0000   1.0000
     1.0000   1.0000   1.0000   1.0000   1.0000   1.0000   0.0000   0.0000
     0.0000   0.0000

          k =-0.2828-0.4243 0.4243 (  8424 PWs)   bands (ev):

   -14.0971 -14.0892 -14.0236 -13.9547 -13.9524 -13.8239 -13.8162 -13.7942
   -13.7133 -13.7052  -1.0575   1.5251   5.7887   6.3627   8.1975   9.4140
     9.4147  10.5611

     occupation numbers 
     1.0000   1.0000   1.0000   1.0000   1.0000   1.0000   1.0000   1.0000
     1.0000   1.0000   1.0000   1.0000   1.0000   1.0000   0.0000   0.0000
     0.0000   0.0000

          k =-0.2121-0.3536 0.3536 (  8427 PWs)   bands (ev):

   -14.0953 -14.0906 -14.0232 -13.9596 -13.9507 -13.8224 -13.8119 -13.7977
   -13.7109 -13.7080  -1.1488   1.6745   5.7274   6.5079   8.1812   9.4141
     9.4147  10.7008

     occupation numbers 
     1.0000   1.0000   1.0000   1.0000   1.0000   1.0000   1.0000   1.0000
     1.0000   1.0000   1.0000   1.0000   1.0000   1.0000   0.0000   0.0000
     0.0000   0.0000

          k =-0.1414-0.2828 0.2828 (  8408 PWs)   bands (ev):

   -14.0890 -14.0887 -14.0312 -13.9694 -13.9548 -13.8212 -13.8046 -13.7852
   -13.7163 -13.7123  -1.5876   2.5040   5.8413   6.7789   8.2713   9.4141
     9.4148  10.6944

     occupation numbers 
     1.0000   1.0000   1.0000   1.0000   1.0000   1.0000   1.0000   1.0000
     1.0000   1.0000   1.0000   1.0000   1.0000   1.0000   0.0000   0.0000
     0.0000   0.0000

          k =-0.0707-0.2121 0.2121 (  8391 PWs)   bands (ev):

   -14.0829 -14.0789 -14.0434 -13.9813 -13.9678 -13.8108 -13.7963 -13.7671
   -13.7297 -13.7182  -2.0288   3.6184   6.1541   7.1247   8.4032   9.4140
     9.4149  10.3376

     occupation numbers 
     1.0000   1.0000   1.0000   1.0000   1.0000   1.0000   1.0000   1.0000
     1.0000   1.0000   1.0000   1.0000   1.0000   0.9999   0.0000   0.0000
     0.0000   0.0000

          k = 0.0000-0.1414 0.1414 (  8416 PWs)   bands (ev):

   -14.0734 -14.0677 -14.0536 -13.9940 -13.9857 -13.7941 -13.7838 -13.7531
   -13.7458 -13.7285  -2.3422   4.7441   6.7141   7.4211   8.3332   9.4140
     9.4149   9.9575

     occupation numbers 
     1.0000   1.0000   1.0000   1.0000   1.0000   1.0000   1.0000   1.0000
     1.0000   1.0000   1.0000   1.0000   1.0000   0.7613   0.0000   0.0000
     0.0000   0.0000

          k = 0.2828 0.0000 0.0000 (  8404 PWs)   bands (ev):

   -14.0741 -14.0741 -14.0628 -13.9842 -13.9552 -13.8378 -13.7810 -13.7366
   -13.7366 -13.7346  -2.1039   4.0264   6.4299   6.4299   8.8060   9.3994
     9.4144   9.4554

     occupation numbers 
     1.0000   1.0000   1.0000   1.0000   1.0000   1.0000   1.0000   1.0000
     1.0000   1.0000   1.0000   1.0000   1.0000   1.0000   0.0000   0.0000
     0.0000   0.0000

          k = 0.3536 0.0707-0.0707 (  8400 PWs)   bands (ev):

   -14.0868 -14.0814 -14.0502 -13.9701 -13.9355 -13.8589 -13.7955 -13.7525
   -13.7258 -13.7172  -1.7886   3.1840   5.9776   6.1387   8.8747   9.4108
     9.4145   9.5638

     occupation numbers 
     1.0000   1.0000   1.0000   1.0000   1.0000   1.0000   1.0000   1.0000
     1.0000   1.0000   1.0000   1.0000   1.0000   1.0000   0.0000   0.0000
     0.0000   0.0000

          k = 0.4243 0.1414-0.1414 (  8421 PWs)   bands (ev):

   -14.1000 -14.0881 -14.0299 -13.9547 -13.9239 -13.8691 -13.8121 -13.7753
   -13.7159 -13.7020  -1.3445   2.2515   5.4578   5.9891   8.8984   9.4137
     9.4148  10.1256

     occupation numbers 
     1.0000   1.0000   1.0000   1.0000   1.0000   1.0000   1.0000   1.0000
     1.0000   1.0000   1.0000   1.0000   1.0000   1.0000   0.0000   0.0000
     0.0000   0.0000

          k =-0.2121-0.4950 0.4950 (  8432 PWs)   bands (ev):

   -14.1084 -14.0930 -14.0110 -13.9407 -13.9261 -13.8637 -13.8280 -13.7965
   -13.7086 -13.6927  -0.8999   1.5149   5.0667   6.0014   8.8149   9.4140
     9.4148  10.7217

     occupation numbers 
     1.0000   1.0000   1.0000   1.0000   1.0000   1.0000   1.0000   1.0000
     1.0000   1.0000   1.0000   1.0000   1.0000   1.0000   0.0000   0.0000
     0.0000   0.0000

          k =-0.1414-0.4243 0.4243 (  8430 PWs)   bands (ev):

   -14.1100 -14.0956 -14.0018 -13.9403 -13.9315 -13.8444 -13.8400 -13.8087
   -13.7047 -13.6914  -0.8208   1.4001   4.8784   6.1725   8.8107   9.4141
     9.4149  10.9403

     occupation numbers 
     1.0000   1.0000   1.0000   1.0000   1.0000   1.0000   1.0000   1.0000
     1.0000   1.0000   1.0000   1.0000   1.0000   1.0000   0.0000   0.0000
     0.0000   0.0000

          k =-0.0707-0.3536 0.3536 (  8420 PWs)   bands (ev):

   -14.1044 -14.0951 -14.0071 -13.9583 -13.9333 -13.8414 -13.8163 -13.8107
   -13.7048 -13.6989  -1.2087   2.0019   4.9439   6.4755   8.8712   9.4140
     9.4152  11.1120

     occupation numbers 
     1.0000   1.0000   1.0000   1.0000   1.0000   1.0000   1.0000   1.0000
     1.0000   1.0000   1.0000   1.0000   1.0000   1.0000   0.0000   0.0000
     0.0000   0.0000

          k = 0.0000-0.2828 0.2828 (  8404 PWs)   bands (ev):

   -14.0925 -14.0908 -14.0250 -13.9717 -13.9478 -13.8296 -13.8060 -13.7865
   -13.7138 -13.7094  -1.6718   2.8469   5.3431   6.8432   8.8433   9.4140
     9.4152  10.7672

     occupation numbers 
     1.0000   1.0000   1.0000   1.0000   1.0000   1.0000   1.0000   1.0000
     1.0000   1.0000   1.0000   1.0000   1.0000   1.0000   0.0000   0.0000
     0.0000   0.0000

          k = 0.4243 0.0000 0.0000 (  8388 PWs)   bands (ev):

   -14.0869 -14.0869 -14.0509 -13.9560 -13.9096 -13.8890 -13.8083 -13.7477
   -13.7182 -13.7182  -1.5204   2.6785   5.8264   5.8264   8.4163   9.3716
     9.4144   9.4236

     occupation numbers 
     1.0000   1.0000   1.0000   1.0000   1.0000   1.0000   1.0000   1.0000
     1.0000   1.0000   1.0000   1.0000   1.0000   1.0000   0.0000   0.0000
     0.0000   0.0000

          k = 0.4950 0.0707-0.0707 (  8406 PWs)   bands (ev):

   -14.0979 -14.0925 -14.0321 -13.9390 -13.9096 -13.8898 -13.8255 -13.7689
   -13.7099 -13.7040  -1.1071   1.9640   5.3957   5.6525   8.5755   9.3535
     9.4144   9.4199

     occupation numbers 
     1.0000   1.0000   1.0000   1.0000   1.0000   1.0000   1.0000   1.0000
     1.0000   1.0000   1.0000   1.0000   1.0000   1.0000   0.0000   0.0000
     0.0000   0.0000

          k =-0.1414-0.5657 0.5657 (  8414 PWs)   bands (ev):

   -14.1104 -14.0968 -14.0063 -13.9220 -13.9148 -13.8831 -13.8441 -13.7965
   -13.7036 -13.6898  -0.6263   1.2849   4.8541   5.6441   8.6893   9.4138
     9.4145  10.1723

     occupation numbers 
     1.0000   1.0000   1.0000   1.0000   1.0000   1.0000   1.0000   1.0000
     1.0000   1.0000   1.0000   1.0000   1.0000   1.0000   0.0000   0.0000
     0.0000   0.0000

          k =-0.0707-0.4950 0.4950 (  8425 PWs)   bands (ev):

   -14.1172 -14.0991 -13.9909 -13.9092 -13.9043 -13.8911 -13.8594 -13.8125
   -13.7003 -13.6828  -0.3996   1.0094   4.5029   5.8017   8.7690   9.4140
     9.4147  11.4081

     occupation numbers 
     1.0000   1.0000   1.0000   1.0000   1.0000   1.0000   1.0000   1.0000
     1.0000   1.0000   1.0000   1.0000   1.0000   1.0000   0.0000   0.0000
     0.0000   0.0000

          k =-0.0000-0.4243 0.4243 (  8428 PWs)   bands (ev):

   -14.1151 -14.0987 -13.9916 -13.9329 -13.9136 -13.8582 -13.8570 -13.8144
   -13.7007 -13.6858  -0.7399   1.4213   4.4960   6.1008   8.9045   9.4140
     9.4149  12.0180

     occupation numbers 
     1.0000   1.0000   1.0000   1.0000   1.0000   1.0000   1.0000   1.0000
     1.0000   1.0000   1.0000   1.0000   1.0000   1.0000   0.0000   0.0000
     0.0000   0.0000

          k = 0.5657 0.0000 0.0000 (  8404 PWs)   bands (ev):

   -14.0966 -14.0966 -14.0254 -13.9406 -13.9206 -13.8611 -13.8429 -13.7755
   -13.7041 -13.7041  -0.7235   1.4106   5.4442   5.4442   8.2827   8.8444
     9.4144   9.4147

     occupation numbers 
     1.0000   1.0000   1.0000   1.0000   1.0000   1.0000   1.0000   1.0000
     1.0000   1.0000   1.0000   1.0000   1.0000   1.0000   0.0000   0.0000
     0.0000   0.0000

          k =-0.0707-0.6364 0.6364 (  8402 PWs)   bands (ev):

   -14.1045 -14.0993 -14.0015 -13.9574 -13.9017 -13.8623 -13.8442 -13.8004
   -13.7001 -13.6949  -0.2333   0.8123   5.0965   5.3997   8.4758   8.9935
     9.4144   9.4148

     occupation numbers 
     1.0000   1.0000   1.0000   1.0000   1.0000   1.0000   1.0000   1.0000
     1.0000   1.0000   1.0000   1.0000   1.0000   1.0000   0.0000   0.0000
     0.0000   0.0000

          k = 0.0000-0.5657 0.5657 (  8430 PWs)   bands (ev):

   -14.1143 -14.1002 -13.9869 -13.9406 -13.8900 -13.8758 -13.8592 -13.8153
   -13.6988 -13.6850   0.0231   0.5540   4.6446   5.5252   8.5879   9.4138
     9.4145  10.0893

     occupation numbers 
     1.0000   1.0000   1.0000   1.0000   1.0000   1.0000   1.0000   1.0000
     1.0000   1.0000   1.0000   1.0000   1.0000   1.0000   0.0000   0.0000
     0.0000   0.0000

          k =-0.7071 0.0000 0.0000 (  8416 PWs)   bands (ev):

   -14.1001 -14.1001 -13.9876 -13.9876 -13.8816 -13.8816 -13.8148 -13.8148
   -13.6989 -13.6989   0.2640   0.2640   5.3141   5.3141   8.4311   8.4311
     9.4144   9.4144

     occupation numbers 
     1.0000   1.0000   1.0000   1.0000   1.0000   1.0000   1.0000   1.0000
     1.0000   1.0000   1.0000   1.0000   1.0000   1.0000   0.0000   0.0000
     0.0000   0.0000

          k = 0.2828 0.1414 0.0000 (  8399 PWs)   bands (ev):

   -14.0832 -14.0797 -14.0470 -13.9802 -13.9564 -13.8321 -13.7890 -13.7600
   -13.7297 -13.7185  -1.9944   3.6332   6.0059   6.7231   9.1193   9.4119
     9.4164   9.4746

     occupation numbers 
     1.0000   1.0000   1.0000   1.0000   1.0000   1.0000   1.0000   1.0000
     1.0000   1.0000   1.0000   1.0000   1.0000   1.0000   0.0000   0.0000
     0.0000   0.0000

          k = 0.3536 0.2121-0.0707 (  8410 PWs)   bands (ev):

   -14.0942 -14.0889 -14.0296 -13.9668 -13.9405 -13.8461 -13.8025 -13.7803
   -13.7156 -13.7081  -1.5888   2.6701   5.4858   6.4497   9.0622   9.4140
     9.4158  10.0461

     occupation numbers 
     1.0000   1.0000   1.0000   1.0000   1.0000   1.0000   1.0000   1.0000
     1.0000   1.0000   1.0000   1.0000   1.0000   1.0000   0.0000   0.0000
     0.0000   0.0000

          k =-0.2828-0.4243 0.5657 (  8426 PWs)   bands (ev):

   -14.1034 -14.0933 -14.0134 -13.9538 -13.9342 -13.8486 -13.8165 -13.7997
   -13.7084 -13.6986  -1.1196   1.7979   5.2136   6.2061   8.9305   9.4140
     9.4153  10.4256

     occupation numbers 
     1.0000   1.0000   1.0000   1.0000   1.0000   1.0000   1.0000   1.0000
     1.0000   1.0000   1.0000   1.0000   1.0000   1.0000   0.0000   0.0000
     0.0000   0.0000

          k =-0.2121-0.3536 0.4950 (  8418 PWs)   bands (ev):

   -14.1067 -14.0946 -14.0068 -13.9452 -13.9365 -13.8429 -13.8287 -13.8061
   -13.7064 -13.6948  -0.8614   1.3954   5.1305   6.1136   8.8787   9.4140
     9.4153  10.4784

     occupation numbers 
     1.0000   1.0000   1.0000   1.0000   1.0000   1.0000   1.0000   1.0000
     1.0000   1.0000   1.0000   1.0000   1.0000   1.0000   0.0000   0.0000
     0.0000   0.0000

          k = 0.4243 0.1414-0.0000 (  8407 PWs)   bands (ev):

   -14.0929 -14.0929 -14.0347 -13.9553 -13.9154 -13.8802 -13.8105 -13.7686
   -13.7116 -13.7092  -1.4263   2.4753   5.4491   5.9365   9.0690   9.4113
     9.4148   9.5783

     occupation numbers 
     1.0000   1.0000   1.0000   1.0000   1.0000   1.0000   1.0000   1.0000
     1.0000   1.0000   1.0000   1.0000   1.0000   1.0000   0.0000   0.0000
     0.0000   0.0000

          k =-0.2121-0.4950 0.6364 (  8417 PWs)   bands (ev):

   -14.1062 -14.0976 -14.0103 -13.9396 -13.9046 -13.8892 -13.8280 -13.7945
   -13.7037 -13.6950  -0.9572   1.7169   4.9909   5.7231   9.2467   9.4138
     9.4161  10.1781

     occupation numbers 
     1.0000   1.0000   1.0000   1.0000   1.0000   1.0000   1.0000   1.0000
     1.0000   1.0000   1.0000   1.0000   1.0000   1.0000   0.0000   0.0000
     0.0000   0.0000

          k =-0.1414-0.4243 0.5657 (  8431 PWs)   bands (ev):

   -14.1140 -14.1002 -13.9920 -13.9269 -13.9077 -13.8825 -13.8452 -13.8127
   -13.6999 -13.6863  -0.5710   1.1885   4.6925   5.6846   9.2661   9.4140
     9.4167  10.8340

     occupation numbers 
     1.0000   1.0000   1.0000   1.0000   1.0000   1.0000   1.0000   1.0000
     1.0000   1.0000   1.0000   1.0000   1.0000   1.0000   0.0000   0.0000
     0.0000   0.0000

          k =-0.0707-0.3536 0.4950 (  8428 PWs)   bands (ev):

   -14.1136 -14.1005 -13.9904 -13.9342 -13.9111 -13.8722 -13.8434 -13.8158
   -13.6994 -13.6872  -0.6950   1.3503   4.6224   5.8478   9.3493   9.4140
     9.4211  10.8498

     occupation numbers 
     1.0000   1.0000   1.0000   1.0000   1.0000   1.0000   1.0000   1.0000
     1.0000   1.0000   1.0000   1.0000   1.0000   1.0000   0.0000   0.0000
     0.0000   0.0000

          k = 0.0000-0.2828 0.4243 (  8406 PWs)   bands (ev):

   -14.1052 -14.0976 -14.0061 -13.9531 -13.9212 -13.8632 -13.8170 -13.8062
   -13.7025 -13.6976  -1.1550   1.9926   4.8639   6.1524   9.3889   9.4140
     9.4352  10.4720

     occupation numbers 
     1.0000   1.0000   1.0000   1.0000   1.0000   1.0000   1.0000   1.0000
     1.0000   1.0000   1.0000   1.0000   1.0000   1.0000   0.0000   0.0000
     0.0000   0.0000

          k =-0.1414-0.5657 0.7071 (  8402 PWs)   bands (ev):

   -14.1023 -14.1015 -14.0102 -13.9292 -13.9211 -13.8705 -13.8439 -13.7916
   -13.6987 -13.6982  -0.6579   1.3409   5.1392   5.3795   8.8932   9.2826
     9.4146   9.4166

     occupation numbers 
     1.0000   1.0000   1.0000   1.0000   1.0000   1.0000   1.0000   1.0000
     1.0000   1.0000   1.0000   1.0000   1.0000   1.0000   0.0000   0.0000
     0.0000   0.0000

          k =-0.0707-0.4950 0.6364 (  8415 PWs)   bands (ev):

   -14.1129 -14.1039 -13.9835 -13.9322 -13.9040 -13.8667 -13.8629 -13.8182
   -13.6955 -13.6866  -0.1893   0.7968   4.7291   5.3166   9.1129   9.4138
     9.4151  10.1494

     occupation numbers 
     1.0000   1.0000   1.0000   1.0000   1.0000   1.0000   1.0000   1.0000
     1.0000   1.0000   1.0000   1.0000   1.0000   1.0000   0.0000   0.0000
     0.0000   0.0000

          k =-0.0000-0.4243 0.5657 (  8427 PWs)   bands (ev):

   -14.1177 -14.1037 -13.9785 -13.9054 -13.9053 -13.8866 -13.8690 -13.8228
   -13.6956 -13.6820  -0.2348   0.8543   4.4770   5.5064   9.2544   9.4140
     9.4163  11.4275

     occupation numbers 
     1.0000   1.0000   1.0000   1.0000   1.0000   1.0000   1.0000   1.0000
     1.0000   1.0000   1.0000   1.0000   1.0000   1.0000   0.0000   0.0000
     0.0000   0.0000

          k =-0.7071 0.1414 0.0000 (  8414 PWs)   bands (ev):

   -14.1053 -14.1053 -13.9740 -13.9740 -13.8824 -13.8824 -13.8274 -13.8274
   -13.6938 -13.6938   0.2793   0.2793   5.1111   5.1111   8.9747   8.9747
     9.4147   9.4147

     occupation numbers 
     1.0000   1.0000   1.0000   1.0000   1.0000   1.0000   1.0000   1.0000
     1.0000   1.0000   1.0000   1.0000   1.0000   1.0000   0.0000   0.0000
     0.0000   0.0000

          k =-0.1414-0.4243 0.7071 (  8408 PWs)   bands (ev):

   -14.1125 -14.1060 -13.9824 -13.9222 -13.9066 -13.8855 -13.8500 -13.8203
   -13.6937 -13.6876  -0.4791   1.1402   4.6807   5.3632   9.4135   9.4139
    10.1154  10.2636

     occupation numbers 
     1.0000   1.0000   1.0000   1.0000   1.0000   1.0000   1.0000   1.0000
     1.0000   1.0000   1.0000   1.0000   1.0000   1.0000   0.0000   0.0000
     0.0000   0.0000

          k =-0.0707-0.3536 0.6364 (  8430 PWs)   bands (ev):

   -14.1161 -14.1081 -13.9677 -13.9159 -13.9050 -13.8813 -13.8653 -13.8322
   -13.6913 -13.6835  -0.1602   0.7848   4.5908   5.1995   9.4136   9.4140
    10.1573  10.7879

     occupation numbers 
     1.0000   1.0000   1.0000   1.0000   1.0000   1.0000   1.0000   1.0000
     1.0000   1.0000   1.0000   1.0000   1.0000   1.0000   0.0000   0.0000
     0.0000   0.0000

          k =-0.7071 0.2828 0.0000 (  8434 PWs)   bands (ev):

   -14.1124 -14.1124 -13.9483 -13.9483 -13.8863 -13.8863 -13.8492 -13.8492
   -13.6868 -13.6868   0.3046   0.3046   4.8438   4.8438   9.4138   9.4138
    10.2308  10.2308

     occupation numbers 
     1.0000   1.0000   1.0000   1.0000   1.0000   1.0000   1.0000   1.0000
     1.0000   1.0000   1.0000   1.0000   1.0000   1.0000   0.0000   0.0000
     0.0000   0.0000

     the Fermi energy is     7.4895 ev

!    total energy              =    -256.22165043 Ry
     Harris-Foulkes estimate   =    -256.22165007 Ry
     estimated scf accuracy    <       0.00000086 Ry

     The total energy is the sum of the following terms:

     one-electron contribution =    -136.18293117 Ry
     hartree contribution      =      79.21684004 Ry
     xc contribution           =     -31.47400562 Ry
     ewald contribution        =    -167.78134157 Ry
     smearing contrib. (-TS)   =      -0.00021210 Ry

     convergence has been achieved in   4 iterations

     Writing output data file Sn.save
 
     init_run     :      0.74s CPU      0.97s WALL (       1 calls)
     electrons    :     10.14s CPU     11.05s WALL (       1 calls)

     Called by init_run:
     wfcinit      :      0.46s CPU      0.55s WALL (       1 calls)
     potinit      :      0.04s CPU      0.04s WALL (       1 calls)

     Called by electrons:
     c_bands      :      9.08s CPU      9.89s WALL (       5 calls)
     sum_band     :      1.00s CPU      1.08s WALL (       5 calls)
     v_of_rho     :      0.05s CPU      0.05s WALL (       5 calls)
     v_h          :      0.00s CPU      0.00s WALL (       5 calls)
     v_xc         :      0.04s CPU      0.04s WALL (       5 calls)
     mix_rho      :      0.01s CPU      0.01s WALL (       5 calls)

     Called by c_bands:
     init_us_2    :      0.07s CPU      0.09s WALL (     517 calls)
     cegterg      :      8.66s CPU      9.42s WALL (     235 calls)

     Called by sum_band:

     Called by *egterg:
     h_psi        :      7.36s CPU      8.10s WALL (    1265 calls)
     g_psi        :      0.04s CPU      0.04s WALL (     983 calls)
     cdiaghg      :      0.84s CPU      0.88s WALL (    1171 calls)
     cegterg:over :      0.31s CPU      0.32s WALL (     983 calls)
     cegterg:upda :      0.14s CPU      0.14s WALL (     983 calls)
     cegterg:last :      0.07s CPU      0.07s WALL (     329 calls)

     Called by h_psi:
     h_psi:vloc   :      7.02s CPU      7.73s WALL (    1265 calls)
     h_psi:vnl    :      0.31s CPU      0.34s WALL (    1265 calls)
     add_vuspsi   :      0.11s CPU      0.12s WALL (    1265 calls)

     General routines
     calbec       :      0.20s CPU      0.22s WALL (    1265 calls)
     fft          :      0.08s CPU      0.11s WALL (      56 calls)
     fftw         :      7.28s CPU      7.99s WALL (   35676 calls)
     davcio       :      0.00s CPU      0.06s WALL (      47 calls)
 
     Parallel routines
     fft_scatter  :      3.32s CPU      3.63s WALL (   35732 calls)
 
     PWSCF        :    10.99s CPU        12.38s WALL

 
   This run was terminated on:   0:53: 1  21Feb2020            

=------------------------------------------------------------------------------=
   JOB DONE.
=------------------------------------------------------------------------------=
