
     Program PWSCF v.5.4.0 starts on 27Feb2020 at 21:23:36 

     This program is part of the open-source Quantum ESPRESSO suite
     for quantum simulation of materials; please cite
         "P. Giannozzi et al., J. Phys.:Condens. Matter 21 395502 (2009);
          URL http://www.quantum-espresso.org", 
     in publications or presentations arising from this work. More details at
     http://www.quantum-espresso.org/quote

     Parallel version (MPI & OpenMP), running on      16 processor cores
     Number of MPI processes:                16
     Threads/MPI process:                     1
     R & G space division:  proc/nbgrp/npool/nimage =      16
     Waiting for input...
     Reading input from standard input
Warning: card &IONS ignored
Warning: card / ignored
Warning: card &CELL ignored
Warning: card / ignored

     Current dimensions of program PWSCF are:
     Max number of different atomic species (ntypx) = 10
     Max number of k-points (npk) =  40000
     Max angular momentum in pseudopotentials (lmaxx) =  3

     Subspace diagonalization in iterative solution of the eigenvalue problem:
     a serial algorithm will be used

 
     Parallelization info
     --------------------
     sticks:   dense  smooth     PW     G-vecs:    dense   smooth      PW
     Min         272     272     74                11887    11887    1706
     Max         273     273     75                11890    11890    1709
     Sum        4357    4357   1189               190217   190217   27317
 

     Title: 
     Sn                                                                         


     bravais-lattice index     =            0
     lattice parameter (alat)  =       8.8993  a.u.
     unit-cell volume          =     498.3785 (a.u.)^3
     number of atoms/cell      =            2
     number of atomic types    =            1
     number of electrons       =        28.00
     number of Kohn-Sham states=           18
     kinetic-energy cutoff     =     200.0000  Ry
     charge density cutoff     =     800.0000  Ry
     convergence threshold     =      1.0E-06
     mixing beta               =       0.7000
     number of iterations used =            8  plain     mixing
     Exchange-correlation      = PBE ( 1  4  3  4 0 0)

     celldm(1)=   8.899346  celldm(2)=   0.000000  celldm(3)=   0.000000
     celldm(4)=   0.000000  celldm(5)=   0.000000  celldm(6)=   0.000000

     crystal axes: (cart. coord. in units of alat)
               a(1) = (   0.000000   0.707107   0.707107 )  
               a(2) = (   0.707107   0.000000   0.707107 )  
               a(3) = (   0.707107   0.707107   0.000000 )  

     reciprocal axes: (cart. coord. in units 2 pi/alat)
               b(1) = ( -0.707107  0.707107  0.707107 )  
               b(2) = (  0.707107 -0.707107  0.707107 )  
               b(3) = (  0.707107  0.707107 -0.707107 )  


     PseudoPot. # 1 for Sn read from file:
     ../PseudopotentialDatabase/Sn_ONCV_PBE_FR-1.1.upf
     MD5 check sum: 6dd2180f739ea5ae1610ead5e1628a0e
     Pseudo is Norm-conserving, Zval = 14.0
     Generated using ONCVPSP code by D. R. Hamann
     Using radial grid of  602 points,  6 beta functions with: 
                l(1) =   0
                l(2) =   0
                l(3) =   1
                l(4) =   1
                l(5) =   2
                l(6) =   2

     atomic species   valence    mass     pseudopotential
        Sn            14.00   118.71000     Sn( 1.00)

     24 Sym. Ops. (no inversion) found
          (note: 24 additional sym.ops. were found but ignored
           their fractional translations are incommensurate with FFT grid)

                                    s                        frac. trans.

      isym =  1     identity                                     

 cryst.   s( 1) = (     1          0          0      )
                  (     0          1          0      )
                  (     0          0          1      )

 cart.    s( 1) = (  1.0000000  0.0000000  0.0000000 )
                  (  0.0000000  1.0000000  0.0000000 )
                  (  0.0000000  0.0000000  1.0000000 )


      isym =  2     180 deg rotation - cart. axis [0,0,1]        

 cryst.   s( 2) = (     0          1         -1      )
                  (     1          0         -1      )
                  (     0          0         -1      )

 cart.    s( 2) = ( -1.0000000  0.0000000  0.0000000 )
                  (  0.0000000 -1.0000000  0.0000000 )
                  (  0.0000000  0.0000000  1.0000000 )


      isym =  3     180 deg rotation - cart. axis [0,1,0]        

 cryst.   s( 3) = (     0         -1          1      )
                  (     0         -1          0      )
                  (     1         -1          0      )

 cart.    s( 3) = ( -1.0000000  0.0000000  0.0000000 )
                  (  0.0000000  1.0000000  0.0000000 )
                  (  0.0000000  0.0000000 -1.0000000 )


      isym =  4     180 deg rotation - cart. axis [1,0,0]        

 cryst.   s( 4) = (    -1          0          0      )
                  (    -1          0          1      )
                  (    -1          1          0      )

 cart.    s( 4) = (  1.0000000  0.0000000  0.0000000 )
                  (  0.0000000 -1.0000000  0.0000000 )
                  (  0.0000000  0.0000000 -1.0000000 )


      isym =  5     120 deg rotation - cart. axis [-1,-1,-1]     

 cryst.   s( 5) = (     0          0          1      )
                  (     1          0          0      )
                  (     0          1          0      )

 cart.    s( 5) = (  0.0000000  1.0000000  0.0000000 )
                  (  0.0000000  0.0000000  1.0000000 )
                  (  1.0000000  0.0000000  0.0000000 )


      isym =  6     120 deg rotation - cart. axis [-1,1,1]       

 cryst.   s( 6) = (     1         -1          0      )
                  (     0         -1          1      )
                  (     0         -1          0      )

 cart.    s( 6) = (  0.0000000 -1.0000000  0.0000000 )
                  (  0.0000000  0.0000000  1.0000000 )
                  ( -1.0000000  0.0000000  0.0000000 )


      isym =  7     120 deg rotation - cart. axis [1,1,-1]       

 cryst.   s( 7) = (    -1          1          0      )
                  (    -1          0          0      )
                  (    -1          0          1      )

 cart.    s( 7) = (  0.0000000  1.0000000  0.0000000 )
                  (  0.0000000  0.0000000 -1.0000000 )
                  ( -1.0000000  0.0000000  0.0000000 )


      isym =  8     120 deg rotation - cart. axis [1,-1,1]       

 cryst.   s( 8) = (     0          0         -1      )
                  (     0          1         -1      )
                  (     1          0         -1      )

 cart.    s( 8) = (  0.0000000 -1.0000000  0.0000000 )
                  (  0.0000000  0.0000000 -1.0000000 )
                  (  1.0000000  0.0000000  0.0000000 )


      isym =  9     120 deg rotation - cart. axis [1,1,1]        

 cryst.   s( 9) = (     0          1          0      )
                  (     0          0          1      )
                  (     1          0          0      )

 cart.    s( 9) = (  0.0000000  0.0000000  1.0000000 )
                  (  1.0000000  0.0000000  0.0000000 )
                  (  0.0000000  1.0000000  0.0000000 )


      isym = 10     120 deg rotation - cart. axis [-1,1,-1]      

 cryst.   s(10) = (    -1          0          1      )
                  (    -1          1          0      )
                  (    -1          0          0      )

 cart.    s(10) = (  0.0000000  0.0000000  1.0000000 )
                  ( -1.0000000  0.0000000  0.0000000 )
                  (  0.0000000 -1.0000000  0.0000000 )


      isym = 11     120 deg rotation - cart. axis [1,-1,-1]      

 cryst.   s(11) = (     1          0         -1      )
                  (     0          0         -1      )
                  (     0          1         -1      )

 cart.    s(11) = (  0.0000000  0.0000000 -1.0000000 )
                  ( -1.0000000  0.0000000  0.0000000 )
                  (  0.0000000  1.0000000  0.0000000 )


      isym = 12     120 deg rotation - cart. axis [-1,-1,1]      

 cryst.   s(12) = (     0         -1          0      )
                  (     1         -1          0      )
                  (     0         -1          1      )

 cart.    s(12) = (  0.0000000  0.0000000 -1.0000000 )
                  (  1.0000000  0.0000000  0.0000000 )
                  (  0.0000000 -1.0000000  0.0000000 )


      isym = 13     inv. 180 deg rotation - cart. axis [1,1,0]   

 cryst.   s(13) = (     1          0         -1      )
                  (     0          1         -1      )
                  (     0          0         -1      )

 cart.    s(13) = (  0.0000000 -1.0000000  0.0000000 )
                  ( -1.0000000  0.0000000  0.0000000 )
                  (  0.0000000  0.0000000  1.0000000 )


      isym = 14     inv. 180 deg rotation - cart. axis [1,-1,0]  

 cryst.   s(14) = (     0          1          0      )
                  (     1          0          0      )
                  (     0          0          1      )

 cart.    s(14) = (  0.0000000  1.0000000  0.0000000 )
                  (  1.0000000  0.0000000  0.0000000 )
                  (  0.0000000  0.0000000  1.0000000 )


      isym = 15     inv.  90 deg rotation - cart. axis [0,0,-1]  

 cryst.   s(15) = (     0         -1          0      )
                  (     0         -1          1      )
                  (     1         -1          0      )

 cart.    s(15) = (  0.0000000 -1.0000000  0.0000000 )
                  (  1.0000000  0.0000000  0.0000000 )
                  (  0.0000000  0.0000000 -1.0000000 )


      isym = 16     inv.  90 deg rotation - cart. axis [0,0,1]   

 cryst.   s(16) = (    -1          0          1      )
                  (    -1          0          0      )
                  (    -1          1          0      )

 cart.    s(16) = (  0.0000000  1.0000000  0.0000000 )
                  ( -1.0000000  0.0000000  0.0000000 )
                  (  0.0000000  0.0000000 -1.0000000 )


      isym = 17     inv. 180 deg rotation - cart. axis [1,0,1]   

 cryst.   s(17) = (     1         -1          0      )
                  (     0         -1          0      )
                  (     0         -1          1      )

 cart.    s(17) = (  0.0000000  0.0000000 -1.0000000 )
                  (  0.0000000  1.0000000  0.0000000 )
                  ( -1.0000000  0.0000000  0.0000000 )


      isym = 18     inv. 180 deg rotation - cart. axis [-1,0,1]  

 cryst.   s(18) = (     0          0          1      )
                  (     0          1          0      )
                  (     1          0          0      )

 cart.    s(18) = (  0.0000000  0.0000000  1.0000000 )
                  (  0.0000000  1.0000000  0.0000000 )
                  (  1.0000000  0.0000000  0.0000000 )


      isym = 19     inv.  90 deg rotation - cart. axis [0,1,0]   

 cryst.   s(19) = (     0          0         -1      )
                  (     1          0         -1      )
                  (     0          1         -1      )

 cart.    s(19) = (  0.0000000  0.0000000 -1.0000000 )
                  (  0.0000000 -1.0000000  0.0000000 )
                  (  1.0000000  0.0000000  0.0000000 )


      isym = 20     inv.  90 deg rotation - cart. axis [0,-1,0]  

 cryst.   s(20) = (    -1          1          0      )
                  (    -1          0          1      )
                  (    -1          0          0      )

 cart.    s(20) = (  0.0000000  0.0000000  1.0000000 )
                  (  0.0000000 -1.0000000  0.0000000 )
                  ( -1.0000000  0.0000000  0.0000000 )


      isym = 21     inv. 180 deg rotation - cart. axis [0,1,1]   

 cryst.   s(21) = (    -1          0          0      )
                  (    -1          1          0      )
                  (    -1          0          1      )

 cart.    s(21) = (  1.0000000  0.0000000  0.0000000 )
                  (  0.0000000  0.0000000 -1.0000000 )
                  (  0.0000000 -1.0000000  0.0000000 )


      isym = 22     inv. 180 deg rotation - cart. axis [0,1,-1]  

 cryst.   s(22) = (     1          0          0      )
                  (     0          0          1      )
                  (     0          1          0      )

 cart.    s(22) = (  1.0000000  0.0000000  0.0000000 )
                  (  0.0000000  0.0000000  1.0000000 )
                  (  0.0000000  1.0000000  0.0000000 )


      isym = 23     inv.  90 deg rotation - cart. axis [-1,0,0]  

 cryst.   s(23) = (     0          1         -1      )
                  (     0          0         -1      )
                  (     1          0         -1      )

 cart.    s(23) = ( -1.0000000  0.0000000  0.0000000 )
                  (  0.0000000  0.0000000 -1.0000000 )
                  (  0.0000000  1.0000000  0.0000000 )


      isym = 24     inv.  90 deg rotation - cart. axis [1,0,0]   

 cryst.   s(24) = (     0         -1          1      )
                  (     1         -1          0      )
                  (     0         -1          0      )

 cart.    s(24) = ( -1.0000000  0.0000000  0.0000000 )
                  (  0.0000000  0.0000000  1.0000000 )
                  (  0.0000000 -1.0000000  0.0000000 )


   Cartesian axes

     site n.     atom                  positions (alat units)
         1           Sn  tau(   1) = (   0.0000000   0.0000000   0.0000000  )
         2           Sn  tau(   2) = (   0.3535534   0.3535534   0.3535534  )

   Crystallographic axes

     site n.     atom                  positions (cryst. coord.)
         1           Sn  tau(   1) = (  0.0000000  0.0000000  0.0000000  )
         2           Sn  tau(   2) = (  0.2500000  0.2500000  0.2500000  )

     number of k points=  1140  gaussian smearing, width (Ry)=  0.0001
                       cart. coord. in units 2pi/alat
        k(    1) = (   0.0000000   0.0000000   0.0000000), wk =   0.0000466
        k(    2) = (   0.0202031   0.0202031  -0.0202031), wk =   0.0003732
        k(    3) = (   0.0404061   0.0404061  -0.0404061), wk =   0.0003732
        k(    4) = (   0.0606092   0.0606092  -0.0606092), wk =   0.0003732
        k(    5) = (   0.0808122   0.0808122  -0.0808122), wk =   0.0003732
        k(    6) = (   0.1010153   0.1010153  -0.1010153), wk =   0.0003732
        k(    7) = (   0.1212183   0.1212183  -0.1212183), wk =   0.0003732
        k(    8) = (   0.1414214   0.1414214  -0.1414214), wk =   0.0003732
        k(    9) = (   0.1616244   0.1616244  -0.1616244), wk =   0.0003732
        k(   10) = (   0.1818275   0.1818275  -0.1818275), wk =   0.0003732
        k(   11) = (   0.2020305   0.2020305  -0.2020305), wk =   0.0003732
        k(   12) = (   0.2222336   0.2222336  -0.2222336), wk =   0.0003732
        k(   13) = (   0.2424366   0.2424366  -0.2424366), wk =   0.0003732
        k(   14) = (   0.2626397   0.2626397  -0.2626397), wk =   0.0003732
        k(   15) = (   0.2828427   0.2828427  -0.2828427), wk =   0.0003732
        k(   16) = (   0.3030458   0.3030458  -0.3030458), wk =   0.0003732
        k(   17) = (   0.3232488   0.3232488  -0.3232488), wk =   0.0003732
        k(   18) = (   0.3434519   0.3434519  -0.3434519), wk =   0.0003732
        k(   19) = (   0.0404061   0.0000000   0.0000000), wk =   0.0002799
        k(   20) = (   0.0606092   0.0202031  -0.0202031), wk =   0.0011195
        k(   21) = (   0.0808122   0.0404061  -0.0404061), wk =   0.0011195
        k(   22) = (   0.1010153   0.0606092  -0.0606092), wk =   0.0011195
        k(   23) = (   0.1212183   0.0808122  -0.0808122), wk =   0.0011195
        k(   24) = (   0.1414214   0.1010153  -0.1010153), wk =   0.0011195
        k(   25) = (   0.1616244   0.1212183  -0.1212183), wk =   0.0011195
        k(   26) = (   0.1818275   0.1414214  -0.1414214), wk =   0.0011195
        k(   27) = (   0.2020305   0.1616244  -0.1616244), wk =   0.0011195
        k(   28) = (   0.2222336   0.1818275  -0.1818275), wk =   0.0011195
        k(   29) = (   0.2424366   0.2020305  -0.2020305), wk =   0.0011195
        k(   30) = (   0.2626397   0.2222336  -0.2222336), wk =   0.0011195
        k(   31) = (   0.2828427   0.2424366  -0.2424366), wk =   0.0011195
        k(   32) = (   0.3030458   0.2626397  -0.2626397), wk =   0.0011195
        k(   33) = (   0.3232488   0.2828427  -0.2828427), wk =   0.0011195
        k(   34) = (   0.3434519   0.3030458  -0.3030458), wk =   0.0011195
        k(   35) = (   0.3636549   0.3232488  -0.3232488), wk =   0.0011195
        k(   36) = (  -0.3232488  -0.3636549   0.3636549), wk =   0.0011195
        k(   37) = (  -0.3030458  -0.3434519   0.3434519), wk =   0.0011195
        k(   38) = (  -0.2828427  -0.3232488   0.3232488), wk =   0.0011195
        k(   39) = (  -0.2626397  -0.3030458   0.3030458), wk =   0.0011195
        k(   40) = (  -0.2424366  -0.2828427   0.2828427), wk =   0.0011195
        k(   41) = (  -0.2222336  -0.2626397   0.2626397), wk =   0.0011195
        k(   42) = (  -0.2020305  -0.2424366   0.2424366), wk =   0.0011195
        k(   43) = (  -0.1818275  -0.2222336   0.2222336), wk =   0.0011195
        k(   44) = (  -0.1616244  -0.2020305   0.2020305), wk =   0.0011195
        k(   45) = (  -0.1414214  -0.1818275   0.1818275), wk =   0.0011195
        k(   46) = (  -0.1212183  -0.1616244   0.1616244), wk =   0.0011195
        k(   47) = (  -0.1010153  -0.1414214   0.1414214), wk =   0.0011195
        k(   48) = (  -0.0808122  -0.1212183   0.1212183), wk =   0.0011195
        k(   49) = (  -0.0606092  -0.1010153   0.1010153), wk =   0.0011195
        k(   50) = (  -0.0404061  -0.0808122   0.0808122), wk =   0.0011195
        k(   51) = (  -0.0202031  -0.0606092   0.0606092), wk =   0.0011195
        k(   52) = (  -0.0000000  -0.0404061   0.0404061), wk =   0.0005598
        k(   53) = (   0.0808122   0.0000000   0.0000000), wk =   0.0002799
        k(   54) = (   0.1010153   0.0202031  -0.0202031), wk =   0.0011195
        k(   55) = (   0.1212183   0.0404061  -0.0404061), wk =   0.0011195
        k(   56) = (   0.1414214   0.0606092  -0.0606092), wk =   0.0011195
        k(   57) = (   0.1616244   0.0808122  -0.0808122), wk =   0.0011195
        k(   58) = (   0.1818275   0.1010153  -0.1010153), wk =   0.0011195
        k(   59) = (   0.2020305   0.1212183  -0.1212183), wk =   0.0011195
        k(   60) = (   0.2222336   0.1414214  -0.1414214), wk =   0.0011195
        k(   61) = (   0.2424366   0.1616244  -0.1616244), wk =   0.0011195
        k(   62) = (   0.2626397   0.1818275  -0.1818275), wk =   0.0011195
        k(   63) = (   0.2828427   0.2020305  -0.2020305), wk =   0.0011195
        k(   64) = (   0.3030458   0.2222336  -0.2222336), wk =   0.0011195
        k(   65) = (   0.3232488   0.2424366  -0.2424366), wk =   0.0011195
        k(   66) = (   0.3434519   0.2626397  -0.2626397), wk =   0.0011195
        k(   67) = (   0.3636549   0.2828427  -0.2828427), wk =   0.0011195
        k(   68) = (   0.3838580   0.3030458  -0.3030458), wk =   0.0011195
        k(   69) = (  -0.3030458  -0.3838580   0.3838580), wk =   0.0011195
        k(   70) = (  -0.2828427  -0.3636549   0.3636549), wk =   0.0011195
        k(   71) = (  -0.2626397  -0.3434519   0.3434519), wk =   0.0011195
        k(   72) = (  -0.2424366  -0.3232488   0.3232488), wk =   0.0011195
        k(   73) = (  -0.2222336  -0.3030458   0.3030458), wk =   0.0011195
        k(   74) = (  -0.2020305  -0.2828427   0.2828427), wk =   0.0011195
        k(   75) = (  -0.1818275  -0.2626397   0.2626397), wk =   0.0011195
        k(   76) = (  -0.1616244  -0.2424366   0.2424366), wk =   0.0011195
        k(   77) = (  -0.1414214  -0.2222336   0.2222336), wk =   0.0011195
        k(   78) = (  -0.1212183  -0.2020305   0.2020305), wk =   0.0011195
        k(   79) = (  -0.1010153  -0.1818275   0.1818275), wk =   0.0011195
        k(   80) = (  -0.0808122  -0.1616244   0.1616244), wk =   0.0011195
        k(   81) = (  -0.0606092  -0.1414214   0.1414214), wk =   0.0011195
        k(   82) = (  -0.0404061  -0.1212183   0.1212183), wk =   0.0011195
        k(   83) = (  -0.0202031  -0.1010153   0.1010153), wk =   0.0011195
        k(   84) = (  -0.0000000  -0.0808122   0.0808122), wk =   0.0005598
        k(   85) = (   0.1212183   0.0000000   0.0000000), wk =   0.0002799
        k(   86) = (   0.1414214   0.0202031  -0.0202031), wk =   0.0011195
        k(   87) = (   0.1616244   0.0404061  -0.0404061), wk =   0.0011195
        k(   88) = (   0.1818275   0.0606092  -0.0606092), wk =   0.0011195
        k(   89) = (   0.2020305   0.0808122  -0.0808122), wk =   0.0011195
        k(   90) = (   0.2222336   0.1010153  -0.1010153), wk =   0.0011195
        k(   91) = (   0.2424366   0.1212183  -0.1212183), wk =   0.0011195
        k(   92) = (   0.2626397   0.1414214  -0.1414214), wk =   0.0011195
        k(   93) = (   0.2828427   0.1616244  -0.1616244), wk =   0.0011195
        k(   94) = (   0.3030458   0.1818275  -0.1818275), wk =   0.0011195
        k(   95) = (   0.3232488   0.2020305  -0.2020305), wk =   0.0011195
        k(   96) = (   0.3434519   0.2222336  -0.2222336), wk =   0.0011195
        k(   97) = (   0.3636549   0.2424366  -0.2424366), wk =   0.0011195
        k(   98) = (   0.3838580   0.2626397  -0.2626397), wk =   0.0011195
        k(   99) = (   0.4040610   0.2828427  -0.2828427), wk =   0.0011195
        k(  100) = (  -0.2828427  -0.4040610   0.4040610), wk =   0.0011195
        k(  101) = (  -0.2626397  -0.3838580   0.3838580), wk =   0.0011195
        k(  102) = (  -0.2424366  -0.3636549   0.3636549), wk =   0.0011195
        k(  103) = (  -0.2222336  -0.3434519   0.3434519), wk =   0.0011195
        k(  104) = (  -0.2020305  -0.3232488   0.3232488), wk =   0.0011195
        k(  105) = (  -0.1818275  -0.3030458   0.3030458), wk =   0.0011195
        k(  106) = (  -0.1616244  -0.2828427   0.2828427), wk =   0.0011195
        k(  107) = (  -0.1414214  -0.2626397   0.2626397), wk =   0.0011195
        k(  108) = (  -0.1212183  -0.2424366   0.2424366), wk =   0.0011195
        k(  109) = (  -0.1010153  -0.2222336   0.2222336), wk =   0.0011195
        k(  110) = (  -0.0808122  -0.2020305   0.2020305), wk =   0.0011195
        k(  111) = (  -0.0606092  -0.1818275   0.1818275), wk =   0.0011195
        k(  112) = (  -0.0404061  -0.1616244   0.1616244), wk =   0.0011195
        k(  113) = (  -0.0202031  -0.1414214   0.1414214), wk =   0.0011195
        k(  114) = (  -0.0000000  -0.1212183   0.1212183), wk =   0.0005598
        k(  115) = (   0.1616244   0.0000000   0.0000000), wk =   0.0002799
        k(  116) = (   0.1818275   0.0202031  -0.0202031), wk =   0.0011195
        k(  117) = (   0.2020305   0.0404061  -0.0404061), wk =   0.0011195
        k(  118) = (   0.2222336   0.0606092  -0.0606092), wk =   0.0011195
        k(  119) = (   0.2424366   0.0808122  -0.0808122), wk =   0.0011195
        k(  120) = (   0.2626397   0.1010153  -0.1010153), wk =   0.0011195
        k(  121) = (   0.2828427   0.1212183  -0.1212183), wk =   0.0011195
        k(  122) = (   0.3030458   0.1414214  -0.1414214), wk =   0.0011195
        k(  123) = (   0.3232488   0.1616244  -0.1616244), wk =   0.0011195
        k(  124) = (   0.3434519   0.1818275  -0.1818275), wk =   0.0011195
        k(  125) = (   0.3636549   0.2020305  -0.2020305), wk =   0.0011195
        k(  126) = (   0.3838580   0.2222336  -0.2222336), wk =   0.0011195
        k(  127) = (   0.4040610   0.2424366  -0.2424366), wk =   0.0011195
        k(  128) = (   0.4242641   0.2626397  -0.2626397), wk =   0.0011195
        k(  129) = (  -0.2626397  -0.4242641   0.4242641), wk =   0.0011195
        k(  130) = (  -0.2424366  -0.4040610   0.4040610), wk =   0.0011195
        k(  131) = (  -0.2222336  -0.3838580   0.3838580), wk =   0.0011195
        k(  132) = (  -0.2020305  -0.3636549   0.3636549), wk =   0.0011195
        k(  133) = (  -0.1818275  -0.3434519   0.3434519), wk =   0.0011195
        k(  134) = (  -0.1616244  -0.3232488   0.3232488), wk =   0.0011195
        k(  135) = (  -0.1414214  -0.3030458   0.3030458), wk =   0.0011195
        k(  136) = (  -0.1212183  -0.2828427   0.2828427), wk =   0.0011195
        k(  137) = (  -0.1010153  -0.2626397   0.2626397), wk =   0.0011195
        k(  138) = (  -0.0808122  -0.2424366   0.2424366), wk =   0.0011195
        k(  139) = (  -0.0606092  -0.2222336   0.2222336), wk =   0.0011195
        k(  140) = (  -0.0404061  -0.2020305   0.2020305), wk =   0.0011195
        k(  141) = (  -0.0202031  -0.1818275   0.1818275), wk =   0.0011195
        k(  142) = (  -0.0000000  -0.1616244   0.1616244), wk =   0.0005598
        k(  143) = (   0.2020305   0.0000000   0.0000000), wk =   0.0002799
        k(  144) = (   0.2222336   0.0202031  -0.0202031), wk =   0.0011195
        k(  145) = (   0.2424366   0.0404061  -0.0404061), wk =   0.0011195
        k(  146) = (   0.2626397   0.0606092  -0.0606092), wk =   0.0011195
        k(  147) = (   0.2828427   0.0808122  -0.0808122), wk =   0.0011195
        k(  148) = (   0.3030458   0.1010153  -0.1010153), wk =   0.0011195
        k(  149) = (   0.3232488   0.1212183  -0.1212183), wk =   0.0011195
        k(  150) = (   0.3434519   0.1414214  -0.1414214), wk =   0.0011195
        k(  151) = (   0.3636549   0.1616244  -0.1616244), wk =   0.0011195
        k(  152) = (   0.3838580   0.1818275  -0.1818275), wk =   0.0011195
        k(  153) = (   0.4040610   0.2020305  -0.2020305), wk =   0.0011195
        k(  154) = (   0.4242641   0.2222336  -0.2222336), wk =   0.0011195
        k(  155) = (   0.4444671   0.2424366  -0.2424366), wk =   0.0011195
        k(  156) = (  -0.2424366  -0.4444671   0.4444671), wk =   0.0011195
        k(  157) = (  -0.2222336  -0.4242641   0.4242641), wk =   0.0011195
        k(  158) = (  -0.2020305  -0.4040610   0.4040610), wk =   0.0011195
        k(  159) = (  -0.1818275  -0.3838580   0.3838580), wk =   0.0011195
        k(  160) = (  -0.1616244  -0.3636549   0.3636549), wk =   0.0011195
        k(  161) = (  -0.1414214  -0.3434519   0.3434519), wk =   0.0011195
        k(  162) = (  -0.1212183  -0.3232488   0.3232488), wk =   0.0011195
        k(  163) = (  -0.1010153  -0.3030458   0.3030458), wk =   0.0011195
        k(  164) = (  -0.0808122  -0.2828427   0.2828427), wk =   0.0011195
        k(  165) = (  -0.0606092  -0.2626397   0.2626397), wk =   0.0011195
        k(  166) = (  -0.0404061  -0.2424366   0.2424366), wk =   0.0011195
        k(  167) = (  -0.0202031  -0.2222336   0.2222336), wk =   0.0011195
        k(  168) = (  -0.0000000  -0.2020305   0.2020305), wk =   0.0005598
        k(  169) = (   0.2424366   0.0000000   0.0000000), wk =   0.0002799
        k(  170) = (   0.2626397   0.0202031  -0.0202031), wk =   0.0011195
        k(  171) = (   0.2828427   0.0404061  -0.0404061), wk =   0.0011195
        k(  172) = (   0.3030458   0.0606092  -0.0606092), wk =   0.0011195
        k(  173) = (   0.3232488   0.0808122  -0.0808122), wk =   0.0011195
        k(  174) = (   0.3434519   0.1010153  -0.1010153), wk =   0.0011195
        k(  175) = (   0.3636549   0.1212183  -0.1212183), wk =   0.0011195
        k(  176) = (   0.3838580   0.1414214  -0.1414214), wk =   0.0011195
        k(  177) = (   0.4040610   0.1616244  -0.1616244), wk =   0.0011195
        k(  178) = (   0.4242641   0.1818275  -0.1818275), wk =   0.0011195
        k(  179) = (   0.4444671   0.2020305  -0.2020305), wk =   0.0011195
        k(  180) = (   0.4646702   0.2222336  -0.2222336), wk =   0.0011195
        k(  181) = (  -0.2222336  -0.4646702   0.4646702), wk =   0.0011195
        k(  182) = (  -0.2020305  -0.4444671   0.4444671), wk =   0.0011195
        k(  183) = (  -0.1818275  -0.4242641   0.4242641), wk =   0.0011195
        k(  184) = (  -0.1616244  -0.4040610   0.4040610), wk =   0.0011195
        k(  185) = (  -0.1414214  -0.3838580   0.3838580), wk =   0.0011195
        k(  186) = (  -0.1212183  -0.3636549   0.3636549), wk =   0.0011195
        k(  187) = (  -0.1010153  -0.3434519   0.3434519), wk =   0.0011195
        k(  188) = (  -0.0808122  -0.3232488   0.3232488), wk =   0.0011195
        k(  189) = (  -0.0606092  -0.3030458   0.3030458), wk =   0.0011195
        k(  190) = (  -0.0404061  -0.2828427   0.2828427), wk =   0.0011195
        k(  191) = (  -0.0202031  -0.2626397   0.2626397), wk =   0.0011195
        k(  192) = (   0.0000000  -0.2424366   0.2424366), wk =   0.0005598
        k(  193) = (   0.2828427   0.0000000   0.0000000), wk =   0.0002799
        k(  194) = (   0.3030458   0.0202031  -0.0202031), wk =   0.0011195
        k(  195) = (   0.3232488   0.0404061  -0.0404061), wk =   0.0011195
        k(  196) = (   0.3434519   0.0606092  -0.0606092), wk =   0.0011195
        k(  197) = (   0.3636549   0.0808122  -0.0808122), wk =   0.0011195
        k(  198) = (   0.3838580   0.1010153  -0.1010153), wk =   0.0011195
        k(  199) = (   0.4040610   0.1212183  -0.1212183), wk =   0.0011195
        k(  200) = (   0.4242641   0.1414214  -0.1414214), wk =   0.0011195
        k(  201) = (   0.4444671   0.1616244  -0.1616244), wk =   0.0011195
        k(  202) = (   0.4646702   0.1818275  -0.1818275), wk =   0.0011195
        k(  203) = (   0.4848732   0.2020305  -0.2020305), wk =   0.0011195
        k(  204) = (  -0.2020305  -0.4848732   0.4848732), wk =   0.0011195
        k(  205) = (  -0.1818275  -0.4646702   0.4646702), wk =   0.0011195
        k(  206) = (  -0.1616244  -0.4444671   0.4444671), wk =   0.0011195
        k(  207) = (  -0.1414214  -0.4242641   0.4242641), wk =   0.0011195
        k(  208) = (  -0.1212183  -0.4040610   0.4040610), wk =   0.0011195
        k(  209) = (  -0.1010153  -0.3838580   0.3838580), wk =   0.0011195
        k(  210) = (  -0.0808122  -0.3636549   0.3636549), wk =   0.0011195
        k(  211) = (  -0.0606092  -0.3434519   0.3434519), wk =   0.0011195
        k(  212) = (  -0.0404061  -0.3232488   0.3232488), wk =   0.0011195
        k(  213) = (  -0.0202031  -0.3030458   0.3030458), wk =   0.0011195
        k(  214) = (   0.0000000  -0.2828427   0.2828427), wk =   0.0005598
        k(  215) = (   0.3232488   0.0000000   0.0000000), wk =   0.0002799
        k(  216) = (   0.3434519   0.0202031  -0.0202031), wk =   0.0011195
        k(  217) = (   0.3636549   0.0404061  -0.0404061), wk =   0.0011195
        k(  218) = (   0.3838580   0.0606092  -0.0606092), wk =   0.0011195
        k(  219) = (   0.4040610   0.0808122  -0.0808122), wk =   0.0011195
        k(  220) = (   0.4242641   0.1010153  -0.1010153), wk =   0.0011195
        k(  221) = (   0.4444671   0.1212183  -0.1212183), wk =   0.0011195
        k(  222) = (   0.4646702   0.1414214  -0.1414214), wk =   0.0011195
        k(  223) = (   0.4848732   0.1616244  -0.1616244), wk =   0.0011195
        k(  224) = (   0.5050763   0.1818275  -0.1818275), wk =   0.0011195
        k(  225) = (  -0.1818275  -0.5050763   0.5050763), wk =   0.0011195
        k(  226) = (  -0.1616244  -0.4848732   0.4848732), wk =   0.0011195
        k(  227) = (  -0.1414214  -0.4646702   0.4646702), wk =   0.0011195
        k(  228) = (  -0.1212183  -0.4444671   0.4444671), wk =   0.0011195
        k(  229) = (  -0.1010153  -0.4242641   0.4242641), wk =   0.0011195
        k(  230) = (  -0.0808122  -0.4040610   0.4040610), wk =   0.0011195
        k(  231) = (  -0.0606092  -0.3838580   0.3838580), wk =   0.0011195
        k(  232) = (  -0.0404061  -0.3636549   0.3636549), wk =   0.0011195
        k(  233) = (  -0.0202031  -0.3434519   0.3434519), wk =   0.0011195
        k(  234) = (   0.0000000  -0.3232488   0.3232488), wk =   0.0005598
        k(  235) = (   0.3636549   0.0000000   0.0000000), wk =   0.0002799
        k(  236) = (   0.3838580   0.0202031  -0.0202031), wk =   0.0011195
        k(  237) = (   0.4040610   0.0404061  -0.0404061), wk =   0.0011195
        k(  238) = (   0.4242641   0.0606092  -0.0606092), wk =   0.0011195
        k(  239) = (   0.4444671   0.0808122  -0.0808122), wk =   0.0011195
        k(  240) = (   0.4646702   0.1010153  -0.1010153), wk =   0.0011195
        k(  241) = (   0.4848732   0.1212183  -0.1212183), wk =   0.0011195
        k(  242) = (   0.5050763   0.1414214  -0.1414214), wk =   0.0011195
        k(  243) = (   0.5252793   0.1616244  -0.1616244), wk =   0.0011195
        k(  244) = (  -0.1616244  -0.5252793   0.5252793), wk =   0.0011195
        k(  245) = (  -0.1414214  -0.5050763   0.5050763), wk =   0.0011195
        k(  246) = (  -0.1212183  -0.4848732   0.4848732), wk =   0.0011195
        k(  247) = (  -0.1010153  -0.4646702   0.4646702), wk =   0.0011195
        k(  248) = (  -0.0808122  -0.4444671   0.4444671), wk =   0.0011195
        k(  249) = (  -0.0606092  -0.4242641   0.4242641), wk =   0.0011195
        k(  250) = (  -0.0404061  -0.4040610   0.4040610), wk =   0.0011195
        k(  251) = (  -0.0202031  -0.3838580   0.3838580), wk =   0.0011195
        k(  252) = (   0.0000000  -0.3636549   0.3636549), wk =   0.0005598
        k(  253) = (   0.4040610   0.0000000   0.0000000), wk =   0.0002799
        k(  254) = (   0.4242641   0.0202031  -0.0202031), wk =   0.0011195
        k(  255) = (   0.4444671   0.0404061  -0.0404061), wk =   0.0011195
        k(  256) = (   0.4646702   0.0606092  -0.0606092), wk =   0.0011195
        k(  257) = (   0.4848732   0.0808122  -0.0808122), wk =   0.0011195
        k(  258) = (   0.5050763   0.1010153  -0.1010153), wk =   0.0011195
        k(  259) = (   0.5252793   0.1212183  -0.1212183), wk =   0.0011195
        k(  260) = (   0.5454824   0.1414214  -0.1414214), wk =   0.0011195
        k(  261) = (  -0.1414214  -0.5454824   0.5454824), wk =   0.0011195
        k(  262) = (  -0.1212183  -0.5252793   0.5252793), wk =   0.0011195
        k(  263) = (  -0.1010153  -0.5050763   0.5050763), wk =   0.0011195
        k(  264) = (  -0.0808122  -0.4848732   0.4848732), wk =   0.0011195
        k(  265) = (  -0.0606092  -0.4646702   0.4646702), wk =   0.0011195
        k(  266) = (  -0.0404061  -0.4444671   0.4444671), wk =   0.0011195
        k(  267) = (  -0.0202031  -0.4242641   0.4242641), wk =   0.0011195
        k(  268) = (   0.0000000  -0.4040610   0.4040610), wk =   0.0005598
        k(  269) = (   0.4444671   0.0000000   0.0000000), wk =   0.0002799
        k(  270) = (   0.4646702   0.0202031  -0.0202031), wk =   0.0011195
        k(  271) = (   0.4848732   0.0404061  -0.0404061), wk =   0.0011195
        k(  272) = (   0.5050763   0.0606092  -0.0606092), wk =   0.0011195
        k(  273) = (   0.5252793   0.0808122  -0.0808122), wk =   0.0011195
        k(  274) = (   0.5454824   0.1010153  -0.1010153), wk =   0.0011195
        k(  275) = (   0.5656854   0.1212183  -0.1212183), wk =   0.0011195
        k(  276) = (  -0.1212183  -0.5656854   0.5656854), wk =   0.0011195
        k(  277) = (  -0.1010153  -0.5454824   0.5454824), wk =   0.0011195
        k(  278) = (  -0.0808122  -0.5252793   0.5252793), wk =   0.0011195
        k(  279) = (  -0.0606092  -0.5050763   0.5050763), wk =   0.0011195
        k(  280) = (  -0.0404061  -0.4848732   0.4848732), wk =   0.0011195
        k(  281) = (  -0.0202031  -0.4646702   0.4646702), wk =   0.0011195
        k(  282) = (   0.0000000  -0.4444671   0.4444671), wk =   0.0005598
        k(  283) = (   0.4848732   0.0000000   0.0000000), wk =   0.0002799
        k(  284) = (   0.5050763   0.0202031  -0.0202031), wk =   0.0011195
        k(  285) = (   0.5252793   0.0404061  -0.0404061), wk =   0.0011195
        k(  286) = (   0.5454824   0.0606092  -0.0606092), wk =   0.0011195
        k(  287) = (   0.5656854   0.0808122  -0.0808122), wk =   0.0011195
        k(  288) = (   0.5858885   0.1010153  -0.1010153), wk =   0.0011195
        k(  289) = (  -0.1010153  -0.5858885   0.5858885), wk =   0.0011195
        k(  290) = (  -0.0808122  -0.5656854   0.5656854), wk =   0.0011195
        k(  291) = (  -0.0606092  -0.5454824   0.5454824), wk =   0.0011195
        k(  292) = (  -0.0404061  -0.5252793   0.5252793), wk =   0.0011195
        k(  293) = (  -0.0202031  -0.5050763   0.5050763), wk =   0.0011195
        k(  294) = (   0.0000000  -0.4848732   0.4848732), wk =   0.0005598
        k(  295) = (   0.5252793   0.0000000   0.0000000), wk =   0.0002799
        k(  296) = (   0.5454824   0.0202031  -0.0202031), wk =   0.0011195
        k(  297) = (   0.5656854   0.0404061  -0.0404061), wk =   0.0011195
        k(  298) = (   0.5858885   0.0606092  -0.0606092), wk =   0.0011195
        k(  299) = (   0.6060915   0.0808122  -0.0808122), wk =   0.0011195
        k(  300) = (  -0.0808122  -0.6060915   0.6060915), wk =   0.0011195
        k(  301) = (  -0.0606092  -0.5858885   0.5858885), wk =   0.0011195
        k(  302) = (  -0.0404061  -0.5656854   0.5656854), wk =   0.0011195
        k(  303) = (  -0.0202031  -0.5454824   0.5454824), wk =   0.0011195
        k(  304) = (   0.0000000  -0.5252793   0.5252793), wk =   0.0005598
        k(  305) = (   0.5656854   0.0000000   0.0000000), wk =   0.0002799
        k(  306) = (   0.5858885   0.0202031  -0.0202031), wk =   0.0011195
        k(  307) = (   0.6060915   0.0404061  -0.0404061), wk =   0.0011195
        k(  308) = (   0.6262946   0.0606092  -0.0606092), wk =   0.0011195
        k(  309) = (  -0.0606092  -0.6262946   0.6262946), wk =   0.0011195
        k(  310) = (  -0.0404061  -0.6060915   0.6060915), wk =   0.0011195
        k(  311) = (  -0.0202031  -0.5858885   0.5858885), wk =   0.0011195
        k(  312) = (   0.0000000  -0.5656854   0.5656854), wk =   0.0005598
        k(  313) = (   0.6060915   0.0000000   0.0000000), wk =   0.0002799
        k(  314) = (   0.6262946   0.0202031  -0.0202031), wk =   0.0011195
        k(  315) = (   0.6464976   0.0404061  -0.0404061), wk =   0.0011195
        k(  316) = (  -0.0404061  -0.6464976   0.6464976), wk =   0.0011195
        k(  317) = (  -0.0202031  -0.6262946   0.6262946), wk =   0.0011195
        k(  318) = (   0.0000000  -0.6060915   0.6060915), wk =   0.0005598
        k(  319) = (   0.6464976   0.0000000   0.0000000), wk =   0.0002799
        k(  320) = (   0.6667007   0.0202031  -0.0202031), wk =   0.0011195
        k(  321) = (  -0.0202031  -0.6667007   0.6667007), wk =   0.0011195
        k(  322) = (  -0.0000000  -0.6464976   0.6464976), wk =   0.0005598
        k(  323) = (   0.6869037   0.0000000   0.0000000), wk =   0.0002799
        k(  324) = (  -0.0000000  -0.6869037   0.6869037), wk =   0.0005598
        k(  325) = (   0.0808122   0.0404061   0.0000000), wk =   0.0011195
        k(  326) = (   0.1010153   0.0606092  -0.0202031), wk =   0.0022391
        k(  327) = (   0.1212183   0.0808122  -0.0404061), wk =   0.0022391
        k(  328) = (   0.1414214   0.1010153  -0.0606092), wk =   0.0022391
        k(  329) = (   0.1616244   0.1212183  -0.0808122), wk =   0.0022391
        k(  330) = (   0.1818275   0.1414214  -0.1010153), wk =   0.0022391
        k(  331) = (   0.2020305   0.1616244  -0.1212183), wk =   0.0022391
        k(  332) = (   0.2222336   0.1818275  -0.1414214), wk =   0.0022391
        k(  333) = (   0.2424366   0.2020305  -0.1616244), wk =   0.0022391
        k(  334) = (   0.2626397   0.2222336  -0.1818275), wk =   0.0022391
        k(  335) = (   0.2828427   0.2424366  -0.2020305), wk =   0.0022391
        k(  336) = (   0.3030458   0.2626397  -0.2222336), wk =   0.0022391
        k(  337) = (   0.3232488   0.2828427  -0.2424366), wk =   0.0022391
        k(  338) = (   0.3434519   0.3030458  -0.2626397), wk =   0.0022391
        k(  339) = (   0.3636549   0.3232488  -0.2828427), wk =   0.0022391
        k(  340) = (  -0.3232488  -0.3636549   0.4040610), wk =   0.0022391
        k(  341) = (   0.1212183   0.0404061   0.0000000), wk =   0.0011195
        k(  342) = (   0.1414214   0.0606092  -0.0202031), wk =   0.0022391
        k(  343) = (   0.1616244   0.0808122  -0.0404061), wk =   0.0022391
        k(  344) = (   0.1818275   0.1010153  -0.0606092), wk =   0.0022391
        k(  345) = (   0.2020305   0.1212183  -0.0808122), wk =   0.0022391
        k(  346) = (   0.2222336   0.1414214  -0.1010153), wk =   0.0022391
        k(  347) = (   0.2424366   0.1616244  -0.1212183), wk =   0.0022391
        k(  348) = (   0.2626397   0.1818275  -0.1414214), wk =   0.0022391
        k(  349) = (   0.2828427   0.2020305  -0.1616244), wk =   0.0022391
        k(  350) = (   0.3030458   0.2222336  -0.1818275), wk =   0.0022391
        k(  351) = (   0.3232488   0.2424366  -0.2020305), wk =   0.0022391
        k(  352) = (   0.3434519   0.2626397  -0.2222336), wk =   0.0022391
        k(  353) = (   0.3636549   0.2828427  -0.2424366), wk =   0.0022391
        k(  354) = (   0.3838580   0.3030458  -0.2626397), wk =   0.0022391
        k(  355) = (  -0.3030458  -0.3838580   0.4242641), wk =   0.0022391
        k(  356) = (  -0.2828427  -0.3636549   0.4040610), wk =   0.0022391
        k(  357) = (  -0.2626397  -0.3434519   0.3838580), wk =   0.0022391
        k(  358) = (  -0.2424366  -0.3232488   0.3636549), wk =   0.0022391
        k(  359) = (  -0.2222336  -0.3030458   0.3434519), wk =   0.0022391
        k(  360) = (  -0.2020305  -0.2828427   0.3232488), wk =   0.0022391
        k(  361) = (  -0.1818275  -0.2626397   0.3030458), wk =   0.0022391
        k(  362) = (  -0.1616244  -0.2424366   0.2828427), wk =   0.0022391
        k(  363) = (  -0.1414214  -0.2222336   0.2626397), wk =   0.0022391
        k(  364) = (  -0.1212183  -0.2020305   0.2424366), wk =   0.0022391
        k(  365) = (  -0.1010153  -0.1818275   0.2222336), wk =   0.0022391
        k(  366) = (  -0.0808122  -0.1616244   0.2020305), wk =   0.0022391
        k(  367) = (  -0.0606092  -0.1414214   0.1818275), wk =   0.0022391
        k(  368) = (  -0.0404061  -0.1212183   0.1616244), wk =   0.0022391
        k(  369) = (  -0.0202031  -0.1010153   0.1414214), wk =   0.0022391
        k(  370) = (  -0.0000000  -0.0808122   0.1212183), wk =   0.0011195
        k(  371) = (   0.1616244   0.0404061  -0.0000000), wk =   0.0011195
        k(  372) = (   0.1818275   0.0606092  -0.0202031), wk =   0.0022391
        k(  373) = (   0.2020305   0.0808122  -0.0404061), wk =   0.0022391
        k(  374) = (   0.2222336   0.1010153  -0.0606092), wk =   0.0022391
        k(  375) = (   0.2424366   0.1212183  -0.0808122), wk =   0.0022391
        k(  376) = (   0.2626397   0.1414214  -0.1010153), wk =   0.0022391
        k(  377) = (   0.2828427   0.1616244  -0.1212183), wk =   0.0022391
        k(  378) = (   0.3030458   0.1818275  -0.1414214), wk =   0.0022391
        k(  379) = (   0.3232488   0.2020305  -0.1616244), wk =   0.0022391
        k(  380) = (   0.3434519   0.2222336  -0.1818275), wk =   0.0022391
        k(  381) = (   0.3636549   0.2424366  -0.2020305), wk =   0.0022391
        k(  382) = (   0.3838580   0.2626397  -0.2222336), wk =   0.0022391
        k(  383) = (   0.4040610   0.2828427  -0.2424366), wk =   0.0022391
        k(  384) = (  -0.2828427  -0.4040610   0.4444671), wk =   0.0022391
        k(  385) = (  -0.2626397  -0.3838580   0.4242641), wk =   0.0022391
        k(  386) = (  -0.2424366  -0.3636549   0.4040610), wk =   0.0022391
        k(  387) = (  -0.2222336  -0.3434519   0.3838580), wk =   0.0022391
        k(  388) = (  -0.2020305  -0.3232488   0.3636549), wk =   0.0022391
        k(  389) = (  -0.1818275  -0.3030458   0.3434519), wk =   0.0022391
        k(  390) = (  -0.1616244  -0.2828427   0.3232488), wk =   0.0022391
        k(  391) = (  -0.1414214  -0.2626397   0.3030458), wk =   0.0022391
        k(  392) = (  -0.1212183  -0.2424366   0.2828427), wk =   0.0022391
        k(  393) = (  -0.1010153  -0.2222336   0.2626397), wk =   0.0022391
        k(  394) = (  -0.0808122  -0.2020305   0.2424366), wk =   0.0022391
        k(  395) = (  -0.0606092  -0.1818275   0.2222336), wk =   0.0022391
        k(  396) = (  -0.0404061  -0.1616244   0.2020305), wk =   0.0022391
        k(  397) = (  -0.0202031  -0.1414214   0.1818275), wk =   0.0022391
        k(  398) = (  -0.0000000  -0.1212183   0.1616244), wk =   0.0011195
        k(  399) = (   0.2020305   0.0404061   0.0000000), wk =   0.0011195
        k(  400) = (   0.2222336   0.0606092  -0.0202031), wk =   0.0022391
        k(  401) = (   0.2424366   0.0808122  -0.0404061), wk =   0.0022391
        k(  402) = (   0.2626397   0.1010153  -0.0606092), wk =   0.0022391
        k(  403) = (   0.2828427   0.1212183  -0.0808122), wk =   0.0022391
        k(  404) = (   0.3030458   0.1414214  -0.1010153), wk =   0.0022391
        k(  405) = (   0.3232488   0.1616244  -0.1212183), wk =   0.0022391
        k(  406) = (   0.3434519   0.1818275  -0.1414214), wk =   0.0022391
        k(  407) = (   0.3636549   0.2020305  -0.1616244), wk =   0.0022391
        k(  408) = (   0.3838580   0.2222336  -0.1818275), wk =   0.0022391
        k(  409) = (   0.4040610   0.2424366  -0.2020305), wk =   0.0022391
        k(  410) = (   0.4242641   0.2626397  -0.2222336), wk =   0.0022391
        k(  411) = (  -0.2626397  -0.4242641   0.4646702), wk =   0.0022391
        k(  412) = (  -0.2424366  -0.4040610   0.4444671), wk =   0.0022391
        k(  413) = (  -0.2222336  -0.3838580   0.4242641), wk =   0.0022391
        k(  414) = (  -0.2020305  -0.3636549   0.4040610), wk =   0.0022391
        k(  415) = (  -0.1818275  -0.3434519   0.3838580), wk =   0.0022391
        k(  416) = (  -0.1616244  -0.3232488   0.3636549), wk =   0.0022391
        k(  417) = (  -0.1414214  -0.3030458   0.3434519), wk =   0.0022391
        k(  418) = (  -0.1212183  -0.2828427   0.3232488), wk =   0.0022391
        k(  419) = (  -0.1010153  -0.2626397   0.3030458), wk =   0.0022391
        k(  420) = (  -0.0808122  -0.2424366   0.2828427), wk =   0.0022391
        k(  421) = (  -0.0606092  -0.2222336   0.2626397), wk =   0.0022391
        k(  422) = (  -0.0404061  -0.2020305   0.2424366), wk =   0.0022391
        k(  423) = (  -0.0202031  -0.1818275   0.2222336), wk =   0.0022391
        k(  424) = (  -0.0000000  -0.1616244   0.2020305), wk =   0.0011195
        k(  425) = (   0.2424366   0.0404061  -0.0000000), wk =   0.0011195
        k(  426) = (   0.2626397   0.0606092  -0.0202031), wk =   0.0022391
        k(  427) = (   0.2828427   0.0808122  -0.0404061), wk =   0.0022391
        k(  428) = (   0.3030458   0.1010153  -0.0606092), wk =   0.0022391
        k(  429) = (   0.3232488   0.1212183  -0.0808122), wk =   0.0022391
        k(  430) = (   0.3434519   0.1414214  -0.1010153), wk =   0.0022391
        k(  431) = (   0.3636549   0.1616244  -0.1212183), wk =   0.0022391
        k(  432) = (   0.3838580   0.1818275  -0.1414214), wk =   0.0022391
        k(  433) = (   0.4040610   0.2020305  -0.1616244), wk =   0.0022391
        k(  434) = (   0.4242641   0.2222336  -0.1818275), wk =   0.0022391
        k(  435) = (   0.4444671   0.2424366  -0.2020305), wk =   0.0022391
        k(  436) = (  -0.2424366  -0.4444671   0.4848732), wk =   0.0022391
        k(  437) = (  -0.2222336  -0.4242641   0.4646702), wk =   0.0022391
        k(  438) = (  -0.2020305  -0.4040610   0.4444671), wk =   0.0022391
        k(  439) = (  -0.1818275  -0.3838580   0.4242641), wk =   0.0022391
        k(  440) = (  -0.1616244  -0.3636549   0.4040610), wk =   0.0022391
        k(  441) = (  -0.1414214  -0.3434519   0.3838580), wk =   0.0022391
        k(  442) = (  -0.1212183  -0.3232488   0.3636549), wk =   0.0022391
        k(  443) = (  -0.1010153  -0.3030458   0.3434519), wk =   0.0022391
        k(  444) = (  -0.0808122  -0.2828427   0.3232488), wk =   0.0022391
        k(  445) = (  -0.0606092  -0.2626397   0.3030458), wk =   0.0022391
        k(  446) = (  -0.0404061  -0.2424366   0.2828427), wk =   0.0022391
        k(  447) = (  -0.0202031  -0.2222336   0.2626397), wk =   0.0022391
        k(  448) = (  -0.0000000  -0.2020305   0.2424366), wk =   0.0011195
        k(  449) = (   0.2828427   0.0404061   0.0000000), wk =   0.0011195
        k(  450) = (   0.3030458   0.0606092  -0.0202031), wk =   0.0022391
        k(  451) = (   0.3232488   0.0808122  -0.0404061), wk =   0.0022391
        k(  452) = (   0.3434519   0.1010153  -0.0606092), wk =   0.0022391
        k(  453) = (   0.3636549   0.1212183  -0.0808122), wk =   0.0022391
        k(  454) = (   0.3838580   0.1414214  -0.1010153), wk =   0.0022391
        k(  455) = (   0.4040610   0.1616244  -0.1212183), wk =   0.0022391
        k(  456) = (   0.4242641   0.1818275  -0.1414214), wk =   0.0022391
        k(  457) = (   0.4444671   0.2020305  -0.1616244), wk =   0.0022391
        k(  458) = (   0.4646702   0.2222336  -0.1818275), wk =   0.0022391
        k(  459) = (  -0.2222336  -0.4646702   0.5050763), wk =   0.0022391
        k(  460) = (  -0.2020305  -0.4444671   0.4848732), wk =   0.0022391
        k(  461) = (  -0.1818275  -0.4242641   0.4646702), wk =   0.0022391
        k(  462) = (  -0.1616244  -0.4040610   0.4444671), wk =   0.0022391
        k(  463) = (  -0.1414214  -0.3838580   0.4242641), wk =   0.0022391
        k(  464) = (  -0.1212183  -0.3636549   0.4040610), wk =   0.0022391
        k(  465) = (  -0.1010153  -0.3434519   0.3838580), wk =   0.0022391
        k(  466) = (  -0.0808122  -0.3232488   0.3636549), wk =   0.0022391
        k(  467) = (  -0.0606092  -0.3030458   0.3434519), wk =   0.0022391
        k(  468) = (  -0.0404061  -0.2828427   0.3232488), wk =   0.0022391
        k(  469) = (  -0.0202031  -0.2626397   0.3030458), wk =   0.0022391
        k(  470) = (   0.0000000  -0.2424366   0.2828427), wk =   0.0011195
        k(  471) = (   0.3232488   0.0404061   0.0000000), wk =   0.0011195
        k(  472) = (   0.3434519   0.0606092  -0.0202031), wk =   0.0022391
        k(  473) = (   0.3636549   0.0808122  -0.0404061), wk =   0.0022391
        k(  474) = (   0.3838580   0.1010153  -0.0606092), wk =   0.0022391
        k(  475) = (   0.4040610   0.1212183  -0.0808122), wk =   0.0022391
        k(  476) = (   0.4242641   0.1414214  -0.1010153), wk =   0.0022391
        k(  477) = (   0.4444671   0.1616244  -0.1212183), wk =   0.0022391
        k(  478) = (   0.4646702   0.1818275  -0.1414214), wk =   0.0022391
        k(  479) = (   0.4848732   0.2020305  -0.1616244), wk =   0.0022391
        k(  480) = (  -0.2020305  -0.4848732   0.5252793), wk =   0.0022391
        k(  481) = (  -0.1818275  -0.4646702   0.5050763), wk =   0.0022391
        k(  482) = (  -0.1616244  -0.4444671   0.4848732), wk =   0.0022391
        k(  483) = (  -0.1414214  -0.4242641   0.4646702), wk =   0.0022391
        k(  484) = (  -0.1212183  -0.4040610   0.4444671), wk =   0.0022391
        k(  485) = (  -0.1010153  -0.3838580   0.4242641), wk =   0.0022391
        k(  486) = (  -0.0808122  -0.3636549   0.4040610), wk =   0.0022391
        k(  487) = (  -0.0606092  -0.3434519   0.3838580), wk =   0.0022391
        k(  488) = (  -0.0404061  -0.3232488   0.3636549), wk =   0.0022391
        k(  489) = (  -0.0202031  -0.3030458   0.3434519), wk =   0.0022391
        k(  490) = (   0.0000000  -0.2828427   0.3232488), wk =   0.0011195
        k(  491) = (   0.3636549   0.0404061  -0.0000000), wk =   0.0011195
        k(  492) = (   0.3838580   0.0606092  -0.0202031), wk =   0.0022391
        k(  493) = (   0.4040610   0.0808122  -0.0404061), wk =   0.0022391
        k(  494) = (   0.4242641   0.1010153  -0.0606092), wk =   0.0022391
        k(  495) = (   0.4444671   0.1212183  -0.0808122), wk =   0.0022391
        k(  496) = (   0.4646702   0.1414214  -0.1010153), wk =   0.0022391
        k(  497) = (   0.4848732   0.1616244  -0.1212183), wk =   0.0022391
        k(  498) = (   0.5050763   0.1818275  -0.1414214), wk =   0.0022391
        k(  499) = (  -0.1818275  -0.5050763   0.5454824), wk =   0.0022391
        k(  500) = (  -0.1616244  -0.4848732   0.5252793), wk =   0.0022391
        k(  501) = (  -0.1414214  -0.4646702   0.5050763), wk =   0.0022391
        k(  502) = (  -0.1212183  -0.4444671   0.4848732), wk =   0.0022391
        k(  503) = (  -0.1010153  -0.4242641   0.4646702), wk =   0.0022391
        k(  504) = (  -0.0808122  -0.4040610   0.4444671), wk =   0.0022391
        k(  505) = (  -0.0606092  -0.3838580   0.4242641), wk =   0.0022391
        k(  506) = (  -0.0404061  -0.3636549   0.4040610), wk =   0.0022391
        k(  507) = (  -0.0202031  -0.3434519   0.3838580), wk =   0.0022391
        k(  508) = (   0.0000000  -0.3232488   0.3636549), wk =   0.0011195
        k(  509) = (   0.4040610   0.0404061   0.0000000), wk =   0.0011195
        k(  510) = (   0.4242641   0.0606092  -0.0202031), wk =   0.0022391
        k(  511) = (   0.4444671   0.0808122  -0.0404061), wk =   0.0022391
        k(  512) = (   0.4646702   0.1010153  -0.0606092), wk =   0.0022391
        k(  513) = (   0.4848732   0.1212183  -0.0808122), wk =   0.0022391
        k(  514) = (   0.5050763   0.1414214  -0.1010153), wk =   0.0022391
        k(  515) = (   0.5252793   0.1616244  -0.1212183), wk =   0.0022391
        k(  516) = (  -0.1616244  -0.5252793   0.5656854), wk =   0.0022391
        k(  517) = (  -0.1414214  -0.5050763   0.5454824), wk =   0.0022391
        k(  518) = (  -0.1212183  -0.4848732   0.5252793), wk =   0.0022391
        k(  519) = (  -0.1010153  -0.4646702   0.5050763), wk =   0.0022391
        k(  520) = (  -0.0808122  -0.4444671   0.4848732), wk =   0.0022391
        k(  521) = (  -0.0606092  -0.4242641   0.4646702), wk =   0.0022391
        k(  522) = (  -0.0404061  -0.4040610   0.4444671), wk =   0.0022391
        k(  523) = (  -0.0202031  -0.3838580   0.4242641), wk =   0.0022391
        k(  524) = (   0.0000000  -0.3636549   0.4040610), wk =   0.0011195
        k(  525) = (   0.4444671   0.0404061   0.0000000), wk =   0.0011195
        k(  526) = (   0.4646702   0.0606092  -0.0202031), wk =   0.0022391
        k(  527) = (   0.4848732   0.0808122  -0.0404061), wk =   0.0022391
        k(  528) = (   0.5050763   0.1010153  -0.0606092), wk =   0.0022391
        k(  529) = (   0.5252793   0.1212183  -0.0808122), wk =   0.0022391
        k(  530) = (   0.5454824   0.1414214  -0.1010153), wk =   0.0022391
        k(  531) = (  -0.1414214  -0.5454824   0.5858885), wk =   0.0022391
        k(  532) = (  -0.1212183  -0.5252793   0.5656854), wk =   0.0022391
        k(  533) = (  -0.1010153  -0.5050763   0.5454824), wk =   0.0022391
        k(  534) = (  -0.0808122  -0.4848732   0.5252793), wk =   0.0022391
        k(  535) = (  -0.0606092  -0.4646702   0.5050763), wk =   0.0022391
        k(  536) = (  -0.0404061  -0.4444671   0.4848732), wk =   0.0022391
        k(  537) = (  -0.0202031  -0.4242641   0.4646702), wk =   0.0022391
        k(  538) = (   0.0000000  -0.4040610   0.4444671), wk =   0.0011195
        k(  539) = (   0.4848732   0.0404061   0.0000000), wk =   0.0011195
        k(  540) = (   0.5050763   0.0606092  -0.0202031), wk =   0.0022391
        k(  541) = (   0.5252793   0.0808122  -0.0404061), wk =   0.0022391
        k(  542) = (   0.5454824   0.1010153  -0.0606092), wk =   0.0022391
        k(  543) = (   0.5656854   0.1212183  -0.0808122), wk =   0.0022391
        k(  544) = (  -0.1212183  -0.5656854   0.6060915), wk =   0.0022391
        k(  545) = (  -0.1010153  -0.5454824   0.5858885), wk =   0.0022391
        k(  546) = (  -0.0808122  -0.5252793   0.5656854), wk =   0.0022391
        k(  547) = (  -0.0606092  -0.5050763   0.5454824), wk =   0.0022391
        k(  548) = (  -0.0404061  -0.4848732   0.5252793), wk =   0.0022391
        k(  549) = (  -0.0202031  -0.4646702   0.5050763), wk =   0.0022391
        k(  550) = (   0.0000000  -0.4444671   0.4848732), wk =   0.0011195
        k(  551) = (   0.5252793   0.0404061   0.0000000), wk =   0.0011195
        k(  552) = (   0.5454824   0.0606092  -0.0202031), wk =   0.0022391
        k(  553) = (   0.5656854   0.0808122  -0.0404061), wk =   0.0022391
        k(  554) = (   0.5858885   0.1010153  -0.0606092), wk =   0.0022391
        k(  555) = (  -0.1010153  -0.5858885   0.6262946), wk =   0.0022391
        k(  556) = (  -0.0808122  -0.5656854   0.6060915), wk =   0.0022391
        k(  557) = (  -0.0606092  -0.5454824   0.5858885), wk =   0.0022391
        k(  558) = (  -0.0404061  -0.5252793   0.5656854), wk =   0.0022391
        k(  559) = (  -0.0202031  -0.5050763   0.5454824), wk =   0.0022391
        k(  560) = (   0.0000000  -0.4848732   0.5252793), wk =   0.0011195
        k(  561) = (   0.5656854   0.0404061   0.0000000), wk =   0.0011195
        k(  562) = (   0.5858885   0.0606092  -0.0202031), wk =   0.0022391
        k(  563) = (   0.6060915   0.0808122  -0.0404061), wk =   0.0022391
        k(  564) = (  -0.0808122  -0.6060915   0.6464976), wk =   0.0022391
        k(  565) = (  -0.0606092  -0.5858885   0.6262946), wk =   0.0022391
        k(  566) = (  -0.0404061  -0.5656854   0.6060915), wk =   0.0022391
        k(  567) = (  -0.0202031  -0.5454824   0.5858885), wk =   0.0022391
        k(  568) = (   0.0000000  -0.5252793   0.5656854), wk =   0.0011195
        k(  569) = (   0.6060915   0.0404061   0.0000000), wk =   0.0011195
        k(  570) = (   0.6262946   0.0606092  -0.0202031), wk =   0.0022391
        k(  571) = (  -0.0606092  -0.6262946   0.6667007), wk =   0.0022391
        k(  572) = (  -0.0404061  -0.6060915   0.6464976), wk =   0.0022391
        k(  573) = (  -0.0202031  -0.5858885   0.6262946), wk =   0.0022391
        k(  574) = (  -0.0000000  -0.5656854   0.6060915), wk =   0.0011195
        k(  575) = (   0.6464976   0.0404061   0.0000000), wk =   0.0011195
        k(  576) = (  -0.0404061  -0.6464976   0.6869037), wk =   0.0022391
        k(  577) = (  -0.0202031  -0.6262946   0.6667007), wk =   0.0022391
        k(  578) = (  -0.0000000  -0.6060915   0.6464976), wk =   0.0011195
        k(  579) = (  -0.0202031  -0.6667007   0.7071068), wk =   0.0011195
        k(  580) = (  -0.0000000  -0.6464976   0.6869037), wk =   0.0011195
        k(  581) = (   0.1616244   0.0808122   0.0000000), wk =   0.0011195
        k(  582) = (   0.1818275   0.1010153  -0.0202031), wk =   0.0022391
        k(  583) = (   0.2020305   0.1212183  -0.0404061), wk =   0.0022391
        k(  584) = (   0.2222336   0.1414214  -0.0606092), wk =   0.0022391
        k(  585) = (   0.2424366   0.1616244  -0.0808122), wk =   0.0022391
        k(  586) = (   0.2626397   0.1818275  -0.1010153), wk =   0.0022391
        k(  587) = (   0.2828427   0.2020305  -0.1212183), wk =   0.0022391
        k(  588) = (   0.3030458   0.2222336  -0.1414214), wk =   0.0022391
        k(  589) = (   0.3232488   0.2424366  -0.1616244), wk =   0.0022391
        k(  590) = (   0.3434519   0.2626397  -0.1818275), wk =   0.0022391
        k(  591) = (   0.3636549   0.2828427  -0.2020305), wk =   0.0022391
        k(  592) = (   0.3838580   0.3030458  -0.2222336), wk =   0.0022391
        k(  593) = (  -0.3030458  -0.3838580   0.4646702), wk =   0.0022391
        k(  594) = (  -0.2828427  -0.3636549   0.4444671), wk =   0.0022391
        k(  595) = (   0.2020305   0.0808122  -0.0000000), wk =   0.0011195
        k(  596) = (   0.2222336   0.1010153  -0.0202031), wk =   0.0022391
        k(  597) = (   0.2424366   0.1212183  -0.0404061), wk =   0.0022391
        k(  598) = (   0.2626397   0.1414214  -0.0606092), wk =   0.0022391
        k(  599) = (   0.2828427   0.1616244  -0.0808122), wk =   0.0022391
        k(  600) = (   0.3030458   0.1818275  -0.1010153), wk =   0.0022391
        k(  601) = (   0.3232488   0.2020305  -0.1212183), wk =   0.0022391
        k(  602) = (   0.3434519   0.2222336  -0.1414214), wk =   0.0022391
        k(  603) = (   0.3636549   0.2424366  -0.1616244), wk =   0.0022391
        k(  604) = (   0.3838580   0.2626397  -0.1818275), wk =   0.0022391
        k(  605) = (   0.4040610   0.2828427  -0.2020305), wk =   0.0022391
        k(  606) = (  -0.2828427  -0.4040610   0.4848732), wk =   0.0022391
        k(  607) = (  -0.2626397  -0.3838580   0.4646702), wk =   0.0022391
        k(  608) = (  -0.2424366  -0.3636549   0.4444671), wk =   0.0022391
        k(  609) = (  -0.2222336  -0.3434519   0.4242641), wk =   0.0022391
        k(  610) = (  -0.2020305  -0.3232488   0.4040610), wk =   0.0022391
        k(  611) = (  -0.1818275  -0.3030458   0.3838580), wk =   0.0022391
        k(  612) = (  -0.1616244  -0.2828427   0.3636549), wk =   0.0022391
        k(  613) = (  -0.1414214  -0.2626397   0.3434519), wk =   0.0022391
        k(  614) = (  -0.1212183  -0.2424366   0.3232488), wk =   0.0022391
        k(  615) = (  -0.1010153  -0.2222336   0.3030458), wk =   0.0022391
        k(  616) = (  -0.0808122  -0.2020305   0.2828427), wk =   0.0022391
        k(  617) = (  -0.0606092  -0.1818275   0.2626397), wk =   0.0022391
        k(  618) = (  -0.0404061  -0.1616244   0.2424366), wk =   0.0022391
        k(  619) = (  -0.0202031  -0.1414214   0.2222336), wk =   0.0022391
        k(  620) = (  -0.0000000  -0.1212183   0.2020305), wk =   0.0011195
        k(  621) = (   0.2424366   0.0808122   0.0000000), wk =   0.0011195
        k(  622) = (   0.2626397   0.1010153  -0.0202031), wk =   0.0022391
        k(  623) = (   0.2828427   0.1212183  -0.0404061), wk =   0.0022391
        k(  624) = (   0.3030458   0.1414214  -0.0606092), wk =   0.0022391
        k(  625) = (   0.3232488   0.1616244  -0.0808122), wk =   0.0022391
        k(  626) = (   0.3434519   0.1818275  -0.1010153), wk =   0.0022391
        k(  627) = (   0.3636549   0.2020305  -0.1212183), wk =   0.0022391
        k(  628) = (   0.3838580   0.2222336  -0.1414214), wk =   0.0022391
        k(  629) = (   0.4040610   0.2424366  -0.1616244), wk =   0.0022391
        k(  630) = (   0.4242641   0.2626397  -0.1818275), wk =   0.0022391
        k(  631) = (  -0.2626397  -0.4242641   0.5050763), wk =   0.0022391
        k(  632) = (  -0.2424366  -0.4040610   0.4848732), wk =   0.0022391
        k(  633) = (  -0.2222336  -0.3838580   0.4646702), wk =   0.0022391
        k(  634) = (  -0.2020305  -0.3636549   0.4444671), wk =   0.0022391
        k(  635) = (  -0.1818275  -0.3434519   0.4242641), wk =   0.0022391
        k(  636) = (  -0.1616244  -0.3232488   0.4040610), wk =   0.0022391
        k(  637) = (  -0.1414214  -0.3030458   0.3838580), wk =   0.0022391
        k(  638) = (  -0.1212183  -0.2828427   0.3636549), wk =   0.0022391
        k(  639) = (  -0.1010153  -0.2626397   0.3434519), wk =   0.0022391
        k(  640) = (  -0.0808122  -0.2424366   0.3232488), wk =   0.0022391
        k(  641) = (  -0.0606092  -0.2222336   0.3030458), wk =   0.0022391
        k(  642) = (  -0.0404061  -0.2020305   0.2828427), wk =   0.0022391
        k(  643) = (  -0.0202031  -0.1818275   0.2626397), wk =   0.0022391
        k(  644) = (  -0.0000000  -0.1616244   0.2424366), wk =   0.0011195
        k(  645) = (   0.2828427   0.0808122   0.0000000), wk =   0.0011195
        k(  646) = (   0.3030458   0.1010153  -0.0202031), wk =   0.0022391
        k(  647) = (   0.3232488   0.1212183  -0.0404061), wk =   0.0022391
        k(  648) = (   0.3434519   0.1414214  -0.0606092), wk =   0.0022391
        k(  649) = (   0.3636549   0.1616244  -0.0808122), wk =   0.0022391
        k(  650) = (   0.3838580   0.1818275  -0.1010153), wk =   0.0022391
        k(  651) = (   0.4040610   0.2020305  -0.1212183), wk =   0.0022391
        k(  652) = (   0.4242641   0.2222336  -0.1414214), wk =   0.0022391
        k(  653) = (   0.4444671   0.2424366  -0.1616244), wk =   0.0022391
        k(  654) = (  -0.2424366  -0.4444671   0.5252793), wk =   0.0022391
        k(  655) = (  -0.2222336  -0.4242641   0.5050763), wk =   0.0022391
        k(  656) = (  -0.2020305  -0.4040610   0.4848732), wk =   0.0022391
        k(  657) = (  -0.1818275  -0.3838580   0.4646702), wk =   0.0022391
        k(  658) = (  -0.1616244  -0.3636549   0.4444671), wk =   0.0022391
        k(  659) = (  -0.1414214  -0.3434519   0.4242641), wk =   0.0022391
        k(  660) = (  -0.1212183  -0.3232488   0.4040610), wk =   0.0022391
        k(  661) = (  -0.1010153  -0.3030458   0.3838580), wk =   0.0022391
        k(  662) = (  -0.0808122  -0.2828427   0.3636549), wk =   0.0022391
        k(  663) = (  -0.0606092  -0.2626397   0.3434519), wk =   0.0022391
        k(  664) = (  -0.0404061  -0.2424366   0.3232488), wk =   0.0022391
        k(  665) = (  -0.0202031  -0.2222336   0.3030458), wk =   0.0022391
        k(  666) = (   0.0000000  -0.2020305   0.2828427), wk =   0.0011195
        k(  667) = (   0.3232488   0.0808122  -0.0000000), wk =   0.0011195
        k(  668) = (   0.3434519   0.1010153  -0.0202031), wk =   0.0022391
        k(  669) = (   0.3636549   0.1212183  -0.0404061), wk =   0.0022391
        k(  670) = (   0.3838580   0.1414214  -0.0606092), wk =   0.0022391
        k(  671) = (   0.4040610   0.1616244  -0.0808122), wk =   0.0022391
        k(  672) = (   0.4242641   0.1818275  -0.1010153), wk =   0.0022391
        k(  673) = (   0.4444671   0.2020305  -0.1212183), wk =   0.0022391
        k(  674) = (   0.4646702   0.2222336  -0.1414214), wk =   0.0022391
        k(  675) = (  -0.2222336  -0.4646702   0.5454824), wk =   0.0022391
        k(  676) = (  -0.2020305  -0.4444671   0.5252793), wk =   0.0022391
        k(  677) = (  -0.1818275  -0.4242641   0.5050763), wk =   0.0022391
        k(  678) = (  -0.1616244  -0.4040610   0.4848732), wk =   0.0022391
        k(  679) = (  -0.1414214  -0.3838580   0.4646702), wk =   0.0022391
        k(  680) = (  -0.1212183  -0.3636549   0.4444671), wk =   0.0022391
        k(  681) = (  -0.1010153  -0.3434519   0.4242641), wk =   0.0022391
        k(  682) = (  -0.0808122  -0.3232488   0.4040610), wk =   0.0022391
        k(  683) = (  -0.0606092  -0.3030458   0.3838580), wk =   0.0022391
        k(  684) = (  -0.0404061  -0.2828427   0.3636549), wk =   0.0022391
        k(  685) = (  -0.0202031  -0.2626397   0.3434519), wk =   0.0022391
        k(  686) = (   0.0000000  -0.2424366   0.3232488), wk =   0.0011195
        k(  687) = (   0.3636549   0.0808122  -0.0000000), wk =   0.0011195
        k(  688) = (   0.3838580   0.1010153  -0.0202031), wk =   0.0022391
        k(  689) = (   0.4040610   0.1212183  -0.0404061), wk =   0.0022391
        k(  690) = (   0.4242641   0.1414214  -0.0606092), wk =   0.0022391
        k(  691) = (   0.4444671   0.1616244  -0.0808122), wk =   0.0022391
        k(  692) = (   0.4646702   0.1818275  -0.1010153), wk =   0.0022391
        k(  693) = (   0.4848732   0.2020305  -0.1212183), wk =   0.0022391
        k(  694) = (  -0.2020305  -0.4848732   0.5656854), wk =   0.0022391
        k(  695) = (  -0.1818275  -0.4646702   0.5454824), wk =   0.0022391
        k(  696) = (  -0.1616244  -0.4444671   0.5252793), wk =   0.0022391
        k(  697) = (  -0.1414214  -0.4242641   0.5050763), wk =   0.0022391
        k(  698) = (  -0.1212183  -0.4040610   0.4848732), wk =   0.0022391
        k(  699) = (  -0.1010153  -0.3838580   0.4646702), wk =   0.0022391
        k(  700) = (  -0.0808122  -0.3636549   0.4444671), wk =   0.0022391
        k(  701) = (  -0.0606092  -0.3434519   0.4242641), wk =   0.0022391
        k(  702) = (  -0.0404061  -0.3232488   0.4040610), wk =   0.0022391
        k(  703) = (  -0.0202031  -0.3030458   0.3838580), wk =   0.0022391
        k(  704) = (   0.0000000  -0.2828427   0.3636549), wk =   0.0011195
        k(  705) = (   0.4040610   0.0808122   0.0000000), wk =   0.0011195
        k(  706) = (   0.4242641   0.1010153  -0.0202031), wk =   0.0022391
        k(  707) = (   0.4444671   0.1212183  -0.0404061), wk =   0.0022391
        k(  708) = (   0.4646702   0.1414214  -0.0606092), wk =   0.0022391
        k(  709) = (   0.4848732   0.1616244  -0.0808122), wk =   0.0022391
        k(  710) = (   0.5050763   0.1818275  -0.1010153), wk =   0.0022391
        k(  711) = (  -0.1818275  -0.5050763   0.5858885), wk =   0.0022391
        k(  712) = (  -0.1616244  -0.4848732   0.5656854), wk =   0.0022391
        k(  713) = (  -0.1414214  -0.4646702   0.5454824), wk =   0.0022391
        k(  714) = (  -0.1212183  -0.4444671   0.5252793), wk =   0.0022391
        k(  715) = (  -0.1010153  -0.4242641   0.5050763), wk =   0.0022391
        k(  716) = (  -0.0808122  -0.4040610   0.4848732), wk =   0.0022391
        k(  717) = (  -0.0606092  -0.3838580   0.4646702), wk =   0.0022391
        k(  718) = (  -0.0404061  -0.3636549   0.4444671), wk =   0.0022391
        k(  719) = (  -0.0202031  -0.3434519   0.4242641), wk =   0.0022391
        k(  720) = (   0.0000000  -0.3232488   0.4040610), wk =   0.0011195
        k(  721) = (   0.4444671   0.0808122   0.0000000), wk =   0.0011195
        k(  722) = (   0.4646702   0.1010153  -0.0202031), wk =   0.0022391
        k(  723) = (   0.4848732   0.1212183  -0.0404061), wk =   0.0022391
        k(  724) = (   0.5050763   0.1414214  -0.0606092), wk =   0.0022391
        k(  725) = (   0.5252793   0.1616244  -0.0808122), wk =   0.0022391
        k(  726) = (  -0.1616244  -0.5252793   0.6060915), wk =   0.0022391
        k(  727) = (  -0.1414214  -0.5050763   0.5858885), wk =   0.0022391
        k(  728) = (  -0.1212183  -0.4848732   0.5656854), wk =   0.0022391
        k(  729) = (  -0.1010153  -0.4646702   0.5454824), wk =   0.0022391
        k(  730) = (  -0.0808122  -0.4444671   0.5252793), wk =   0.0022391
        k(  731) = (  -0.0606092  -0.4242641   0.5050763), wk =   0.0022391
        k(  732) = (  -0.0404061  -0.4040610   0.4848732), wk =   0.0022391
        k(  733) = (  -0.0202031  -0.3838580   0.4646702), wk =   0.0022391
        k(  734) = (   0.0000000  -0.3636549   0.4444671), wk =   0.0011195
        k(  735) = (   0.4848732   0.0808122  -0.0000000), wk =   0.0011195
        k(  736) = (   0.5050763   0.1010153  -0.0202031), wk =   0.0022391
        k(  737) = (   0.5252793   0.1212183  -0.0404061), wk =   0.0022391
        k(  738) = (   0.5454824   0.1414214  -0.0606092), wk =   0.0022391
        k(  739) = (  -0.1414214  -0.5454824   0.6262946), wk =   0.0022391
        k(  740) = (  -0.1212183  -0.5252793   0.6060915), wk =   0.0022391
        k(  741) = (  -0.1010153  -0.5050763   0.5858885), wk =   0.0022391
        k(  742) = (  -0.0808122  -0.4848732   0.5656854), wk =   0.0022391
        k(  743) = (  -0.0606092  -0.4646702   0.5454824), wk =   0.0022391
        k(  744) = (  -0.0404061  -0.4444671   0.5252793), wk =   0.0022391
        k(  745) = (  -0.0202031  -0.4242641   0.5050763), wk =   0.0022391
        k(  746) = (   0.0000000  -0.4040610   0.4848732), wk =   0.0011195
        k(  747) = (   0.5252793   0.0808122   0.0000000), wk =   0.0011195
        k(  748) = (   0.5454824   0.1010153  -0.0202031), wk =   0.0022391
        k(  749) = (   0.5656854   0.1212183  -0.0404061), wk =   0.0022391
        k(  750) = (  -0.1212183  -0.5656854   0.6464976), wk =   0.0022391
        k(  751) = (  -0.1010153  -0.5454824   0.6262946), wk =   0.0022391
        k(  752) = (  -0.0808122  -0.5252793   0.6060915), wk =   0.0022391
        k(  753) = (  -0.0606092  -0.5050763   0.5858885), wk =   0.0022391
        k(  754) = (  -0.0404061  -0.4848732   0.5656854), wk =   0.0022391
        k(  755) = (  -0.0202031  -0.4646702   0.5454824), wk =   0.0022391
        k(  756) = (   0.0000000  -0.4444671   0.5252793), wk =   0.0011195
        k(  757) = (   0.5656854   0.0808122   0.0000000), wk =   0.0011195
        k(  758) = (   0.5858885   0.1010153  -0.0202031), wk =   0.0022391
        k(  759) = (  -0.1010153  -0.5858885   0.6667007), wk =   0.0022391
        k(  760) = (  -0.0808122  -0.5656854   0.6464976), wk =   0.0022391
        k(  761) = (  -0.0606092  -0.5454824   0.6262946), wk =   0.0022391
        k(  762) = (  -0.0404061  -0.5252793   0.6060915), wk =   0.0022391
        k(  763) = (  -0.0202031  -0.5050763   0.5858885), wk =   0.0022391
        k(  764) = (   0.0000000  -0.4848732   0.5656854), wk =   0.0011195
        k(  765) = (   0.6060915   0.0808122   0.0000000), wk =   0.0011195
        k(  766) = (  -0.0808122  -0.6060915   0.6869037), wk =   0.0022391
        k(  767) = (  -0.0606092  -0.5858885   0.6667007), wk =   0.0022391
        k(  768) = (  -0.0404061  -0.5656854   0.6464976), wk =   0.0022391
        k(  769) = (  -0.0202031  -0.5454824   0.6262946), wk =   0.0022391
        k(  770) = (   0.0000000  -0.5252793   0.6060915), wk =   0.0011195
        k(  771) = (  -0.0606092  -0.6262946   0.7071068), wk =   0.0011195
        k(  772) = (  -0.0404061  -0.6060915   0.6869037), wk =   0.0022391
        k(  773) = (  -0.0202031  -0.5858885   0.6667007), wk =   0.0022391
        k(  774) = (  -0.0000000  -0.5656854   0.6464976), wk =   0.0011195
        k(  775) = (  -0.0202031  -0.6262946   0.7071068), wk =   0.0011195
        k(  776) = (   0.0000000  -0.6060915   0.6869037), wk =   0.0011195
        k(  777) = (   0.2424366   0.1212183   0.0000000), wk =   0.0011195
        k(  778) = (   0.2626397   0.1414214  -0.0202031), wk =   0.0022391
        k(  779) = (   0.2828427   0.1616244  -0.0404061), wk =   0.0022391
        k(  780) = (   0.3030458   0.1818275  -0.0606092), wk =   0.0022391
        k(  781) = (   0.3232488   0.2020305  -0.0808122), wk =   0.0022391
        k(  782) = (   0.3434519   0.2222336  -0.1010153), wk =   0.0022391
        k(  783) = (   0.3636549   0.2424366  -0.1212183), wk =   0.0022391
        k(  784) = (   0.3838580   0.2626397  -0.1414214), wk =   0.0022391
        k(  785) = (   0.4040610   0.2828427  -0.1616244), wk =   0.0022391
        k(  786) = (  -0.2828427  -0.4040610   0.5252793), wk =   0.0022391
        k(  787) = (  -0.2626397  -0.3838580   0.5050763), wk =   0.0022391
        k(  788) = (  -0.2424366  -0.3636549   0.4848732), wk =   0.0022391
        k(  789) = (   0.2828427   0.1212183   0.0000000), wk =   0.0011195
        k(  790) = (   0.3030458   0.1414214  -0.0202031), wk =   0.0022391
        k(  791) = (   0.3232488   0.1616244  -0.0404061), wk =   0.0022391
        k(  792) = (   0.3434519   0.1818275  -0.0606092), wk =   0.0022391
        k(  793) = (   0.3636549   0.2020305  -0.0808122), wk =   0.0022391
        k(  794) = (   0.3838580   0.2222336  -0.1010153), wk =   0.0022391
        k(  795) = (   0.4040610   0.2424366  -0.1212183), wk =   0.0022391
        k(  796) = (   0.4242641   0.2626397  -0.1414214), wk =   0.0022391
        k(  797) = (  -0.2626397  -0.4242641   0.5454824), wk =   0.0022391
        k(  798) = (  -0.2424366  -0.4040610   0.5252793), wk =   0.0022391
        k(  799) = (  -0.2222336  -0.3838580   0.5050763), wk =   0.0022391
        k(  800) = (  -0.2020305  -0.3636549   0.4848732), wk =   0.0022391
        k(  801) = (  -0.1818275  -0.3434519   0.4646702), wk =   0.0022391
        k(  802) = (  -0.1616244  -0.3232488   0.4444671), wk =   0.0022391
        k(  803) = (  -0.1414214  -0.3030458   0.4242641), wk =   0.0022391
        k(  804) = (  -0.1212183  -0.2828427   0.4040610), wk =   0.0022391
        k(  805) = (  -0.1010153  -0.2626397   0.3838580), wk =   0.0022391
        k(  806) = (  -0.0808122  -0.2424366   0.3636549), wk =   0.0022391
        k(  807) = (  -0.0606092  -0.2222336   0.3434519), wk =   0.0022391
        k(  808) = (  -0.0404061  -0.2020305   0.3232488), wk =   0.0022391
        k(  809) = (  -0.0202031  -0.1818275   0.3030458), wk =   0.0022391
        k(  810) = (  -0.0000000  -0.1616244   0.2828427), wk =   0.0011195
        k(  811) = (   0.3232488   0.1212183  -0.0000000), wk =   0.0011195
        k(  812) = (   0.3434519   0.1414214  -0.0202031), wk =   0.0022391
        k(  813) = (   0.3636549   0.1616244  -0.0404061), wk =   0.0022391
        k(  814) = (   0.3838580   0.1818275  -0.0606092), wk =   0.0022391
        k(  815) = (   0.4040610   0.2020305  -0.0808122), wk =   0.0022391
        k(  816) = (   0.4242641   0.2222336  -0.1010153), wk =   0.0022391
        k(  817) = (   0.4444671   0.2424366  -0.1212183), wk =   0.0022391
        k(  818) = (  -0.2424366  -0.4444671   0.5656854), wk =   0.0022391
        k(  819) = (  -0.2222336  -0.4242641   0.5454824), wk =   0.0022391
        k(  820) = (  -0.2020305  -0.4040610   0.5252793), wk =   0.0022391
        k(  821) = (  -0.1818275  -0.3838580   0.5050763), wk =   0.0022391
        k(  822) = (  -0.1616244  -0.3636549   0.4848732), wk =   0.0022391
        k(  823) = (  -0.1414214  -0.3434519   0.4646702), wk =   0.0022391
        k(  824) = (  -0.1212183  -0.3232488   0.4444671), wk =   0.0022391
        k(  825) = (  -0.1010153  -0.3030458   0.4242641), wk =   0.0022391
        k(  826) = (  -0.0808122  -0.2828427   0.4040610), wk =   0.0022391
        k(  827) = (  -0.0606092  -0.2626397   0.3838580), wk =   0.0022391
        k(  828) = (  -0.0404061  -0.2424366   0.3636549), wk =   0.0022391
        k(  829) = (  -0.0202031  -0.2222336   0.3434519), wk =   0.0022391
        k(  830) = (  -0.0000000  -0.2020305   0.3232488), wk =   0.0011195
        k(  831) = (   0.3636549   0.1212183   0.0000000), wk =   0.0011195
        k(  832) = (   0.3838580   0.1414214  -0.0202031), wk =   0.0022391
        k(  833) = (   0.4040610   0.1616244  -0.0404061), wk =   0.0022391
        k(  834) = (   0.4242641   0.1818275  -0.0606092), wk =   0.0022391
        k(  835) = (   0.4444671   0.2020305  -0.0808122), wk =   0.0022391
        k(  836) = (   0.4646702   0.2222336  -0.1010153), wk =   0.0022391
        k(  837) = (  -0.2222336  -0.4646702   0.5858885), wk =   0.0022391
        k(  838) = (  -0.2020305  -0.4444671   0.5656854), wk =   0.0022391
        k(  839) = (  -0.1818275  -0.4242641   0.5454824), wk =   0.0022391
        k(  840) = (  -0.1616244  -0.4040610   0.5252793), wk =   0.0022391
        k(  841) = (  -0.1414214  -0.3838580   0.5050763), wk =   0.0022391
        k(  842) = (  -0.1212183  -0.3636549   0.4848732), wk =   0.0022391
        k(  843) = (  -0.1010153  -0.3434519   0.4646702), wk =   0.0022391
        k(  844) = (  -0.0808122  -0.3232488   0.4444671), wk =   0.0022391
        k(  845) = (  -0.0606092  -0.3030458   0.4242641), wk =   0.0022391
        k(  846) = (  -0.0404061  -0.2828427   0.4040610), wk =   0.0022391
        k(  847) = (  -0.0202031  -0.2626397   0.3838580), wk =   0.0022391
        k(  848) = (   0.0000000  -0.2424366   0.3636549), wk =   0.0011195
        k(  849) = (   0.4040610   0.1212183   0.0000000), wk =   0.0011195
        k(  850) = (   0.4242641   0.1414214  -0.0202031), wk =   0.0022391
        k(  851) = (   0.4444671   0.1616244  -0.0404061), wk =   0.0022391
        k(  852) = (   0.4646702   0.1818275  -0.0606092), wk =   0.0022391
        k(  853) = (   0.4848732   0.2020305  -0.0808122), wk =   0.0022391
        k(  854) = (  -0.2020305  -0.4848732   0.6060915), wk =   0.0022391
        k(  855) = (  -0.1818275  -0.4646702   0.5858885), wk =   0.0022391
        k(  856) = (  -0.1616244  -0.4444671   0.5656854), wk =   0.0022391
        k(  857) = (  -0.1414214  -0.4242641   0.5454824), wk =   0.0022391
        k(  858) = (  -0.1212183  -0.4040610   0.5252793), wk =   0.0022391
        k(  859) = (  -0.1010153  -0.3838580   0.5050763), wk =   0.0022391
        k(  860) = (  -0.0808122  -0.3636549   0.4848732), wk =   0.0022391
        k(  861) = (  -0.0606092  -0.3434519   0.4646702), wk =   0.0022391
        k(  862) = (  -0.0404061  -0.3232488   0.4444671), wk =   0.0022391
        k(  863) = (  -0.0202031  -0.3030458   0.4242641), wk =   0.0022391
        k(  864) = (   0.0000000  -0.2828427   0.4040610), wk =   0.0011195
        k(  865) = (   0.4444671   0.1212183  -0.0000000), wk =   0.0011195
        k(  866) = (   0.4646702   0.1414214  -0.0202031), wk =   0.0022391
        k(  867) = (   0.4848732   0.1616244  -0.0404061), wk =   0.0022391
        k(  868) = (   0.5050763   0.1818275  -0.0606092), wk =   0.0022391
        k(  869) = (  -0.1818275  -0.5050763   0.6262946), wk =   0.0022391
[...]
    12.9547  14.3173

     occupation numbers 
     1.0000   1.0000   1.0000   1.0000   1.0000   1.0000   1.0000   1.0000
     1.0000   1.0000   1.0000   1.0000   1.0000   1.0000   0.0000   0.0000
     0.0000   0.0000

          k =-0.1212-0.4445 0.6869 ( 23814 PWs)   bands (ev):

   -12.4203 -12.4156 -12.3056 -12.2456 -12.2416 -12.2102 -12.1853 -12.1600
   -12.0507 -12.0465  -0.3634   1.0048   5.8018   6.3320  10.5951  11.0506
    12.9133  14.1534

     occupation numbers 
     1.0000   1.0000   1.0000   1.0000   1.0000   1.0000   1.0000   1.0000
     1.0000   1.0000   1.0000   1.0000   1.0000   1.0000   0.0000   0.0000
     0.0000   0.0000

          k =-0.1010-0.4243 0.6667 ( 23828 PWs)   bands (ev):

   -12.4220 -12.4162 -12.2998 -12.2471 -12.2374 -12.2089 -12.1907 -12.1646
   -12.0500 -12.0445  -0.2510   0.8767   5.7488   6.2870  10.6153  11.3065
    12.8997  13.9166

     occupation numbers 
     1.0000   1.0000   1.0000   1.0000   1.0000   1.0000   1.0000   1.0000
     1.0000   1.0000   1.0000   1.0000   1.0000   1.0000   0.0000   0.0000
     0.0000   0.0000

          k =-0.0808-0.4041 0.6465 ( 23831 PWs)   bands (ev):

   -12.4232 -12.4165 -12.2957 -12.2471 -12.2338 -12.2097 -12.1947 -12.1676
   -12.0496 -12.0430  -0.1696   0.7863   5.7047   6.2691  10.6239  11.5394
    12.9232  13.6542

     occupation numbers 
     1.0000   1.0000   1.0000   1.0000   1.0000   1.0000   1.0000   1.0000
     1.0000   1.0000   1.0000   1.0000   1.0000   1.0000   0.0000   0.0000
     0.0000   0.0000

          k =-0.0606-0.3839 0.6263 ( 23835 PWs)   bands (ev):

   -12.4239 -12.4165 -12.2941 -12.2456 -12.2321 -12.2115 -12.1967 -12.1688
   -12.0495 -12.0423  -0.1419   0.7563   5.6717   6.2781  10.6261  11.7055
    12.9695  13.4376

     occupation numbers 
     1.0000   1.0000   1.0000   1.0000   1.0000   1.0000   1.0000   1.0000
     1.0000   1.0000   1.0000   1.0000   1.0000   1.0000   0.0000   0.0000
     0.0000   0.0000

          k =-0.0404-0.3637 0.6061 ( 23826 PWs)   bands (ev):

   -12.4241 -12.4163 -12.2948 -12.2427 -12.2340 -12.2124 -12.1967 -12.1681
   -12.0497 -12.0422  -0.1785   0.7971   5.6532   6.3120  10.6199  11.7720
    12.9329  13.4143

     occupation numbers 
     1.0000   1.0000   1.0000   1.0000   1.0000   1.0000   1.0000   1.0000
     1.0000   1.0000   1.0000   1.0000   1.0000   1.0000   0.0000   0.0000
     0.0000   0.0000

          k =-0.0202-0.3435 0.5859 ( 23822 PWs)   bands (ev):

   -12.4237 -12.4158 -12.2977 -12.2406 -12.2369 -12.2139 -12.1936 -12.1661
   -12.0502 -12.0428  -0.2651   0.8941   5.6523   6.3679  10.5992  11.7319
    12.8229  13.5828

     occupation numbers 
     1.0000   1.0000   1.0000   1.0000   1.0000   1.0000   1.0000   1.0000
     1.0000   1.0000   1.0000   1.0000   1.0000   1.0000   0.0000   0.0000
     0.0000   0.0000

          k = 0.0000-0.3232 0.5657 ( 23825 PWs)   bands (ev):

   -12.4228 -12.4150 -12.3021 -12.2448 -12.2337 -12.2172 -12.1877 -12.1631
   -12.0510 -12.0440  -0.3790   1.0241   5.6717   6.4419  10.5538  11.6134
    12.7547  13.7916

     occupation numbers 
     1.0000   1.0000   1.0000   1.0000   1.0000   1.0000   1.0000   1.0000
     1.0000   1.0000   1.0000   1.0000   1.0000   1.0000   0.0000   0.0000
     0.0000   0.0000

          k =-0.1010-0.4647 0.7071 ( 23812 PWs)   bands (ev):

   -12.4194 -12.4163 -12.3044 -12.2544 -12.2369 -12.2033 -12.1889 -12.1604
   -12.0498 -12.0473  -0.2760   0.9028   5.8604   6.2467  10.6131  10.7870
    13.1248  14.2518

     occupation numbers 
     1.0000   1.0000   1.0000   1.0000   1.0000   1.0000   1.0000   1.0000
     1.0000   1.0000   1.0000   1.0000   1.0000   1.0000   0.0000   0.0000
     0.0000   0.0000

          k =-0.0808-0.4445 0.6869 ( 23823 PWs)   bands (ev):

   -12.4210 -12.4173 -12.2973 -12.2564 -12.2327 -12.2012 -12.1945 -12.1664
   -12.0489 -12.0454  -0.1537   0.7678   5.8140   6.1863  10.6689  11.0302
    13.0756  13.9985

     occupation numbers 
     1.0000   1.0000   1.0000   1.0000   1.0000   1.0000   1.0000   1.0000
     1.0000   1.0000   1.0000   1.0000   1.0000   1.0000   0.0000   0.0000
     0.0000   0.0000

          k =-0.0606-0.4243 0.6667 ( 23833 PWs)   bands (ev):

   -12.4224 -12.4176 -12.2920 -12.2566 -12.2290 -12.2026 -12.1978 -12.1706
   -12.0485 -12.0438  -0.0566   0.6637   5.7640   6.1631  10.6823  11.3104
    13.0464  13.7128

     occupation numbers 
     1.0000   1.0000   1.0000   1.0000   1.0000   1.0000   1.0000   1.0000
     1.0000   1.0000   1.0000   1.0000   1.0000   1.0000   0.0000   0.0000
     0.0000   0.0000

          k =-0.0404-0.4041 0.6465 ( 23834 PWs)   bands (ev):

   -12.4235 -12.4176 -12.2896 -12.2543 -12.2271 -12.2059 -12.1996 -12.1722
   -12.0484 -12.0426  -0.0156   0.6212   5.7152   6.1757  10.6864  11.5615
    13.0370  13.4490

     occupation numbers 
     1.0000   1.0000   1.0000   1.0000   1.0000   1.0000   1.0000   1.0000
     1.0000   1.0000   1.0000   1.0000   1.0000   1.0000   0.0000   0.0000
     0.0000   0.0000

          k =-0.0202-0.3839 0.6263 ( 23830 PWs)   bands (ev):

   -12.4241 -12.4173 -12.2902 -12.2497 -12.2291 -12.2064 -12.2020 -12.1715
   -12.0487 -12.0420  -0.0526   0.6616   5.6760   6.2180  10.6799  11.7353
    12.9968  13.3159

     occupation numbers 
     1.0000   1.0000   1.0000   1.0000   1.0000   1.0000   1.0000   1.0000
     1.0000   1.0000   1.0000   1.0000   1.0000   1.0000   0.0000   0.0000
     0.0000   0.0000

          k = 0.0000-0.3637 0.6061 ( 23837 PWs)   bands (ev):

   -12.4241 -12.4167 -12.2932 -12.2438 -12.2339 -12.2090 -12.1996 -12.1692
   -12.0493 -12.0421  -0.1461   0.7631   5.6535   6.2837  10.6549  11.7894
    12.8902  13.3986

     occupation numbers 
     1.0000   1.0000   1.0000   1.0000   1.0000   1.0000   1.0000   1.0000
     1.0000   1.0000   1.0000   1.0000   1.0000   1.0000   0.0000   0.0000
     0.0000   0.0000

          k =-0.0606-0.4647 0.7071 ( 23825 PWs)   bands (ev):

   -12.4198 -12.4179 -12.2956 -12.2655 -12.2274 -12.1984 -12.1938 -12.1678
   -12.0482 -12.0466  -0.0536   0.6558   5.8844   6.1170  10.6648  10.7532
    13.3405  14.0755

     occupation numbers 
     1.0000   1.0000   1.0000   1.0000   1.0000   1.0000   1.0000   1.0000
     1.0000   1.0000   1.0000   1.0000   1.0000   1.0000   0.0000   0.0000
     0.0000   0.0000

          k =-0.0404-0.4445 0.6869 ( 23839 PWs)   bands (ev):

   -12.4211 -12.4185 -12.2887 -12.2666 -12.2235 -12.2041 -12.1923 -12.1734
   -12.0476 -12.0450   0.0601   0.5377   5.8460   6.0734  10.7059  11.0223
    13.2847  13.7746

     occupation numbers 
     1.0000   1.0000   1.0000   1.0000   1.0000   1.0000   1.0000   1.0000
     1.0000   1.0000   1.0000   1.0000   1.0000   1.0000   0.0000   0.0000
     0.0000   0.0000

          k =-0.0202-0.4243 0.6667 ( 23837 PWs)   bands (ev):

   -12.4225 -12.4184 -12.2856 -12.2640 -12.2212 -12.2082 -12.1941 -12.1756
   -12.0476 -12.0435   0.1126   0.4854   5.7835   6.0887  10.7117  11.3163
    13.2377  13.4831

     occupation numbers 
     1.0000   1.0000   1.0000   1.0000   1.0000   1.0000   1.0000   1.0000
     1.0000   1.0000   1.0000   1.0000   1.0000   1.0000   0.0000   0.0000
     0.0000   0.0000

          k =-0.0000-0.4041 0.6465 ( 23836 PWs)   bands (ev):

   -12.4235 -12.4180 -12.2868 -12.2575 -12.2236 -12.2075 -12.1991 -12.1743
   -12.0480 -12.0425   0.0585   0.5434   5.7216   6.1415  10.7059  11.5716
    13.1450  13.3060

     occupation numbers 
     1.0000   1.0000   1.0000   1.0000   1.0000   1.0000   1.0000   1.0000
     1.0000   1.0000   1.0000   1.0000   1.0000   1.0000   0.0000   0.0000
     0.0000   0.0000

          k =-0.0202-0.4647 0.7071 ( 23824 PWs)   bands (ev):

   -12.4196 -12.4190 -12.2861 -12.2760 -12.2178 -12.2081 -12.1846 -12.1759
   -12.0471 -12.0465   0.1765   0.4134   5.9353   6.0129  10.6989  10.7257
    13.5859  13.8401

     occupation numbers 
     1.0000   1.0000   1.0000   1.0000   1.0000   1.0000   1.0000   1.0000
     1.0000   1.0000   1.0000   1.0000   1.0000   1.0000   0.0000   0.0000
     0.0000   0.0000

          k = 0.0000-0.4445 0.6869 ( 23826 PWs)   bands (ev):

   -12.4211 -12.4190 -12.2826 -12.2733 -12.2158 -12.2117 -12.1868 -12.1784
   -12.0470 -12.0449   0.2260   0.3664   5.8711   6.0212  10.7165  11.0207
    13.5040  13.5473

     occupation numbers 
     1.0000   1.0000   1.0000   1.0000   1.0000   1.0000   1.0000   1.0000
     1.0000   1.0000   1.0000   1.0000   1.0000   1.0000   0.0000   0.0000
     0.0000   0.0000

          k =-0.1414-0.4243 0.7071 ( 23797 PWs)   bands (ev):

   -12.4208 -12.4150 -12.3063 -12.2461 -12.2377 -12.2156 -12.1827 -12.1599
   -12.0511 -12.0462  -0.4368   1.0919   5.7568   6.4152  10.6026  11.2259
    12.7753  14.0635

     occupation numbers 
     1.0000   1.0000   1.0000   1.0000   1.0000   1.0000   1.0000   1.0000
     1.0000   1.0000   1.0000   1.0000   1.0000   1.0000   0.0000   0.0000
     0.0000   0.0000

          k =-0.1212-0.4041 0.6869 ( 23823 PWs)   bands (ev):

   -12.4222 -12.4160 -12.3004 -12.2424 -12.2398 -12.2126 -12.1890 -12.1644
   -12.0501 -12.0444  -0.3159   0.9519   5.7158   6.3427  10.6703  11.4052
    12.7804  13.8561

     occupation numbers 
     1.0000   1.0000   1.0000   1.0000   1.0000   1.0000   1.0000   1.0000
     1.0000   1.0000   1.0000   1.0000   1.0000   1.0000   0.0000   0.0000
     0.0000   0.0000

          k =-0.1010-0.3839 0.6667 ( 23830 PWs)   bands (ev):

   -12.4233 -12.4165 -12.2959 -12.2438 -12.2363 -12.2113 -12.1938 -12.1676
   -12.0495 -12.0431  -0.2150   0.8380   5.6899   6.2912  10.7018  11.5710
    12.8345  13.6135

     occupation numbers 
     1.0000   1.0000   1.0000   1.0000   1.0000   1.0000   1.0000   1.0000
     1.0000   1.0000   1.0000   1.0000   1.0000   1.0000   0.0000   0.0000
     0.0000   0.0000

          k =-0.0808-0.3637 0.6465 ( 23841 PWs)   bands (ev):

   -12.4238 -12.4168 -12.2935 -12.2450 -12.2331 -12.2117 -12.1961 -12.1694
   -12.0492 -12.0424  -0.1543   0.7708   5.6774   6.2643  10.7141  11.6692
    12.9213  13.4146

     occupation numbers 
     1.0000   1.0000   1.0000   1.0000   1.0000   1.0000   1.0000   1.0000
     1.0000   1.0000   1.0000   1.0000   1.0000   1.0000   0.0000   0.0000
     0.0000   0.0000

          k =-0.1010-0.4243 0.7071 ( 23824 PWs)   bands (ev):

   -12.4215 -12.4170 -12.2984 -12.2489 -12.2374 -12.2064 -12.1917 -12.1658
   -12.0490 -12.0451  -0.2357   0.8612   5.7689   6.2430  10.7596  11.1642
    12.8759  13.9293

     occupation numbers 
     1.0000   1.0000   1.0000   1.0000   1.0000   1.0000   1.0000   1.0000
     1.0000   1.0000   1.0000   1.0000   1.0000   1.0000   0.0000   0.0000
     0.0000   0.0000

          k =-0.0808-0.4041 0.6869 ( 23833 PWs)   bands (ev):

   -12.4225 -12.4179 -12.2923 -12.2515 -12.2330 -12.2042 -12.1972 -12.1705
   -12.0481 -12.0438  -0.1210   0.7358   5.7447   6.1787  10.8349  11.3491
    12.8690  13.6613

     occupation numbers 
     1.0000   1.0000   1.0000   1.0000   1.0000   1.0000   1.0000   1.0000
     1.0000   1.0000   1.0000   1.0000   1.0000   1.0000   0.0000   0.0000
     0.0000   0.0000

          k =-0.0606-0.3839 0.6667 ( 23838 PWs)   bands (ev):

   -12.4233 -12.4183 -12.2884 -12.2527 -12.2295 -12.2056 -12.1993 -12.1733
   -12.0477 -12.0429  -0.0408   0.6499   5.7251   6.1470  10.8603  11.5282
    12.8985  13.4096

     occupation numbers 
     1.0000   1.0000   1.0000   1.0000   1.0000   1.0000   1.0000   1.0000
     1.0000   1.0000   1.0000   1.0000   1.0000   1.0000   0.0000   0.0000
     0.0000   0.0000

          k =-0.0404-0.3637 0.6465 ( 23846 PWs)   bands (ev):

   -12.4236 -12.4183 -12.2875 -12.2518 -12.2289 -12.2068 -12.2000 -12.1739
   -12.0477 -12.0425  -0.0269   0.6355   5.7084   6.1515  10.8609  11.6287
    12.9186  13.2817

     occupation numbers 
     1.0000   1.0000   1.0000   1.0000   1.0000   1.0000   1.0000   1.0000
     1.0000   1.0000   1.0000   1.0000   1.0000   1.0000   0.0000   0.0000
     0.0000   0.0000

          k =-0.0202-0.3435 0.6263 ( 23838 PWs)   bands (ev):

   -12.4236 -12.4179 -12.2898 -12.2489 -12.2319 -12.2059 -12.2001 -12.1721
   -12.0481 -12.0426  -0.0870   0.7001   5.6979   6.1896  10.8382  11.6181
    12.8497  13.3914

     occupation numbers 
     1.0000   1.0000   1.0000   1.0000   1.0000   1.0000   1.0000   1.0000
     1.0000   1.0000   1.0000   1.0000   1.0000   1.0000   0.0000   0.0000
     0.0000   0.0000

          k = 0.0000-0.3232 0.6061 ( 23827 PWs)   bands (ev):

   -12.4231 -12.4171 -12.2944 -12.2449 -12.2366 -12.2084 -12.1956 -12.1688
   -12.0488 -12.0433  -0.1921   0.8144   5.6988   6.2555  10.7807  11.5220
    12.7907  13.6180

     occupation numbers 
     1.0000   1.0000   1.0000   1.0000   1.0000   1.0000   1.0000   1.0000
     1.0000   1.0000   1.0000   1.0000   1.0000   1.0000   0.0000   0.0000
     0.0000   0.0000

          k =-0.0606-0.4243 0.7071 ( 23833 PWs)   bands (ev):

   -12.4215 -12.4188 -12.2897 -12.2598 -12.2284 -12.2008 -12.1974 -12.1727
   -12.0472 -12.0447  -0.0271   0.6331   5.8088   6.0947  10.8818  11.1060
    13.0322  13.7148

     occupation numbers 
     1.0000   1.0000   1.0000   1.0000   1.0000   1.0000   1.0000   1.0000
     1.0000   1.0000   1.0000   1.0000   1.0000   1.0000   0.0000   0.0000
     0.0000   0.0000

          k =-0.0404-0.4041 0.6869 ( 23844 PWs)   bands (ev):

   -12.4223 -12.4194 -12.2838 -12.2616 -12.2245 -12.2063 -12.1953 -12.1772
   -12.0465 -12.0438   0.0753   0.5269   5.7958   6.0455  10.9494  11.3046
    13.0115  13.4317

     occupation numbers 
     1.0000   1.0000   1.0000   1.0000   1.0000   1.0000   1.0000   1.0000
     1.0000   1.0000   1.0000   1.0000   1.0000   1.0000   0.0000   0.0000
     0.0000   0.0000

          k =-0.0202-0.3839 0.6667 ( 23845 PWs)   bands (ev):

   -12.4230 -12.4194 -12.2822 -12.2600 -12.2234 -12.2088 -12.1964 -12.1782
   -12.0466 -12.0430   0.1021   0.5002   5.7634   6.0536  10.9502  11.5030
    13.0011  13.2223

     occupation numbers 
     1.0000   1.0000   1.0000   1.0000   1.0000   1.0000   1.0000   1.0000
     1.0000   1.0000   1.0000   1.0000   1.0000   1.0000   0.0000   0.0000
     0.0000   0.0000

          k =-0.0000-0.3637 0.6465 ( 23842 PWs)   bands (ev):

   -12.4235 -12.4188 -12.2848 -12.2550 -12.2268 -12.2062 -12.2003 -12.1759
   -12.0471 -12.0426   0.0296   0.5765   5.7251   6.1073  10.9165  11.6126
    12.9208  13.2279

     occupation numbers 
     1.0000   1.0000   1.0000   1.0000   1.0000   1.0000   1.0000   1.0000
     1.0000   1.0000   1.0000   1.0000   1.0000   1.0000   0.0000   0.0000
     0.0000   0.0000

          k =-0.0202-0.4243 0.7071 ( 23836 PWs)   bands (ev):

   -12.4211 -12.4201 -12.2803 -12.2703 -12.2192 -12.2100 -12.1887 -12.1804
   -12.0458 -12.0449   0.1880   0.4084   5.8766   5.9722  10.9739  11.0453
    13.2365  13.4721

     occupation numbers 
     1.0000   1.0000   1.0000   1.0000   1.0000   1.0000   1.0000   1.0000
     1.0000   1.0000   1.0000   1.0000   1.0000   1.0000   0.0000   0.0000
     0.0000   0.0000

          k =-0.0000-0.4041 0.6869 ( 23842 PWs)   bands (ev):

   -12.4220 -12.4201 -12.2779 -12.2681 -12.2181 -12.2127 -12.1902 -12.1818
   -12.0458 -12.0439   0.2181   0.3799   5.8364   5.9773  10.9930  11.2850
    13.1792  13.2315

     occupation numbers 
     1.0000   1.0000   1.0000   1.0000   1.0000   1.0000   1.0000   1.0000
     1.0000   1.0000   1.0000   1.0000   1.0000   1.0000   0.0000   0.0000
     0.0000   0.0000

          k =-0.0606-0.3839 0.7071 ( 23840 PWs)   bands (ev):

   -12.4228 -12.4191 -12.2858 -12.2559 -12.2284 -12.2036 -12.1996 -12.1755
   -12.0468 -12.0433   0.0009   0.6065   5.7547   6.0912  10.9858  11.4221
    12.8723  13.4005

     occupation numbers 
     1.0000   1.0000   1.0000   1.0000   1.0000   1.0000   1.0000   1.0000
     1.0000   1.0000   1.0000   1.0000   1.0000   1.0000   0.0000   0.0000
     0.0000   0.0000

          k =-0.0404-0.3637 0.6869 ( 23842 PWs)   bands (ev):

   -12.4230 -12.4197 -12.2814 -12.2591 -12.2246 -12.2082 -12.1967 -12.1787
   -12.0462 -12.0431   0.0895   0.5143   5.7676   6.0387  11.0513  11.4925
    12.9120  13.2034

     occupation numbers 
     1.0000   1.0000   1.0000   1.0000   1.0000   1.0000   1.0000   1.0000
     1.0000   1.0000   1.0000   1.0000   1.0000   1.0000   0.0000   0.0000
     0.0000   0.0000

          k =-0.0202-0.3839 0.7071 ( 23840 PWs)   bands (ev):

   -12.4220 -12.4207 -12.2764 -12.2664 -12.2201 -12.2118 -12.1911 -12.1830
   -12.0452 -12.0440   0.1990   0.4011   5.8392   5.9518  11.1611  11.3048
    13.0053  13.1865

     occupation numbers 
     1.0000   1.0000   1.0000   1.0000   1.0000   1.0000   1.0000   1.0000
     1.0000   1.0000   1.0000   1.0000   1.0000   1.0000   0.0000   0.0000
     0.0000   0.0000

          k = 0.0000-0.3637 0.6869 ( 23842 PWs)   bands (ev):

   -12.4223 -12.4207 -12.2756 -12.2656 -12.2198 -12.2129 -12.1916 -12.1834
   -12.0452 -12.0436   0.2091   0.3916   5.8255   5.9535  11.1703  11.4052
    12.9835  13.0854

     occupation numbers 
     1.0000   1.0000   1.0000   1.0000   1.0000   1.0000   1.0000   1.0000
     1.0000   1.0000   1.0000   1.0000   1.0000   1.0000   0.0000   0.0000
     0.0000   0.0000

     the Fermi energy is     8.2877 ev

!    total energy              =    -233.44841504 Ry
     Harris-Foulkes estimate   =    -233.44841520 Ry
     estimated scf accuracy    <       0.00000043 Ry

     The total energy is the sum of the following terms:

     one-electron contribution =     -95.31686466 Ry
     hartree contribution      =      58.35676120 Ry
     xc contribution           =     -28.70696995 Ry
     ewald contribution        =    -167.78134157 Ry
     smearing contrib. (-TS)   =      -0.00000006 Ry

     convergence has been achieved in   5 iterations

     Writing output data file Sn.save
 
     init_run     :     29.68s CPU     33.10s WALL (       1 calls)
     electrons    :    588.24s CPU    651.20s WALL (       1 calls)

     Called by init_run:
     wfcinit      :     29.07s CPU     32.36s WALL (       1 calls)
     potinit      :      0.04s CPU      0.06s WALL (       1 calls)

     Called by electrons:
     c_bands      :    516.74s CPU    573.13s WALL (       5 calls)
     sum_band     :     71.31s CPU     77.69s WALL (       5 calls)
     v_of_rho     :      0.17s CPU      0.24s WALL (       6 calls)
     v_h          :      0.01s CPU      0.03s WALL (       6 calls)
     v_xc         :      0.15s CPU      0.21s WALL (       6 calls)
     mix_rho      :      0.02s CPU      0.03s WALL (       5 calls)

     Called by c_bands:
     init_us_2    :      6.22s CPU      7.68s WALL (   12540 calls)
     cegterg      :    487.35s CPU    541.58s WALL (    5700 calls)

     Called by sum_band:

     Called by *egterg:
     h_psi        :    456.68s CPU    499.77s WALL (   24798 calls)
     g_psi        :      2.33s CPU      2.35s WALL (   17958 calls)
     cdiaghg      :     15.48s CPU     15.63s WALL (   23658 calls)
     cegterg:over :     14.48s CPU     14.72s WALL (   17958 calls)
     cegterg:upda :      9.12s CPU      9.19s WALL (   17958 calls)
     cegterg:last :      5.31s CPU      5.35s WALL (    7841 calls)

     Called by h_psi:
     h_psi:vloc   :    436.63s CPU    478.41s WALL (   24798 calls)
     h_psi:vnl    :     18.10s CPU     19.23s WALL (   24798 calls)
     add_vuspsi   :      7.59s CPU      7.96s WALL (   24798 calls)

     General routines
     calbec       :     10.38s CPU     11.17s WALL (   24798 calls)
     fft          :      0.10s CPU      0.17s WALL (      65 calls)
     fftw         :    460.48s CPU    504.24s WALL (  819362 calls)
     davcio       :      0.25s CPU      2.72s WALL (    1140 calls)
 
     Parallel routines
     fft_scatter  :    168.92s CPU    184.95s WALL (  819427 calls)
 
     PWSCF        : 10m21.14s CPU    11m30.34s WALL

 
   This run was terminated on:  21:35: 7  27Feb2020            

=------------------------------------------------------------------------------=
   JOB DONE.
=------------------------------------------------------------------------------=
