
     Program PWSCF v.5.4.0 starts on  8Mar2020 at 22:44:27 

     This program is part of the open-source Quantum ESPRESSO suite
     for quantum simulation of materials; please cite
         "P. Giannozzi et al., J. Phys.:Condens. Matter 21 395502 (2009);
          URL http://www.quantum-espresso.org", 
     in publications or presentations arising from this work. More details at
     http://www.quantum-espresso.org/quote

     Parallel version (MPI & OpenMP), running on      16 processor cores
     Number of MPI processes:                16
     Threads/MPI process:                     1
     R & G space division:  proc/nbgrp/npool/nimage =      16
     Waiting for input...
     Reading input from standard input
Warning: card &IONS ignored
Warning: card / ignored
Warning: card &CELL ignored
Warning: card / ignored

     Current dimensions of program PWSCF are:
     Max number of different atomic species (ntypx) = 10
     Max number of k-points (npk) =  40000
     Max angular momentum in pseudopotentials (lmaxx) =  3
               file Sn.rel-pbe-dn-kjpaw_psl.1.0.0.UPF: wavefunction(s)  5S 5P 5P 4D 4D renormalized

     Subspace diagonalization in iterative solution of the eigenvalue problem:
     a serial algorithm will be used

 
     Parallelization info
     --------------------
     sticks:   dense  smooth     PW     G-vecs:    dense   smooth      PW
     Min          52      52     15                 1019     1019     168
     Max          53      53     16                 1023     1023     172
     Sum         847     847    253                16361    16361    2733
 

     Title: 
     Sn                                                                         


     bravais-lattice index     =            0
     lattice parameter (alat)  =       8.7524  a.u.
     unit-cell volume          =     474.0897 (a.u.)^3
     number of atoms/cell      =            2
     number of atomic types    =            1
     number of electrons       =        28.00
     number of Kohn-Sham states=           36
     kinetic-energy cutoff     =      40.0000  Ry
     charge density cutoff     =     160.0000  Ry
     convergence threshold     =      1.0E-06
     mixing beta               =       0.7000
     number of iterations used =            8  plain     mixing
     Exchange-correlation      =  SLA  PW   PBX  PBC ( 1  4  3  4 0 0)
     Non magnetic calculation with spin-orbit


     celldm(1)=   8.752360  celldm(2)=   0.000000  celldm(3)=   0.000000
     celldm(4)=   0.000000  celldm(5)=   0.000000  celldm(6)=   0.000000

     crystal axes: (cart. coord. in units of alat)
               a(1) = (   0.000000   0.707107   0.707107 )  
               a(2) = (   0.707107   0.000000   0.707107 )  
               a(3) = (   0.707107   0.707107   0.000000 )  

     reciprocal axes: (cart. coord. in units 2 pi/alat)
               b(1) = ( -0.707107  0.707107  0.707107 )  
               b(2) = (  0.707107 -0.707107  0.707107 )  
               b(3) = (  0.707107  0.707107 -0.707107 )  


     PseudoPot. # 1 for Sn read from file:
     ../PseudopotentialDatabase/Sn.rel-pbe-dn-kjpaw_psl.1.0.0.UPF
     MD5 check sum: 6bcaba2b82cf8d008985ef5bb9854e68
     Pseudo is Projector augmented-wave + core cor, Zval = 14.0
     Generated using "atomic" code by A. Dal Corso  v.6.3
     Shape of augmentation charge: PSQ
     Using radial grid of 1243 points, 10 beta functions with: 
                l(1) =   0
                l(2) =   0
                l(3) =   1
                l(4) =   1
                l(5) =   1
                l(6) =   1
                l(7) =   2
                l(8) =   2
                l(9) =   2
               l(10) =   2
     Q(r) pseudized with 0 coefficients 


     atomic species   valence    mass     pseudopotential
        Sn            14.00   118.71000     Sn( 1.00)

     48 Sym. Ops., with inversion, found (24 have fractional translation)


                                    s                        frac. trans.

      isym =  1     identity                                     

 cryst.   s( 1) = (     1          0          0      )
                  (     0          1          0      )
                  (     0          0          1      )

 cart.    s( 1) = (  1.0000000  0.0000000  0.0000000 )
                  (  0.0000000  1.0000000  0.0000000 )
                  (  0.0000000  0.0000000  1.0000000 )


      isym =  2     180 deg rotation - cart. axis [0,0,1]        

 cryst.   s( 2) = (     0          1         -1      )
                  (     1          0         -1      )
                  (     0          0         -1      )

 cart.    s( 2) = ( -1.0000000  0.0000000  0.0000000 )
                  (  0.0000000 -1.0000000  0.0000000 )
                  (  0.0000000  0.0000000  1.0000000 )


      isym =  3     180 deg rotation - cart. axis [0,1,0]        

 cryst.   s( 3) = (     0         -1          1      )
                  (     0         -1          0      )
                  (     1         -1          0      )

 cart.    s( 3) = ( -1.0000000  0.0000000  0.0000000 )
                  (  0.0000000  1.0000000  0.0000000 )
                  (  0.0000000  0.0000000 -1.0000000 )


      isym =  4     180 deg rotation - cart. axis [1,0,0]        

 cryst.   s( 4) = (    -1          0          0      )
                  (    -1          0          1      )
                  (    -1          1          0      )

 cart.    s( 4) = (  1.0000000  0.0000000  0.0000000 )
                  (  0.0000000 -1.0000000  0.0000000 )
                  (  0.0000000  0.0000000 -1.0000000 )


      isym =  5     180 deg rotation - cart. axis [1,1,0]        

 cryst.   s( 5) = (    -1          0          1      )    f =( -0.2500000 )
                  (     0         -1          1      )       ( -0.2500000 )
                  (     0          0          1      )       ( -0.2500000 )

 cart.    s( 5) = (  0.0000000  1.0000000  0.0000000 )    f =( -0.3535534 )
                  (  1.0000000  0.0000000  0.0000000 )       ( -0.3535534 )
                  (  0.0000000  0.0000000 -1.0000000 )       ( -0.3535534 )


      isym =  6     180 deg rotation - cart. axis [1,-1,0]       

 cryst.   s( 6) = (     0         -1          0      )    f =( -0.2500000 )
                  (    -1          0          0      )       ( -0.2500000 )
                  (     0          0         -1      )       ( -0.2500000 )

 cart.    s( 6) = (  0.0000000 -1.0000000  0.0000000 )    f =( -0.3535534 )
                  ( -1.0000000  0.0000000  0.0000000 )       ( -0.3535534 )
                  (  0.0000000  0.0000000 -1.0000000 )       ( -0.3535534 )


      isym =  7      90 deg rotation - cart. axis [0,0,-1]       

 cryst.   s( 7) = (     0          1          0      )    f =( -0.2500000 )
                  (     0          1         -1      )       ( -0.2500000 )
                  (    -1          1          0      )       ( -0.2500000 )

 cart.    s( 7) = (  0.0000000  1.0000000  0.0000000 )    f =( -0.3535534 )
                  ( -1.0000000  0.0000000  0.0000000 )       ( -0.3535534 )
                  (  0.0000000  0.0000000  1.0000000 )       ( -0.3535534 )


      isym =  8      90 deg rotation - cart. axis [0,0,1]        

 cryst.   s( 8) = (     1          0         -1      )    f =( -0.2500000 )
                  (     1          0          0      )       ( -0.2500000 )
                  (     1         -1          0      )       ( -0.2500000 )

 cart.    s( 8) = (  0.0000000 -1.0000000  0.0000000 )    f =( -0.3535534 )
                  (  1.0000000  0.0000000  0.0000000 )       ( -0.3535534 )
                  (  0.0000000  0.0000000  1.0000000 )       ( -0.3535534 )


      isym =  9     180 deg rotation - cart. axis [1,0,1]        

 cryst.   s( 9) = (    -1          1          0      )    f =( -0.2500000 )
                  (     0          1          0      )       ( -0.2500000 )
                  (     0          1         -1      )       ( -0.2500000 )

 cart.    s( 9) = (  0.0000000  0.0000000  1.0000000 )    f =( -0.3535534 )
                  (  0.0000000 -1.0000000  0.0000000 )       ( -0.3535534 )
                  (  1.0000000  0.0000000  0.0000000 )       ( -0.3535534 )


      isym = 10     180 deg rotation - cart. axis [-1,0,1]       

 cryst.   s(10) = (     0          0         -1      )    f =( -0.2500000 )
                  (     0         -1          0      )       ( -0.2500000 )
                  (    -1          0          0      )       ( -0.2500000 )

 cart.    s(10) = (  0.0000000  0.0000000 -1.0000000 )    f =( -0.3535534 )
                  (  0.0000000 -1.0000000  0.0000000 )       ( -0.3535534 )
                  ( -1.0000000  0.0000000  0.0000000 )       ( -0.3535534 )


      isym = 11      90 deg rotation - cart. axis [0,1,0]        

 cryst.   s(11) = (     0          0          1      )    f =( -0.2500000 )
                  (    -1          0          1      )       ( -0.2500000 )
                  (     0         -1          1      )       ( -0.2500000 )

 cart.    s(11) = (  0.0000000  0.0000000  1.0000000 )    f =( -0.3535534 )
                  (  0.0000000  1.0000000  0.0000000 )       ( -0.3535534 )
                  ( -1.0000000  0.0000000  0.0000000 )       ( -0.3535534 )


      isym = 12      90 deg rotation - cart. axis [0,-1,0]       

 cryst.   s(12) = (     1         -1          0      )    f =( -0.2500000 )
                  (     1          0         -1      )       ( -0.2500000 )
                  (     1          0          0      )       ( -0.2500000 )

 cart.    s(12) = (  0.0000000  0.0000000 -1.0000000 )    f =( -0.3535534 )
                  (  0.0000000  1.0000000  0.0000000 )       ( -0.3535534 )
                  (  1.0000000  0.0000000  0.0000000 )       ( -0.3535534 )


      isym = 13     180 deg rotation - cart. axis [0,1,1]        

 cryst.   s(13) = (     1          0          0      )    f =( -0.2500000 )
                  (     1         -1          0      )       ( -0.2500000 )
                  (     1          0         -1      )       ( -0.2500000 )

 cart.    s(13) = ( -1.0000000  0.0000000  0.0000000 )    f =( -0.3535534 )
                  (  0.0000000  0.0000000  1.0000000 )       ( -0.3535534 )
                  (  0.0000000  1.0000000  0.0000000 )       ( -0.3535534 )


      isym = 14     180 deg rotation - cart. axis [0,1,-1]       

 cryst.   s(14) = (    -1          0          0      )    f =( -0.2500000 )
                  (     0          0         -1      )       ( -0.2500000 )
                  (     0         -1          0      )       ( -0.2500000 )

 cart.    s(14) = ( -1.0000000  0.0000000  0.0000000 )    f =( -0.3535534 )
                  (  0.0000000  0.0000000 -1.0000000 )       ( -0.3535534 )
                  (  0.0000000 -1.0000000  0.0000000 )       ( -0.3535534 )


      isym = 15      90 deg rotation - cart. axis [-1,0,0]       

 cryst.   s(15) = (     0         -1          1      )    f =( -0.2500000 )
                  (     0          0          1      )       ( -0.2500000 )
                  (    -1          0          1      )       ( -0.2500000 )

 cart.    s(15) = (  1.0000000  0.0000000  0.0000000 )    f =( -0.3535534 )
                  (  0.0000000  0.0000000  1.0000000 )       ( -0.3535534 )
                  (  0.0000000 -1.0000000  0.0000000 )       ( -0.3535534 )


      isym = 16      90 deg rotation - cart. axis [1,0,0]        

 cryst.   s(16) = (     0          1         -1      )    f =( -0.2500000 )
                  (    -1          1          0      )       ( -0.2500000 )
                  (     0          1          0      )       ( -0.2500000 )

 cart.    s(16) = (  1.0000000  0.0000000  0.0000000 )    f =( -0.3535534 )
                  (  0.0000000  0.0000000 -1.0000000 )       ( -0.3535534 )
                  (  0.0000000  1.0000000  0.0000000 )       ( -0.3535534 )


      isym = 17     120 deg rotation - cart. axis [-1,-1,-1]     

 cryst.   s(17) = (     0          0          1      )
                  (     1          0          0      )
                  (     0          1          0      )

 cart.    s(17) = (  0.0000000  1.0000000  0.0000000 )
                  (  0.0000000  0.0000000  1.0000000 )
                  (  1.0000000  0.0000000  0.0000000 )


      isym = 18     120 deg rotation - cart. axis [-1,1,1]       

 cryst.   s(18) = (     1         -1          0      )
                  (     0         -1          1      )
                  (     0         -1          0      )

 cart.    s(18) = (  0.0000000 -1.0000000  0.0000000 )
                  (  0.0000000  0.0000000  1.0000000 )
                  ( -1.0000000  0.0000000  0.0000000 )


      isym = 19     120 deg rotation - cart. axis [1,1,-1]       

 cryst.   s(19) = (    -1          1          0      )
                  (    -1          0          0      )
                  (    -1          0          1      )

 cart.    s(19) = (  0.0000000  1.0000000  0.0000000 )
                  (  0.0000000  0.0000000 -1.0000000 )
                  ( -1.0000000  0.0000000  0.0000000 )


      isym = 20     120 deg rotation - cart. axis [1,-1,1]       

 cryst.   s(20) = (     0          0         -1      )
                  (     0          1         -1      )
                  (     1          0         -1      )

 cart.    s(20) = (  0.0000000 -1.0000000  0.0000000 )
                  (  0.0000000  0.0000000 -1.0000000 )
                  (  1.0000000  0.0000000  0.0000000 )


      isym = 21     120 deg rotation - cart. axis [1,1,1]        

 cryst.   s(21) = (     0          1          0      )
                  (     0          0          1      )
                  (     1          0          0      )

 cart.    s(21) = (  0.0000000  0.0000000  1.0000000 )
                  (  1.0000000  0.0000000  0.0000000 )
                  (  0.0000000  1.0000000  0.0000000 )


      isym = 22     120 deg rotation - cart. axis [-1,1,-1]      

 cryst.   s(22) = (    -1          0          1      )
                  (    -1          1          0      )
                  (    -1          0          0      )

 cart.    s(22) = (  0.0000000  0.0000000  1.0000000 )
                  ( -1.0000000  0.0000000  0.0000000 )
                  (  0.0000000 -1.0000000  0.0000000 )


      isym = 23     120 deg rotation - cart. axis [1,-1,-1]      

 cryst.   s(23) = (     1          0         -1      )
                  (     0          0         -1      )
                  (     0          1         -1      )

 cart.    s(23) = (  0.0000000  0.0000000 -1.0000000 )
                  ( -1.0000000  0.0000000  0.0000000 )
                  (  0.0000000  1.0000000  0.0000000 )


      isym = 24     120 deg rotation - cart. axis [-1,-1,1]      

 cryst.   s(24) = (     0         -1          0      )
                  (     1         -1          0      )
                  (     0         -1          1      )

 cart.    s(24) = (  0.0000000  0.0000000 -1.0000000 )
                  (  1.0000000  0.0000000  0.0000000 )
                  (  0.0000000 -1.0000000  0.0000000 )


      isym = 25     inversion                                    

 cryst.   s(25) = (    -1          0          0      )    f =( -0.2500000 )
                  (     0         -1          0      )       ( -0.2500000 )
                  (     0          0         -1      )       ( -0.2500000 )

 cart.    s(25) = ( -1.0000000  0.0000000  0.0000000 )    f =( -0.3535534 )
                  (  0.0000000 -1.0000000  0.0000000 )       ( -0.3535534 )
                  (  0.0000000  0.0000000 -1.0000000 )       ( -0.3535534 )


      isym = 26     inv. 180 deg rotation - cart. axis [0,0,1]   

 cryst.   s(26) = (     0         -1          1      )    f =( -0.2500000 )
                  (    -1          0          1      )       ( -0.2500000 )
                  (     0          0          1      )       ( -0.2500000 )

 cart.    s(26) = (  1.0000000  0.0000000  0.0000000 )    f =( -0.3535534 )
                  (  0.0000000  1.0000000  0.0000000 )       ( -0.3535534 )
                  (  0.0000000  0.0000000 -1.0000000 )       ( -0.3535534 )


      isym = 27     inv. 180 deg rotation - cart. axis [0,1,0]   

 cryst.   s(27) = (     0          1         -1      )    f =( -0.2500000 )
                  (     0          1          0      )       ( -0.2500000 )
                  (    -1          1          0      )       ( -0.2500000 )

 cart.    s(27) = (  1.0000000  0.0000000  0.0000000 )    f =( -0.3535534 )
                  (  0.0000000 -1.0000000  0.0000000 )       ( -0.3535534 )
                  (  0.0000000  0.0000000  1.0000000 )       ( -0.3535534 )


      isym = 28     inv. 180 deg rotation - cart. axis [1,0,0]   

 cryst.   s(28) = (     1          0          0      )    f =( -0.2500000 )
                  (     1          0         -1      )       ( -0.2500000 )
                  (     1         -1          0      )       ( -0.2500000 )

 cart.    s(28) = ( -1.0000000  0.0000000  0.0000000 )    f =( -0.3535534 )
                  (  0.0000000  1.0000000  0.0000000 )       ( -0.3535534 )
                  (  0.0000000  0.0000000  1.0000000 )       ( -0.3535534 )


      isym = 29     inv. 180 deg rotation - cart. axis [1,1,0]   

 cryst.   s(29) = (     1          0         -1      )
                  (     0          1         -1      )
                  (     0          0         -1      )

 cart.    s(29) = (  0.0000000 -1.0000000  0.0000000 )
                  ( -1.0000000  0.0000000  0.0000000 )
                  (  0.0000000  0.0000000  1.0000000 )


      isym = 30     inv. 180 deg rotation - cart. axis [1,-1,0]  

 cryst.   s(30) = (     0          1          0      )
                  (     1          0          0      )
                  (     0          0          1      )

 cart.    s(30) = (  0.0000000  1.0000000  0.0000000 )
                  (  1.0000000  0.0000000  0.0000000 )
                  (  0.0000000  0.0000000  1.0000000 )


      isym = 31     inv.  90 deg rotation - cart. axis [0,0,-1]  

 cryst.   s(31) = (     0         -1          0      )
                  (     0         -1          1      )
                  (     1         -1          0      )

 cart.    s(31) = (  0.0000000 -1.0000000  0.0000000 )
                  (  1.0000000  0.0000000  0.0000000 )
                  (  0.0000000  0.0000000 -1.0000000 )


      isym = 32     inv.  90 deg rotation - cart. axis [0,0,1]   

 cryst.   s(32) = (    -1          0          1      )
                  (    -1          0          0      )
                  (    -1          1          0      )

 cart.    s(32) = (  0.0000000  1.0000000  0.0000000 )
                  ( -1.0000000  0.0000000  0.0000000 )
                  (  0.0000000  0.0000000 -1.0000000 )


      isym = 33     inv. 180 deg rotation - cart. axis [1,0,1]   

 cryst.   s(33) = (     1         -1          0      )
                  (     0         -1          0      )
                  (     0         -1          1      )

 cart.    s(33) = (  0.0000000  0.0000000 -1.0000000 )
                  (  0.0000000  1.0000000  0.0000000 )
                  ( -1.0000000  0.0000000  0.0000000 )


      isym = 34     inv. 180 deg rotation - cart. axis [-1,0,1]  

 cryst.   s(34) = (     0          0          1      )
                  (     0          1          0      )
                  (     1          0          0      )

 cart.    s(34) = (  0.0000000  0.0000000  1.0000000 )
                  (  0.0000000  1.0000000  0.0000000 )
                  (  1.0000000  0.0000000  0.0000000 )


      isym = 35     inv.  90 deg rotation - cart. axis [0,1,0]   

 cryst.   s(35) = (     0          0         -1      )
                  (     1          0         -1      )
                  (     0          1         -1      )

 cart.    s(35) = (  0.0000000  0.0000000 -1.0000000 )
                  (  0.0000000 -1.0000000  0.0000000 )
                  (  1.0000000  0.0000000  0.0000000 )


      isym = 36     inv.  90 deg rotation - cart. axis [0,-1,0]  

 cryst.   s(36) = (    -1          1          0      )
                  (    -1          0          1      )
                  (    -1          0          0      )

 cart.    s(36) = (  0.0000000  0.0000000  1.0000000 )
                  (  0.0000000 -1.0000000  0.0000000 )
                  ( -1.0000000  0.0000000  0.0000000 )


      isym = 37     inv. 180 deg rotation - cart. axis [0,1,1]   

 cryst.   s(37) = (    -1          0          0      )
                  (    -1          1          0      )
                  (    -1          0          1      )

 cart.    s(37) = (  1.0000000  0.0000000  0.0000000 )
                  (  0.0000000  0.0000000 -1.0000000 )
                  (  0.0000000 -1.0000000  0.0000000 )


      isym = 38     inv. 180 deg rotation - cart. axis [0,1,-1]  

 cryst.   s(38) = (     1          0          0      )
                  (     0          0          1      )
                  (     0          1          0      )

 cart.    s(38) = (  1.0000000  0.0000000  0.0000000 )
                  (  0.0000000  0.0000000  1.0000000 )
                  (  0.0000000  1.0000000  0.0000000 )


      isym = 39     inv.  90 deg rotation - cart. axis [-1,0,0]  

 cryst.   s(39) = (     0          1         -1      )
                  (     0          0         -1      )
                  (     1          0         -1      )

 cart.    s(39) = ( -1.0000000  0.0000000  0.0000000 )
                  (  0.0000000  0.0000000 -1.0000000 )
                  (  0.0000000  1.0000000  0.0000000 )


      isym = 40     inv.  90 deg rotation - cart. axis [1,0,0]   

 cryst.   s(40) = (     0         -1          1      )
                  (     1         -1          0      )
                  (     0         -1          0      )

 cart.    s(40) = ( -1.0000000  0.0000000  0.0000000 )
                  (  0.0000000  0.0000000  1.0000000 )
                  (  0.0000000 -1.0000000  0.0000000 )


      isym = 41     inv. 120 deg rotation - cart. axis [-1,-1,-1]

 cryst.   s(41) = (     0          0         -1      )    f =( -0.2500000 )
                  (    -1          0          0      )       ( -0.2500000 )
                  (     0         -1          0      )       ( -0.2500000 )

 cart.    s(41) = (  0.0000000 -1.0000000  0.0000000 )    f =( -0.3535534 )
                  (  0.0000000  0.0000000 -1.0000000 )       ( -0.3535534 )
                  ( -1.0000000  0.0000000  0.0000000 )       ( -0.3535534 )


      isym = 42     inv. 120 deg rotation - cart. axis [-1,1,1]  

 cryst.   s(42) = (    -1          1          0      )    f =( -0.2500000 )
                  (     0          1         -1      )       ( -0.2500000 )
                  (     0          1          0      )       ( -0.2500000 )

 cart.    s(42) = (  0.0000000  1.0000000  0.0000000 )    f =( -0.3535534 )
                  (  0.0000000  0.0000000 -1.0000000 )       ( -0.3535534 )
                  (  1.0000000  0.0000000  0.0000000 )       ( -0.3535534 )


      isym = 43     inv. 120 deg rotation - cart. axis [1,1,-1]  

 cryst.   s(43) = (     1         -1          0      )    f =( -0.2500000 )
                  (     1          0          0      )       ( -0.2500000 )
                  (     1          0         -1      )       ( -0.2500000 )

 cart.    s(43) = (  0.0000000 -1.0000000  0.0000000 )    f =( -0.3535534 )
                  (  0.0000000  0.0000000  1.0000000 )       ( -0.3535534 )
                  (  1.0000000  0.0000000  0.0000000 )       ( -0.3535534 )


      isym = 44     inv. 120 deg rotation - cart. axis [1,-1,1]  

 cryst.   s(44) = (     0          0          1      )    f =( -0.2500000 )
                  (     0         -1          1      )       ( -0.2500000 )
                  (    -1          0          1      )       ( -0.2500000 )

 cart.    s(44) = (  0.0000000  1.0000000  0.0000000 )    f =( -0.3535534 )
                  (  0.0000000  0.0000000  1.0000000 )       ( -0.3535534 )
                  ( -1.0000000  0.0000000  0.0000000 )       ( -0.3535534 )


      isym = 45     inv. 120 deg rotation - cart. axis [1,1,1]   

 cryst.   s(45) = (     0         -1          0      )    f =( -0.2500000 )
                  (     0          0         -1      )       ( -0.2500000 )
                  (    -1          0          0      )       ( -0.2500000 )

 cart.    s(45) = (  0.0000000  0.0000000 -1.0000000 )    f =( -0.3535534 )
                  ( -1.0000000  0.0000000  0.0000000 )       ( -0.3535534 )
                  (  0.0000000 -1.0000000  0.0000000 )       ( -0.3535534 )


      isym = 46     inv. 120 deg rotation - cart. axis [-1,1,-1] 

 cryst.   s(46) = (     1          0         -1      )    f =( -0.2500000 )
                  (     1         -1          0      )       ( -0.2500000 )
                  (     1          0          0      )       ( -0.2500000 )

 cart.    s(46) = (  0.0000000  0.0000000 -1.0000000 )    f =( -0.3535534 )
                  (  1.0000000  0.0000000  0.0000000 )       ( -0.3535534 )
                  (  0.0000000  1.0000000  0.0000000 )       ( -0.3535534 )


      isym = 47     inv. 120 deg rotation - cart. axis [1,-1,-1] 

 cryst.   s(47) = (    -1          0          1      )    f =( -0.2500000 )
                  (     0          0          1      )       ( -0.2500000 )
                  (     0         -1          1      )       ( -0.2500000 )

 cart.    s(47) = (  0.0000000  0.0000000  1.0000000 )    f =( -0.3535534 )
                  (  1.0000000  0.0000000  0.0000000 )       ( -0.3535534 )
                  (  0.0000000 -1.0000000  0.0000000 )       ( -0.3535534 )


      isym = 48     inv. 120 deg rotation - cart. axis [-1,-1,1] 

 cryst.   s(48) = (     0          1          0      )    f =( -0.2500000 )
                  (    -1          1          0      )       ( -0.2500000 )
                  (     0          1         -1      )       ( -0.2500000 )

 cart.    s(48) = (  0.0000000  0.0000000  1.0000000 )    f =( -0.3535534 )
                  ( -1.0000000  0.0000000  0.0000000 )       ( -0.3535534 )
                  (  0.0000000  1.0000000  0.0000000 )       ( -0.3535534 )


   Cartesian axes

     site n.     atom                  positions (alat units)
         1           Sn  tau(   1) = (   0.0000000   0.0000000   0.0000000  )
         2           Sn  tau(   2) = (   0.3535534   0.3535534   0.3535534  )

   Crystallographic axes

     site n.     atom                  positions (cryst. coord.)
         1           Sn  tau(   1) = (  0.0000000  0.0000000  0.0000000  )
         2           Sn  tau(   2) = (  0.2500000  0.2500000  0.2500000  )

     number of k points=   328  gaussian smearing, width (Ry)=  0.0001
                       cart. coord. in units 2pi/alat
        k(    1) = (   0.0000000   0.0000000   0.0000000), wk =   0.0000939
        k(    2) = (   0.0321412   0.0321412  -0.0321412), wk =   0.0007513
        k(    3) = (   0.0642824   0.0642824  -0.0642824), wk =   0.0007513
        k(    4) = (   0.0964237   0.0964237  -0.0964237), wk =   0.0007513
        k(    5) = (   0.1285649   0.1285649  -0.1285649), wk =   0.0007513
        k(    6) = (   0.1607061   0.1607061  -0.1607061), wk =   0.0007513
        k(    7) = (   0.1928473   0.1928473  -0.1928473), wk =   0.0007513
        k(    8) = (   0.2249885   0.2249885  -0.2249885), wk =   0.0007513
        k(    9) = (   0.2571297   0.2571297  -0.2571297), wk =   0.0007513
        k(   10) = (   0.2892710   0.2892710  -0.2892710), wk =   0.0007513
        k(   11) = (   0.3214122   0.3214122  -0.3214122), wk =   0.0007513
        k(   12) = (  -0.3535534  -0.3535534   0.3535534), wk =   0.0003757
        k(   13) = (   0.0642824   0.0000000   0.0000000), wk =   0.0005635
        k(   14) = (   0.0964237   0.0321412  -0.0321412), wk =   0.0022539
        k(   15) = (   0.1285649   0.0642824  -0.0642824), wk =   0.0022539
        k(   16) = (   0.1607061   0.0964237  -0.0964237), wk =   0.0022539
        k(   17) = (   0.1928473   0.1285649  -0.1285649), wk =   0.0022539
        k(   18) = (   0.2249885   0.1607061  -0.1607061), wk =   0.0022539
        k(   19) = (   0.2571297   0.1928473  -0.1928473), wk =   0.0022539
        k(   20) = (   0.2892710   0.2249885  -0.2249885), wk =   0.0022539
        k(   21) = (   0.3214122   0.2571297  -0.2571297), wk =   0.0022539
        k(   22) = (   0.3535534   0.2892710  -0.2892710), wk =   0.0022539
        k(   23) = (  -0.3214122  -0.3856946   0.3856946), wk =   0.0022539
        k(   24) = (  -0.2892710  -0.3535534   0.3535534), wk =   0.0022539
        k(   25) = (  -0.2571297  -0.3214122   0.3214122), wk =   0.0022539
        k(   26) = (  -0.2249885  -0.2892710   0.2892710), wk =   0.0022539
        k(   27) = (  -0.1928473  -0.2571297   0.2571297), wk =   0.0022539
        k(   28) = (  -0.1607061  -0.2249885   0.2249885), wk =   0.0022539
        k(   29) = (  -0.1285649  -0.1928473   0.1928473), wk =   0.0022539
        k(   30) = (  -0.0964237  -0.1607061   0.1607061), wk =   0.0022539
        k(   31) = (  -0.0642824  -0.1285649   0.1285649), wk =   0.0022539
        k(   32) = (  -0.0321412  -0.0964237   0.0964237), wk =   0.0022539
        k(   33) = (   0.0000000  -0.0642824   0.0642824), wk =   0.0011270
        k(   34) = (   0.1285649   0.0000000   0.0000000), wk =   0.0005635
        k(   35) = (   0.1607061   0.0321412  -0.0321412), wk =   0.0022539
        k(   36) = (   0.1928473   0.0642824  -0.0642824), wk =   0.0022539
        k(   37) = (   0.2249885   0.0964237  -0.0964237), wk =   0.0022539
        k(   38) = (   0.2571297   0.1285649  -0.1285649), wk =   0.0022539
        k(   39) = (   0.2892710   0.1607061  -0.1607061), wk =   0.0022539
        k(   40) = (   0.3214122   0.1928473  -0.1928473), wk =   0.0022539
        k(   41) = (   0.3535534   0.2249885  -0.2249885), wk =   0.0022539
        k(   42) = (   0.3856946   0.2571297  -0.2571297), wk =   0.0022539
        k(   43) = (  -0.2892710  -0.4178358   0.4178358), wk =   0.0022539
        k(   44) = (  -0.2571297  -0.3856946   0.3856946), wk =   0.0022539
        k(   45) = (  -0.2249885  -0.3535534   0.3535534), wk =   0.0022539
        k(   46) = (  -0.1928473  -0.3214122   0.3214122), wk =   0.0022539
        k(   47) = (  -0.1607061  -0.2892710   0.2892710), wk =   0.0022539
        k(   48) = (  -0.1285649  -0.2571297   0.2571297), wk =   0.0022539
        k(   49) = (  -0.0964237  -0.2249885   0.2249885), wk =   0.0022539
        k(   50) = (  -0.0642824  -0.1928473   0.1928473), wk =   0.0022539
        k(   51) = (  -0.0321412  -0.1607061   0.1607061), wk =   0.0022539
        k(   52) = (  -0.0000000  -0.1285649   0.1285649), wk =   0.0011270
        k(   53) = (   0.1928473   0.0000000   0.0000000), wk =   0.0005635
        k(   54) = (   0.2249885   0.0321412  -0.0321412), wk =   0.0022539
        k(   55) = (   0.2571297   0.0642824  -0.0642824), wk =   0.0022539
        k(   56) = (   0.2892710   0.0964237  -0.0964237), wk =   0.0022539
        k(   57) = (   0.3214122   0.1285649  -0.1285649), wk =   0.0022539
        k(   58) = (   0.3535534   0.1607061  -0.1607061), wk =   0.0022539
        k(   59) = (   0.3856946   0.1928473  -0.1928473), wk =   0.0022539
        k(   60) = (   0.4178358   0.2249885  -0.2249885), wk =   0.0022539
        k(   61) = (  -0.2571297  -0.4499770   0.4499770), wk =   0.0022539
        k(   62) = (  -0.2249885  -0.4178358   0.4178358), wk =   0.0022539
        k(   63) = (  -0.1928473  -0.3856946   0.3856946), wk =   0.0022539
        k(   64) = (  -0.1607061  -0.3535534   0.3535534), wk =   0.0022539
        k(   65) = (  -0.1285649  -0.3214122   0.3214122), wk =   0.0022539
        k(   66) = (  -0.0964237  -0.2892710   0.2892710), wk =   0.0022539
        k(   67) = (  -0.0642824  -0.2571297   0.2571297), wk =   0.0022539
        k(   68) = (  -0.0321412  -0.2249885   0.2249885), wk =   0.0022539
        k(   69) = (   0.0000000  -0.1928473   0.1928473), wk =   0.0011270
        k(   70) = (   0.2571297   0.0000000   0.0000000), wk =   0.0005635
        k(   71) = (   0.2892710   0.0321412  -0.0321412), wk =   0.0022539
        k(   72) = (   0.3214122   0.0642824  -0.0642824), wk =   0.0022539
        k(   73) = (   0.3535534   0.0964237  -0.0964237), wk =   0.0022539
        k(   74) = (   0.3856946   0.1285649  -0.1285649), wk =   0.0022539
        k(   75) = (   0.4178358   0.1607061  -0.1607061), wk =   0.0022539
        k(   76) = (   0.4499770   0.1928473  -0.1928473), wk =   0.0022539
        k(   77) = (  -0.2249885  -0.4821183   0.4821183), wk =   0.0022539
        k(   78) = (  -0.1928473  -0.4499770   0.4499770), wk =   0.0022539
        k(   79) = (  -0.1607061  -0.4178358   0.4178358), wk =   0.0022539
        k(   80) = (  -0.1285649  -0.3856946   0.3856946), wk =   0.0022539
        k(   81) = (  -0.0964237  -0.3535534   0.3535534), wk =   0.0022539
        k(   82) = (  -0.0642824  -0.3214122   0.3214122), wk =   0.0022539
        k(   83) = (  -0.0321412  -0.2892710   0.2892710), wk =   0.0022539
        k(   84) = (   0.0000000  -0.2571297   0.2571297), wk =   0.0011270
        k(   85) = (   0.3214122   0.0000000   0.0000000), wk =   0.0005635
        k(   86) = (   0.3535534   0.0321412  -0.0321412), wk =   0.0022539
        k(   87) = (   0.3856946   0.0642824  -0.0642824), wk =   0.0022539
        k(   88) = (   0.4178358   0.0964237  -0.0964237), wk =   0.0022539
        k(   89) = (   0.4499770   0.1285649  -0.1285649), wk =   0.0022539
        k(   90) = (   0.4821183   0.1607061  -0.1607061), wk =   0.0022539
        k(   91) = (  -0.1928473  -0.5142595   0.5142595), wk =   0.0022539
        k(   92) = (  -0.1607061  -0.4821183   0.4821183), wk =   0.0022539
        k(   93) = (  -0.1285649  -0.4499770   0.4499770), wk =   0.0022539
        k(   94) = (  -0.0964237  -0.4178358   0.4178358), wk =   0.0022539
        k(   95) = (  -0.0642824  -0.3856946   0.3856946), wk =   0.0022539
        k(   96) = (  -0.0321412  -0.3535534   0.3535534), wk =   0.0022539
        k(   97) = (  -0.0000000  -0.3214122   0.3214122), wk =   0.0011270
        k(   98) = (   0.3856946   0.0000000   0.0000000), wk =   0.0005635
        k(   99) = (   0.4178358   0.0321412  -0.0321412), wk =   0.0022539
        k(  100) = (   0.4499770   0.0642824  -0.0642824), wk =   0.0022539
        k(  101) = (   0.4821183   0.0964237  -0.0964237), wk =   0.0022539
        k(  102) = (   0.5142595   0.1285649  -0.1285649), wk =   0.0022539
        k(  103) = (  -0.1607061  -0.5464007   0.5464007), wk =   0.0022539
        k(  104) = (  -0.1285649  -0.5142595   0.5142595), wk =   0.0022539
        k(  105) = (  -0.0964237  -0.4821183   0.4821183), wk =   0.0022539
        k(  106) = (  -0.0642824  -0.4499770   0.4499770), wk =   0.0022539
        k(  107) = (  -0.0321412  -0.4178358   0.4178358), wk =   0.0022539
        k(  108) = (   0.0000000  -0.3856946   0.3856946), wk =   0.0011270
        k(  109) = (   0.4499770   0.0000000   0.0000000), wk =   0.0005635
        k(  110) = (   0.4821183   0.0321412  -0.0321412), wk =   0.0022539
        k(  111) = (   0.5142595   0.0642824  -0.0642824), wk =   0.0022539
        k(  112) = (   0.5464007   0.0964237  -0.0964237), wk =   0.0022539
        k(  113) = (  -0.1285649  -0.5785419   0.5785419), wk =   0.0022539
        k(  114) = (  -0.0964237  -0.5464007   0.5464007), wk =   0.0022539
        k(  115) = (  -0.0642824  -0.5142595   0.5142595), wk =   0.0022539
        k(  116) = (  -0.0321412  -0.4821183   0.4821183), wk =   0.0022539
        k(  117) = (  -0.0000000  -0.4499770   0.4499770), wk =   0.0011270
        k(  118) = (   0.5142595   0.0000000   0.0000000), wk =   0.0005635
        k(  119) = (   0.5464007   0.0321412  -0.0321412), wk =   0.0022539
        k(  120) = (   0.5785419   0.0642824  -0.0642824), wk =   0.0022539
        k(  121) = (  -0.0964237  -0.6106831   0.6106831), wk =   0.0022539
        k(  122) = (  -0.0642824  -0.5785419   0.5785419), wk =   0.0022539
        k(  123) = (  -0.0321412  -0.5464007   0.5464007), wk =   0.0022539
        k(  124) = (   0.0000000  -0.5142595   0.5142595), wk =   0.0011270
        k(  125) = (   0.5785419   0.0000000   0.0000000), wk =   0.0005635
        k(  126) = (   0.6106831   0.0321412  -0.0321412), wk =   0.0022539
        k(  127) = (  -0.0642824  -0.6428243   0.6428243), wk =   0.0022539
        k(  128) = (  -0.0321412  -0.6106831   0.6106831), wk =   0.0022539
        k(  129) = (   0.0000000  -0.5785419   0.5785419), wk =   0.0011270
        k(  130) = (   0.6428243   0.0000000   0.0000000), wk =   0.0005635
        k(  131) = (  -0.0321412  -0.6749656   0.6749656), wk =   0.0022539
        k(  132) = (  -0.0000000  -0.6428243   0.6428243), wk =   0.0011270
        k(  133) = (  -0.7071068   0.0000000   0.0000000), wk =   0.0002817
        k(  134) = (   0.1285649   0.0642824   0.0000000), wk =   0.0022539
        k(  135) = (   0.1607061   0.0964237  -0.0321412), wk =   0.0045079
        k(  136) = (   0.1928473   0.1285649  -0.0642824), wk =   0.0045079
        k(  137) = (   0.2249885   0.1607061  -0.0964237), wk =   0.0045079
        k(  138) = (   0.2571297   0.1928473  -0.1285649), wk =   0.0045079
        k(  139) = (   0.2892710   0.2249885  -0.1607061), wk =   0.0045079
        k(  140) = (   0.3214122   0.2571297  -0.1928473), wk =   0.0045079
        k(  141) = (   0.3535534   0.2892710  -0.2249885), wk =   0.0045079
        k(  142) = (  -0.3214122  -0.3856946   0.4499770), wk =   0.0045079
        k(  143) = (  -0.2892710  -0.3535534   0.4178358), wk =   0.0022539
        k(  144) = (   0.1928473   0.0642824   0.0000000), wk =   0.0022539
        k(  145) = (   0.2249885   0.0964237  -0.0321412), wk =   0.0045079
        k(  146) = (   0.2571297   0.1285649  -0.0642824), wk =   0.0045079
        k(  147) = (   0.2892710   0.1607061  -0.0964237), wk =   0.0045079
        k(  148) = (   0.3214122   0.1928473  -0.1285649), wk =   0.0045079
        k(  149) = (   0.3535534   0.2249885  -0.1607061), wk =   0.0045079
        k(  150) = (   0.3856946   0.2571297  -0.1928473), wk =   0.0045079
        k(  151) = (  -0.2892710  -0.4178358   0.4821183), wk =   0.0045079
        k(  152) = (  -0.2571297  -0.3856946   0.4499770), wk =   0.0045079
        k(  153) = (  -0.2249885  -0.3535534   0.4178358), wk =   0.0045079
        k(  154) = (  -0.1928473  -0.3214122   0.3856946), wk =   0.0045079
        k(  155) = (  -0.1607061  -0.2892710   0.3535534), wk =   0.0045079
        k(  156) = (  -0.1285649  -0.2571297   0.3214122), wk =   0.0045079
        k(  157) = (  -0.0964237  -0.2249885   0.2892710), wk =   0.0045079
        k(  158) = (  -0.0642824  -0.1928473   0.2571297), wk =   0.0045079
        k(  159) = (  -0.0321412  -0.1607061   0.2249885), wk =   0.0045079
        k(  160) = (  -0.0000000  -0.1285649   0.1928473), wk =   0.0022539
        k(  161) = (   0.2571297   0.0642824   0.0000000), wk =   0.0022539
        k(  162) = (   0.2892710   0.0964237  -0.0321412), wk =   0.0045079
        k(  163) = (   0.3214122   0.1285649  -0.0642824), wk =   0.0045079
        k(  164) = (   0.3535534   0.1607061  -0.0964237), wk =   0.0045079
        k(  165) = (   0.3856946   0.1928473  -0.1285649), wk =   0.0045079
        k(  166) = (   0.4178358   0.2249885  -0.1607061), wk =   0.0045079
        k(  167) = (  -0.2571297  -0.4499770   0.5142595), wk =   0.0045079
        k(  168) = (  -0.2249885  -0.4178358   0.4821183), wk =   0.0045079
        k(  169) = (  -0.1928473  -0.3856946   0.4499770), wk =   0.0045079
        k(  170) = (  -0.1607061  -0.3535534   0.4178358), wk =   0.0045079
        k(  171) = (  -0.1285649  -0.3214122   0.3856946), wk =   0.0045079
        k(  172) = (  -0.0964237  -0.2892710   0.3535534), wk =   0.0045079
        k(  173) = (  -0.0642824  -0.2571297   0.3214122), wk =   0.0045079
        k(  174) = (  -0.0321412  -0.2249885   0.2892710), wk =   0.0045079
        k(  175) = (   0.0000000  -0.1928473   0.2571297), wk =   0.0022539
        k(  176) = (   0.3214122   0.0642824   0.0000000), wk =   0.0022539
        k(  177) = (   0.3535534   0.0964237  -0.0321412), wk =   0.0045079
        k(  178) = (   0.3856946   0.1285649  -0.0642824), wk =   0.0045079
        k(  179) = (   0.4178358   0.1607061  -0.0964237), wk =   0.0045079
        k(  180) = (   0.4499770   0.1928473  -0.1285649), wk =   0.0045079
        k(  181) = (  -0.2249885  -0.4821183   0.5464007), wk =   0.0045079
        k(  182) = (  -0.1928473  -0.4499770   0.5142595), wk =   0.0045079
        k(  183) = (  -0.1607061  -0.4178358   0.4821183), wk =   0.0045079
        k(  184) = (  -0.1285649  -0.3856946   0.4499770), wk =   0.0045079
        k(  185) = (  -0.0964237  -0.3535534   0.4178358), wk =   0.0045079
        k(  186) = (  -0.0642824  -0.3214122   0.3856946), wk =   0.0045079
        k(  187) = (  -0.0321412  -0.2892710   0.3535534), wk =   0.0045079
        k(  188) = (   0.0000000  -0.2571297   0.3214122), wk =   0.0022539
        k(  189) = (   0.3856946   0.0642824  -0.0000000), wk =   0.0022539
        k(  190) = (   0.4178358   0.0964237  -0.0321412), wk =   0.0045079
        k(  191) = (   0.4499770   0.1285649  -0.0642824), wk =   0.0045079
        k(  192) = (   0.4821183   0.1607061  -0.0964237), wk =   0.0045079
        k(  193) = (  -0.1928473  -0.5142595   0.5785419), wk =   0.0045079
        k(  194) = (  -0.1607061  -0.4821183   0.5464007), wk =   0.0045079
        k(  195) = (  -0.1285649  -0.4499770   0.5142595), wk =   0.0045079
        k(  196) = (  -0.0964237  -0.4178358   0.4821183), wk =   0.0045079
        k(  197) = (  -0.0642824  -0.3856946   0.4499770), wk =   0.0045079
        k(  198) = (  -0.0321412  -0.3535534   0.4178358), wk =   0.0045079
        k(  199) = (  -0.0000000  -0.3214122   0.3856946), wk =   0.0022539
        k(  200) = (   0.4499770   0.0642824   0.0000000), wk =   0.0022539
        k(  201) = (   0.4821183   0.0964237  -0.0321412), wk =   0.0045079
        k(  202) = (   0.5142595   0.1285649  -0.0642824), wk =   0.0045079
        k(  203) = (  -0.1607061  -0.5464007   0.6106831), wk =   0.0045079
        k(  204) = (  -0.1285649  -0.5142595   0.5785419), wk =   0.0045079
        k(  205) = (  -0.0964237  -0.4821183   0.5464007), wk =   0.0045079
        k(  206) = (  -0.0642824  -0.4499770   0.5142595), wk =   0.0045079
        k(  207) = (  -0.0321412  -0.4178358   0.4821183), wk =   0.0045079
        k(  208) = (   0.0000000  -0.3856946   0.4499770), wk =   0.0022539
        k(  209) = (   0.5142595   0.0642824   0.0000000), wk =   0.0022539
        k(  210) = (   0.5464007   0.0964237  -0.0321412), wk =   0.0045079
        k(  211) = (  -0.1285649  -0.5785419   0.6428243), wk =   0.0045079
        k(  212) = (  -0.0964237  -0.5464007   0.6106831), wk =   0.0045079
        k(  213) = (  -0.0642824  -0.5142595   0.5785419), wk =   0.0045079
        k(  214) = (  -0.0321412  -0.4821183   0.5464007), wk =   0.0045079
        k(  215) = (  -0.0000000  -0.4499770   0.5142595), wk =   0.0022539
        k(  216) = (   0.5785419   0.0642824   0.0000000), wk =   0.0022539
        k(  217) = (  -0.0964237  -0.6106831   0.6749656), wk =   0.0045079
        k(  218) = (  -0.0642824  -0.5785419   0.6428243), wk =   0.0045079
        k(  219) = (  -0.0321412  -0.5464007   0.6106831), wk =   0.0045079
        k(  220) = (   0.0000000  -0.5142595   0.5785419), wk =   0.0022539
        k(  221) = (  -0.0642824  -0.6428243   0.7071068), wk =   0.0022539
        k(  222) = (  -0.0321412  -0.6106831   0.6749656), wk =   0.0045079
        k(  223) = (   0.0000000  -0.5785419   0.6428243), wk =   0.0022539
        k(  224) = (  -0.7071068   0.0642824   0.0000000), wk =   0.0011270
        k(  225) = (   0.2571297   0.1285649   0.0000000), wk =   0.0022539
        k(  226) = (   0.2892710   0.1607061  -0.0321412), wk =   0.0045079
        k(  227) = (   0.3214122   0.1928473  -0.0642824), wk =   0.0045079
        k(  228) = (   0.3535534   0.2249885  -0.0964237), wk =   0.0045079
        k(  229) = (   0.3856946   0.2571297  -0.1285649), wk =   0.0045079
        k(  230) = (  -0.2892710  -0.4178358   0.5464007), wk =   0.0045079
        k(  231) = (  -0.2571297  -0.3856946   0.5142595), wk =   0.0045079
        k(  232) = (  -0.2249885  -0.3535534   0.4821183), wk =   0.0022539
        k(  233) = (   0.3214122   0.1285649   0.0000000), wk =   0.0022539
        k(  234) = (   0.3535534   0.1607061  -0.0321412), wk =   0.0045079
        k(  235) = (   0.3856946   0.1928473  -0.0642824), wk =   0.0045079
        k(  236) = (   0.4178358   0.2249885  -0.0964237), wk =   0.0045079
        k(  237) = (  -0.2571297  -0.4499770   0.5785419), wk =   0.0045079
        k(  238) = (  -0.2249885  -0.4178358   0.5464007), wk =   0.0045079
        k(  239) = (  -0.1928473  -0.3856946   0.5142595), wk =   0.0045079
        k(  240) = (  -0.1607061  -0.3535534   0.4821183), wk =   0.0045079
        k(  241) = (  -0.1285649  -0.3214122   0.4499770), wk =   0.0045079
        k(  242) = (  -0.0964237  -0.2892710   0.4178358), wk =   0.0045079
        k(  243) = (  -0.0642824  -0.2571297   0.3856946), wk =   0.0045079
        k(  244) = (  -0.0321412  -0.2249885   0.3535534), wk =   0.0045079
        k(  245) = (   0.0000000  -0.1928473   0.3214122), wk =   0.0022539
        k(  246) = (   0.3856946   0.1285649   0.0000000), wk =   0.0022539
        k(  247) = (   0.4178358   0.1607061  -0.0321412), wk =   0.0045079
        k(  248) = (   0.4499770   0.1928473  -0.0642824), wk =   0.0045079
        k(  249) = (  -0.2249885  -0.4821183   0.6106831), wk =   0.0045079
        k(  250) = (  -0.1928473  -0.4499770   0.5785419), wk =   0.0045079
        k(  251) = (  -0.1607061  -0.4178358   0.5464007), wk =   0.0045079
        k(  252) = (  -0.1285649  -0.3856946   0.5142595), wk =   0.0045079
        k(  253) = (  -0.0964237  -0.3535534   0.4821183), wk =   0.0045079
        k(  254) = (  -0.0642824  -0.3214122   0.4499770), wk =   0.0045079
        k(  255) = (  -0.0321412  -0.2892710   0.4178358), wk =   0.0045079
        k(  256) = (   0.0000000  -0.2571297   0.3856946), wk =   0.0022539
        k(  257) = (   0.4499770   0.1285649   0.0000000), wk =   0.0022539
        k(  258) = (   0.4821183   0.1607061  -0.0321412), wk =   0.0045079
        k(  259) = (  -0.1928473  -0.5142595   0.6428243), wk =   0.0045079
        k(  260) = (  -0.1607061  -0.4821183   0.6106831), wk =   0.0045079
        k(  261) = (  -0.1285649  -0.4499770   0.5785419), wk =   0.0045079
        k(  262) = (  -0.0964237  -0.4178358   0.5464007), wk =   0.0045079
        k(  263) = (  -0.0642824  -0.3856946   0.5142595), wk =   0.0045079
        k(  264) = (  -0.0321412  -0.3535534   0.4821183), wk =   0.0045079
        k(  265) = (  -0.0000000  -0.3214122   0.4499770), wk =   0.0022539
        k(  266) = (   0.5142595   0.1285649   0.0000000), wk =   0.0022539
        k(  267) = (  -0.1607061  -0.5464007   0.6749656), wk =   0.0045079
        k(  268) = (  -0.1285649  -0.5142595   0.6428243), wk =   0.0045079
        k(  269) = (  -0.0964237  -0.4821183   0.6106831), wk =   0.0045079
        k(  270) = (  -0.0642824  -0.4499770   0.5785419), wk =   0.0045079
        k(  271) = (  -0.0321412  -0.4178358   0.5464007), wk =   0.0045079
        k(  272) = (   0.0000000  -0.3856946   0.5142595), wk =   0.0022539
        k(  273) = (  -0.1285649  -0.5785419   0.7071068), wk =   0.0022539
        k(  274) = (  -0.0964237  -0.5464007   0.6749656), wk =   0.0045079
        k(  275) = (  -0.0642824  -0.5142595   0.6428243), wk =   0.0045079
        k(  276) = (  -0.0321412  -0.4821183   0.6106831), wk =   0.0045079
        k(  277) = (  -0.0000000  -0.4499770   0.5785419), wk =   0.0022539
        k(  278) = (  -0.0642824  -0.5785419   0.7071068), wk =   0.0022539
        k(  279) = (  -0.0321412  -0.5464007   0.6749656), wk =   0.0045079
        k(  280) = (   0.0000000  -0.5142595   0.6428243), wk =   0.0022539
        k(  281) = (  -0.7071068   0.1285649   0.0000000), wk =   0.0011270
        k(  282) = (   0.3856946   0.1928473  -0.0000000), wk =   0.0022539
        k(  283) = (   0.4178358   0.2249885  -0.0321412), wk =   0.0045079
        k(  284) = (  -0.2571297  -0.4499770   0.6428243), wk =   0.0045079
        k(  285) = (  -0.2249885  -0.4178358   0.6106831), wk =   0.0045079
        k(  286) = (  -0.1928473  -0.3856946   0.5785419), wk =   0.0045079
        k(  287) = (  -0.1607061  -0.3535534   0.5464007), wk =   0.0022539
        k(  288) = (   0.4499770   0.1928473   0.0000000), wk =   0.0022539
        k(  289) = (  -0.2249885  -0.4821183   0.6749656), wk =   0.0045079
        k(  290) = (  -0.1928473  -0.4499770   0.6428243), wk =   0.0045079
        k(  291) = (  -0.1607061  -0.4178358   0.6106831), wk =   0.0045079
        k(  292) = (  -0.1285649  -0.3856946   0.5785419), wk =   0.0045079
        k(  293) = (  -0.0964237  -0.3535534   0.5464007), wk =   0.0045079
        k(  294) = (  -0.0642824  -0.3214122   0.5142595), wk =   0.0045079
        k(  295) = (  -0.0321412  -0.2892710   0.4821183), wk =   0.0045079
        k(  296) = (   0.0000000  -0.2571297   0.4499770), wk =   0.0022539
        k(  297) = (  -0.1928473  -0.5142595   0.7071068), wk =   0.0022539
        k(  298) = (  -0.1607061  -0.4821183   0.6749656), wk =   0.0045079
        k(  299) = (  -0.1285649  -0.4499770   0.6428243), wk =   0.0045079
        k(  300) = (  -0.0964237  -0.4178358   0.6106831), wk =   0.0045079
        k(  301) = (  -0.0642824  -0.3856946   0.5785419), wk =   0.0045079
        k(  302) = (  -0.0321412  -0.3535534   0.5464007), wk =   0.0045079
        k(  303) = (  -0.0000000  -0.3214122   0.5142595), wk =   0.0022539
        k(  304) = (  -0.1285649  -0.5142595   0.7071068), wk =   0.0022539
        k(  305) = (  -0.0964237  -0.4821183   0.6749656), wk =   0.0045079
        k(  306) = (  -0.0642824  -0.4499770   0.6428243), wk =   0.0045079
        k(  307) = (  -0.0321412  -0.4178358   0.6106831), wk =   0.0045079
        k(  308) = (   0.0000000  -0.3856946   0.5785419), wk =   0.0022539
        k(  309) = (  -0.0642824  -0.5142595   0.7071068), wk =   0.0022539
        k(  310) = (  -0.0321412  -0.4821183   0.6749656), wk =   0.0045079
        k(  311) = (  -0.0000000  -0.4499770   0.6428243), wk =   0.0022539
        k(  312) = (  -0.7071068   0.1928473   0.0000000), wk =   0.0011270
        k(  313) = (  -0.1928473  -0.4499770   0.7071068), wk =   0.0022539
        k(  314) = (  -0.1607061  -0.4178358   0.6749656), wk =   0.0045079
        k(  315) = (  -0.1285649  -0.3856946   0.6428243), wk =   0.0045079
        k(  316) = (  -0.0964237  -0.3535534   0.6106831), wk =   0.0022539
        k(  317) = (  -0.1285649  -0.4499770   0.7071068), wk =   0.0022539
        k(  318) = (  -0.0964237  -0.4178358   0.6749656), wk =   0.0045079
        k(  319) = (  -0.0642824  -0.3856946   0.6428243), wk =   0.0045079
        k(  320) = (  -0.0321412  -0.3535534   0.6106831), wk =   0.0045079
        k(  321) = (  -0.0000000  -0.3214122   0.5785419), wk =   0.0022539
        k(  322) = (  -0.0642824  -0.4499770   0.7071068), wk =   0.0022539
        k(  323) = (  -0.0321412  -0.4178358   0.6749656), wk =   0.0045079
        k(  324) = (   0.0000000  -0.3856946   0.6428243), wk =   0.0022539
        k(  325) = (  -0.7071068   0.2571297   0.0000000), wk =   0.0011270
        k(  326) = (  -0.0642824  -0.3856946   0.7071068), wk =   0.0022539
        k(  327) = (  -0.0321412  -0.3535534   0.6749656), wk =   0.0022539
        k(  328) = (  -0.7071068   0.3214122  -0.0000000), wk =   0.0011270

                       cryst. coord.
        k(    1) = (   0.0000000   0.0000000   0.0000000), wk =   0.0000939
        k(    2) = (   0.0000000   0.0000000   0.0454545), wk =   0.0007513
        k(    3) = (   0.0000000   0.0000000   0.0909091), wk =   0.0007513
        k(    4) = (   0.0000000   0.0000000   0.1363636), wk =   0.0007513
        k(    5) = (   0.0000000   0.0000000   0.1818182), wk =   0.0007513
        k(    6) = (   0.0000000   0.0000000   0.2272727), wk =   0.0007513
        k(    7) = (   0.0000000   0.0000000   0.2727273), wk =   0.0007513
        k(    8) = (   0.0000000   0.0000000   0.3181818), wk =   0.0007513
        k(    9) = (   0.0000000   0.0000000   0.3636364), wk =   0.0007513
        k(   10) = (   0.0000000   0.0000000   0.4090909), wk =   0.0007513
        k(   11) = (   0.0000000   0.0000000   0.4545455), wk =   0.0007513
        k(   12) = (   0.0000000   0.0000000  -0.5000000), wk =   0.0003757
        k(   13) = (   0.0000000   0.0454545   0.0454545), wk =   0.0005635
        k(   14) = (   0.0000000   0.0454545   0.0909091), wk =   0.0022539
        k(   15) = (   0.0000000   0.0454545   0.1363636), wk =   0.0022539
        k(   16) = (   0.0000000   0.0454545   0.1818182), wk =   0.0022539
        k(   17) = (   0.0000000   0.0454545   0.2272727), wk =   0.0022539
        k(   18) = (   0.0000000   0.0454545   0.2727273), wk =   0.0022539
        k(   19) = (   0.0000000   0.0454545   0.3181818), wk =   0.0022539
        k(   20) = (   0.0000000   0.0454545   0.3636364), wk =   0.0022539
        k(   21) = (   0.0000000   0.0454545   0.4090909), wk =   0.0022539
        k(   22) = (   0.0000000   0.0454545   0.4545455), wk =   0.0022539
        k(   23) = (   0.0000000   0.0454545  -0.5000000), wk =   0.0022539
        k(   24) = (   0.0000000   0.0454545  -0.4545455), wk =   0.0022539
        k(   25) = (   0.0000000   0.0454545  -0.4090909), wk =   0.0022539
        k(   26) = (   0.0000000   0.0454545  -0.3636364), wk =   0.0022539
        k(   27) = (   0.0000000   0.0454545  -0.3181818), wk =   0.0022539
        k(   28) = (   0.0000000   0.0454545  -0.2727273), wk =   0.0022539
        k(   29) = (   0.0000000   0.0454545  -0.2272727), wk =   0.0022539
        k(   30) = (   0.0000000   0.0454545  -0.1818182), wk =   0.0022539
        k(   31) = (   0.0000000   0.0454545  -0.1363636), wk =   0.0022539
        k(   32) = (   0.0000000   0.0454545  -0.0909091), wk =   0.0022539
        k(   33) = (   0.0000000   0.0454545  -0.0454545), wk =   0.0011270
        k(   34) = (   0.0000000   0.0909091   0.0909091), wk =   0.0005635
        k(   35) = (   0.0000000   0.0909091   0.1363636), wk =   0.0022539
        k(   36) = (   0.0000000   0.0909091   0.1818182), wk =   0.0022539
        k(   37) = (   0.0000000   0.0909091   0.2272727), wk =   0.0022539
        k(   38) = (   0.0000000   0.0909091   0.2727273), wk =   0.0022539
        k(   39) = (   0.0000000   0.0909091   0.3181818), wk =   0.0022539
        k(   40) = (   0.0000000   0.0909091   0.3636364), wk =   0.0022539
        k(   41) = (   0.0000000   0.0909091   0.4090909), wk =   0.0022539
        k(   42) = (   0.0000000   0.0909091   0.4545455), wk =   0.0022539
        k(   43) = (   0.0000000   0.0909091  -0.5000000), wk =   0.0022539
        k(   44) = (   0.0000000   0.0909091  -0.4545455), wk =   0.0022539
        k(   45) = (   0.0000000   0.0909091  -0.4090909), wk =   0.0022539
        k(   46) = (   0.0000000   0.0909091  -0.3636364), wk =   0.0022539
        k(   47) = (   0.0000000   0.0909091  -0.3181818), wk =   0.0022539
        k(   48) = (   0.0000000   0.0909091  -0.2727273), wk =   0.0022539
        k(   49) = (   0.0000000   0.0909091  -0.2272727), wk =   0.0022539
        k(   50) = (   0.0000000   0.0909091  -0.1818182), wk =   0.0022539
        k(   51) = (   0.0000000   0.0909091  -0.1363636), wk =   0.0022539
        k(   52) = (   0.0000000   0.0909091  -0.0909091), wk =   0.0011270
        k(   53) = (   0.0000000   0.1363636   0.1363636), wk =   0.0005635
        k(   54) = (   0.0000000   0.1363636   0.1818182), wk =   0.0022539
        k(   55) = (   0.0000000   0.1363636   0.2272727), wk =   0.0022539
        k(   56) = (   0.0000000   0.1363636   0.2727273), wk =   0.0022539
        k(   57) = (   0.0000000   0.1363636   0.3181818), wk =   0.0022539
        k(   58) = (   0.0000000   0.1363636   0.3636364), wk =   0.0022539
        k(   59) = (   0.0000000   0.1363636   0.4090909), wk =   0.0022539
        k(   60) = (   0.0000000   0.1363636   0.4545455), wk =   0.0022539
        k(   61) = (   0.0000000   0.1363636  -0.5000000), wk =   0.0022539
        k(   62) = (   0.0000000   0.1363636  -0.4545455), wk =   0.0022539
        k(   63) = (   0.0000000   0.1363636  -0.4090909), wk =   0.0022539
        k(   64) = (   0.0000000   0.1363636  -0.3636364), wk =   0.0022539
        k(   65) = (   0.0000000   0.1363636  -0.3181818), wk =   0.0022539
        k(   66) = (   0.0000000   0.1363636  -0.2727273), wk =   0.0022539
        k(   67) = (   0.0000000   0.1363636  -0.2272727), wk =   0.0022539
        k(   68) = (   0.0000000   0.1363636  -0.1818182), wk =   0.0022539
        k(   69) = (   0.0000000   0.1363636  -0.1363636), wk =   0.0011270
        k(   70) = (   0.0000000   0.1818182   0.1818182), wk =   0.0005635
        k(   71) = (   0.0000000   0.1818182   0.2272727), wk =   0.0022539
        k(   72) = (   0.0000000   0.1818182   0.2727273), wk =   0.0022539
        k(   73) = (   0.0000000   0.1818182   0.3181818), wk =   0.0022539
        k(   74) = (   0.0000000   0.1818182   0.3636364), wk =   0.0022539
        k(   75) = (   0.0000000   0.1818182   0.4090909), wk =   0.0022539
        k(   76) = (   0.0000000   0.1818182   0.4545455), wk =   0.0022539
        k(   77) = (   0.0000000   0.1818182  -0.5000000), wk =   0.0022539
        k(   78) = (   0.0000000   0.1818182  -0.4545455), wk =   0.0022539
        k(   79) = (   0.0000000   0.1818182  -0.4090909), wk =   0.0022539
        k(   80) = (   0.0000000   0.1818182  -0.3636364), wk =   0.0022539
        k(   81) = (   0.0000000   0.1818182  -0.3181818), wk =   0.0022539
        k(   82) = (   0.0000000   0.1818182  -0.2727273), wk =   0.0022539
        k(   83) = (   0.0000000   0.1818182  -0.2272727), wk =   0.0022539
        k(   84) = (   0.0000000   0.1818182  -0.1818182), wk =   0.0011270
        k(   85) = (   0.0000000   0.2272727   0.2272727), wk =   0.0005635
        k(   86) = (   0.0000000   0.2272727   0.2727273), wk =   0.0022539
        k(   87) = (   0.0000000   0.2272727   0.3181818), wk =   0.0022539
        k(   88) = (   0.0000000   0.2272727   0.3636364), wk =   0.0022539
        k(   89) = (   0.0000000   0.2272727   0.4090909), wk =   0.0022539
        k(   90) = (   0.0000000   0.2272727   0.4545455), wk =   0.0022539
        k(   91) = (   0.0000000   0.2272727  -0.5000000), wk =   0.0022539
        k(   92) = (   0.0000000   0.2272727  -0.4545455), wk =   0.0022539
        k(   93) = (   0.0000000   0.2272727  -0.4090909), wk =   0.0022539
        k(   94) = (   0.0000000   0.2272727  -0.3636364), wk =   0.0022539
        k(   95) = (   0.0000000   0.2272727  -0.3181818), wk =   0.0022539
        k(   96) = (   0.0000000   0.2272727  -0.2727273), wk =   0.0022539
        k(   97) = (   0.0000000   0.2272727  -0.2272727), wk =   0.0011270
        k(   98) = (   0.0000000   0.2727273   0.2727273), wk =   0.0005635
        k(   99) = (   0.0000000   0.2727273   0.3181818), wk =   0.0022539
        k(  100) = (   0.0000000   0.2727273   0.3636364), wk =   0.0022539
        k(  101) = (   0.0000000   0.2727273   0.4090909), wk =   0.0022539
        k(  102) = (   0.0000000   0.2727273   0.4545455), wk =   0.0022539
        k(  103) = (   0.0000000   0.2727273  -0.5000000), wk =   0.0022539
        k(  104) = (   0.0000000   0.2727273  -0.4545455), wk =   0.0022539
        k(  105) = (   0.0000000   0.2727273  -0.4090909), wk =   0.0022539
        k(  106) = (   0.0000000   0.2727273  -0.3636364), wk =   0.0022539
        k(  107) = (   0.0000000   0.2727273  -0.3181818), wk =   0.0022539
        k(  108) = (   0.0000000   0.2727273  -0.2727273), wk =   0.0011270
        k(  109) = (   0.0000000   0.3181818   0.3181818), wk =   0.0005635
        k(  110) = (   0.0000000   0.3181818   0.3636364), wk =   0.0022539
        k(  111) = (   0.0000000   0.3181818   0.4090909), wk =   0.0022539
        k(  112) = (   0.0000000   0.3181818   0.4545455), wk =   0.0022539
        k(  113) = (   0.0000000   0.3181818  -0.5000000), wk =   0.0022539
        k(  114) = (   0.0000000   0.3181818  -0.4545455), wk =   0.0022539
        k(  115) = (   0.0000000   0.3181818  -0.4090909), wk =   0.0022539
        k(  116) = (   0.0000000   0.3181818  -0.3636364), wk =   0.0022539
        k(  117) = (   0.0000000   0.3181818  -0.3181818), wk =   0.0011270
        k(  118) = (   0.0000000   0.3636364   0.3636364), wk =   0.0005635
        k(  119) = (   0.0000000   0.3636364   0.4090909), wk =   0.0022539
        k(  120) = (   0.0000000   0.3636364   0.4545455), wk =   0.0022539
        k(  121) = (   0.0000000   0.3636364  -0.5000000), wk =   0.0022539
        k(  122) = (   0.0000000   0.3636364  -0.4545455), wk =   0.0022539
        k(  123) = (   0.0000000   0.3636364  -0.4090909), wk =   0.0022539
        k(  124) = (   0.0000000   0.3636364  -0.3636364), wk =   0.0011270
        k(  125) = (   0.0000000   0.4090909   0.4090909), wk =   0.0005635
        k(  126) = (   0.0000000   0.4090909   0.4545455), wk =   0.0022539
        k(  127) = (   0.0000000   0.4090909  -0.5000000), wk =   0.0022539
        k(  128) = (   0.0000000   0.4090909  -0.4545455), wk =   0.0022539
        k(  129) = (   0.0000000   0.4090909  -0.4090909), wk =   0.0011270
        k(  130) = (   0.0000000   0.4545455   0.4545455), wk =   0.0005635
        k(  131) = (   0.0000000   0.4545455  -0.5000000), wk =   0.0022539
        k(  132) = (   0.0000000   0.4545455  -0.4545455), wk =   0.0011270
        k(  133) = (   0.0000000  -0.5000000  -0.5000000), wk =   0.0002817
        k(  134) = (   0.0454545   0.0909091   0.1363636), wk =   0.0022539
        k(  135) = (   0.0454545   0.0909091   0.1818182), wk =   0.0045079
        k(  136) = (   0.0454545   0.0909091   0.2272727), wk =   0.0045079
        k(  137) = (   0.0454545   0.0909091   0.2727273), wk =   0.0045079
        k(  138) = (   0.0454545   0.0909091   0.3181818), wk =   0.0045079
        k(  139) = (   0.0454545   0.0909091   0.3636364), wk =   0.0045079
        k(  140) = (   0.0454545   0.0909091   0.4090909), wk =   0.0045079
        k(  141) = (   0.0454545   0.0909091   0.4545455), wk =   0.0045079
        k(  142) = (   0.0454545   0.0909091  -0.5000000), wk =   0.0045079
        k(  143) = (   0.0454545   0.0909091  -0.4545455), wk =   0.0022539
        k(  144) = (   0.0454545   0.1363636   0.1818182), wk =   0.0022539
        k(  145) = (   0.0454545   0.1363636   0.2272727), wk =   0.0045079
        k(  146) = (   0.0454545   0.1363636   0.2727273), wk =   0.0045079
        k(  147) = (   0.0454545   0.1363636   0.3181818), wk =   0.0045079
        k(  148) = (   0.0454545   0.1363636   0.3636364), wk =   0.0045079
        k(  149) = (   0.0454545   0.1363636   0.4090909), wk =   0.0045079
        k(  150) = (   0.0454545   0.1363636   0.4545455), wk =   0.0045079
        k(  151) = (   0.0454545   0.1363636  -0.5000000), wk =   0.0045079
        k(  152) = (   0.0454545   0.1363636  -0.4545455), wk =   0.0045079
        k(  153) = (   0.0454545   0.1363636  -0.4090909), wk =   0.0045079
        k(  154) = (   0.0454545   0.1363636  -0.3636364), wk =   0.0045079
        k(  155) = (   0.0454545   0.1363636  -0.3181818), wk =   0.0045079
        k(  156) = (   0.0454545   0.1363636  -0.2727273), wk =   0.0045079
        k(  157) = (   0.0454545   0.1363636  -0.2272727), wk =   0.0045079
        k(  158) = (   0.0454545   0.1363636  -0.1818182), wk =   0.0045079
        k(  159) = (   0.0454545   0.1363636  -0.1363636), wk =   0.0045079
        k(  160) = (   0.0454545   0.1363636  -0.0909091), wk =   0.0022539
        k(  161) = (   0.0454545   0.1818182   0.2272727), wk =   0.0022539
        k(  162) = (   0.0454545   0.1818182   0.2727273), wk =   0.0045079
        k(  163) = (   0.0454545   0.1818182   0.3181818), wk =   0.0045079
        k(  164) = (   0.0454545   0.1818182   0.3636364), wk =   0.0045079
        k(  165) = (   0.0454545   0.1818182   0.4090909), wk =   0.0045079
        k(  166) = (   0.0454545   0.1818182   0.4545455), wk =   0.0045079
        k(  167) = (   0.0454545   0.1818182  -0.5000000), wk =   0.0045079
        k(  168) = (   0.0454545   0.1818182  -0.4545455), wk =   0.0045079
        k(  169) = (   0.0454545   0.1818182  -0.4090909), wk =   0.0045079
        k(  170) = (   0.0454545   0.1818182  -0.3636364), wk =   0.0045079
        k(  171) = (   0.0454545   0.1818182  -0.3181818), wk =   0.0045079
        k(  172) = (   0.0454545   0.1818182  -0.2727273), wk =   0.0045079
        k(  173) = (   0.0454545   0.1818182  -0.2272727), wk =   0.0045079
        k(  174) = (   0.0454545   0.1818182  -0.1818182), wk =   0.0045079
        k(  175) = (   0.0454545   0.1818182  -0.1363636), wk =   0.0022539
        k(  176) = (   0.0454545   0.2272727   0.2727273), wk =   0.0022539
        k(  177) = (   0.0454545   0.2272727   0.3181818), wk =   0.0045079
        k(  178) = (   0.0454545   0.2272727   0.3636364), wk =   0.0045079
        k(  179) = (   0.0454545   0.2272727   0.4090909), wk =   0.0045079
        k(  180) = (   0.0454545   0.2272727   0.4545455), wk =   0.0045079
        k(  181) = (   0.0454545   0.2272727  -0.5000000), wk =   0.0045079
        k(  182) = (   0.0454545   0.2272727  -0.4545455), wk =   0.0045079
        k(  183) = (   0.0454545   0.2272727  -0.4090909), wk =   0.0045079
        k(  184) = (   0.0454545   0.2272727  -0.3636364), wk =   0.0045079
        k(  185) = (   0.0454545   0.2272727  -0.3181818), wk =   0.0045079
        k(  186) = (   0.0454545   0.2272727  -0.2727273), wk =   0.0045079
        k(  187) = (   0.0454545   0.2272727  -0.2272727), wk =   0.0045079
        k(  188) = (   0.0454545   0.2272727  -0.1818182), wk =   0.0022539
        k(  189) = (   0.0454545   0.2727273   0.3181818), wk =   0.0022539
        k(  190) = (   0.0454545   0.2727273   0.3636364), wk =   0.0045079
        k(  191) = (   0.0454545   0.2727273   0.4090909), wk =   0.0045079
        k(  192) = (   0.0454545   0.2727273   0.4545455), wk =   0.0045079
        k(  193) = (   0.0454545   0.2727273  -0.5000000), wk =   0.0045079
        k(  194) = (   0.0454545   0.2727273  -0.4545455), wk =   0.0045079
        k(  195) = (   0.0454545   0.2727273  -0.4090909), wk =   0.0045079
        k(  196) = (   0.0454545   0.2727273  -0.3636364), wk =   0.0045079
        k(  197) = (   0.0454545   0.2727273  -0.3181818), wk =   0.0045079
        k(  198) = (   0.0454545   0.2727273  -0.2727273), wk =   0.0045079
        k(  199) = (   0.0454545   0.2727273  -0.2272727), wk =   0.0022539
        k(  200) = (   0.0454545   0.3181818   0.3636364), wk =   0.0022539
        k(  201) = (   0.0454545   0.3181818   0.4090909), wk =   0.0045079
        k(  202) = (   0.0454545   0.3181818   0.4545455), wk =   0.0045079
        k(  203) = (   0.0454545   0.3181818  -0.5000000), wk =   0.0045079
        k(  204) = (   0.0454545   0.3181818  -0.4545455), wk =   0.0045079
        k(  205) = (   0.0454545   0.3181818  -0.4090909), wk =   0.0045079
        k(  206) = (   0.0454545   0.3181818  -0.3636364), wk =   0.0045079
        k(  207) = (   0.0454545   0.3181818  -0.3181818), wk =   0.0045079
        k(  208) = (   0.0454545   0.3181818  -0.2727273), wk =   0.0022539
        k(  209) = (   0.0454545   0.3636364   0.4090909), wk =   0.0022539
        k(  210) = (   0.0454545   0.3636364   0.4545455), wk =   0.0045079
        k(  211) = (   0.0454545   0.3636364  -0.5000000), wk =   0.0045079
        k(  212) = (   0.0454545   0.3636364  -0.4545455), wk =   0.0045079
        k(  213) = (   0.0454545   0.3636364  -0.4090909), wk =   0.0045079
        k(  214) = (   0.0454545   0.3636364  -0.3636364), wk =   0.0045079
        k(  215) = (   0.0454545   0.3636364  -0.3181818), wk =   0.0022539
        k(  216) = (   0.0454545   0.4090909   0.4545455), wk =   0.0022539
        k(  217) = (   0.0454545   0.4090909  -0.5000000), wk =   0.0045079
        k(  218) = (   0.0454545   0.4090909  -0.4545455), wk =   0.0045079
        k(  219) = (   0.0454545   0.4090909  -0.4090909), wk =   0.0045079
        k(  220) = (   0.0454545   0.4090909  -0.3636364), wk =   0.0022539
        k(  221) = (   0.0454545   0.4545455  -0.5000000), wk =   0.0022539
        k(  222) = (   0.0454545   0.4545455  -0.4545455), wk =   0.0045079
        k(  223) = (   0.0454545   0.4545455  -0.4090909), wk =   0.0022539
        k(  224) = (   0.0454545  -0.5000000  -0.4545455), wk =   0.0011270
        k(  225) = (   0.0909091   0.1818182   0.2727273), wk =   0.0022539
        k(  226) = (   0.0909091   0.1818182   0.3181818), wk =   0.0045079
        k(  227) = (   0.0909091   0.1818182   0.3636364), wk =   0.0045079
        k(  228) = (   0.0909091   0.1818182   0.4090909), wk =   0.0045079
        k(  229) = (   0.0909091   0.1818182   0.4545455), wk =   0.0045079
        k(  230) = (   0.0909091   0.1818182  -0.5000000), wk =   0.0045079
        k(  231) = (   0.0909091   0.1818182  -0.4545455), wk =   0.0045079
        k(  232) = (   0.0909091   0.1818182  -0.4090909), wk =   0.0022539
        k(  233) = (   0.0909091   0.2272727   0.3181818), wk =   0.0022539
        k(  234) = (   0.0909091   0.2272727   0.3636364), wk =   0.0045079
        k(  235) = (   0.0909091   0.2272727   0.4090909), wk =   0.0045079
        k(  236) = (   0.0909091   0.2272727   0.4545455), wk =   0.0045079
        k(  237) = (   0.0909091   0.2272727  -0.5000000), wk =   0.0045079
        k(  238) = (   0.0909091   0.2272727  -0.4545455), wk =   0.0045079
        k(  239) = (   0.0909091   0.2272727  -0.4090909), wk =   0.0045079
        k(  240) = (   0.0909091   0.2272727  -0.3636364), wk =   0.0045079
        k(  241) = (   0.0909091   0.2272727  -0.3181818), wk =   0.0045079
        k(  242) = (   0.0909091   0.2272727  -0.2727273), wk =   0.0045079
        k(  243) = (   0.0909091   0.2272727  -0.2272727), wk =   0.0045079
        k(  244) = (   0.0909091   0.2272727  -0.1818182), wk =   0.0045079
        k(  245) = (   0.0909091   0.2272727  -0.1363636), wk =   0.0022539
        k(  246) = (   0.0909091   0.2727273   0.3636364), wk =   0.0022539
        k(  247) = (   0.0909091   0.2727273   0.4090909), wk =   0.0045079
        k(  248) = (   0.0909091   0.2727273   0.4545455), wk =   0.0045079
        k(  249) = (   0.0909091   0.2727273  -0.5000000), wk =   0.0045079
        k(  250) = (   0.0909091   0.2727273  -0.4545455), wk =   0.0045079
        k(  251) = (   0.0909091   0.2727273  -0.4090909), wk =   0.0045079
        k(  252) = (   0.0909091   0.2727273  -0.3636364), wk =   0.0045079
        k(  253) = (   0.0909091   0.2727273  -0.3181818), wk =   0.0045079
        k(  254) = (   0.0909091   0.2727273  -0.2727273), wk =   0.0045079
        k(  255) = (   0.0909091   0.2727273  -0.2272727), wk =   0.0045079
        k(  256) = (   0.0909091   0.2727273  -0.1818182), wk =   0.0022539
        k(  257) = (   0.0909091   0.3181818   0.4090909), wk =   0.0022539
        k(  258) = (   0.0909091   0.3181818   0.4545455), wk =   0.0045079
        k(  259) = (   0.0909091   0.3181818  -0.5000000), wk =   0.0045079
        k(  260) = (   0.0909091   0.3181818  -0.4545455), wk =   0.0045079
        k(  261) = (   0.0909091   0.3181818  -0.4090909), wk =   0.0045079
        k(  262) = (   0.0909091   0.3181818  -0.3636364), wk =   0.0045079
        k(  263) = (   0.0909091   0.3181818  -0.3181818), wk =   0.0045079
        k(  264) = (   0.0909091   0.3181818  -0.2727273), wk =   0.0045079
        k(  265) = (   0.0909091   0.3181818  -0.2272727), wk =   0.0022539
        k(  266) = (   0.0909091   0.3636364   0.4545455), wk =   0.0022539
        k(  267) = (   0.0909091   0.3636364  -0.5000000), wk =   0.0045079
        k(  268) = (   0.0909091   0.3636364  -0.4545455), wk =   0.0045079
        k(  269) = (   0.0909091   0.3636364  -0.4090909), wk =   0.0045079
        k(  270) = (   0.0909091   0.3636364  -0.3636364), wk =   0.0045079
        k(  271) = (   0.0909091   0.3636364  -0.3181818), wk =   0.0045079
        k(  272) = (   0.0909091   0.3636364  -0.2727273), wk =   0.0022539
        k(  273) = (   0.0909091   0.4090909  -0.5000000), wk =   0.0022539
        k(  274) = (   0.0909091   0.4090909  -0.4545455), wk =   0.0045079
        k(  275) = (   0.0909091   0.4090909  -0.4090909), wk =   0.0045079
        k(  276) = (   0.0909091   0.4090909  -0.3636364), wk =   0.0045079
        k(  277) = (   0.0909091   0.4090909  -0.3181818), wk =   0.0022539
        k(  278) = (   0.0909091   0.4545455  -0.4545455), wk =   0.0022539
        k(  279) = (   0.0909091   0.4545455  -0.4090909), wk =   0.0045079
        k(  280) = (   0.0909091   0.4545455  -0.3636364), wk =   0.0022539
        k(  281) = (   0.0909091  -0.5000000  -0.4090909), wk =   0.0011270
        k(  282) = (   0.1363636   0.2727273   0.4090909), wk =   0.0022539
        k(  283) = (   0.1363636   0.2727273   0.4545455), wk =   0.0045079
        k(  284) = (   0.1363636   0.2727273  -0.5000000), wk =   0.0045079
        k(  285) = (   0.1363636   0.2727273  -0.4545455), wk =   0.0045079
        k(  286) = (   0.1363636   0.2727273  -0.4090909), wk =   0.0045079
        k(  287) = (   0.1363636   0.2727273  -0.3636364), wk =   0.0022539
        k(  288) = (   0.1363636   0.3181818   0.4545455), wk =   0.0022539
        k(  289) = (   0.1363636   0.3181818  -0.5000000), wk =   0.0045079
        k(  290) = (   0.1363636   0.3181818  -0.4545455), wk =   0.0045079
        k(  291) = (   0.1363636   0.3181818  -0.4090909), wk =   0.0045079
        k(  292) = (   0.1363636   0.3181818  -0.3636364), wk =   0.0045079
        k(  293) = (   0.1363636   0.3181818  -0.3181818), wk =   0.0045079
        k(  294) = (   0.1363636   0.3181818  -0.2727273), wk =   0.0045079
        k(  295) = (   0.1363636   0.3181818  -0.2272727), wk =   0.0045079
        k(  296) = (   0.1363636   0.3181818  -0.1818182), wk =   0.0022539
        k(  297) = (   0.1363636   0.3636364  -0.5000000), wk =   0.0022539
        k(  298) = (   0.1363636   0.3636364  -0.4545455), wk =   0.0045079
        k(  299) = (   0.1363636   0.3636364  -0.4090909), wk =   0.0045079
        k(  300) = (   0.1363636   0.3636364  -0.3636364), wk =   0.0045079
        k(  301) = (   0.1363636   0.3636364  -0.3181818), wk =   0.0045079
        k(  302) = (   0.1363636   0.3636364  -0.2727273), wk =   0.0045079
        k(  303) = (   0.1363636   0.3636364  -0.2272727), wk =   0.0022539
        k(  304) = (   0.1363636   0.4090909  -0.4545455), wk =   0.0022539
        k(  305) = (   0.1363636   0.4090909  -0.4090909), wk =   0.0045079
        k(  306) = (   0.1363636   0.4090909  -0.3636364), wk =   0.0045079
        k(  307) = (   0.1363636   0.4090909  -0.3181818), wk =   0.0045079
        k(  308) = (   0.1363636   0.4090909  -0.2727273), wk =   0.0022539
        k(  309) = (   0.1363636   0.4545455  -0.4090909), wk =   0.0022539
        k(  310) = (   0.1363636   0.4545455  -0.3636364), wk =   0.0045079
        k(  311) = (   0.1363636   0.4545455  -0.3181818), wk =   0.0022539
        k(  312) = (   0.1363636  -0.5000000  -0.3636364), wk =   0.0011270
        k(  313) = (   0.1818182   0.3636364  -0.4545455), wk =   0.0022539
        k(  314) = (   0.1818182   0.3636364  -0.4090909), wk =   0.0045079
        k(  315) = (   0.1818182   0.3636364  -0.3636364), wk =   0.0045079
        k(  316) = (   0.1818182   0.3636364  -0.3181818), wk =   0.0022539
        k(  317) = (   0.1818182   0.4090909  -0.4090909), wk =   0.0022539
        k(  318) = (   0.1818182   0.4090909  -0.3636364), wk =   0.0045079
        k(  319) = (   0.1818182   0.4090909  -0.3181818), wk =   0.0045079
        k(  320) = (   0.1818182   0.4090909  -0.2727273), wk =   0.0045079
        k(  321) = (   0.1818182   0.4090909  -0.2272727), wk =   0.0022539
        k(  322) = (   0.1818182   0.4545455  -0.3636364), wk =   0.0022539
        k(  323) = (   0.1818182   0.4545455  -0.3181818), wk =   0.0045079
        k(  324) = (   0.1818182   0.4545455  -0.2727273), wk =   0.0022539
        k(  325) = (   0.1818182  -0.5000000  -0.3181818), wk =   0.0011270
        k(  326) = (   0.2272727   0.4545455  -0.3181818), wk =   0.0022539
        k(  327) = (   0.2272727   0.4545455  -0.2727273), wk =   0.0022539
        k(  328) = (   0.2272727  -0.5000000  -0.2727273), wk =   0.0011270

     Dense  grid:    16361 G-vectors     FFT dimensions: (  36,  36,  36)

     Largest allocated arrays     est. size (Mb)     dimensions
        Kohn-Sham Wavefunctions         0.15 Mb     (     268,   36)
        NL pseudopotentials             0.14 Mb     (     134,   68)
        Each V/rho on FFT grid          0.06 Mb     (    3888)
        Each G-vector array             0.01 Mb     (    1023)
        G-vector shells                 0.00 Mb     (     191)
     Largest temporary arrays     est. size (Mb)     dimensions
        Auxiliary wavefunctions         0.59 Mb     (     268,  144)
        Each subspace H/S matrix        0.32 Mb     (     144,  144)
        Each <psi_i|beta_j> matrix      0.07 Mb     (      68,   2,   36)
        Arrays for rho mixing           0.47 Mb     (    3888,    8)

     Check: negative/imaginary core charge=   -0.000003    0.000000

     Initial potential from superposition of free atoms

     starting charge   27.99781, renormalised to   28.00000
     Starting wfc are   36 randomized atomic wfcs
     Checking if some PAW data can be deallocated... 

     total cpu time spent up to now is       11.9 secs

     Self-consistent Calculation

     iteration #  1     ecut=    40.00 Ry     beta=0.70
     Davidson diagonalization with overlap
     ethr =  1.00E-02,  avg # of iterations =  3.5

     Threshold (ethr) on eigenvalues was too large:
     Diagonalizing with lowered threshold

     Davidson diagonalization with overlap
     ethr =  6.13E-05,  avg # of iterations =  3.4

     total cpu time spent up to now is       94.4 secs

     total energy              =    -885.82664854 Ry
     Harris-Foulkes estimate   =    -885.82850194 Ry
     estimated scf accuracy    <       0.02069187 Ry

     iteration #  2     ecut=    40.00 Ry     beta=0.70
     Davidson diagonalization with overlap
     ethr =  7.39E-05,  avg # of iterations =  1.0

     total cpu time spent up to now is      124.5 secs

     total energy              =    -885.82801152 Ry
     Harris-Foulkes estimate   =    -885.82807422 Ry
     estimated scf accuracy    <       0.00188174 Ry

     iteration #  3     ecut=    40.00 Ry     beta=0.70
     Davidson diagonalization with overlap
     ethr =  6.72E-06,  avg # of iterations =  2.2

     total cpu time spent up to now is      166.2 secs

     total energy              =    -885.82837092 Ry
     Harris-Foulkes estimate   =    -885.82839938 Ry
     estimated scf accuracy    <       0.00008548 Ry

     iteration #  4     ecut=    40.00 Ry     beta=0.70
     Davidson diagonalization with overlap
     ethr =  3.05E-07,  avg # of iterations =  2.1

     total cpu time spent up to now is      206.3 secs

     total energy              =    -885.82839820 Ry
     Harris-Foulkes estimate   =    -885.82839644 Ry
     estimated scf accuracy    <       0.00000479 Ry

     iteration #  5     ecut=    40.00 Ry     beta=0.70
     Davidson diagonalization with overlap
     ethr =  1.71E-08,  avg # of iterations =  2.0

     total cpu time spent up to now is      240.6 secs

     End of self-consistent calculation

          k = 0.0000 0.0000 0.0000 (  2085 PWs)   bands (ev):

   -14.5614 -14.5614 -14.5614 -14.5614 -14.4665 -14.4665 -14.4665 -14.4665
[...]

     occupation numbers 
     1.0000   1.0000   1.0000   1.0000   1.0000   1.0000   1.0000   1.0000
     1.0000   1.0000   1.0000   1.0000   1.0000   1.0000   1.0000   1.0000
     1.0000   1.0000   1.0000   1.0000   1.0000   1.0000   1.0000   1.0000
     1.0000   1.0000   1.0000   1.0000   0.0000   0.0000   0.0000   0.0000
     0.0000   0.0000   0.0000   0.0000

          k = 0.0000-0.3857 0.5785 (  2034 PWs)   bands (ev):

   -14.5579 -14.5579 -14.5235 -14.5235 -14.4894 -14.4894 -14.4410 -14.4410
   -13.5651 -13.5651 -13.5170 -13.5170 -13.4647 -13.4647 -13.4256 -13.4256
   -13.3283 -13.3283 -13.2779 -13.2779  -0.3837  -0.3837   0.7972   0.7972
     4.3104   4.3104   5.2651   5.2651   9.7381   9.7381  11.4967  11.4967
    11.9169  11.9169  12.2892  12.2892

     occupation numbers 
     1.0000   1.0000   1.0000   1.0000   1.0000   1.0000   1.0000   1.0000
     1.0000   1.0000   1.0000   1.0000   1.0000   1.0000   1.0000   1.0000
     1.0000   1.0000   1.0000   1.0000   1.0000   1.0000   1.0000   1.0000
     1.0000   1.0000   1.0000   1.0000   0.0000   0.0000   0.0000   0.0000
     0.0000   0.0000   0.0000   0.0000

          k =-0.0643-0.5143 0.7071 (  2028 PWs)   bands (ev):

   -14.5529 -14.5529 -14.5297 -14.5297 -14.4800 -14.4800 -14.4461 -14.4461
   -13.5604 -13.5604 -13.5229 -13.5229 -13.4576 -13.4576 -13.4289 -13.4289
   -13.3227 -13.3227 -13.2822 -13.2822  -0.2651  -0.2651   0.6467   0.6467
     4.7508   4.7508   4.9913   4.9913   9.3535   9.3535   9.5688   9.5688
    12.8592  12.8592  13.9252  13.9252

     occupation numbers 
     1.0000   1.0000   1.0000   1.0000   1.0000   1.0000   1.0000   1.0000
     1.0000   1.0000   1.0000   1.0000   1.0000   1.0000   1.0000   1.0000
     1.0000   1.0000   1.0000   1.0000   1.0000   1.0000   1.0000   1.0000
     1.0000   1.0000   1.0000   1.0000   0.0000   0.0000   0.0000   0.0000
     0.0000   0.0000   0.0000   0.0000

          k =-0.0321-0.4821 0.6750 (  2032 PWs)   bands (ev):

   -14.5545 -14.5545 -14.5282 -14.5282 -14.4832 -14.4832 -14.4443 -14.4443
   -13.5626 -13.5626 -13.5200 -13.5200 -13.4558 -13.4558 -13.4352 -13.4352
   -13.3240 -13.3240 -13.2794 -13.2794  -0.0495  -0.0495   0.4294   0.4294
     4.6112   4.6112   4.9527   4.9527   9.4914   9.4914  10.0274  10.0274
    12.7137  12.7137  13.2921  13.2921

     occupation numbers 
     1.0000   1.0000   1.0000   1.0000   1.0000   1.0000   1.0000   1.0000
     1.0000   1.0000   1.0000   1.0000   1.0000   1.0000   1.0000   1.0000
     1.0000   1.0000   1.0000   1.0000   1.0000   1.0000   1.0000   1.0000
     1.0000   1.0000   1.0000   1.0000   0.0000   0.0000   0.0000   0.0000
     0.0000   0.0000   0.0000   0.0000

          k =-0.0000-0.4500 0.6428 (  2027 PWs)   bands (ev):

   -14.5552 -14.5552 -14.5254 -14.5254 -14.4848 -14.4848 -14.4415 -14.4415
   -13.5629 -13.5629 -13.5159 -13.5159 -13.4565 -13.4565 -13.4351 -13.4351
   -13.3247 -13.3247 -13.2760 -13.2760  -0.0390  -0.0390   0.4283   0.4283
     4.4559   4.4559   5.0228   5.0228   9.5686   9.5686  10.6435  10.6435
    12.5368  12.5368  12.6567  12.6567

     occupation numbers 
     1.0000   1.0000   1.0000   1.0000   1.0000   1.0000   1.0000   1.0000
     1.0000   1.0000   1.0000   1.0000   1.0000   1.0000   1.0000   1.0000
     1.0000   1.0000   1.0000   1.0000   1.0000   1.0000   1.0000   1.0000
     1.0000   1.0000   1.0000   1.0000   0.0000   0.0000   0.0000   0.0000
     0.0000   0.0000   0.0000   0.0000

          k =-0.7071 0.1928 0.0000 (  2024 PWs)   bands (ev):

   -14.5511 -14.5511 -14.5293 -14.5293 -14.4791 -14.4791 -14.4461 -14.4461
   -13.5598 -13.5598 -13.5214 -13.5214 -13.4506 -13.4506 -13.4365 -13.4365
   -13.3219 -13.3219 -13.2807 -13.2807   0.1620   0.1620   0.1987   0.1987
     4.7616   4.7616   4.9089   4.9089   9.3669   9.3669   9.5087   9.5087
    13.3469  13.3469  13.5059  13.5059

     occupation numbers 
     1.0000   1.0000   1.0000   1.0000   1.0000   1.0000   1.0000   1.0000
     1.0000   1.0000   1.0000   1.0000   1.0000   1.0000   1.0000   1.0000
     1.0000   1.0000   1.0000   1.0000   1.0000   1.0000   1.0000   1.0000
     1.0000   1.0000   1.0000   1.0000   0.0000   0.0000   0.0000   0.0000
     0.0000   0.0000   0.0000   0.0000

          k =-0.1928-0.4500 0.7071 (  2027 PWs)   bands (ev):

   -14.5570 -14.5570 -14.5250 -14.5250 -14.4859 -14.4859 -14.4430 -14.4430
   -13.5664 -13.5664 -13.5225 -13.5225 -13.4691 -13.4691 -13.4075 -13.4075
   -13.3285 -13.3285 -13.2840 -13.2840  -0.9567  -0.9567   1.4647   1.4647
     4.6107   4.6107   5.4925   5.4925   9.9857   9.9857  10.2234  10.2234
    11.3153  11.3153  13.5644  13.5644

     occupation numbers 
     1.0000   1.0000   1.0000   1.0000   1.0000   1.0000   1.0000   1.0000
     1.0000   1.0000   1.0000   1.0000   1.0000   1.0000   1.0000   1.0000
     1.0000   1.0000   1.0000   1.0000   1.0000   1.0000   1.0000   1.0000
     1.0000   1.0000   1.0000   1.0000   0.0000   0.0000   0.0000   0.0000
     0.0000   0.0000   0.0000   0.0000

          k =-0.1607-0.4178 0.6750 (  2025 PWs)   bands (ev):

   -14.5567 -14.5567 -14.5233 -14.5233 -14.4871 -14.4871 -14.4413 -14.4413
   -13.5643 -13.5643 -13.5200 -13.5200 -13.4669 -13.4669 -13.4144 -13.4144
   -13.3279 -13.3279 -13.2807 -13.2807  -0.7254  -0.7254   1.1791   1.1791
     4.4849   4.4849   5.3587   5.3587  10.0602  10.0602  10.5685  10.5685
    11.3325  11.3325  13.4275  13.4275

     occupation numbers 
     1.0000   1.0000   1.0000   1.0000   1.0000   1.0000   1.0000   1.0000
     1.0000   1.0000   1.0000   1.0000   1.0000   1.0000   1.0000   1.0000
     1.0000   1.0000   1.0000   1.0000   1.0000   1.0000   1.0000   1.0000
     1.0000   1.0000   1.0000   1.0000   0.0000   0.0000   0.0000   0.0000
     0.0000   0.0000   0.0000   0.0000

          k =-0.1286-0.3857 0.6428 (  2024 PWs)   bands (ev):

   -14.5564 -14.5564 -14.5220 -14.5220 -14.4879 -14.4879 -14.4404 -14.4404
   -13.5634 -13.5634 -13.5173 -13.5173 -13.4662 -13.4662 -13.4190 -13.4190
   -13.3275 -13.3275 -13.2783 -13.2783  -0.5333  -0.5333   0.9521   0.9521
     4.4126   4.4126   5.2705   5.2705  10.0681  10.0681  10.7554  10.7554
    11.6699  11.6699  12.9203  12.9203

     occupation numbers 
     1.0000   1.0000   1.0000   1.0000   1.0000   1.0000   1.0000   1.0000
     1.0000   1.0000   1.0000   1.0000   1.0000   1.0000   1.0000   1.0000
     1.0000   1.0000   1.0000   1.0000   1.0000   1.0000   1.0000   1.0000
     1.0000   1.0000   1.0000   1.0000   0.0000   0.0000   0.0000   0.0000
     0.0000   0.0000   0.0000   0.0000

          k =-0.0964-0.3536 0.6107 (  2028 PWs)   bands (ev):

   -14.5571 -14.5571 -14.5224 -14.5224 -14.4884 -14.4884 -14.4407 -14.4407
   -13.5635 -13.5635 -13.5174 -13.5174 -13.4667 -13.4667 -13.4209 -13.4209
   -13.3282 -13.3282 -13.2777 -13.2777  -0.4523  -0.4523   0.8589   0.8589
     4.3893   4.3893   5.2398   5.2398  10.0698  10.0698  10.7816  10.7816
    12.1232  12.1232  12.4207  12.4207

     occupation numbers 
     1.0000   1.0000   1.0000   1.0000   1.0000   1.0000   1.0000   1.0000
     1.0000   1.0000   1.0000   1.0000   1.0000   1.0000   1.0000   1.0000
     1.0000   1.0000   1.0000   1.0000   1.0000   1.0000   1.0000   1.0000
     1.0000   1.0000   1.0000   1.0000   0.0000   0.0000   0.0000   0.0000
     0.0000   0.0000   0.0000   0.0000

          k =-0.1286-0.4500 0.7071 (  2026 PWs)   bands (ev):

   -14.5555 -14.5555 -14.5261 -14.5261 -14.4845 -14.4845 -14.4423 -14.4423
   -13.5635 -13.5635 -13.5199 -13.5199 -13.4653 -13.4653 -13.4188 -13.4188
   -13.3266 -13.3266 -13.2801 -13.2801  -0.5962  -0.5962   1.0366   1.0366
     4.5618   4.5618   5.1657   5.1657   9.9921   9.9921  10.2302  10.2302
    11.5741  11.5741  13.6156  13.6156

     occupation numbers 
     1.0000   1.0000   1.0000   1.0000   1.0000   1.0000   1.0000   1.0000
     1.0000   1.0000   1.0000   1.0000   1.0000   1.0000   1.0000   1.0000
     1.0000   1.0000   1.0000   1.0000   1.0000   1.0000   1.0000   1.0000
     1.0000   1.0000   1.0000   1.0000   0.0000   0.0000   0.0000   0.0000
     0.0000   0.0000   0.0000   0.0000

          k =-0.0964-0.4178 0.6750 (  2026 PWs)   bands (ev):

   -14.5557 -14.5557 -14.5245 -14.5245 -14.4861 -14.4861 -14.4408 -14.4408
   -13.5636 -13.5636 -13.5163 -13.5163 -13.4631 -13.4631 -13.4253 -13.4253
   -13.3268 -13.3268 -13.2773 -13.2773  -0.3774  -0.3774   0.7951   0.7951
     4.4728   4.4728   5.0571   5.0571  10.1226  10.1226  10.6732  10.6732
    11.4936  11.4936  13.0364  13.0364

     occupation numbers 
     1.0000   1.0000   1.0000   1.0000   1.0000   1.0000   1.0000   1.0000
     1.0000   1.0000   1.0000   1.0000   1.0000   1.0000   1.0000   1.0000
     1.0000   1.0000   1.0000   1.0000   1.0000   1.0000   1.0000   1.0000
     1.0000   1.0000   1.0000   1.0000   0.0000   0.0000   0.0000   0.0000
     0.0000   0.0000   0.0000   0.0000

          k =-0.0643-0.3857 0.6428 (  2027 PWs)   bands (ev):

   -14.5562 -14.5562 -14.5240 -14.5240 -14.4868 -14.4868 -14.4402 -14.4402
   -13.5639 -13.5639 -13.5151 -13.5151 -13.4619 -13.4619 -13.4283 -13.4283
   -13.3269 -13.3269 -13.2757 -13.2757  -0.2484  -0.2484   0.6577   0.6577
     4.4093   4.4093   5.0282   5.0282  10.1795  10.1795  11.0331  11.0331
    11.6526  11.6526  12.3848  12.3848

     occupation numbers 
     1.0000   1.0000   1.0000   1.0000   1.0000   1.0000   1.0000   1.0000
     1.0000   1.0000   1.0000   1.0000   1.0000   1.0000   1.0000   1.0000
     1.0000   1.0000   1.0000   1.0000   1.0000   1.0000   1.0000   1.0000
     1.0000   1.0000   1.0000   1.0000   0.0000   0.0000   0.0000   0.0000
     0.0000   0.0000   0.0000   0.0000

          k =-0.0321-0.3536 0.6107 (  2027 PWs)   bands (ev):

   -14.5566 -14.5566 -14.5236 -14.5236 -14.4873 -14.4873 -14.4399 -14.4399
   -13.5639 -13.5639 -13.5153 -13.5153 -13.4627 -13.4627 -13.4271 -13.4271
   -13.3271 -13.3271 -13.2760 -13.2760  -0.3037  -0.3037   0.7179   0.7179
     4.3801   4.3801   5.0789   5.0789  10.2316  10.2316  11.0477  11.0477
    11.6819  11.6819  12.3059  12.3059

     occupation numbers 
     1.0000   1.0000   1.0000   1.0000   1.0000   1.0000   1.0000   1.0000
     1.0000   1.0000   1.0000   1.0000   1.0000   1.0000   1.0000   1.0000
     1.0000   1.0000   1.0000   1.0000   1.0000   1.0000   1.0000   1.0000
     1.0000   1.0000   1.0000   1.0000   0.0000   0.0000   0.0000   0.0000
     0.0000   0.0000   0.0000   0.0000

          k =-0.0000-0.3214 0.5785 (  2026 PWs)   bands (ev):

   -14.5569 -14.5569 -14.5234 -14.5234 -14.4873 -14.4873 -14.4402 -14.4402
   -13.5640 -13.5640 -13.5175 -13.5175 -13.4646 -13.4646 -13.4217 -13.4217
   -13.3273 -13.3273 -13.2780 -13.2780  -0.4942  -0.4942   0.9242   0.9242
     4.4011   4.4011   5.1952   5.1952  10.2459  10.2459  10.8310  10.8310
    11.3519  11.3519  12.9372  12.9372

     occupation numbers 
     1.0000   1.0000   1.0000   1.0000   1.0000   1.0000   1.0000   1.0000
     1.0000   1.0000   1.0000   1.0000   1.0000   1.0000   1.0000   1.0000
     1.0000   1.0000   1.0000   1.0000   1.0000   1.0000   1.0000   1.0000
     1.0000   1.0000   1.0000   1.0000   0.0000   0.0000   0.0000   0.0000
     0.0000   0.0000   0.0000   0.0000

          k =-0.0643-0.4500 0.7071 (  2033 PWs)   bands (ev):

   -14.5554 -14.5554 -14.5272 -14.5272 -14.4852 -14.4852 -14.4431 -14.4431
   -13.5642 -13.5642 -13.5175 -13.5175 -13.4600 -13.4600 -13.4320 -13.4320
   -13.3261 -13.3261 -13.2783 -13.2783  -0.2108  -0.2108   0.6122   0.6122
     4.5803   4.5803   4.9151   4.9151   9.9804   9.9804  10.1849  10.1849
    12.0318  12.0319  13.1576  13.1576

     occupation numbers 
     1.0000   1.0000   1.0000   1.0000   1.0000   1.0000   1.0000   1.0000
     1.0000   1.0000   1.0000   1.0000   1.0000   1.0000   1.0000   1.0000
     1.0000   1.0000   1.0000   1.0000   1.0000   1.0000   1.0000   1.0000
     1.0000   1.0000   1.0000   1.0000   0.0000   0.0000   0.0000   0.0000
     0.0000   0.0000   0.0000   0.0000

          k =-0.0321-0.4178 0.6750 (  2026 PWs)   bands (ev):

   -14.5551 -14.5551 -14.5246 -14.5246 -14.4854 -14.4854 -14.4406 -14.4406
   -13.5634 -13.5634 -13.5143 -13.5143 -13.4567 -13.4567 -13.4353 -13.4353
   -13.3256 -13.3256 -13.2751 -13.2751  -0.0329  -0.0329   0.4341   0.4341
     4.5077   4.5077   4.8607   4.8607  10.1210  10.1210  10.7015  10.7015
    11.9168  11.9168  12.4718  12.4718

     occupation numbers 
     1.0000   1.0000   1.0000   1.0000   1.0000   1.0000   1.0000   1.0000
     1.0000   1.0000   1.0000   1.0000   1.0000   1.0000   1.0000   1.0000
     1.0000   1.0000   1.0000   1.0000   1.0000   1.0000   1.0000   1.0000
     1.0000   1.0000   1.0000   1.0000   0.0000   0.0000   0.0000   0.0000
     0.0000   0.0000   0.0000   0.0000

          k = 0.0000-0.3857 0.6428 (  2009 PWs)   bands (ev):

   -14.5530 -14.5530 -14.5214 -14.5214 -14.4836 -14.4836 -14.4377 -14.4377
   -13.5610 -13.5610 -13.5113 -13.5113 -13.4553 -13.4553 -13.4312 -13.4312
   -13.3244 -13.3244 -13.2722 -13.2722  -0.0931  -0.0931   0.5002   0.5002
     4.4206   4.4206   4.9328   4.9328  10.1953  10.1953  11.2205  11.2205
    11.8431  11.8431  11.9210  11.9210

     occupation numbers 
     1.0000   1.0000   1.0000   1.0000   1.0000   1.0000   1.0000   1.0000
     1.0000   1.0000   1.0000   1.0000   1.0000   1.0000   1.0000   1.0000
     1.0000   1.0000   1.0000   1.0000   1.0000   1.0000   1.0000   1.0000
     1.0000   1.0000   1.0000   1.0000   0.0000   0.0000   0.0000   0.0000
     0.0000   0.0000   0.0000   0.0000

          k =-0.7071 0.2571 0.0000 (  2030 PWs)   bands (ev):

   -14.5545 -14.5545 -14.5264 -14.5264 -14.4844 -14.4844 -14.4427 -14.4427
   -13.5630 -13.5630 -13.5160 -13.5160 -13.4542 -13.4542 -13.4389 -13.4389
   -13.3255 -13.3255 -13.2770 -13.2770   0.1719   0.1719   0.2168   0.2168
     4.6254   4.6254   4.7916   4.7916   9.9795   9.9795  10.1576  10.1576
    12.5241  12.5241  12.6453  12.6453

     occupation numbers 
     1.0000   1.0000   1.0000   1.0000   1.0000   1.0000   1.0000   1.0000
     1.0000   1.0000   1.0000   1.0000   1.0000   1.0000   1.0000   1.0000
     1.0000   1.0000   1.0000   1.0000   1.0000   1.0000   1.0000   1.0000
     1.0000   1.0000   1.0000   1.0000   0.0000   0.0000   0.0000   0.0000
     0.0000   0.0000   0.0000   0.0000

          k =-0.0643-0.3857 0.7071 (  2028 PWs)   bands (ev):

   -14.5559 -14.5559 -14.5248 -14.5248 -14.4864 -14.4864 -14.4404 -14.4404
   -13.5639 -13.5639 -13.5142 -13.5142 -13.4598 -13.4598 -13.4323 -13.4323
   -13.3271 -13.3271 -13.2748 -13.2748  -0.1516  -0.1516   0.5629   0.5629
     4.4643   4.4643   4.8934   4.8934  10.5251  10.5251  10.8357  10.8357
    11.4391  11.4391  12.3657  12.3657

     occupation numbers 
     1.0000   1.0000   1.0000   1.0000   1.0000   1.0000   1.0000   1.0000
     1.0000   1.0000   1.0000   1.0000   1.0000   1.0000   1.0000   1.0000
     1.0000   1.0000   1.0000   1.0000   1.0000   1.0000   1.0000   1.0000
     1.0000   1.0000   1.0000   1.0000   0.0000   0.0000   0.0000   0.0000
     0.0000   0.0000   0.0000   0.0000

          k =-0.0321-0.3536 0.6750 (  2016 PWs)   bands (ev):

   -14.5539 -14.5539 -14.5228 -14.5228 -14.4845 -14.4845 -14.4387 -14.4387
   -13.5627 -13.5627 -13.5113 -13.5113 -13.4555 -13.4555 -13.4338 -13.4338
   -13.3257 -13.3257 -13.2721 -13.2721  -0.0266  -0.0266   0.4358   0.4358
     4.4718   4.4718   4.8269   4.8269  10.5944  10.5944  11.0636  11.0636
    11.5879  11.5879  11.8576  11.8576

     occupation numbers 
     1.0000   1.0000   1.0000   1.0000   1.0000   1.0000   1.0000   1.0000
     1.0000   1.0000   1.0000   1.0000   1.0000   1.0000   1.0000   1.0000
     1.0000   1.0000   1.0000   1.0000   1.0000   1.0000   1.0000   1.0000
     1.0000   1.0000   1.0000   1.0000   0.0000   0.0000   0.0000   0.0000
     0.0000   0.0000   0.0000   0.0000

          k =-0.7071 0.3214-0.0000 (  2016 PWs)   bands (ev):

   -14.5535 -14.5535 -14.5233 -14.5233 -14.4839 -14.4839 -14.4389 -14.4389
   -13.5624 -13.5624 -13.5111 -13.5111 -13.4533 -13.4533 -13.4366 -13.4366
   -13.3252 -13.3252 -13.2721 -13.2721   0.1782   0.1782   0.2275   0.2275
     4.5506   4.5506   4.7256   4.7256  10.5958  10.5958  10.8524  10.8524
    11.7995  11.7995  11.8402  11.8402

     occupation numbers 
     1.0000   1.0000   1.0000   1.0000   1.0000   1.0000   1.0000   1.0000
     1.0000   1.0000   1.0000   1.0000   1.0000   1.0000   1.0000   1.0000
     1.0000   1.0000   1.0000   1.0000   1.0000   1.0000   1.0000   1.0000
     1.0000   1.0000   1.0000   1.0000   0.0000   0.0000   0.0000   0.0000
     0.0000   0.0000   0.0000   0.0000

     the Fermi energy is     7.7012 ev

!    total energy              =    -885.82839897 Ry
     Harris-Foulkes estimate   =    -885.82839886 Ry
     estimated scf accuracy    <       0.00000010 Ry

     total all-electron energy =    -24716.528149 Ry

     The total energy is the sum of the following terms:

     one-electron contribution =    -148.92351573 Ry
     hartree contribution      =      93.71250268 Ry
     xc contribution           =     -96.16585638 Ry
     ewald contribution        =    -170.59904351 Ry
     one-center paw contrib.   =    -563.85248599 Ry
     smearing contrib. (-TS)   =      -0.00000004 Ry

     convergence has been achieved in   5 iterations

     Writing output data file Sn.save
 
     init_run     :      9.91s CPU     10.55s WALL (       1 calls)
     electrons    :    220.52s CPU    228.81s WALL (       1 calls)

     Called by init_run:
     wfcinit      :      9.39s CPU      9.83s WALL (       1 calls)
     potinit      :      0.22s CPU      0.26s WALL (       1 calls)

     Called by electrons:
     c_bands      :    186.42s CPU    193.62s WALL (       6 calls)
     sum_band     :     32.62s CPU     33.56s WALL (       6 calls)
     v_of_rho     :      0.04s CPU      0.04s WALL (       6 calls)
     v_h          :      0.01s CPU      0.01s WALL (       6 calls)
     v_xc         :      0.03s CPU      0.04s WALL (       6 calls)
     newd         :      0.39s CPU      0.41s WALL (       6 calls)
     PAW_pot      :      1.22s CPU      1.32s WALL (       6 calls)
     mix_rho      :      0.02s CPU      0.03s WALL (       6 calls)

     Called by c_bands:
     init_us_2    :      0.46s CPU      0.54s WALL (    4264 calls)
     cegterg      :    177.59s CPU    184.33s WALL (    1968 calls)

     Called by sum_band:
     sum_band:bec :      6.33s CPU      6.38s WALL (    1968 calls)
     addusdens    :      0.14s CPU      0.16s WALL (       6 calls)

     Called by *egterg:
     h_psi        :    132.06s CPU    136.72s WALL (    6983 calls)
     s_psi        :      5.67s CPU      5.72s WALL (    6983 calls)
     g_psi        :      0.40s CPU      0.41s WALL (    4687 calls)
     cdiaghg      :     25.88s CPU     26.34s WALL (    6327 calls)
     cegterg:over :      9.08s CPU      9.14s WALL (    4687 calls)
     cegterg:upda :      3.25s CPU      3.27s WALL (    4687 calls)
     cegterg:last :      1.85s CPU      1.86s WALL (    1968 calls)

     Called by h_psi:
     h_psi:vloc   :    118.06s CPU    122.48s WALL (    6983 calls)
     h_psi:vnl    :     13.72s CPU     13.92s WALL (    6983 calls)
     add_vuspsi   :      6.45s CPU      6.52s WALL (    6983 calls)

     General routines
     calbec       :      9.61s CPU      9.80s WALL (    8951 calls)
     fft          :      0.07s CPU      0.12s WALL (     116 calls)
     fftw         :    132.36s CPU    137.29s WALL (  894360 calls)
     davcio       :      0.05s CPU      0.29s WALL (     328 calls)
 
     Parallel routines
     fft_scatter  :     81.88s CPU     85.39s WALL (  894476 calls)

     PAW routines
     PAW_pot      :      1.22s CPU      1.32s WALL (       6 calls)
     PAW_symme    :      0.04s CPU      0.04s WALL (      12 calls)
 
     PWSCF        :  3m52.41s CPU     4m 1.93s WALL

 
   This run was terminated on:  22:48:28   8Mar2020            

=------------------------------------------------------------------------------=
   JOB DONE.
=------------------------------------------------------------------------------=
