
     Program PWSCF v.5.4.0 starts on 21Feb2020 at  0:51:56 

     This program is part of the open-source Quantum ESPRESSO suite
     for quantum simulation of materials; please cite
         "P. Giannozzi et al., J. Phys.:Condens. Matter 21 395502 (2009);
          URL http://www.quantum-espresso.org", 
     in publications or presentations arising from this work. More details at
     http://www.quantum-espresso.org/quote

     Parallel version (MPI & OpenMP), running on      16 processor cores
     Number of MPI processes:                16
     Threads/MPI process:                     1
     R & G space division:  proc/nbgrp/npool/nimage =      16
     Waiting for input...
     Reading input from standard input
Warning: card &IONS ignored
Warning: card / ignored
Warning: card &CELL ignored
Warning: card / ignored

     Current dimensions of program PWSCF are:
     Max number of different atomic species (ntypx) = 10
     Max number of k-points (npk) =  40000
     Max angular momentum in pseudopotentials (lmaxx) =  3

     Subspace diagonalization in iterative solution of the eigenvalue problem:
     a serial algorithm will be used

 
     Parallelization info
     --------------------
     sticks:   dense  smooth     PW     G-vecs:    dense   smooth      PW
     Min          80      80     23                 1931     1931     312
     Max          81      81     24                 1936     1936     316
     Sum        1285    1285    379                30923    30923    5029
 

     Title: 
     Sn                                                                         


     bravais-lattice index     =            0
     lattice parameter (alat)  =       8.8993  a.u.
     unit-cell volume          =     498.3785 (a.u.)^3
     number of atoms/cell      =            2
     number of atomic types    =            1
     number of electrons       =        28.00
     number of Kohn-Sham states=           18
     kinetic-energy cutoff     =      60.0000  Ry
     charge density cutoff     =     240.0000  Ry
     convergence threshold     =      1.0E-06
     mixing beta               =       0.7000
     number of iterations used =            8  plain     mixing
     Exchange-correlation      = PBE ( 1  4  3  4 0 0)

     celldm(1)=   8.899346  celldm(2)=   0.000000  celldm(3)=   0.000000
     celldm(4)=   0.000000  celldm(5)=   0.000000  celldm(6)=   0.000000

     crystal axes: (cart. coord. in units of alat)
               a(1) = (   0.000000   0.707107   0.707107 )  
               a(2) = (   0.707107   0.000000   0.707107 )  
               a(3) = (   0.707107   0.707107   0.000000 )  

     reciprocal axes: (cart. coord. in units 2 pi/alat)
               b(1) = ( -0.707107  0.707107  0.707107 )  
               b(2) = (  0.707107 -0.707107  0.707107 )  
               b(3) = (  0.707107  0.707107 -0.707107 )  


     PseudoPot. # 1 for Sn read from file:
     ../PseudopotentialDatabase/Sn_ONCV_PBE_FR-1.1.upf
     MD5 check sum: 6dd2180f739ea5ae1610ead5e1628a0e
     Pseudo is Norm-conserving, Zval = 14.0
     Generated using ONCVPSP code by D. R. Hamann
     Using radial grid of  602 points,  6 beta functions with: 
                l(1) =   0
                l(2) =   0
                l(3) =   1
                l(4) =   1
                l(5) =   2
                l(6) =   2

     atomic species   valence    mass     pseudopotential
        Sn            14.00   118.71000     Sn( 1.00)

     24 Sym. Ops. (no inversion) found
          (note: 24 additional sym.ops. were found but ignored
           their fractional translations are incommensurate with FFT grid)

                                    s                        frac. trans.

      isym =  1     identity                                     

 cryst.   s( 1) = (     1          0          0      )
                  (     0          1          0      )
                  (     0          0          1      )

 cart.    s( 1) = (  1.0000000  0.0000000  0.0000000 )
                  (  0.0000000  1.0000000  0.0000000 )
                  (  0.0000000  0.0000000  1.0000000 )


      isym =  2     180 deg rotation - cart. axis [0,0,1]        

 cryst.   s( 2) = (     0          1         -1      )
                  (     1          0         -1      )
                  (     0          0         -1      )

 cart.    s( 2) = ( -1.0000000  0.0000000  0.0000000 )
                  (  0.0000000 -1.0000000  0.0000000 )
                  (  0.0000000  0.0000000  1.0000000 )


      isym =  3     180 deg rotation - cart. axis [0,1,0]        

 cryst.   s( 3) = (     0         -1          1      )
                  (     0         -1          0      )
                  (     1         -1          0      )

 cart.    s( 3) = ( -1.0000000  0.0000000  0.0000000 )
                  (  0.0000000  1.0000000  0.0000000 )
                  (  0.0000000  0.0000000 -1.0000000 )


      isym =  4     180 deg rotation - cart. axis [1,0,0]        

 cryst.   s( 4) = (    -1          0          0      )
                  (    -1          0          1      )
                  (    -1          1          0      )

 cart.    s( 4) = (  1.0000000  0.0000000  0.0000000 )
                  (  0.0000000 -1.0000000  0.0000000 )
                  (  0.0000000  0.0000000 -1.0000000 )


      isym =  5     120 deg rotation - cart. axis [-1,-1,-1]     

 cryst.   s( 5) = (     0          0          1      )
                  (     1          0          0      )
                  (     0          1          0      )

 cart.    s( 5) = (  0.0000000  1.0000000  0.0000000 )
                  (  0.0000000  0.0000000  1.0000000 )
                  (  1.0000000  0.0000000  0.0000000 )


      isym =  6     120 deg rotation - cart. axis [-1,1,1]       

 cryst.   s( 6) = (     1         -1          0      )
                  (     0         -1          1      )
                  (     0         -1          0      )

 cart.    s( 6) = (  0.0000000 -1.0000000  0.0000000 )
                  (  0.0000000  0.0000000  1.0000000 )
                  ( -1.0000000  0.0000000  0.0000000 )


      isym =  7     120 deg rotation - cart. axis [1,1,-1]       

 cryst.   s( 7) = (    -1          1          0      )
                  (    -1          0          0      )
                  (    -1          0          1      )

 cart.    s( 7) = (  0.0000000  1.0000000  0.0000000 )
                  (  0.0000000  0.0000000 -1.0000000 )
                  ( -1.0000000  0.0000000  0.0000000 )


      isym =  8     120 deg rotation - cart. axis [1,-1,1]       

 cryst.   s( 8) = (     0          0         -1      )
                  (     0          1         -1      )
                  (     1          0         -1      )

 cart.    s( 8) = (  0.0000000 -1.0000000  0.0000000 )
                  (  0.0000000  0.0000000 -1.0000000 )
                  (  1.0000000  0.0000000  0.0000000 )


      isym =  9     120 deg rotation - cart. axis [1,1,1]        

 cryst.   s( 9) = (     0          1          0      )
                  (     0          0          1      )
                  (     1          0          0      )

 cart.    s( 9) = (  0.0000000  0.0000000  1.0000000 )
                  (  1.0000000  0.0000000  0.0000000 )
                  (  0.0000000  1.0000000  0.0000000 )


      isym = 10     120 deg rotation - cart. axis [-1,1,-1]      

 cryst.   s(10) = (    -1          0          1      )
                  (    -1          1          0      )
                  (    -1          0          0      )

 cart.    s(10) = (  0.0000000  0.0000000  1.0000000 )
                  ( -1.0000000  0.0000000  0.0000000 )
                  (  0.0000000 -1.0000000  0.0000000 )


      isym = 11     120 deg rotation - cart. axis [1,-1,-1]      

 cryst.   s(11) = (     1          0         -1      )
                  (     0          0         -1      )
                  (     0          1         -1      )

 cart.    s(11) = (  0.0000000  0.0000000 -1.0000000 )
                  ( -1.0000000  0.0000000  0.0000000 )
                  (  0.0000000  1.0000000  0.0000000 )


      isym = 12     120 deg rotation - cart. axis [-1,-1,1]      

 cryst.   s(12) = (     0         -1          0      )
                  (     1         -1          0      )
                  (     0         -1          1      )

 cart.    s(12) = (  0.0000000  0.0000000 -1.0000000 )
                  (  1.0000000  0.0000000  0.0000000 )
                  (  0.0000000 -1.0000000  0.0000000 )


      isym = 13     inv. 180 deg rotation - cart. axis [1,1,0]   

 cryst.   s(13) = (     1          0         -1      )
                  (     0          1         -1      )
                  (     0          0         -1      )

 cart.    s(13) = (  0.0000000 -1.0000000  0.0000000 )
                  ( -1.0000000  0.0000000  0.0000000 )
                  (  0.0000000  0.0000000  1.0000000 )


      isym = 14     inv. 180 deg rotation - cart. axis [1,-1,0]  

 cryst.   s(14) = (     0          1          0      )
                  (     1          0          0      )
                  (     0          0          1      )

 cart.    s(14) = (  0.0000000  1.0000000  0.0000000 )
                  (  1.0000000  0.0000000  0.0000000 )
                  (  0.0000000  0.0000000  1.0000000 )


      isym = 15     inv.  90 deg rotation - cart. axis [0,0,-1]  

 cryst.   s(15) = (     0         -1          0      )
                  (     0         -1          1      )
                  (     1         -1          0      )

 cart.    s(15) = (  0.0000000 -1.0000000  0.0000000 )
                  (  1.0000000  0.0000000  0.0000000 )
                  (  0.0000000  0.0000000 -1.0000000 )


      isym = 16     inv.  90 deg rotation - cart. axis [0,0,1]   

 cryst.   s(16) = (    -1          0          1      )
                  (    -1          0          0      )
                  (    -1          1          0      )

 cart.    s(16) = (  0.0000000  1.0000000  0.0000000 )
                  ( -1.0000000  0.0000000  0.0000000 )
                  (  0.0000000  0.0000000 -1.0000000 )


      isym = 17     inv. 180 deg rotation - cart. axis [1,0,1]   

 cryst.   s(17) = (     1         -1          0      )
                  (     0         -1          0      )
                  (     0         -1          1      )

 cart.    s(17) = (  0.0000000  0.0000000 -1.0000000 )
                  (  0.0000000  1.0000000  0.0000000 )
                  ( -1.0000000  0.0000000  0.0000000 )


      isym = 18     inv. 180 deg rotation - cart. axis [-1,0,1]  

 cryst.   s(18) = (     0          0          1      )
                  (     0          1          0      )
                  (     1          0          0      )

 cart.    s(18) = (  0.0000000  0.0000000  1.0000000 )
                  (  0.0000000  1.0000000  0.0000000 )
                  (  1.0000000  0.0000000  0.0000000 )


      isym = 19     inv.  90 deg rotation - cart. axis [0,1,0]   

 cryst.   s(19) = (     0          0         -1      )
                  (     1          0         -1      )
                  (     0          1         -1      )

 cart.    s(19) = (  0.0000000  0.0000000 -1.0000000 )
                  (  0.0000000 -1.0000000  0.0000000 )
                  (  1.0000000  0.0000000  0.0000000 )


      isym = 20     inv.  90 deg rotation - cart. axis [0,-1,0]  

 cryst.   s(20) = (    -1          1          0      )
                  (    -1          0          1      )
                  (    -1          0          0      )

 cart.    s(20) = (  0.0000000  0.0000000  1.0000000 )
                  (  0.0000000 -1.0000000  0.0000000 )
                  ( -1.0000000  0.0000000  0.0000000 )


      isym = 21     inv. 180 deg rotation - cart. axis [0,1,1]   

 cryst.   s(21) = (    -1          0          0      )
                  (    -1          1          0      )
                  (    -1          0          1      )

 cart.    s(21) = (  1.0000000  0.0000000  0.0000000 )
                  (  0.0000000  0.0000000 -1.0000000 )
                  (  0.0000000 -1.0000000  0.0000000 )


      isym = 22     inv. 180 deg rotation - cart. axis [0,1,-1]  

 cryst.   s(22) = (     1          0          0      )
                  (     0          0          1      )
                  (     0          1          0      )

 cart.    s(22) = (  1.0000000  0.0000000  0.0000000 )
                  (  0.0000000  0.0000000  1.0000000 )
                  (  0.0000000  1.0000000  0.0000000 )


      isym = 23     inv.  90 deg rotation - cart. axis [-1,0,0]  

 cryst.   s(23) = (     0          1         -1      )
                  (     0          0         -1      )
                  (     1          0         -1      )

 cart.    s(23) = ( -1.0000000  0.0000000  0.0000000 )
                  (  0.0000000  0.0000000 -1.0000000 )
                  (  0.0000000  1.0000000  0.0000000 )


      isym = 24     inv.  90 deg rotation - cart. axis [1,0,0]   

 cryst.   s(24) = (     0         -1          1      )
                  (     1         -1          0      )
                  (     0         -1          0      )

 cart.    s(24) = ( -1.0000000  0.0000000  0.0000000 )
                  (  0.0000000  0.0000000  1.0000000 )
                  (  0.0000000 -1.0000000  0.0000000 )


   Cartesian axes

     site n.     atom                  positions (alat units)
         1           Sn  tau(   1) = (   0.0000000   0.0000000   0.0000000  )
         2           Sn  tau(   2) = (   0.3535534   0.3535534   0.3535534  )

   Crystallographic axes

     site n.     atom                  positions (cryst. coord.)
         1           Sn  tau(   1) = (  0.0000000  0.0000000  0.0000000  )
         2           Sn  tau(   2) = (  0.2500000  0.2500000  0.2500000  )

     number of k points=   455  gaussian smearing, width (Ry)=  0.0100
                       cart. coord. in units 2pi/alat
        k(    1) = (   0.0000000   0.0000000   0.0000000), wk =   0.0001280
        k(    2) = (   0.0282843   0.0282843  -0.0282843), wk =   0.0010240
        k(    3) = (   0.0565685   0.0565685  -0.0565685), wk =   0.0010240
        k(    4) = (   0.0848528   0.0848528  -0.0848528), wk =   0.0010240
        k(    5) = (   0.1131371   0.1131371  -0.1131371), wk =   0.0010240
        k(    6) = (   0.1414214   0.1414214  -0.1414214), wk =   0.0010240
        k(    7) = (   0.1697056   0.1697056  -0.1697056), wk =   0.0010240
        k(    8) = (   0.1979899   0.1979899  -0.1979899), wk =   0.0010240
        k(    9) = (   0.2262742   0.2262742  -0.2262742), wk =   0.0010240
        k(   10) = (   0.2545584   0.2545584  -0.2545584), wk =   0.0010240
        k(   11) = (   0.2828427   0.2828427  -0.2828427), wk =   0.0010240
        k(   12) = (   0.3111270   0.3111270  -0.3111270), wk =   0.0010240
        k(   13) = (   0.3394113   0.3394113  -0.3394113), wk =   0.0010240
        k(   14) = (   0.0565685   0.0000000   0.0000000), wk =   0.0007680
        k(   15) = (   0.0848528   0.0282843  -0.0282843), wk =   0.0030720
        k(   16) = (   0.1131371   0.0565685  -0.0565685), wk =   0.0030720
        k(   17) = (   0.1414214   0.0848528  -0.0848528), wk =   0.0030720
        k(   18) = (   0.1697056   0.1131371  -0.1131371), wk =   0.0030720
        k(   19) = (   0.1979899   0.1414214  -0.1414214), wk =   0.0030720
        k(   20) = (   0.2262742   0.1697056  -0.1697056), wk =   0.0030720
        k(   21) = (   0.2545584   0.1979899  -0.1979899), wk =   0.0030720
        k(   22) = (   0.2828427   0.2262742  -0.2262742), wk =   0.0030720
        k(   23) = (   0.3111270   0.2545584  -0.2545584), wk =   0.0030720
        k(   24) = (   0.3394113   0.2828427  -0.2828427), wk =   0.0030720
        k(   25) = (   0.3676955   0.3111270  -0.3111270), wk =   0.0030720
        k(   26) = (  -0.3111270  -0.3676955   0.3676955), wk =   0.0030720
        k(   27) = (  -0.2828427  -0.3394113   0.3394113), wk =   0.0030720
        k(   28) = (  -0.2545584  -0.3111270   0.3111270), wk =   0.0030720
        k(   29) = (  -0.2262742  -0.2828427   0.2828427), wk =   0.0030720
        k(   30) = (  -0.1979899  -0.2545584   0.2545584), wk =   0.0030720
        k(   31) = (  -0.1697056  -0.2262742   0.2262742), wk =   0.0030720
        k(   32) = (  -0.1414214  -0.1979899   0.1979899), wk =   0.0030720
        k(   33) = (  -0.1131371  -0.1697056   0.1697056), wk =   0.0030720
        k(   34) = (  -0.0848528  -0.1414214   0.1414214), wk =   0.0030720
        k(   35) = (  -0.0565685  -0.1131371   0.1131371), wk =   0.0030720
        k(   36) = (  -0.0282843  -0.0848528   0.0848528), wk =   0.0030720
        k(   37) = (  -0.0000000  -0.0565685   0.0565685), wk =   0.0015360
        k(   38) = (   0.1131371   0.0000000   0.0000000), wk =   0.0007680
        k(   39) = (   0.1414214   0.0282843  -0.0282843), wk =   0.0030720
        k(   40) = (   0.1697056   0.0565685  -0.0565685), wk =   0.0030720
        k(   41) = (   0.1979899   0.0848528  -0.0848528), wk =   0.0030720
        k(   42) = (   0.2262742   0.1131371  -0.1131371), wk =   0.0030720
        k(   43) = (   0.2545584   0.1414214  -0.1414214), wk =   0.0030720
        k(   44) = (   0.2828427   0.1697056  -0.1697056), wk =   0.0030720
        k(   45) = (   0.3111270   0.1979899  -0.1979899), wk =   0.0030720
        k(   46) = (   0.3394113   0.2262742  -0.2262742), wk =   0.0030720
        k(   47) = (   0.3676955   0.2545584  -0.2545584), wk =   0.0030720
        k(   48) = (   0.3959798   0.2828427  -0.2828427), wk =   0.0030720
        k(   49) = (  -0.2828427  -0.3959798   0.3959798), wk =   0.0030720
        k(   50) = (  -0.2545584  -0.3676955   0.3676955), wk =   0.0030720
        k(   51) = (  -0.2262742  -0.3394113   0.3394113), wk =   0.0030720
        k(   52) = (  -0.1979899  -0.3111270   0.3111270), wk =   0.0030720
        k(   53) = (  -0.1697056  -0.2828427   0.2828427), wk =   0.0030720
        k(   54) = (  -0.1414214  -0.2545584   0.2545584), wk =   0.0030720
        k(   55) = (  -0.1131371  -0.2262742   0.2262742), wk =   0.0030720
        k(   56) = (  -0.0848528  -0.1979899   0.1979899), wk =   0.0030720
        k(   57) = (  -0.0565685  -0.1697056   0.1697056), wk =   0.0030720
        k(   58) = (  -0.0282843  -0.1414214   0.1414214), wk =   0.0030720
        k(   59) = (   0.0000000  -0.1131371   0.1131371), wk =   0.0015360
        k(   60) = (   0.1697056   0.0000000   0.0000000), wk =   0.0007680
        k(   61) = (   0.1979899   0.0282843  -0.0282843), wk =   0.0030720
        k(   62) = (   0.2262742   0.0565685  -0.0565685), wk =   0.0030720
        k(   63) = (   0.2545584   0.0848528  -0.0848528), wk =   0.0030720
        k(   64) = (   0.2828427   0.1131371  -0.1131371), wk =   0.0030720
        k(   65) = (   0.3111270   0.1414214  -0.1414214), wk =   0.0030720
        k(   66) = (   0.3394113   0.1697056  -0.1697056), wk =   0.0030720
        k(   67) = (   0.3676955   0.1979899  -0.1979899), wk =   0.0030720
        k(   68) = (   0.3959798   0.2262742  -0.2262742), wk =   0.0030720
        k(   69) = (   0.4242641   0.2545584  -0.2545584), wk =   0.0030720
        k(   70) = (  -0.2545584  -0.4242641   0.4242641), wk =   0.0030720
        k(   71) = (  -0.2262742  -0.3959798   0.3959798), wk =   0.0030720
        k(   72) = (  -0.1979899  -0.3676955   0.3676955), wk =   0.0030720
        k(   73) = (  -0.1697056  -0.3394113   0.3394113), wk =   0.0030720
        k(   74) = (  -0.1414214  -0.3111270   0.3111270), wk =   0.0030720
        k(   75) = (  -0.1131371  -0.2828427   0.2828427), wk =   0.0030720
        k(   76) = (  -0.0848528  -0.2545584   0.2545584), wk =   0.0030720
        k(   77) = (  -0.0565685  -0.2262742   0.2262742), wk =   0.0030720
        k(   78) = (  -0.0282843  -0.1979899   0.1979899), wk =   0.0030720
        k(   79) = (   0.0000000  -0.1697056   0.1697056), wk =   0.0015360
        k(   80) = (   0.2262742   0.0000000   0.0000000), wk =   0.0007680
        k(   81) = (   0.2545584   0.0282843  -0.0282843), wk =   0.0030720
        k(   82) = (   0.2828427   0.0565685  -0.0565685), wk =   0.0030720
        k(   83) = (   0.3111270   0.0848528  -0.0848528), wk =   0.0030720
        k(   84) = (   0.3394113   0.1131371  -0.1131371), wk =   0.0030720
        k(   85) = (   0.3676955   0.1414214  -0.1414214), wk =   0.0030720
        k(   86) = (   0.3959798   0.1697056  -0.1697056), wk =   0.0030720
        k(   87) = (   0.4242641   0.1979899  -0.1979899), wk =   0.0030720
        k(   88) = (   0.4525483   0.2262742  -0.2262742), wk =   0.0030720
        k(   89) = (  -0.2262742  -0.4525483   0.4525483), wk =   0.0030720
        k(   90) = (  -0.1979899  -0.4242641   0.4242641), wk =   0.0030720
        k(   91) = (  -0.1697056  -0.3959798   0.3959798), wk =   0.0030720
        k(   92) = (  -0.1414214  -0.3676955   0.3676955), wk =   0.0030720
        k(   93) = (  -0.1131371  -0.3394113   0.3394113), wk =   0.0030720
        k(   94) = (  -0.0848528  -0.3111270   0.3111270), wk =   0.0030720
        k(   95) = (  -0.0565685  -0.2828427   0.2828427), wk =   0.0030720
        k(   96) = (  -0.0282843  -0.2545584   0.2545584), wk =   0.0030720
        k(   97) = (  -0.0000000  -0.2262742   0.2262742), wk =   0.0015360
        k(   98) = (   0.2828427   0.0000000   0.0000000), wk =   0.0007680
        k(   99) = (   0.3111270   0.0282843  -0.0282843), wk =   0.0030720
        k(  100) = (   0.3394113   0.0565685  -0.0565685), wk =   0.0030720
        k(  101) = (   0.3676955   0.0848528  -0.0848528), wk =   0.0030720
        k(  102) = (   0.3959798   0.1131371  -0.1131371), wk =   0.0030720
        k(  103) = (   0.4242641   0.1414214  -0.1414214), wk =   0.0030720
        k(  104) = (   0.4525483   0.1697056  -0.1697056), wk =   0.0030720
        k(  105) = (   0.4808326   0.1979899  -0.1979899), wk =   0.0030720
        k(  106) = (  -0.1979899  -0.4808326   0.4808326), wk =   0.0030720
        k(  107) = (  -0.1697056  -0.4525483   0.4525483), wk =   0.0030720
        k(  108) = (  -0.1414214  -0.4242641   0.4242641), wk =   0.0030720
        k(  109) = (  -0.1131371  -0.3959798   0.3959798), wk =   0.0030720
        k(  110) = (  -0.0848528  -0.3676955   0.3676955), wk =   0.0030720
        k(  111) = (  -0.0565685  -0.3394113   0.3394113), wk =   0.0030720
        k(  112) = (  -0.0282843  -0.3111270   0.3111270), wk =   0.0030720
        k(  113) = (   0.0000000  -0.2828427   0.2828427), wk =   0.0015360
        k(  114) = (   0.3394113   0.0000000   0.0000000), wk =   0.0007680
        k(  115) = (   0.3676955   0.0282843  -0.0282843), wk =   0.0030720
        k(  116) = (   0.3959798   0.0565685  -0.0565685), wk =   0.0030720
        k(  117) = (   0.4242641   0.0848528  -0.0848528), wk =   0.0030720
        k(  118) = (   0.4525483   0.1131371  -0.1131371), wk =   0.0030720
        k(  119) = (   0.4808326   0.1414214  -0.1414214), wk =   0.0030720
        k(  120) = (   0.5091169   0.1697056  -0.1697056), wk =   0.0030720
        k(  121) = (  -0.1697056  -0.5091169   0.5091169), wk =   0.0030720
        k(  122) = (  -0.1414214  -0.4808326   0.4808326), wk =   0.0030720
        k(  123) = (  -0.1131371  -0.4525483   0.4525483), wk =   0.0030720
        k(  124) = (  -0.0848528  -0.4242641   0.4242641), wk =   0.0030720
        k(  125) = (  -0.0565685  -0.3959798   0.3959798), wk =   0.0030720
        k(  126) = (  -0.0282843  -0.3676955   0.3676955), wk =   0.0030720
        k(  127) = (   0.0000000  -0.3394113   0.3394113), wk =   0.0015360
        k(  128) = (   0.3959798   0.0000000   0.0000000), wk =   0.0007680
        k(  129) = (   0.4242641   0.0282843  -0.0282843), wk =   0.0030720
        k(  130) = (   0.4525483   0.0565685  -0.0565685), wk =   0.0030720
        k(  131) = (   0.4808326   0.0848528  -0.0848528), wk =   0.0030720
        k(  132) = (   0.5091169   0.1131371  -0.1131371), wk =   0.0030720
        k(  133) = (   0.5374012   0.1414214  -0.1414214), wk =   0.0030720
        k(  134) = (  -0.1414214  -0.5374012   0.5374012), wk =   0.0030720
        k(  135) = (  -0.1131371  -0.5091169   0.5091169), wk =   0.0030720
        k(  136) = (  -0.0848528  -0.4808326   0.4808326), wk =   0.0030720
        k(  137) = (  -0.0565685  -0.4525483   0.4525483), wk =   0.0030720
        k(  138) = (  -0.0282843  -0.4242641   0.4242641), wk =   0.0030720
        k(  139) = (   0.0000000  -0.3959798   0.3959798), wk =   0.0015360
        k(  140) = (   0.4525483   0.0000000   0.0000000), wk =   0.0007680
        k(  141) = (   0.4808326   0.0282843  -0.0282843), wk =   0.0030720
        k(  142) = (   0.5091169   0.0565685  -0.0565685), wk =   0.0030720
        k(  143) = (   0.5374012   0.0848528  -0.0848528), wk =   0.0030720
        k(  144) = (   0.5656854   0.1131371  -0.1131371), wk =   0.0030720
        k(  145) = (  -0.1131371  -0.5656854   0.5656854), wk =   0.0030720
        k(  146) = (  -0.0848528  -0.5374012   0.5374012), wk =   0.0030720
        k(  147) = (  -0.0565685  -0.5091169   0.5091169), wk =   0.0030720
        k(  148) = (  -0.0282843  -0.4808326   0.4808326), wk =   0.0030720
        k(  149) = (   0.0000000  -0.4525483   0.4525483), wk =   0.0015360
        k(  150) = (   0.5091169   0.0000000   0.0000000), wk =   0.0007680
        k(  151) = (   0.5374012   0.0282843  -0.0282843), wk =   0.0030720
        k(  152) = (   0.5656854   0.0565685  -0.0565685), wk =   0.0030720
        k(  153) = (   0.5939697   0.0848528  -0.0848528), wk =   0.0030720
        k(  154) = (  -0.0848528  -0.5939697   0.5939697), wk =   0.0030720
        k(  155) = (  -0.0565685  -0.5656854   0.5656854), wk =   0.0030720
        k(  156) = (  -0.0282843  -0.5374012   0.5374012), wk =   0.0030720
        k(  157) = (   0.0000000  -0.5091169   0.5091169), wk =   0.0015360
        k(  158) = (   0.5656854   0.0000000   0.0000000), wk =   0.0007680
        k(  159) = (   0.5939697   0.0282843  -0.0282843), wk =   0.0030720
        k(  160) = (   0.6222540   0.0565685  -0.0565685), wk =   0.0030720
        k(  161) = (  -0.0565685  -0.6222540   0.6222540), wk =   0.0030720
        k(  162) = (  -0.0282843  -0.5939697   0.5939697), wk =   0.0030720
        k(  163) = (   0.0000000  -0.5656854   0.5656854), wk =   0.0015360
        k(  164) = (   0.6222540   0.0000000   0.0000000), wk =   0.0007680
        k(  165) = (   0.6505382   0.0282843  -0.0282843), wk =   0.0030720
        k(  166) = (  -0.0282843  -0.6505382   0.6505382), wk =   0.0030720
        k(  167) = (   0.0000000  -0.6222540   0.6222540), wk =   0.0015360
        k(  168) = (   0.6788225   0.0000000   0.0000000), wk =   0.0007680
        k(  169) = (   0.0000000  -0.6788225   0.6788225), wk =   0.0015360
        k(  170) = (   0.1131371   0.0565685   0.0000000), wk =   0.0030720
        k(  171) = (   0.1414214   0.0848528  -0.0282843), wk =   0.0061440
        k(  172) = (   0.1697056   0.1131371  -0.0565685), wk =   0.0061440
        k(  173) = (   0.1979899   0.1414214  -0.0848528), wk =   0.0061440
        k(  174) = (   0.2262742   0.1697056  -0.1131371), wk =   0.0061440
        k(  175) = (   0.2545584   0.1979899  -0.1414214), wk =   0.0061440
        k(  176) = (   0.2828427   0.2262742  -0.1697056), wk =   0.0061440
        k(  177) = (   0.3111270   0.2545584  -0.1979899), wk =   0.0061440
        k(  178) = (   0.3394113   0.2828427  -0.2262742), wk =   0.0061440
        k(  179) = (   0.3676955   0.3111270  -0.2545584), wk =   0.0061440
        k(  180) = (  -0.3111270  -0.3676955   0.4242641), wk =   0.0061440
        k(  181) = (   0.1697056   0.0565685   0.0000000), wk =   0.0030720
        k(  182) = (   0.1979899   0.0848528  -0.0282843), wk =   0.0061440
        k(  183) = (   0.2262742   0.1131371  -0.0565685), wk =   0.0061440
        k(  184) = (   0.2545584   0.1414214  -0.0848528), wk =   0.0061440
        k(  185) = (   0.2828427   0.1697056  -0.1131371), wk =   0.0061440
        k(  186) = (   0.3111270   0.1979899  -0.1414214), wk =   0.0061440
        k(  187) = (   0.3394113   0.2262742  -0.1697056), wk =   0.0061440
        k(  188) = (   0.3676955   0.2545584  -0.1979899), wk =   0.0061440
        k(  189) = (   0.3959798   0.2828427  -0.2262742), wk =   0.0061440
        k(  190) = (  -0.2828427  -0.3959798   0.4525483), wk =   0.0061440
        k(  191) = (  -0.2545584  -0.3676955   0.4242641), wk =   0.0061440
        k(  192) = (  -0.2262742  -0.3394113   0.3959798), wk =   0.0061440
        k(  193) = (  -0.1979899  -0.3111270   0.3676955), wk =   0.0061440
        k(  194) = (  -0.1697056  -0.2828427   0.3394113), wk =   0.0061440
        k(  195) = (  -0.1414214  -0.2545584   0.3111270), wk =   0.0061440
        k(  196) = (  -0.1131371  -0.2262742   0.2828427), wk =   0.0061440
        k(  197) = (  -0.0848528  -0.1979899   0.2545584), wk =   0.0061440
        k(  198) = (  -0.0565685  -0.1697056   0.2262742), wk =   0.0061440
        k(  199) = (  -0.0282843  -0.1414214   0.1979899), wk =   0.0061440
        k(  200) = (   0.0000000  -0.1131371   0.1697056), wk =   0.0030720
        k(  201) = (   0.2262742   0.0565685   0.0000000), wk =   0.0030720
        k(  202) = (   0.2545584   0.0848528  -0.0282843), wk =   0.0061440
        k(  203) = (   0.2828427   0.1131371  -0.0565685), wk =   0.0061440
        k(  204) = (   0.3111270   0.1414214  -0.0848528), wk =   0.0061440
        k(  205) = (   0.3394113   0.1697056  -0.1131371), wk =   0.0061440
        k(  206) = (   0.3676955   0.1979899  -0.1414214), wk =   0.0061440
        k(  207) = (   0.3959798   0.2262742  -0.1697056), wk =   0.0061440
        k(  208) = (   0.4242641   0.2545584  -0.1979899), wk =   0.0061440
        k(  209) = (  -0.2545584  -0.4242641   0.4808326), wk =   0.0061440
        k(  210) = (  -0.2262742  -0.3959798   0.4525483), wk =   0.0061440
        k(  211) = (  -0.1979899  -0.3676955   0.4242641), wk =   0.0061440
        k(  212) = (  -0.1697056  -0.3394113   0.3959798), wk =   0.0061440
        k(  213) = (  -0.1414214  -0.3111270   0.3676955), wk =   0.0061440
        k(  214) = (  -0.1131371  -0.2828427   0.3394113), wk =   0.0061440
        k(  215) = (  -0.0848528  -0.2545584   0.3111270), wk =   0.0061440
        k(  216) = (  -0.0565685  -0.2262742   0.2828427), wk =   0.0061440
        k(  217) = (  -0.0282843  -0.1979899   0.2545584), wk =   0.0061440
        k(  218) = (   0.0000000  -0.1697056   0.2262742), wk =   0.0030720
        k(  219) = (   0.2828427   0.0565685   0.0000000), wk =   0.0030720
        k(  220) = (   0.3111270   0.0848528  -0.0282843), wk =   0.0061440
        k(  221) = (   0.3394113   0.1131371  -0.0565685), wk =   0.0061440
        k(  222) = (   0.3676955   0.1414214  -0.0848528), wk =   0.0061440
        k(  223) = (   0.3959798   0.1697056  -0.1131371), wk =   0.0061440
        k(  224) = (   0.4242641   0.1979899  -0.1414214), wk =   0.0061440
        k(  225) = (   0.4525483   0.2262742  -0.1697056), wk =   0.0061440
        k(  226) = (  -0.2262742  -0.4525483   0.5091169), wk =   0.0061440
        k(  227) = (  -0.1979899  -0.4242641   0.4808326), wk =   0.0061440
        k(  228) = (  -0.1697056  -0.3959798   0.4525483), wk =   0.0061440
        k(  229) = (  -0.1414214  -0.3676955   0.4242641), wk =   0.0061440
        k(  230) = (  -0.1131371  -0.3394113   0.3959798), wk =   0.0061440
        k(  231) = (  -0.0848528  -0.3111270   0.3676955), wk =   0.0061440
        k(  232) = (  -0.0565685  -0.2828427   0.3394113), wk =   0.0061440
        k(  233) = (  -0.0282843  -0.2545584   0.3111270), wk =   0.0061440
        k(  234) = (  -0.0000000  -0.2262742   0.2828427), wk =   0.0030720
        k(  235) = (   0.3394113   0.0565685   0.0000000), wk =   0.0030720
        k(  236) = (   0.3676955   0.0848528  -0.0282843), wk =   0.0061440
        k(  237) = (   0.3959798   0.1131371  -0.0565685), wk =   0.0061440
        k(  238) = (   0.4242641   0.1414214  -0.0848528), wk =   0.0061440
        k(  239) = (   0.4525483   0.1697056  -0.1131371), wk =   0.0061440
        k(  240) = (   0.4808326   0.1979899  -0.1414214), wk =   0.0061440
        k(  241) = (  -0.1979899  -0.4808326   0.5374012), wk =   0.0061440
        k(  242) = (  -0.1697056  -0.4525483   0.5091169), wk =   0.0061440
        k(  243) = (  -0.1414214  -0.4242641   0.4808326), wk =   0.0061440
        k(  244) = (  -0.1131371  -0.3959798   0.4525483), wk =   0.0061440
        k(  245) = (  -0.0848528  -0.3676955   0.4242641), wk =   0.0061440
        k(  246) = (  -0.0565685  -0.3394113   0.3959798), wk =   0.0061440
        k(  247) = (  -0.0282843  -0.3111270   0.3676955), wk =   0.0061440
        k(  248) = (   0.0000000  -0.2828427   0.3394113), wk =   0.0030720
        k(  249) = (   0.3959798   0.0565685   0.0000000), wk =   0.0030720
        k(  250) = (   0.4242641   0.0848528  -0.0282843), wk =   0.0061440
        k(  251) = (   0.4525483   0.1131371  -0.0565685), wk =   0.0061440
        k(  252) = (   0.4808326   0.1414214  -0.0848528), wk =   0.0061440
        k(  253) = (   0.5091169   0.1697056  -0.1131371), wk =   0.0061440
        k(  254) = (  -0.1697056  -0.5091169   0.5656854), wk =   0.0061440
        k(  255) = (  -0.1414214  -0.4808326   0.5374012), wk =   0.0061440
        k(  256) = (  -0.1131371  -0.4525483   0.5091169), wk =   0.0061440
        k(  257) = (  -0.0848528  -0.4242641   0.4808326), wk =   0.0061440
        k(  258) = (  -0.0565685  -0.3959798   0.4525483), wk =   0.0061440
        k(  259) = (  -0.0282843  -0.3676955   0.4242641), wk =   0.0061440
        k(  260) = (   0.0000000  -0.3394113   0.3959798), wk =   0.0030720
        k(  261) = (   0.4525483   0.0565685   0.0000000), wk =   0.0030720
        k(  262) = (   0.4808326   0.0848528  -0.0282843), wk =   0.0061440
        k(  263) = (   0.5091169   0.1131371  -0.0565685), wk =   0.0061440
        k(  264) = (   0.5374012   0.1414214  -0.0848528), wk =   0.0061440
        k(  265) = (  -0.1414214  -0.5374012   0.5939697), wk =   0.0061440
        k(  266) = (  -0.1131371  -0.5091169   0.5656854), wk =   0.0061440
        k(  267) = (  -0.0848528  -0.4808326   0.5374012), wk =   0.0061440
        k(  268) = (  -0.0565685  -0.4525483   0.5091169), wk =   0.0061440
        k(  269) = (  -0.0282843  -0.4242641   0.4808326), wk =   0.0061440
        k(  270) = (   0.0000000  -0.3959798   0.4525483), wk =   0.0030720
        k(  271) = (   0.5091169   0.0565685  -0.0000000), wk =   0.0030720
        k(  272) = (   0.5374012   0.0848528  -0.0282843), wk =   0.0061440
        k(  273) = (   0.5656854   0.1131371  -0.0565685), wk =   0.0061440
        k(  274) = (  -0.1131371  -0.5656854   0.6222540), wk =   0.0061440
        k(  275) = (  -0.0848528  -0.5374012   0.5939697), wk =   0.0061440
        k(  276) = (  -0.0565685  -0.5091169   0.5656854), wk =   0.0061440
        k(  277) = (  -0.0282843  -0.4808326   0.5374012), wk =   0.0061440
        k(  278) = (   0.0000000  -0.4525483   0.5091169), wk =   0.0030720
        k(  279) = (   0.5656854   0.0565685   0.0000000), wk =   0.0030720
        k(  280) = (   0.5939697   0.0848528  -0.0282843), wk =   0.0061440
        k(  281) = (  -0.0848528  -0.5939697   0.6505382), wk =   0.0061440
        k(  282) = (  -0.0565685  -0.5656854   0.6222540), wk =   0.0061440
        k(  283) = (  -0.0282843  -0.5374012   0.5939697), wk =   0.0061440
        k(  284) = (   0.0000000  -0.5091169   0.5656854), wk =   0.0030720
        k(  285) = (   0.6222540   0.0565685   0.0000000), wk =   0.0030720
        k(  286) = (  -0.0565685  -0.6222540   0.6788225), wk =   0.0061440
        k(  287) = (  -0.0282843  -0.5939697   0.6505382), wk =   0.0061440
        k(  288) = (  -0.0000000  -0.5656854   0.6222540), wk =   0.0030720
        k(  289) = (  -0.0282843  -0.6505382   0.7071068), wk =   0.0030720
        k(  290) = (   0.0000000  -0.6222540   0.6788225), wk =   0.0030720
        k(  291) = (   0.2262742   0.1131371   0.0000000), wk =   0.0030720
        k(  292) = (   0.2545584   0.1414214  -0.0282843), wk =   0.0061440
        k(  293) = (   0.2828427   0.1697056  -0.0565685), wk =   0.0061440
        k(  294) = (   0.3111270   0.1979899  -0.0848528), wk =   0.0061440
        k(  295) = (   0.3394113   0.2262742  -0.1131371), wk =   0.0061440
        k(  296) = (   0.3676955   0.2545584  -0.1414214), wk =   0.0061440
        k(  297) = (   0.3959798   0.2828427  -0.1697056), wk =   0.0061440
        k(  298) = (  -0.2828427  -0.3959798   0.5091169), wk =   0.0061440
        k(  299) = (  -0.2545584  -0.3676955   0.4808326), wk =   0.0061440
        k(  300) = (   0.2828427   0.1131371   0.0000000), wk =   0.0030720
        k(  301) = (   0.3111270   0.1414214  -0.0282843), wk =   0.0061440
        k(  302) = (   0.3394113   0.1697056  -0.0565685), wk =   0.0061440
        k(  303) = (   0.3676955   0.1979899  -0.0848528), wk =   0.0061440
        k(  304) = (   0.3959798   0.2262742  -0.1131371), wk =   0.0061440
        k(  305) = (   0.4242641   0.2545584  -0.1414214), wk =   0.0061440
        k(  306) = (  -0.2545584  -0.4242641   0.5374012), wk =   0.0061440
        k(  307) = (  -0.2262742  -0.3959798   0.5091169), wk =   0.0061440
        k(  308) = (  -0.1979899  -0.3676955   0.4808326), wk =   0.0061440
        k(  309) = (  -0.1697056  -0.3394113   0.4525483), wk =   0.0061440
        k(  310) = (  -0.1414214  -0.3111270   0.4242641), wk =   0.0061440
        k(  311) = (  -0.1131371  -0.2828427   0.3959798), wk =   0.0061440
        k(  312) = (  -0.0848528  -0.2545584   0.3676955), wk =   0.0061440
        k(  313) = (  -0.0565685  -0.2262742   0.3394113), wk =   0.0061440
        k(  314) = (  -0.0282843  -0.1979899   0.3111270), wk =   0.0061440
        k(  315) = (   0.0000000  -0.1697056   0.2828427), wk =   0.0030720
        k(  316) = (   0.3394113   0.1131371   0.0000000), wk =   0.0030720
        k(  317) = (   0.3676955   0.1414214  -0.0282843), wk =   0.0061440
        k(  318) = (   0.3959798   0.1697056  -0.0565685), wk =   0.0061440
        k(  319) = (   0.4242641   0.1979899  -0.0848528), wk =   0.0061440
        k(  320) = (   0.4525483   0.2262742  -0.1131371), wk =   0.0061440
        k(  321) = (  -0.2262742  -0.4525483   0.5656854), wk =   0.0061440
        k(  322) = (  -0.1979899  -0.4242641   0.5374012), wk =   0.0061440
        k(  323) = (  -0.1697056  -0.3959798   0.5091169), wk =   0.0061440
        k(  324) = (  -0.1414214  -0.3676955   0.4808326), wk =   0.0061440
        k(  325) = (  -0.1131371  -0.3394113   0.4525483), wk =   0.0061440
        k(  326) = (  -0.0848528  -0.3111270   0.4242641), wk =   0.0061440
        k(  327) = (  -0.0565685  -0.2828427   0.3959798), wk =   0.0061440
        k(  328) = (  -0.0282843  -0.2545584   0.3676955), wk =   0.0061440
        k(  329) = (  -0.0000000  -0.2262742   0.3394113), wk =   0.0030720
        k(  330) = (   0.3959798   0.1131371   0.0000000), wk =   0.0030720
        k(  331) = (   0.4242641   0.1414214  -0.0282843), wk =   0.0061440
        k(  332) = (   0.4525483   0.1697056  -0.0565685), wk =   0.0061440
        k(  333) = (   0.4808326   0.1979899  -0.0848528), wk =   0.0061440
        k(  334) = (  -0.1979899  -0.4808326   0.5939697), wk =   0.0061440
        k(  335) = (  -0.1697056  -0.4525483   0.5656854), wk =   0.0061440
        k(  336) = (  -0.1414214  -0.4242641   0.5374012), wk =   0.0061440
        k(  337) = (  -0.1131371  -0.3959798   0.5091169), wk =   0.0061440
        k(  338) = (  -0.0848528  -0.3676955   0.4808326), wk =   0.0061440
        k(  339) = (  -0.0565685  -0.3394113   0.4525483), wk =   0.0061440
        k(  340) = (  -0.0282843  -0.3111270   0.4242641), wk =   0.0061440
        k(  341) = (   0.0000000  -0.2828427   0.3959798), wk =   0.0030720
        k(  342) = (   0.4525483   0.1131371   0.0000000), wk =   0.0030720
        k(  343) = (   0.4808326   0.1414214  -0.0282843), wk =   0.0061440
        k(  344) = (   0.5091169   0.1697056  -0.0565685), wk =   0.0061440
        k(  345) = (  -0.1697056  -0.5091169   0.6222540), wk =   0.0061440
        k(  346) = (  -0.1414214  -0.4808326   0.5939697), wk =   0.0061440
        k(  347) = (  -0.1131371  -0.4525483   0.5656854), wk =   0.0061440
        k(  348) = (  -0.0848528  -0.4242641   0.5374012), wk =   0.0061440
        k(  349) = (  -0.0565685  -0.3959798   0.5091169), wk =   0.0061440
        k(  350) = (  -0.0282843  -0.3676955   0.4808326), wk =   0.0061440
        k(  351) = (   0.0000000  -0.3394113   0.4525483), wk =   0.0030720
        k(  352) = (   0.5091169   0.1131371   0.0000000), wk =   0.0030720
        k(  353) = (   0.5374012   0.1414214  -0.0282843), wk =   0.0061440
        k(  354) = (  -0.1414214  -0.5374012   0.6505382), wk =   0.0061440
        k(  355) = (  -0.1131371  -0.5091169   0.6222540), wk =   0.0061440
        k(  356) = (  -0.0848528  -0.4808326   0.5939697), wk =   0.0061440
        k(  357) = (  -0.0565685  -0.4525483   0.5656854), wk =   0.0061440
        k(  358) = (  -0.0282843  -0.4242641   0.5374012), wk =   0.0061440
        k(  359) = (  -0.0000000  -0.3959798   0.5091169), wk =   0.0030720
        k(  360) = (   0.5656854   0.1131371   0.0000000), wk =   0.0030720
        k(  361) = (  -0.1131371  -0.5656854   0.6788225), wk =   0.0061440
        k(  362) = (  -0.0848528  -0.5374012   0.6505382), wk =   0.0061440
        k(  363) = (  -0.0565685  -0.5091169   0.6222540), wk =   0.0061440
        k(  364) = (  -0.0282843  -0.4808326   0.5939697), wk =   0.0061440
        k(  365) = (   0.0000000  -0.4525483   0.5656854), wk =   0.0030720
        k(  366) = (  -0.0848528  -0.5939697   0.7071068), wk =   0.0030720
        k(  367) = (  -0.0565685  -0.5656854   0.6788225), wk =   0.0061440
        k(  368) = (  -0.0282843  -0.5374012   0.6505382), wk =   0.0061440
        k(  369) = (   0.0000000  -0.5091169   0.6222540), wk =   0.0030720
        k(  370) = (  -0.0282843  -0.5939697   0.7071068), wk =   0.0030720
        k(  371) = (  -0.0000000  -0.5656854   0.6788225), wk =   0.0030720
        k(  372) = (   0.3394113   0.1697056   0.0000000), wk =   0.0030720
        k(  373) = (   0.3676955   0.1979899  -0.0282843), wk =   0.0061440
        k(  374) = (   0.3959798   0.2262742  -0.0565685), wk =   0.0061440
        k(  375) = (   0.4242641   0.2545584  -0.0848528), wk =   0.0061440
        k(  376) = (  -0.2545584  -0.4242641   0.5939697), wk =   0.0061440
        k(  377) = (  -0.2262742  -0.3959798   0.5656854), wk =   0.0061440
        k(  378) = (  -0.1979899  -0.3676955   0.5374012), wk =   0.0061440
        k(  379) = (   0.3959798   0.1697056  -0.0000000), wk =   0.0030720
        k(  380) = (   0.4242641   0.1979899  -0.0282843), wk =   0.0061440
        k(  381) = (   0.4525483   0.2262742  -0.0565685), wk =   0.0061440
        k(  382) = (  -0.2262742  -0.4525483   0.6222540), wk =   0.0061440
        k(  383) = (  -0.1979899  -0.4242641   0.5939697), wk =   0.0061440
        k(  384) = (  -0.1697056  -0.3959798   0.5656854), wk =   0.0061440
        k(  385) = (  -0.1414214  -0.3676955   0.5374012), wk =   0.0061440
        k(  386) = (  -0.1131371  -0.3394113   0.5091169), wk =   0.0061440
        k(  387) = (  -0.0848528  -0.3111270   0.4808326), wk =   0.0061440
        k(  388) = (  -0.0565685  -0.2828427   0.4525483), wk =   0.0061440
        k(  389) = (  -0.0282843  -0.2545584   0.4242641), wk =   0.0061440
        k(  390) = (  -0.0000000  -0.2262742   0.3959798), wk =   0.0030720
        k(  391) = (   0.4525483   0.1697056   0.0000000), wk =   0.0030720
        k(  392) = (   0.4808326   0.1979899  -0.0282843), wk =   0.0061440
        k(  393) = (  -0.1979899  -0.4808326   0.6505382), wk =   0.0061440
        k(  394) = (  -0.1697056  -0.4525483   0.6222540), wk =   0.0061440
        k(  395) = (  -0.1414214  -0.4242641   0.5939697), wk =   0.0061440
        k(  396) = (  -0.1131371  -0.3959798   0.5656854), wk =   0.0061440
        k(  397) = (  -0.0848528  -0.3676955   0.5374012), wk =   0.0061440
        k(  398) = (  -0.0565685  -0.3394113   0.5091169), wk =   0.0061440
        k(  399) = (  -0.0282843  -0.3111270   0.4808326), wk =   0.0061440
        k(  400) = (   0.0000000  -0.2828427   0.4525483), wk =   0.0030720
        k(  401) = (   0.5091169   0.1697056   0.0000000), wk =   0.0030720
        k(  402) = (  -0.1697056  -0.5091169   0.6788225), wk =   0.0061440
        k(  403) = (  -0.1414214  -0.4808326   0.6505382), wk =   0.0061440
        k(  404) = (  -0.1131371  -0.4525483   0.6222540), wk =   0.0061440
        k(  405) = (  -0.0848528  -0.4242641   0.5939697), wk =   0.0061440
        k(  406) = (  -0.0565685  -0.3959798   0.5656854), wk =   0.0061440
        k(  407) = (  -0.0282843  -0.3676955   0.5374012), wk =   0.0061440
        k(  408) = (  -0.0000000  -0.3394113   0.5091169), wk =   0.0030720
        k(  409) = (  -0.1414214  -0.5374012   0.7071068), wk =   0.0030720
        k(  410) = (  -0.1131371  -0.5091169   0.6788225), wk =   0.0061440
        k(  411) = (  -0.0848528  -0.4808326   0.6505382), wk =   0.0061440
        k(  412) = (  -0.0565685  -0.4525483   0.6222540), wk =   0.0061440
        k(  413) = (  -0.0282843  -0.4242641   0.5939697), wk =   0.0061440
        k(  414) = (   0.0000000  -0.3959798   0.5656854), wk =   0.0030720
        k(  415) = (  -0.0848528  -0.5374012   0.7071068), wk =   0.0030720
        k(  416) = (  -0.0565685  -0.5091169   0.6788225), wk =   0.0061440
        k(  417) = (  -0.0282843  -0.4808326   0.6505382), wk =   0.0061440
        k(  418) = (   0.0000000  -0.4525483   0.6222540), wk =   0.0030720
        k(  419) = (  -0.0282843  -0.5374012   0.7071068), wk =   0.0030720
        k(  420) = (   0.0000000  -0.5091169   0.6788225), wk =   0.0030720
        k(  421) = (   0.4525483   0.2262742   0.0000000), wk =   0.0030720
        k(  422) = (  -0.2262742  -0.4525483   0.6788225), wk =   0.0061440
        k(  423) = (  -0.1979899  -0.4242641   0.6505382), wk =   0.0061440
        k(  424) = (  -0.1697056  -0.3959798   0.6222540), wk =   0.0061440
        k(  425) = (  -0.1414214  -0.3676955   0.5939697), wk =   0.0061440
        k(  426) = (  -0.1979899  -0.4808326   0.7071068), wk =   0.0030720
        k(  427) = (  -0.1697056  -0.4525483   0.6788225), wk =   0.0061440
        k(  428) = (  -0.1414214  -0.4242641   0.6505382), wk =   0.0061440
        k(  429) = (  -0.1131371  -0.3959798   0.6222540), wk =   0.0061440
        k(  430) = (  -0.0848528  -0.3676955   0.5939697), wk =   0.0061440
        k(  431) = (  -0.0565685  -0.3394113   0.5656854), wk =   0.0061440
        k(  432) = (  -0.0282843  -0.3111270   0.5374012), wk =   0.0061440
        k(  433) = (   0.0000000  -0.2828427   0.5091169), wk =   0.0030720
        k(  434) = (  -0.1414214  -0.4808326   0.7071068), wk =   0.0030720
        k(  435) = (  -0.1131371  -0.4525483   0.6788225), wk =   0.0061440
        k(  436) = (  -0.0848528  -0.4242641   0.6505382), wk =   0.0061440
        k(  437) = (  -0.0565685  -0.3959798   0.6222540), wk =   0.0061440
        k(  438) = (  -0.0282843  -0.3676955   0.5939697), wk =   0.0061440
        k(  439) = (   0.0000000  -0.3394113   0.5656854), wk =   0.0030720
        k(  440) = (  -0.0848528  -0.4808326   0.7071068), wk =   0.0030720
        k(  441) = (  -0.0565685  -0.4525483   0.6788225), wk =   0.0061440
        k(  442) = (  -0.0282843  -0.4242641   0.6505382), wk =   0.0061440
        k(  443) = (  -0.0000000  -0.3959798   0.6222540), wk =   0.0030720
        k(  444) = (  -0.0282843  -0.4808326   0.7071068), wk =   0.0030720
        k(  445) = (   0.0000000  -0.4525483   0.6788225), wk =   0.0030720
        k(  446) = (  -0.1414214  -0.4242641   0.7071068), wk =   0.0030720
        k(  447) = (  -0.1131371  -0.3959798   0.6788225), wk =   0.0061440
        k(  448) = (  -0.0848528  -0.3676955   0.6505382), wk =   0.0061440
        k(  449) = (  -0.0848528  -0.4242641   0.7071068), wk =   0.0030720
        k(  450) = (  -0.0565685  -0.3959798   0.6788225), wk =   0.0061440
        k(  451) = (  -0.0282843  -0.3676955   0.6505382), wk =   0.0061440
        k(  452) = (  -0.0000000  -0.3394113   0.6222540), wk =   0.0030720
        k(  453) = (  -0.0282843  -0.4242641   0.7071068), wk =   0.0030720
        k(  454) = (  -0.0000000  -0.3959798   0.6788225), wk =   0.0030720
        k(  455) = (  -0.0282843  -0.3676955   0.7071068), wk =   0.0030720

                       cryst. coord.
        k(    1) = (   0.0000000   0.0000000   0.0000000), wk =   0.0001280
        k(    2) = (   0.0000000   0.0000000   0.0400000), wk =   0.0010240
        k(    3) = (   0.0000000   0.0000000   0.0800000), wk =   0.0010240
        k(    4) = (   0.0000000   0.0000000   0.1200000), wk =   0.0010240
        k(    5) = (   0.0000000   0.0000000   0.1600000), wk =   0.0010240
        k(    6) = (   0.0000000   0.0000000   0.2000000), wk =   0.0010240
        k(    7) = (   0.0000000   0.0000000   0.2400000), wk =   0.0010240
        k(    8) = (   0.0000000   0.0000000   0.2800000), wk =   0.0010240
        k(    9) = (   0.0000000   0.0000000   0.3200000), wk =   0.0010240
        k(   10) = (   0.0000000   0.0000000   0.3600000), wk =   0.0010240
        k(   11) = (   0.0000000   0.0000000   0.4000000), wk =   0.0010240
        k(   12) = (   0.0000000   0.0000000   0.4400000), wk =   0.0010240
        k(   13) = (   0.0000000   0.0000000   0.4800000), wk =   0.0010240
        k(   14) = (   0.0000000   0.0400000   0.0400000), wk =   0.0007680
        k(   15) = (   0.0000000   0.0400000   0.0800000), wk =   0.0030720
        k(   16) = (   0.0000000   0.0400000   0.1200000), wk =   0.0030720
        k(   17) = (   0.0000000   0.0400000   0.1600000), wk =   0.0030720
        k(   18) = (   0.0000000   0.0400000   0.2000000), wk =   0.0030720
        k(   19) = (   0.0000000   0.0400000   0.2400000), wk =   0.0030720
        k(   20) = (   0.0000000   0.0400000   0.2800000), wk =   0.0030720
        k(   21) = (   0.0000000   0.0400000   0.3200000), wk =   0.0030720
        k(   22) = (   0.0000000   0.0400000   0.3600000), wk =   0.0030720
        k(   23) = (   0.0000000   0.0400000   0.4000000), wk =   0.0030720
        k(   24) = (   0.0000000   0.0400000   0.4400000), wk =   0.0030720
        k(   25) = (   0.0000000   0.0400000   0.4800000), wk =   0.0030720
        k(   26) = (   0.0000000   0.0400000  -0.4800000), wk =   0.0030720
        k(   27) = (   0.0000000   0.0400000  -0.4400000), wk =   0.0030720
        k(   28) = (   0.0000000   0.0400000  -0.4000000), wk =   0.0030720
        k(   29) = (   0.0000000   0.0400000  -0.3600000), wk =   0.0030720
        k(   30) = (   0.0000000   0.0400000  -0.3200000), wk =   0.0030720
        k(   31) = (   0.0000000   0.0400000  -0.2800000), wk =   0.0030720
        k(   32) = (   0.0000000   0.0400000  -0.2400000), wk =   0.0030720
        k(   33) = (   0.0000000   0.0400000  -0.2000000), wk =   0.0030720
        k(   34) = (   0.0000000   0.0400000  -0.1600000), wk =   0.0030720
        k(   35) = (   0.0000000   0.0400000  -0.1200000), wk =   0.0030720
        k(   36) = (   0.0000000   0.0400000  -0.0800000), wk =   0.0030720
        k(   37) = (   0.0000000   0.0400000  -0.0400000), wk =   0.0015360
        k(   38) = (   0.0000000   0.0800000   0.0800000), wk =   0.0007680
        k(   39) = (   0.0000000   0.0800000   0.1200000), wk =   0.0030720
        k(   40) = (   0.0000000   0.0800000   0.1600000), wk =   0.0030720
        k(   41) = (   0.0000000   0.0800000   0.2000000), wk =   0.0030720
        k(   42) = (   0.0000000   0.0800000   0.2400000), wk =   0.0030720
        k(   43) = (   0.0000000   0.0800000   0.2800000), wk =   0.0030720
        k(   44) = (   0.0000000   0.0800000   0.3200000), wk =   0.0030720
        k(   45) = (   0.0000000   0.0800000   0.3600000), wk =   0.0030720
        k(   46) = (   0.0000000   0.0800000   0.4000000), wk =   0.0030720
        k(   47) = (   0.0000000   0.0800000   0.4400000), wk =   0.0030720
        k(   48) = (   0.0000000   0.0800000   0.4800000), wk =   0.0030720
        k(   49) = (   0.0000000   0.0800000  -0.4800000), wk =   0.0030720
        k(   50) = (   0.0000000   0.0800000  -0.4400000), wk =   0.0030720
        k(   51) = (   0.0000000   0.0800000  -0.4000000), wk =   0.0030720
        k(   52) = (   0.0000000   0.0800000  -0.3600000), wk =   0.0030720
        k(   53) = (   0.0000000   0.0800000  -0.3200000), wk =   0.0030720
        k(   54) = (   0.0000000   0.0800000  -0.2800000), wk =   0.0030720
        k(   55) = (   0.0000000   0.0800000  -0.2400000), wk =   0.0030720
        k(   56) = (   0.0000000   0.0800000  -0.2000000), wk =   0.0030720
        k(   57) = (   0.0000000   0.0800000  -0.1600000), wk =   0.0030720
        k(   58) = (   0.0000000   0.0800000  -0.1200000), wk =   0.0030720
        k(   59) = (   0.0000000   0.0800000  -0.0800000), wk =   0.0015360
        k(   60) = (   0.0000000   0.1200000   0.1200000), wk =   0.0007680
        k(   61) = (   0.0000000   0.1200000   0.1600000), wk =   0.0030720
        k(   62) = (   0.0000000   0.1200000   0.2000000), wk =   0.0030720
        k(   63) = (   0.0000000   0.1200000   0.2400000), wk =   0.0030720
        k(   64) = (   0.0000000   0.1200000   0.2800000), wk =   0.0030720
        k(   65) = (   0.0000000   0.1200000   0.3200000), wk =   0.0030720
        k(   66) = (   0.0000000   0.1200000   0.3600000), wk =   0.0030720
        k(   67) = (   0.0000000   0.1200000   0.4000000), wk =   0.0030720
        k(   68) = (   0.0000000   0.1200000   0.4400000), wk =   0.0030720
        k(   69) = (   0.0000000   0.1200000   0.4800000), wk =   0.0030720
        k(   70) = (   0.0000000   0.1200000  -0.4800000), wk =   0.0030720
        k(   71) = (   0.0000000   0.1200000  -0.4400000), wk =   0.0030720
        k(   72) = (   0.0000000   0.1200000  -0.4000000), wk =   0.0030720
        k(   73) = (   0.0000000   0.1200000  -0.3600000), wk =   0.0030720
        k(   74) = (   0.0000000   0.1200000  -0.3200000), wk =   0.0030720
        k(   75) = (   0.0000000   0.1200000  -0.2800000), wk =   0.0030720
        k(   76) = (   0.0000000   0.1200000  -0.2400000), wk =   0.0030720
        k(   77) = (   0.0000000   0.1200000  -0.2000000), wk =   0.0030720
        k(   78) = (   0.0000000   0.1200000  -0.1600000), wk =   0.0030720
        k(   79) = (   0.0000000   0.1200000  -0.1200000), wk =   0.0015360
        k(   80) = (   0.0000000   0.1600000   0.1600000), wk =   0.0007680
        k(   81) = (   0.0000000   0.1600000   0.2000000), wk =   0.0030720
        k(   82) = (   0.0000000   0.1600000   0.2400000), wk =   0.0030720
        k(   83) = (   0.0000000   0.1600000   0.2800000), wk =   0.0030720
        k(   84) = (   0.0000000   0.1600000   0.3200000), wk =   0.0030720
        k(   85) = (   0.0000000   0.1600000   0.3600000), wk =   0.0030720
        k(   86) = (   0.0000000   0.1600000   0.4000000), wk =   0.0030720
        k(   87) = (   0.0000000   0.1600000   0.4400000), wk =   0.0030720
        k(   88) = (   0.0000000   0.1600000   0.4800000), wk =   0.0030720
        k(   89) = (   0.0000000   0.1600000  -0.4800000), wk =   0.0030720
        k(   90) = (   0.0000000   0.1600000  -0.4400000), wk =   0.0030720
        k(   91) = (   0.0000000   0.1600000  -0.4000000), wk =   0.0030720
        k(   92) = (   0.0000000   0.1600000  -0.3600000), wk =   0.0030720
        k(   93) = (   0.0000000   0.1600000  -0.3200000), wk =   0.0030720
        k(   94) = (   0.0000000   0.1600000  -0.2800000), wk =   0.0030720
        k(   95) = (   0.0000000   0.1600000  -0.2400000), wk =   0.0030720
        k(   96) = (   0.0000000   0.1600000  -0.2000000), wk =   0.0030720
        k(   97) = (   0.0000000   0.1600000  -0.1600000), wk =   0.0015360
        k(   98) = (   0.0000000   0.2000000   0.2000000), wk =   0.0007680
        k(   99) = (   0.0000000   0.2000000   0.2400000), wk =   0.0030720
        k(  100) = (   0.0000000   0.2000000   0.2800000), wk =   0.0030720
        k(  101) = (   0.0000000   0.2000000   0.3200000), wk =   0.0030720
        k(  102) = (   0.0000000   0.2000000   0.3600000), wk =   0.0030720
        k(  103) = (   0.0000000   0.2000000   0.4000000), wk =   0.0030720
        k(  104) = (   0.0000000   0.2000000   0.4400000), wk =   0.0030720
        k(  105) = (   0.0000000   0.2000000   0.4800000), wk =   0.0030720
        k(  106) = (   0.0000000   0.2000000  -0.4800000), wk =   0.0030720
        k(  107) = (   0.0000000   0.2000000  -0.4400000), wk =   0.0030720
        k(  108) = (   0.0000000   0.2000000  -0.4000000), wk =   0.0030720
        k(  109) = (   0.0000000   0.2000000  -0.3600000), wk =   0.0030720
        k(  110) = (   0.0000000   0.2000000  -0.3200000), wk =   0.0030720
        k(  111) = (   0.0000000   0.2000000  -0.2800000), wk =   0.0030720
        k(  112) = (   0.0000000   0.2000000  -0.2400000), wk =   0.0030720
        k(  113) = (   0.0000000   0.2000000  -0.2000000), wk =   0.0015360
        k(  114) = (   0.0000000   0.2400000   0.2400000), wk =   0.0007680
        k(  115) = (   0.0000000   0.2400000   0.2800000), wk =   0.0030720
        k(  116) = (   0.0000000   0.2400000   0.3200000), wk =   0.0030720
        k(  117) = (   0.0000000   0.2400000   0.3600000), wk =   0.0030720
        k(  118) = (   0.0000000   0.2400000   0.4000000), wk =   0.0030720
        k(  119) = (   0.0000000   0.2400000   0.4400000), wk =   0.0030720
        k(  120) = (   0.0000000   0.2400000   0.4800000), wk =   0.0030720
        k(  121) = (   0.0000000   0.2400000  -0.4800000), wk =   0.0030720
        k(  122) = (   0.0000000   0.2400000  -0.4400000), wk =   0.0030720
        k(  123) = (   0.0000000   0.2400000  -0.4000000), wk =   0.0030720
        k(  124) = (   0.0000000   0.2400000  -0.3600000), wk =   0.0030720
        k(  125) = (   0.0000000   0.2400000  -0.3200000), wk =   0.0030720
        k(  126) = (   0.0000000   0.2400000  -0.2800000), wk =   0.0030720
        k(  127) = (   0.0000000   0.2400000  -0.2400000), wk =   0.0015360
        k(  128) = (   0.0000000   0.2800000   0.2800000), wk =   0.0007680
        k(  129) = (   0.0000000   0.2800000   0.3200000), wk =   0.0030720
        k(  130) = (   0.0000000   0.2800000   0.3600000), wk =   0.0030720
        k(  131) = (   0.0000000   0.2800000   0.4000000), wk =   0.0030720
        k(  132) = (   0.0000000   0.2800000   0.4400000), wk =   0.0030720
        k(  133) = (   0.0000000   0.2800000   0.4800000), wk =   0.0030720
        k(  134) = (   0.0000000   0.2800000  -0.4800000), wk =   0.0030720
        k(  135) = (   0.0000000   0.2800000  -0.4400000), wk =   0.0030720
        k(  136) = (   0.0000000   0.2800000  -0.4000000), wk =   0.0030720
        k(  137) = (   0.0000000   0.2800000  -0.3600000), wk =   0.0030720
        k(  138) = (   0.0000000   0.2800000  -0.3200000), wk =   0.0030720
        k(  139) = (   0.0000000   0.2800000  -0.2800000), wk =   0.0015360
        k(  140) = (   0.0000000   0.3200000   0.3200000), wk =   0.0007680
        k(  141) = (   0.0000000   0.3200000   0.3600000), wk =   0.0030720
        k(  142) = (   0.0000000   0.3200000   0.4000000), wk =   0.0030720
        k(  143) = (   0.0000000   0.3200000   0.4400000), wk =   0.0030720
        k(  144) = (   0.0000000   0.3200000   0.4800000), wk =   0.0030720
        k(  145) = (   0.0000000   0.3200000  -0.4800000), wk =   0.0030720
        k(  146) = (   0.0000000   0.3200000  -0.4400000), wk =   0.0030720
        k(  147) = (   0.0000000   0.3200000  -0.4000000), wk =   0.0030720
        k(  148) = (   0.0000000   0.3200000  -0.3600000), wk =   0.0030720
        k(  149) = (   0.0000000   0.3200000  -0.3200000), wk =   0.0015360
        k(  150) = (   0.0000000   0.3600000   0.3600000), wk =   0.0007680
        k(  151) = (   0.0000000   0.3600000   0.4000000), wk =   0.0030720
        k(  152) = (   0.0000000   0.3600000   0.4400000), wk =   0.0030720
        k(  153) = (   0.0000000   0.3600000   0.4800000), wk =   0.0030720
        k(  154) = (   0.0000000   0.3600000  -0.4800000), wk =   0.0030720
        k(  155) = (   0.0000000   0.3600000  -0.4400000), wk =   0.0030720
        k(  156) = (   0.0000000   0.3600000  -0.4000000), wk =   0.0030720
        k(  157) = (   0.0000000   0.3600000  -0.3600000), wk =   0.0015360
        k(  158) = (   0.0000000   0.4000000   0.4000000), wk =   0.0007680
        k(  159) = (   0.0000000   0.4000000   0.4400000), wk =   0.0030720
        k(  160) = (   0.0000000   0.4000000   0.4800000), wk =   0.0030720
        k(  161) = (   0.0000000   0.4000000  -0.4800000), wk =   0.0030720
        k(  162) = (   0.0000000   0.4000000  -0.4400000), wk =   0.0030720
        k(  163) = (   0.0000000   0.4000000  -0.4000000), wk =   0.0015360
        k(  164) = (   0.0000000   0.4400000   0.4400000), wk =   0.0007680
        k(  165) = (   0.0000000   0.4400000   0.4800000), wk =   0.0030720
        k(  166) = (   0.0000000   0.4400000  -0.4800000), wk =   0.0030720
        k(  167) = (   0.0000000   0.4400000  -0.4400000), wk =   0.0015360
        k(  168) = (   0.0000000   0.4800000   0.4800000), wk =   0.0007680
        k(  169) = (   0.0000000   0.4800000  -0.4800000), wk =   0.0015360
        k(  170) = (   0.0400000   0.0800000   0.1200000), wk =   0.0030720
        k(  171) = (   0.0400000   0.0800000   0.1600000), wk =   0.0061440
        k(  172) = (   0.0400000   0.0800000   0.2000000), wk =   0.0061440
        k(  173) = (   0.0400000   0.0800000   0.2400000), wk =   0.0061440
        k(  174) = (   0.0400000   0.0800000   0.2800000), wk =   0.0061440
        k(  175) = (   0.0400000   0.0800000   0.3200000), wk =   0.0061440
        k(  176) = (   0.0400000   0.0800000   0.3600000), wk =   0.0061440
        k(  177) = (   0.0400000   0.0800000   0.4000000), wk =   0.0061440
        k(  178) = (   0.0400000   0.0800000   0.4400000), wk =   0.0061440
        k(  179) = (   0.0400000   0.0800000   0.4800000), wk =   0.0061440
        k(  180) = (   0.0400000   0.0800000  -0.4800000), wk =   0.0061440
        k(  181) = (   0.0400000   0.1200000   0.1600000), wk =   0.0030720
        k(  182) = (   0.0400000   0.1200000   0.2000000), wk =   0.0061440
        k(  183) = (   0.0400000   0.1200000   0.2400000), wk =   0.0061440
        k(  184) = (   0.0400000   0.1200000   0.2800000), wk =   0.0061440
        k(  185) = (   0.0400000   0.1200000   0.3200000), wk =   0.0061440
        k(  186) = (   0.0400000   0.1200000   0.3600000), wk =   0.0061440
        k(  187) = (   0.0400000   0.1200000   0.4000000), wk =   0.0061440
        k(  188) = (   0.0400000   0.1200000   0.4400000), wk =   0.0061440
        k(  189) = (   0.0400000   0.1200000   0.4800000), wk =   0.0061440
        k(  190) = (   0.0400000   0.1200000  -0.4800000), wk =   0.0061440
        k(  191) = (   0.0400000   0.1200000  -0.4400000), wk =   0.0061440
        k(  192) = (   0.0400000   0.1200000  -0.4000000), wk =   0.0061440
        k(  193) = (   0.0400000   0.1200000  -0.3600000), wk =   0.0061440
        k(  194) = (   0.0400000   0.1200000  -0.3200000), wk =   0.0061440
        k(  195) = (   0.0400000   0.1200000  -0.2800000), wk =   0.0061440
        k(  196) = (   0.0400000   0.1200000  -0.2400000), wk =   0.0061440
        k(  197) = (   0.0400000   0.1200000  -0.2000000), wk =   0.0061440
        k(  198) = (   0.0400000   0.1200000  -0.1600000), wk =   0.0061440
        k(  199) = (   0.0400000   0.1200000  -0.1200000), wk =   0.0061440
        k(  200) = (   0.0400000   0.1200000  -0.0800000), wk =   0.0030720
        k(  201) = (   0.0400000   0.1600000   0.2000000), wk =   0.0030720
        k(  202) = (   0.0400000   0.1600000   0.2400000), wk =   0.0061440
        k(  203) = (   0.0400000   0.1600000   0.2800000), wk =   0.0061440
        k(  204) = (   0.0400000   0.1600000   0.3200000), wk =   0.0061440
        k(  205) = (   0.0400000   0.1600000   0.3600000), wk =   0.0061440
        k(  206) = (   0.0400000   0.1600000   0.4000000), wk =   0.0061440
        k(  207) = (   0.0400000   0.1600000   0.4400000), wk =   0.0061440
        k(  208) = (   0.0400000   0.1600000   0.4800000), wk =   0.0061440
        k(  209) = (   0.0400000   0.1600000  -0.4800000), wk =   0.0061440
        k(  210) = (   0.0400000   0.1600000  -0.4400000), wk =   0.0061440
        k(  211) = (   0.0400000   0.1600000  -0.4000000), wk =   0.0061440
        k(  212) = (   0.0400000   0.1600000  -0.3600000), wk =   0.0061440
        k(  213) = (   0.0400000   0.1600000  -0.3200000), wk =   0.0061440
        k(  214) = (   0.0400000   0.1600000  -0.2800000), wk =   0.0061440
        k(  215) = (   0.0400000   0.1600000  -0.2400000), wk =   0.0061440
        k(  216) = (   0.0400000   0.1600000  -0.2000000), wk =   0.0061440
        k(  217) = (   0.0400000   0.1600000  -0.1600000), wk =   0.0061440
        k(  218) = (   0.0400000   0.1600000  -0.1200000), wk =   0.0030720
        k(  219) = (   0.0400000   0.2000000   0.2400000), wk =   0.0030720
        k(  220) = (   0.0400000   0.2000000   0.2800000), wk =   0.0061440
        k(  221) = (   0.0400000   0.2000000   0.3200000), wk =   0.0061440
        k(  222) = (   0.0400000   0.2000000   0.3600000), wk =   0.0061440
        k(  223) = (   0.0400000   0.2000000   0.4000000), wk =   0.0061440
        k(  224) = (   0.0400000   0.2000000   0.4400000), wk =   0.0061440
        k(  225) = (   0.0400000   0.2000000   0.4800000), wk =   0.0061440
        k(  226) = (   0.0400000   0.2000000  -0.4800000), wk =   0.0061440
        k(  227) = (   0.0400000   0.2000000  -0.4400000), wk =   0.0061440
        k(  228) = (   0.0400000   0.2000000  -0.4000000), wk =   0.0061440
        k(  229) = (   0.0400000   0.2000000  -0.3600000), wk =   0.0061440
        k(  230) = (   0.0400000   0.2000000  -0.3200000), wk =   0.0061440
        k(  231) = (   0.0400000   0.2000000  -0.2800000), wk =   0.0061440
        k(  232) = (   0.0400000   0.2000000  -0.2400000), wk =   0.0061440
        k(  233) = (   0.0400000   0.2000000  -0.2000000), wk =   0.0061440
        k(  234) = (   0.0400000   0.2000000  -0.1600000), wk =   0.0030720
        k(  235) = (   0.0400000   0.2400000   0.2800000), wk =   0.0030720
        k(  236) = (   0.0400000   0.2400000   0.3200000), wk =   0.0061440
        k(  237) = (   0.0400000   0.2400000   0.3600000), wk =   0.0061440
        k(  238) = (   0.0400000   0.2400000   0.4000000), wk =   0.0061440
        k(  239) = (   0.0400000   0.2400000   0.4400000), wk =   0.0061440
        k(  240) = (   0.0400000   0.2400000   0.4800000), wk =   0.0061440
        k(  241) = (   0.0400000   0.2400000  -0.4800000), wk =   0.0061440
        k(  242) = (   0.0400000   0.2400000  -0.4400000), wk =   0.0061440
        k(  243) = (   0.0400000   0.2400000  -0.4000000), wk =   0.0061440
        k(  244) = (   0.0400000   0.2400000  -0.3600000), wk =   0.0061440
        k(  245) = (   0.0400000   0.2400000  -0.3200000), wk =   0.0061440
        k(  246) = (   0.0400000   0.2400000  -0.2800000), wk =   0.0061440
        k(  247) = (   0.0400000   0.2400000  -0.2400000), wk =   0.0061440
        k(  248) = (   0.0400000   0.2400000  -0.2000000), wk =   0.0030720
        k(  249) = (   0.0400000   0.2800000   0.3200000), wk =   0.0030720
        k(  250) = (   0.0400000   0.2800000   0.3600000), wk =   0.0061440
        k(  251) = (   0.0400000   0.2800000   0.4000000), wk =   0.0061440
        k(  252) = (   0.0400000   0.2800000   0.4400000), wk =   0.0061440
        k(  253) = (   0.0400000   0.2800000   0.4800000), wk =   0.0061440
        k(  254) = (   0.0400000   0.2800000  -0.4800000), wk =   0.0061440
        k(  255) = (   0.0400000   0.2800000  -0.4400000), wk =   0.0061440
        k(  256) = (   0.0400000   0.2800000  -0.4000000), wk =   0.0061440
        k(  257) = (   0.0400000   0.2800000  -0.3600000), wk =   0.0061440
        k(  258) = (   0.0400000   0.2800000  -0.3200000), wk =   0.0061440
        k(  259) = (   0.0400000   0.2800000  -0.2800000), wk =   0.0061440
        k(  260) = (   0.0400000   0.2800000  -0.2400000), wk =   0.0030720
        k(  261) = (   0.0400000   0.3200000   0.3600000), wk =   0.0030720
        k(  262) = (   0.0400000   0.3200000   0.4000000), wk =   0.0061440
        k(  263) = (   0.0400000   0.3200000   0.4400000), wk =   0.0061440
        k(  264) = (   0.0400000   0.3200000   0.4800000), wk =   0.0061440
        k(  265) = (   0.0400000   0.3200000  -0.4800000), wk =   0.0061440
        k(  266) = (   0.0400000   0.3200000  -0.4400000), wk =   0.0061440
        k(  267) = (   0.0400000   0.3200000  -0.4000000), wk =   0.0061440
        k(  268) = (   0.0400000   0.3200000  -0.3600000), wk =   0.0061440
        k(  269) = (   0.0400000   0.3200000  -0.3200000), wk =   0.0061440
        k(  270) = (   0.0400000   0.3200000  -0.2800000), wk =   0.0030720
        k(  271) = (   0.0400000   0.3600000   0.4000000), wk =   0.0030720
        k(  272) = (   0.0400000   0.3600000   0.4400000), wk =   0.0061440
        k(  273) = (   0.0400000   0.3600000   0.4800000), wk =   0.0061440
        k(  274) = (   0.0400000   0.3600000  -0.4800000), wk =   0.0061440
        k(  275) = (   0.0400000   0.3600000  -0.4400000), wk =   0.0061440
        k(  276) = (   0.0400000   0.3600000  -0.4000000), wk =   0.0061440
        k(  277) = (   0.0400000   0.3600000  -0.3600000), wk =   0.0061440
        k(  278) = (   0.0400000   0.3600000  -0.3200000), wk =   0.0030720
        k(  279) = (   0.0400000   0.4000000   0.4400000), wk =   0.0030720
        k(  280) = (   0.0400000   0.4000000   0.4800000), wk =   0.0061440
        k(  281) = (   0.0400000   0.4000000  -0.4800000), wk =   0.0061440
        k(  282) = (   0.0400000   0.4000000  -0.4400000), wk =   0.0061440
        k(  283) = (   0.0400000   0.4000000  -0.4000000), wk =   0.0061440
        k(  284) = (   0.0400000   0.4000000  -0.3600000), wk =   0.0030720
        k(  285) = (   0.0400000   0.4400000   0.4800000), wk =   0.0030720
        k(  286) = (   0.0400000   0.4400000  -0.4800000), wk =   0.0061440
        k(  287) = (   0.0400000   0.4400000  -0.4400000), wk =   0.0061440
        k(  288) = (   0.0400000   0.4400000  -0.4000000), wk =   0.0030720
        k(  289) = (   0.0400000   0.4800000  -0.4800000), wk =   0.0030720
        k(  290) = (   0.0400000   0.4800000  -0.4400000), wk =   0.0030720
        k(  291) = (   0.0800000   0.1600000   0.2400000), wk =   0.0030720
        k(  292) = (   0.0800000   0.1600000   0.2800000), wk =   0.0061440
        k(  293) = (   0.0800000   0.1600000   0.3200000), wk =   0.0061440
        k(  294) = (   0.0800000   0.1600000   0.3600000), wk =   0.0061440
        k(  295) = (   0.0800000   0.1600000   0.4000000), wk =   0.0061440
        k(  296) = (   0.0800000   0.1600000   0.4400000), wk =   0.0061440
        k(  297) = (   0.0800000   0.1600000   0.4800000), wk =   0.0061440
        k(  298) = (   0.0800000   0.1600000  -0.4800000), wk =   0.0061440
        k(  299) = (   0.0800000   0.1600000  -0.4400000), wk =   0.0061440
        k(  300) = (   0.0800000   0.2000000   0.2800000), wk =   0.0030720
        k(  301) = (   0.0800000   0.2000000   0.3200000), wk =   0.0061440
        k(  302) = (   0.0800000   0.2000000   0.3600000), wk =   0.0061440
        k(  303) = (   0.0800000   0.2000000   0.4000000), wk =   0.0061440
        k(  304) = (   0.0800000   0.2000000   0.4400000), wk =   0.0061440
        k(  305) = (   0.0800000   0.2000000   0.4800000), wk =   0.0061440
        k(  306) = (   0.0800000   0.2000000  -0.4800000), wk =   0.0061440
        k(  307) = (   0.0800000   0.2000000  -0.4400000), wk =   0.0061440
        k(  308) = (   0.0800000   0.2000000  -0.4000000), wk =   0.0061440
        k(  309) = (   0.0800000   0.2000000  -0.3600000), wk =   0.0061440
        k(  310) = (   0.0800000   0.2000000  -0.3200000), wk =   0.0061440
        k(  311) = (   0.0800000   0.2000000  -0.2800000), wk =   0.0061440
        k(  312) = (   0.0800000   0.2000000  -0.2400000), wk =   0.0061440
        k(  313) = (   0.0800000   0.2000000  -0.2000000), wk =   0.0061440
        k(  314) = (   0.0800000   0.2000000  -0.1600000), wk =   0.0061440
        k(  315) = (   0.0800000   0.2000000  -0.1200000), wk =   0.0030720
        k(  316) = (   0.0800000   0.2400000   0.3200000), wk =   0.0030720
        k(  317) = (   0.0800000   0.2400000   0.3600000), wk =   0.0061440
        k(  318) = (   0.0800000   0.2400000   0.4000000), wk =   0.0061440
        k(  319) = (   0.0800000   0.2400000   0.4400000), wk =   0.0061440
        k(  320) = (   0.0800000   0.2400000   0.4800000), wk =   0.0061440
        k(  321) = (   0.0800000   0.2400000  -0.4800000), wk =   0.0061440
        k(  322) = (   0.0800000   0.2400000  -0.4400000), wk =   0.0061440
        k(  323) = (   0.0800000   0.2400000  -0.4000000), wk =   0.0061440
        k(  324) = (   0.0800000   0.2400000  -0.3600000), wk =   0.0061440
        k(  325) = (   0.0800000   0.2400000  -0.3200000), wk =   0.0061440
        k(  326) = (   0.0800000   0.2400000  -0.2800000), wk =   0.0061440
        k(  327) = (   0.0800000   0.2400000  -0.2400000), wk =   0.0061440
        k(  328) = (   0.0800000   0.2400000  -0.2000000), wk =   0.0061440
        k(  329) = (   0.0800000   0.2400000  -0.1600000), wk =   0.0030720
        k(  330) = (   0.0800000   0.2800000   0.3600000), wk =   0.0030720
        k(  331) = (   0.0800000   0.2800000   0.4000000), wk =   0.0061440
        k(  332) = (   0.0800000   0.2800000   0.4400000), wk =   0.0061440
        k(  333) = (   0.0800000   0.2800000   0.4800000), wk =   0.0061440
        k(  334) = (   0.0800000   0.2800000  -0.4800000), wk =   0.0061440
        k(  335) = (   0.0800000   0.2800000  -0.4400000), wk =   0.0061440
        k(  336) = (   0.0800000   0.2800000  -0.4000000), wk =   0.0061440
        k(  337) = (   0.0800000   0.2800000  -0.3600000), wk =   0.0061440
        k(  338) = (   0.0800000   0.2800000  -0.3200000), wk =   0.0061440
        k(  339) = (   0.0800000   0.2800000  -0.2800000), wk =   0.0061440
        k(  340) = (   0.0800000   0.2800000  -0.2400000), wk =   0.0061440
        k(  341) = (   0.0800000   0.2800000  -0.2000000), wk =   0.0030720
        k(  342) = (   0.0800000   0.3200000   0.4000000), wk =   0.0030720
        k(  343) = (   0.0800000   0.3200000   0.4400000), wk =   0.0061440
        k(  344) = (   0.0800000   0.3200000   0.4800000), wk =   0.0061440
        k(  345) = (   0.0800000   0.3200000  -0.4800000), wk =   0.0061440
        k(  346) = (   0.0800000   0.3200000  -0.4400000), wk =   0.0061440
        k(  347) = (   0.0800000   0.3200000  -0.4000000), wk =   0.0061440
        k(  348) = (   0.0800000   0.3200000  -0.3600000), wk =   0.0061440
        k(  349) = (   0.0800000   0.3200000  -0.3200000), wk =   0.0061440
        k(  350) = (   0.0800000   0.3200000  -0.2800000), wk =   0.0061440
        k(  351) = (   0.0800000   0.3200000  -0.2400000), wk =   0.0030720
        k(  352) = (   0.0800000   0.3600000   0.4400000), wk =   0.0030720
        k(  353) = (   0.0800000   0.3600000   0.4800000), wk =   0.0061440
        k(  354) = (   0.0800000   0.3600000  -0.4800000), wk =   0.0061440
        k(  355) = (   0.0800000   0.3600000  -0.4400000), wk =   0.0061440
        k(  356) = (   0.0800000   0.3600000  -0.4000000), wk =   0.0061440
        k(  357) = (   0.0800000   0.3600000  -0.3600000), wk =   0.0061440
        k(  358) = (   0.0800000   0.3600000  -0.3200000), wk =   0.0061440
        k(  359) = (   0.0800000   0.3600000  -0.2800000), wk =   0.0030720
        k(  360) = (   0.0800000   0.4000000   0.4800000), wk =   0.0030720
        k(  361) = (   0.0800000   0.4000000  -0.4800000), wk =   0.0061440
        k(  362) = (   0.0800000   0.4000000  -0.4400000), wk =   0.0061440
        k(  363) = (   0.0800000   0.4000000  -0.4000000), wk =   0.0061440
        k(  364) = (   0.0800000   0.4000000  -0.3600000), wk =   0.0061440
        k(  365) = (   0.0800000   0.4000000  -0.3200000), wk =   0.0030720
        k(  366) = (   0.0800000   0.4400000  -0.4800000), wk =   0.0030720
        k(  367) = (   0.0800000   0.4400000  -0.4400000), wk =   0.0061440
        k(  368) = (   0.0800000   0.4400000  -0.4000000), wk =   0.0061440
        k(  369) = (   0.0800000   0.4400000  -0.3600000), wk =   0.0030720
        k(  370) = (   0.0800000   0.4800000  -0.4400000), wk =   0.0030720
        k(  371) = (   0.0800000   0.4800000  -0.4000000), wk =   0.0030720
        k(  372) = (   0.1200000   0.2400000   0.3600000), wk =   0.0030720
        k(  373) = (   0.1200000   0.2400000   0.4000000), wk =   0.0061440
        k(  374) = (   0.1200000   0.2400000   0.4400000), wk =   0.0061440
        k(  375) = (   0.1200000   0.2400000   0.4800000), wk =   0.0061440
        k(  376) = (   0.1200000   0.2400000  -0.4800000), wk =   0.0061440
        k(  377) = (   0.1200000   0.2400000  -0.4400000), wk =   0.0061440
        k(  378) = (   0.1200000   0.2400000  -0.4000000), wk =   0.0061440
        k(  379) = (   0.1200000   0.2800000   0.4000000), wk =   0.0030720
        k(  380) = (   0.1200000   0.2800000   0.4400000), wk =   0.0061440
        k(  381) = (   0.1200000   0.2800000   0.4800000), wk =   0.0061440
        k(  382) = (   0.1200000   0.2800000  -0.4800000), wk =   0.0061440
        k(  383) = (   0.1200000   0.2800000  -0.4400000), wk =   0.0061440
        k(  384) = (   0.1200000   0.2800000  -0.4000000), wk =   0.0061440
        k(  385) = (   0.1200000   0.2800000  -0.3600000), wk =   0.0061440
        k(  386) = (   0.1200000   0.2800000  -0.3200000), wk =   0.0061440
        k(  387) = (   0.1200000   0.2800000  -0.2800000), wk =   0.0061440
        k(  388) = (   0.1200000   0.2800000  -0.2400000), wk =   0.0061440
        k(  389) = (   0.1200000   0.2800000  -0.2000000), wk =   0.0061440
        k(  390) = (   0.1200000   0.2800000  -0.1600000), wk =   0.0030720
        k(  391) = (   0.1200000   0.3200000   0.4400000), wk =   0.0030720
        k(  392) = (   0.1200000   0.3200000   0.4800000), wk =   0.0061440
        k(  393) = (   0.1200000   0.3200000  -0.4800000), wk =   0.0061440
        k(  394) = (   0.1200000   0.3200000  -0.4400000), wk =   0.0061440
        k(  395) = (   0.1200000   0.3200000  -0.4000000), wk =   0.0061440
        k(  396) = (   0.1200000   0.3200000  -0.3600000), wk =   0.0061440
        k(  397) = (   0.1200000   0.3200000  -0.3200000), wk =   0.0061440
        k(  398) = (   0.1200000   0.3200000  -0.2800000), wk =   0.0061440
        k(  399) = (   0.1200000   0.3200000  -0.2400000), wk =   0.0061440
        k(  400) = (   0.1200000   0.3200000  -0.2000000), wk =   0.0030720
        k(  401) = (   0.1200000   0.3600000   0.4800000), wk =   0.0030720
        k(  402) = (   0.1200000   0.3600000  -0.4800000), wk =   0.0061440
        k(  403) = (   0.1200000   0.3600000  -0.4400000), wk =   0.0061440
        k(  404) = (   0.1200000   0.3600000  -0.4000000), wk =   0.0061440
        k(  405) = (   0.1200000   0.3600000  -0.3600000), wk =   0.0061440
        k(  406) = (   0.1200000   0.3600000  -0.3200000), wk =   0.0061440
        k(  407) = (   0.1200000   0.3600000  -0.2800000), wk =   0.0061440
        k(  408) = (   0.1200000   0.3600000  -0.2400000), wk =   0.0030720
        k(  409) = (   0.1200000   0.4000000  -0.4800000), wk =   0.0030720
        k(  410) = (   0.1200000   0.4000000  -0.4400000), wk =   0.0061440
        k(  411) = (   0.1200000   0.4000000  -0.4000000), wk =   0.0061440
        k(  412) = (   0.1200000   0.4000000  -0.3600000), wk =   0.0061440
        k(  413) = (   0.1200000   0.4000000  -0.3200000), wk =   0.0061440
        k(  414) = (   0.1200000   0.4000000  -0.2800000), wk =   0.0030720
[...]
    13.7875  14.4429

     occupation numbers 
     1.0000   1.0000   1.0000   1.0000   1.0000   1.0000   1.0000   1.0000
     1.0000   1.0000   1.0000   1.0000   1.0000   1.0000   0.0000   0.0000
     0.0000   0.0000

          k =-0.0283-0.4808 0.6505 (  3920 PWs)   bands (ev):

   -12.4204 -12.4141 -12.2952 -12.2673 -12.2193 -12.2031 -12.1907 -12.1652
   -12.0495 -12.0432   0.0574   0.5334   5.8016   6.2353  10.2058  11.0214
    13.6775  14.0453

     occupation numbers 
     1.0000   1.0000   1.0000   1.0000   1.0000   1.0000   1.0000   1.0000
     1.0000   1.0000   1.0000   1.0000   1.0000   1.0000   0.0000   0.0000
     0.0000   0.0000

          k = 0.0000-0.4525 0.6223 (  3910 PWs)   bands (ev):

   -12.4225 -12.4138 -12.2948 -12.2567 -12.2204 -12.2043 -12.1994 -12.1652
   -12.0497 -12.0410   0.0130   0.5841   5.6875   6.3087  10.2221  11.4723
    13.5080  13.6998

     occupation numbers 
     1.0000   1.0000   1.0000   1.0000   1.0000   1.0000   1.0000   1.0000
     1.0000   1.0000   1.0000   1.0000   1.0000   1.0000   0.0000   0.0000
     0.0000   0.0000

          k =-0.0283-0.5374 0.7071 (  3924 PWs)   bands (ev):

   -12.4148 -12.4145 -12.2990 -12.2845 -12.2166 -12.2026 -12.1756 -12.1620
   -12.0492 -12.0490   0.1057   0.4710   6.0727   6.1364  10.1530  10.1810
    14.2602  14.5734

     occupation numbers 
     1.0000   1.0000   1.0000   1.0000   1.0000   1.0000   1.0000   1.0000
     1.0000   1.0000   1.0000   1.0000   1.0000   1.0000   0.0000   0.0000
     0.0000   0.0000

          k = 0.0000-0.5091 0.6788 (  3914 PWs)   bands (ev):

   -12.4178 -12.4145 -12.2925 -12.2813 -12.2122 -12.2084 -12.1784 -12.1678
   -12.0491 -12.0458   0.2159   0.3637   5.9409   6.1543  10.1846  10.5737
    14.1033  14.1923

     occupation numbers 
     1.0000   1.0000   1.0000   1.0000   1.0000   1.0000   1.0000   1.0000
     1.0000   1.0000   1.0000   1.0000   1.0000   1.0000   0.0000   0.0000
     0.0000   0.0000

          k = 0.4525 0.2263 0.0000 (  3917 PWs)   bands (ev):

   -12.4108 -12.4068 -12.3325 -12.2680 -12.2379 -12.2111 -12.1532 -12.1367
   -12.0572 -12.0564  -1.0597   1.9100   6.0687   6.9252  10.1329  10.8607
    12.8043  13.7955

     occupation numbers 
     1.0000   1.0000   1.0000   1.0000   1.0000   1.0000   1.0000   1.0000
     1.0000   1.0000   1.0000   1.0000   1.0000   1.0000   0.0000   0.0000
     0.0000   0.0000

          k =-0.2263-0.4525 0.6788 (  3919 PWs)   bands (ev):

   -12.4147 -12.4085 -12.3239 -12.2625 -12.2332 -12.2149 -12.1604 -12.1451
   -12.0554 -12.0512  -0.8822   1.6527   5.9167   6.8165  10.1929  11.1214
    12.7665  13.9236

     occupation numbers 
     1.0000   1.0000   1.0000   1.0000   1.0000   1.0000   1.0000   1.0000
     1.0000   1.0000   1.0000   1.0000   1.0000   1.0000   0.0000   0.0000
     0.0000   0.0000

          k =-0.1980-0.4243 0.6505 (  3916 PWs)   bands (ev):

   -12.4180 -12.4097 -12.3163 -12.2570 -12.2307 -12.2165 -12.1685 -12.1513
   -12.0542 -12.0471  -0.7086   1.4157   5.8039   6.7237  10.2099  11.4033
    12.8020  13.9327

     occupation numbers 
     1.0000   1.0000   1.0000   1.0000   1.0000   1.0000   1.0000   1.0000
     1.0000   1.0000   1.0000   1.0000   1.0000   1.0000   0.0000   0.0000
     0.0000   0.0000

          k =-0.1697-0.3960 0.6223 (  3915 PWs)   bands (ev):

   -12.4203 -12.4105 -12.3106 -12.2520 -12.2302 -12.2163 -12.1760 -12.1554
   -12.0534 -12.0442  -0.5602   1.2231   5.7297   6.6567  10.2113  11.6202
    12.9498  13.8038

     occupation numbers 
     1.0000   1.0000   1.0000   1.0000   1.0000   1.0000   1.0000   1.0000
     1.0000   1.0000   1.0000   1.0000   1.0000   1.0000   0.0000   0.0000
     0.0000   0.0000

          k =-0.1414-0.3677 0.5940 (  3920 PWs)   bands (ev):

   -12.4215 -12.4109 -12.3075 -12.2489 -12.2302 -12.2161 -12.1805 -12.1574
   -12.0530 -12.0428  -0.4699   1.1102   5.6929   6.6218  10.2097  11.7263
    13.1948  13.5697

     occupation numbers 
     1.0000   1.0000   1.0000   1.0000   1.0000   1.0000   1.0000   1.0000
     1.0000   1.0000   1.0000   1.0000   1.0000   1.0000   0.0000   0.0000
     0.0000   0.0000

          k =-0.1980-0.4808 0.7071 (  3923 PWs)   bands (ev):

   -12.4139 -12.4099 -12.3240 -12.2568 -12.2278 -12.2242 -12.1647 -12.1422
   -12.0541 -12.0519  -0.7958   1.5415   5.9652   6.6425  10.3466  10.7538
    12.8801  14.2105

     occupation numbers 
     1.0000   1.0000   1.0000   1.0000   1.0000   1.0000   1.0000   1.0000
     1.0000   1.0000   1.0000   1.0000   1.0000   1.0000   0.0000   0.0000
     0.0000   0.0000

          k =-0.1697-0.4525 0.6788 (  3919 PWs)   bands (ev):

   -12.4173 -12.4116 -12.3147 -12.2511 -12.2315 -12.2197 -12.1725 -12.1507
   -12.0523 -12.0476  -0.6168   1.3084   5.8423   6.5421  10.4096  11.0505
    12.8268  14.1982

     occupation numbers 
     1.0000   1.0000   1.0000   1.0000   1.0000   1.0000   1.0000   1.0000
     1.0000   1.0000   1.0000   1.0000   1.0000   1.0000   0.0000   0.0000
     0.0000   0.0000

          k =-0.1414-0.4243 0.6505 (  3922 PWs)   bands (ev):

   -12.4201 -12.4125 -12.3069 -12.2460 -12.2329 -12.2173 -12.1803 -12.1572
   -12.0513 -12.0442  -0.4529   1.1058   5.7481   6.4721  10.4241  11.3836
    12.8393  14.0130

     occupation numbers 
     1.0000   1.0000   1.0000   1.0000   1.0000   1.0000   1.0000   1.0000
     1.0000   1.0000   1.0000   1.0000   1.0000   1.0000   0.0000   0.0000
     0.0000   0.0000

          k =-0.1131-0.3960 0.6223 (  3921 PWs)   bands (ev):

   -12.4219 -12.4130 -12.3017 -12.2430 -12.2306 -12.2181 -12.1862 -12.1610
   -12.0507 -12.0420  -0.3361   0.9673   5.6838   6.4406  10.4282  11.6451
    12.9509  13.7138

     occupation numbers 
     1.0000   1.0000   1.0000   1.0000   1.0000   1.0000   1.0000   1.0000
     1.0000   1.0000   1.0000   1.0000   1.0000   1.0000   0.0000   0.0000
     0.0000   0.0000

          k =-0.0849-0.3677 0.5940 (  3921 PWs)   bands (ev):

   -12.4226 -12.4131 -12.3001 -12.2424 -12.2275 -12.2202 -12.1885 -12.1622
   -12.0505 -12.0413  -0.3091   0.9362   5.6519   6.4501  10.4287  11.7671
    13.0760  13.4873

     occupation numbers 
     1.0000   1.0000   1.0000   1.0000   1.0000   1.0000   1.0000   1.0000
     1.0000   1.0000   1.0000   1.0000   1.0000   1.0000   0.0000   0.0000
     0.0000   0.0000

          k =-0.0566-0.3394 0.5657 (  3918 PWs)   bands (ev):

   -12.4221 -12.4128 -12.3021 -12.2447 -12.2273 -12.2199 -12.1860 -12.1609
   -12.0507 -12.0421  -0.3854   1.0258   5.6560   6.4990  10.4222  11.7362
    12.9131  13.6624

     occupation numbers 
     1.0000   1.0000   1.0000   1.0000   1.0000   1.0000   1.0000   1.0000
     1.0000   1.0000   1.0000   1.0000   1.0000   1.0000   0.0000   0.0000
     0.0000   0.0000

          k =-0.0283-0.3111 0.5374 (  3915 PWs)   bands (ev):

   -12.4204 -12.4120 -12.3073 -12.2501 -12.2254 -12.2216 -12.1787 -12.1575
   -12.0515 -12.0442  -0.5301   1.2001   5.6997   6.5821  10.3971  11.5655
    12.7588  13.9058

     occupation numbers 
     1.0000   1.0000   1.0000   1.0000   1.0000   1.0000   1.0000   1.0000
     1.0000   1.0000   1.0000   1.0000   1.0000   1.0000   0.0000   0.0000
     0.0000   0.0000

          k = 0.0000-0.2828 0.5091 (  3919 PWs)   bands (ev):

   -12.4178 -12.4107 -12.3149 -12.2565 -12.2270 -12.2204 -12.1693 -12.1524
   -12.0529 -12.0475  -0.7036   1.4177   5.7861   6.6916  10.3305  11.3255
    12.7227  14.0054

     occupation numbers 
     1.0000   1.0000   1.0000   1.0000   1.0000   1.0000   1.0000   1.0000
     1.0000   1.0000   1.0000   1.0000   1.0000   1.0000   0.0000   0.0000
     0.0000   0.0000

          k =-0.1414-0.4808 0.7071 (  3923 PWs)   bands (ev):

   -12.4162 -12.4129 -12.3139 -12.2445 -12.2441 -12.2103 -12.1773 -12.1498
   -12.0510 -12.0486  -0.5087   1.1757   5.9104   6.3991  10.4807  10.6767
    13.0626  14.4075

     occupation numbers 
     1.0000   1.0000   1.0000   1.0000   1.0000   1.0000   1.0000   1.0000
     1.0000   1.0000   1.0000   1.0000   1.0000   1.0000   0.0000   0.0000
     0.0000   0.0000

          k =-0.1131-0.4525 0.6788 (  3919 PWs)   bands (ev):

   -12.4190 -12.4143 -12.3042 -12.2472 -12.2386 -12.2069 -12.1852 -12.1585
   -12.0495 -12.0451  -0.3326   0.9683   5.8156   6.3121  10.5359  11.0221
    12.9935  14.1854

     occupation numbers 
     1.0000   1.0000   1.0000   1.0000   1.0000   1.0000   1.0000   1.0000
     1.0000   1.0000   1.0000   1.0000   1.0000   1.0000   0.0000   0.0000
     0.0000   0.0000

          k =-0.0849-0.4243 0.6505 (  3917 PWs)   bands (ev):

   -12.4214 -12.4148 -12.2968 -12.2477 -12.2331 -12.2068 -12.1920 -12.1645
   -12.0488 -12.0424  -0.1908   0.8086   5.7320   6.2768  10.5471  11.4081
    12.9712  13.8333

     occupation numbers 
     1.0000   1.0000   1.0000   1.0000   1.0000   1.0000   1.0000   1.0000
     1.0000   1.0000   1.0000   1.0000   1.0000   1.0000   0.0000   0.0000
     0.0000   0.0000

          k =-0.0566-0.3960 0.6223 (  3912 PWs)   bands (ev):

   -12.4227 -12.4149 -12.2936 -12.2447 -12.2303 -12.2098 -12.1958 -12.1667
   -12.0486 -12.0409  -0.1378   0.7512   5.6683   6.2939  10.5517  11.7154
    13.0034  13.4875

     occupation numbers 
     1.0000   1.0000   1.0000   1.0000   1.0000   1.0000   1.0000   1.0000
     1.0000   1.0000   1.0000   1.0000   1.0000   1.0000   0.0000   0.0000
     0.0000   0.0000

          k =-0.0283-0.3677 0.5940 (  3916 PWs)   bands (ev):

   -12.4230 -12.4145 -12.2950 -12.2393 -12.2338 -12.2119 -12.1954 -12.1656
   -12.0489 -12.0408  -0.2070   0.8285   5.6360   6.3565  10.5429  11.8420
    12.9299  13.4426

     occupation numbers 
     1.0000   1.0000   1.0000   1.0000   1.0000   1.0000   1.0000   1.0000
     1.0000   1.0000   1.0000   1.0000   1.0000   1.0000   0.0000   0.0000
     0.0000   0.0000

          k = 0.0000-0.3394 0.5657 (  3919 PWs)   bands (ev):

   -12.4222 -12.4136 -12.2999 -12.2424 -12.2315 -12.2162 -12.1888 -12.1623
   -12.0498 -12.0419  -0.3547   0.9955   5.6445   6.4558  10.5014  11.7562
    12.7904  13.6896

     occupation numbers 
     1.0000   1.0000   1.0000   1.0000   1.0000   1.0000   1.0000   1.0000
     1.0000   1.0000   1.0000   1.0000   1.0000   1.0000   0.0000   0.0000
     0.0000   0.0000

          k =-0.0849-0.4808 0.7071 (  3923 PWs)   bands (ev):

   -12.4175 -12.4153 -12.3024 -12.2601 -12.2315 -12.1965 -12.1906 -12.1594
   -12.0483 -12.0466  -0.2010   0.8157   5.9059   6.2009  10.5481  10.6266
    13.3448  14.3245

     occupation numbers 
     1.0000   1.0000   1.0000   1.0000   1.0000   1.0000   1.0000   1.0000
     1.0000   1.0000   1.0000   1.0000   1.0000   1.0000   0.0000   0.0000
     0.0000   0.0000

          k =-0.0566-0.4525 0.6788 (  3921 PWs)   bands (ev):

   -12.4198 -12.4162 -12.2926 -12.2618 -12.2258 -12.1988 -12.1940 -12.1678
   -12.0473 -12.0438  -0.0357   0.6382   5.8306   6.1401  10.5867  11.0203
    13.2627  13.9408

     occupation numbers 
     1.0000   1.0000   1.0000   1.0000   1.0000   1.0000   1.0000   1.0000
     1.0000   1.0000   1.0000   1.0000   1.0000   1.0000   0.0000   0.0000
     0.0000   0.0000

          k =-0.0283-0.4243 0.6505 (  3911 PWs)   bands (ev):

   -12.4219 -12.4162 -12.2881 -12.2580 -12.2225 -12.2047 -12.1966 -12.1710
   -12.0473 -12.0416   0.0402   0.5604   5.7387   6.1625  10.5957  11.4359
    13.2017  13.5353

     occupation numbers 
     1.0000   1.0000   1.0000   1.0000   1.0000   1.0000   1.0000   1.0000
     1.0000   1.0000   1.0000   1.0000   1.0000   1.0000   0.0000   0.0000
     0.0000   0.0000

          k =-0.0000-0.3960 0.6223 (  3918 PWs)   bands (ev):

   -12.4230 -12.4156 -12.2898 -12.2488 -12.2267 -12.2036 -12.2028 -12.1694
   -12.0478 -12.0406  -0.0441   0.6517   5.6666   6.2407  10.5892  11.7546
    13.0762  13.3326

     occupation numbers 
     1.0000   1.0000   1.0000   1.0000   1.0000   1.0000   1.0000   1.0000
     1.0000   1.0000   1.0000   1.0000   1.0000   1.0000   0.0000   0.0000
     0.0000   0.0000

          k =-0.0283-0.4808 0.7071 (  3924 PWs)   bands (ev):

   -12.4177 -12.4169 -12.2894 -12.2753 -12.2180 -12.2042 -12.1832 -12.1707
   -12.0466 -12.0459   0.1243   0.4642   5.9529   6.0515  10.5777  10.5975
    13.6903  14.0445

     occupation numbers 
     1.0000   1.0000   1.0000   1.0000   1.0000   1.0000   1.0000   1.0000
     1.0000   1.0000   1.0000   1.0000   1.0000   1.0000   0.0000   0.0000
     0.0000   0.0000

          k = 0.0000-0.4525 0.6788 (  3911 PWs)   bands (ev):

   -12.4200 -12.4170 -12.2842 -12.2713 -12.2149 -12.2094 -12.1863 -12.1747
   -12.0465 -12.0434   0.2005   0.3910   5.8532   6.0648  10.5983  11.0223
    13.5687  13.6309

     occupation numbers 
     1.0000   1.0000   1.0000   1.0000   1.0000   1.0000   1.0000   1.0000
     1.0000   1.0000   1.0000   1.0000   1.0000   1.0000   0.0000   0.0000
     0.0000   0.0000

          k =-0.1414-0.4243 0.7071 (  3899 PWs)   bands (ev):

   -12.4196 -12.4137 -12.3051 -12.2448 -12.2364 -12.2143 -12.1814 -12.1586
   -12.0498 -12.0448  -0.4368   1.0919   5.7569   6.4153  10.6027  11.2259
    12.7752  14.0636

     occupation numbers 
     1.0000   1.0000   1.0000   1.0000   1.0000   1.0000   1.0000   1.0000
     1.0000   1.0000   1.0000   1.0000   1.0000   1.0000   0.0000   0.0000
     0.0000   0.0000

          k =-0.1131-0.3960 0.6788 (  3916 PWs)   bands (ev):

   -12.4214 -12.4150 -12.2971 -12.2414 -12.2374 -12.2106 -12.1899 -12.1645
   -12.0485 -12.0425  -0.2721   0.9023   5.7038   6.3194  10.6861  11.4765
    12.7957  13.7599

     occupation numbers 
     1.0000   1.0000   1.0000   1.0000   1.0000   1.0000   1.0000   1.0000
     1.0000   1.0000   1.0000   1.0000   1.0000   1.0000   0.0000   0.0000
     0.0000   0.0000

          k =-0.0849-0.3677 0.6505 (  3913 PWs)   bands (ev):

   -12.4225 -12.4155 -12.2925 -12.2436 -12.2323 -12.2103 -12.1945 -12.1678
   -12.0479 -12.0412  -0.1620   0.7794   5.6789   6.2677  10.7128  11.6570
    12.9053  13.4446

     occupation numbers 
     1.0000   1.0000   1.0000   1.0000   1.0000   1.0000   1.0000   1.0000
     1.0000   1.0000   1.0000   1.0000   1.0000   1.0000   0.0000   0.0000
     0.0000   0.0000

          k =-0.0849-0.4243 0.7071 (  3916 PWs)   bands (ev):

   -12.4203 -12.4165 -12.2937 -12.2520 -12.2325 -12.2015 -12.1940 -12.1671
   -12.0469 -12.0435  -0.1530   0.7697   5.7816   6.1807  10.8126  11.1408
    12.9319  13.8498

     occupation numbers 
     1.0000   1.0000   1.0000   1.0000   1.0000   1.0000   1.0000   1.0000
     1.0000   1.0000   1.0000   1.0000   1.0000   1.0000   0.0000   0.0000
     0.0000   0.0000

          k =-0.0566-0.3960 0.6788 (  3915 PWs)   bands (ev):

   -12.4215 -12.4174 -12.2859 -12.2548 -12.2269 -12.2028 -12.1975 -12.1731
   -12.0459 -12.0420  -0.0080   0.6150   5.7552   6.1082  10.8992  11.4098
    12.9237  13.4651

     occupation numbers 
     1.0000   1.0000   1.0000   1.0000   1.0000   1.0000   1.0000   1.0000
     1.0000   1.0000   1.0000   1.0000   1.0000   1.0000   0.0000   0.0000
     0.0000   0.0000

          k =-0.0283-0.3677 0.6505 (  3914 PWs)   bands (ev):

   -12.4222 -12.4174 -12.2842 -12.2531 -12.2258 -12.2053 -12.1985 -12.1741
   -12.0459 -12.0412   0.0180   0.5884   5.7231   6.1164  10.9002  11.6070
    12.9313  13.2433

     occupation numbers 
     1.0000   1.0000   1.0000   1.0000   1.0000   1.0000   1.0000   1.0000
     1.0000   1.0000   1.0000   1.0000   1.0000   1.0000   0.0000   0.0000
     0.0000   0.0000

          k =-0.0000-0.3394 0.6223 (  3916 PWs)   bands (ev):

   -12.4222 -12.4166 -12.2889 -12.2473 -12.2314 -12.2040 -12.1989 -12.1705
   -12.0468 -12.0414  -0.1000   0.7144   5.6990   6.1945  10.8418  11.5983
    12.8274  13.4308

     occupation numbers 
     1.0000   1.0000   1.0000   1.0000   1.0000   1.0000   1.0000   1.0000
     1.0000   1.0000   1.0000   1.0000   1.0000   1.0000   0.0000   0.0000
     0.0000   0.0000

          k =-0.0283-0.4243 0.7071 (  3918 PWs)   bands (ev):

   -12.4200 -12.4186 -12.2809 -12.2669 -12.2198 -12.2068 -12.1891 -12.1775
   -12.0447 -12.0435   0.1446   0.4531   5.8609   5.9946  10.9575  11.0581
    13.1925  13.5210

     occupation numbers 
     1.0000   1.0000   1.0000   1.0000   1.0000   1.0000   1.0000   1.0000
     1.0000   1.0000   1.0000   1.0000   1.0000   1.0000   0.0000   0.0000
     0.0000   0.0000

          k =-0.0000-0.3960 0.6788 (  3910 PWs)   bands (ev):

   -12.4212 -12.4186 -12.2778 -12.2640 -12.2184 -12.2104 -12.1911 -12.1794
   -12.0447 -12.0422   0.1835   0.4159   5.8077   6.0016  10.9824  11.3804
    13.1177  13.1997

     occupation numbers 
     1.0000   1.0000   1.0000   1.0000   1.0000   1.0000   1.0000   1.0000
     1.0000   1.0000   1.0000   1.0000   1.0000   1.0000   0.0000   0.0000
     0.0000   0.0000

          k =-0.0283-0.3677 0.7071 (  3917 PWs)   bands (ev):

   -12.4212 -12.4192 -12.2763 -12.2623 -12.2204 -12.2095 -12.1919 -12.1805
   -12.0441 -12.0422   0.1647   0.4369   5.8104   5.9769  11.1501  11.4028
    12.9434  13.1528

     occupation numbers 
     1.0000   1.0000   1.0000   1.0000   1.0000   1.0000   1.0000   1.0000
     1.0000   1.0000   1.0000   1.0000   1.0000   1.0000   0.0000   0.0000
     0.0000   0.0000

     the Fermi energy is     8.3052 ev

!    total energy              =    -233.44813587 Ry
     Harris-Foulkes estimate   =    -233.44813601 Ry
     estimated scf accuracy    <       0.00000039 Ry

     The total energy is the sum of the following terms:

     one-electron contribution =     -95.31634522 Ry
     hartree contribution      =      58.35611171 Ry
     xc contribution           =     -28.70628840 Ry
     ewald contribution        =    -167.78134162 Ry
     smearing contrib. (-TS)   =      -0.00027234 Ry

     convergence has been achieved in   5 iterations

     Writing output data file Sn.save
 
     init_run     :      8.79s CPU      9.13s WALL (       1 calls)
     electrons    :    179.79s CPU    182.93s WALL (       1 calls)

     Called by init_run:
     wfcinit      :      8.64s CPU      8.90s WALL (       1 calls)
     potinit      :      0.02s CPU      0.02s WALL (       1 calls)

     Called by electrons:
     c_bands      :    160.07s CPU    162.88s WALL (       5 calls)
     sum_band     :     19.64s CPU     19.89s WALL (       5 calls)
     v_of_rho     :      0.05s CPU      0.05s WALL (       6 calls)
     v_h          :      0.00s CPU      0.00s WALL (       6 calls)
     v_xc         :      0.04s CPU      0.05s WALL (       6 calls)
     mix_rho      :      0.01s CPU      0.01s WALL (       5 calls)

     Called by c_bands:
     init_us_2    :      0.59s CPU      0.64s WALL (    5005 calls)
     cegterg      :    156.70s CPU    159.22s WALL (    2275 calls)

     Called by sum_band:

     Called by *egterg:
     h_psi        :    140.33s CPU    142.58s WALL (    9929 calls)
     g_psi        :      0.34s CPU      0.34s WALL (    7199 calls)
     cdiaghg      :     10.15s CPU     10.36s WALL (    9474 calls)
     cegterg:over :      6.35s CPU      6.43s WALL (    7199 calls)
     cegterg:upda :      1.64s CPU      1.66s WALL (    7199 calls)
     cegterg:last :      0.86s CPU      0.87s WALL (    2739 calls)

     Called by h_psi:
     h_psi:vloc   :    133.31s CPU    135.45s WALL (    9929 calls)
     h_psi:vnl    :      6.85s CPU      6.95s WALL (    9929 calls)
     add_vuspsi   :      1.63s CPU      1.66s WALL (    9929 calls)

     General routines
     calbec       :      5.15s CPU      5.23s WALL (    9929 calls)
     fft          :      0.05s CPU      0.06s WALL (      65 calls)
     fftw         :    148.02s CPU    150.35s WALL (  321522 calls)
     davcio       :      0.03s CPU      0.47s WALL (     455 calls)
 
     Parallel routines
     fft_scatter  :    118.65s CPU    120.65s WALL (  321587 calls)
 
     PWSCF        :  3m 9.12s CPU     3m13.25s WALL

 
   This run was terminated on:   0:55: 9  21Feb2020            

=------------------------------------------------------------------------------=
   JOB DONE.
=------------------------------------------------------------------------------=
