
     Program PWSCF v.5.4.0 starts on  8Mar2020 at 22:56:37 

     This program is part of the open-source Quantum ESPRESSO suite
     for quantum simulation of materials; please cite
         "P. Giannozzi et al., J. Phys.:Condens. Matter 21 395502 (2009);
          URL http://www.quantum-espresso.org", 
     in publications or presentations arising from this work. More details at
     http://www.quantum-espresso.org/quote

     Parallel version (MPI & OpenMP), running on      16 processor cores
     Number of MPI processes:                16
     Threads/MPI process:                     1
     R & G space division:  proc/nbgrp/npool/nimage =      16
     Waiting for input...
     Reading input from standard input
Warning: card &IONS ignored
Warning: card / ignored
Warning: card &CELL ignored
Warning: card / ignored

     Current dimensions of program PWSCF are:
     Max number of different atomic species (ntypx) = 10
     Max number of k-points (npk) =  40000
     Max angular momentum in pseudopotentials (lmaxx) =  3
               file Sn.rel-pbe-dn-kjpaw_psl.1.0.0.UPF: wavefunction(s)  5S 5P 5P 4D 4D renormalized

     Subspace diagonalization in iterative solution of the eigenvalue problem:
     a serial algorithm will be used

 
     Parallelization info
     --------------------
     sticks:   dense  smooth     PW     G-vecs:    dense   smooth      PW
     Min          52      52     15                 1019     1019     168
     Max          53      53     16                 1023     1023     172
     Sum         847     847    253                16361    16361    2733
 

     Title: 
     Sn                                                                         


     bravais-lattice index     =            0
     lattice parameter (alat)  =       8.7524  a.u.
     unit-cell volume          =     474.0897 (a.u.)^3
     number of atoms/cell      =            2
     number of atomic types    =            1
     number of electrons       =        28.00
     number of Kohn-Sham states=           36
     kinetic-energy cutoff     =      40.0000  Ry
     charge density cutoff     =     160.0000  Ry
     convergence threshold     =      1.0E-06
     mixing beta               =       0.7000
     number of iterations used =            8  plain     mixing
     Exchange-correlation      =  SLA  PW   PBX  PBC ( 1  4  3  4 0 0)
     Non magnetic calculation with spin-orbit


     celldm(1)=   8.752360  celldm(2)=   0.000000  celldm(3)=   0.000000
     celldm(4)=   0.000000  celldm(5)=   0.000000  celldm(6)=   0.000000

     crystal axes: (cart. coord. in units of alat)
               a(1) = (   0.000000   0.707107   0.707107 )  
               a(2) = (   0.707107   0.000000   0.707107 )  
               a(3) = (   0.707107   0.707107   0.000000 )  

     reciprocal axes: (cart. coord. in units 2 pi/alat)
               b(1) = ( -0.707107  0.707107  0.707107 )  
               b(2) = (  0.707107 -0.707107  0.707107 )  
               b(3) = (  0.707107  0.707107 -0.707107 )  


     PseudoPot. # 1 for Sn read from file:
     ../PseudopotentialDatabase/Sn.rel-pbe-dn-kjpaw_psl.1.0.0.UPF
     MD5 check sum: 6bcaba2b82cf8d008985ef5bb9854e68
     Pseudo is Projector augmented-wave + core cor, Zval = 14.0
     Generated using "atomic" code by A. Dal Corso  v.6.3
     Shape of augmentation charge: PSQ
     Using radial grid of 1243 points, 10 beta functions with: 
                l(1) =   0
                l(2) =   0
                l(3) =   1
                l(4) =   1
                l(5) =   1
                l(6) =   1
                l(7) =   2
                l(8) =   2
                l(9) =   2
               l(10) =   2
     Q(r) pseudized with 0 coefficients 


     atomic species   valence    mass     pseudopotential
        Sn            14.00   118.71000     Sn( 1.00)

     48 Sym. Ops., with inversion, found (24 have fractional translation)


                                    s                        frac. trans.

      isym =  1     identity                                     

 cryst.   s( 1) = (     1          0          0      )
                  (     0          1          0      )
                  (     0          0          1      )

 cart.    s( 1) = (  1.0000000  0.0000000  0.0000000 )
                  (  0.0000000  1.0000000  0.0000000 )
                  (  0.0000000  0.0000000  1.0000000 )


      isym =  2     180 deg rotation - cart. axis [0,0,1]        

 cryst.   s( 2) = (     0          1         -1      )
                  (     1          0         -1      )
                  (     0          0         -1      )

 cart.    s( 2) = ( -1.0000000  0.0000000  0.0000000 )
                  (  0.0000000 -1.0000000  0.0000000 )
                  (  0.0000000  0.0000000  1.0000000 )


      isym =  3     180 deg rotation - cart. axis [0,1,0]        

 cryst.   s( 3) = (     0         -1          1      )
                  (     0         -1          0      )
                  (     1         -1          0      )

 cart.    s( 3) = ( -1.0000000  0.0000000  0.0000000 )
                  (  0.0000000  1.0000000  0.0000000 )
                  (  0.0000000  0.0000000 -1.0000000 )


      isym =  4     180 deg rotation - cart. axis [1,0,0]        

 cryst.   s( 4) = (    -1          0          0      )
                  (    -1          0          1      )
                  (    -1          1          0      )

 cart.    s( 4) = (  1.0000000  0.0000000  0.0000000 )
                  (  0.0000000 -1.0000000  0.0000000 )
                  (  0.0000000  0.0000000 -1.0000000 )


      isym =  5     180 deg rotation - cart. axis [1,1,0]        

 cryst.   s( 5) = (    -1          0          1      )    f =( -0.2500000 )
                  (     0         -1          1      )       ( -0.2500000 )
                  (     0          0          1      )       ( -0.2500000 )

 cart.    s( 5) = (  0.0000000  1.0000000  0.0000000 )    f =( -0.3535534 )
                  (  1.0000000  0.0000000  0.0000000 )       ( -0.3535534 )
                  (  0.0000000  0.0000000 -1.0000000 )       ( -0.3535534 )


      isym =  6     180 deg rotation - cart. axis [1,-1,0]       

 cryst.   s( 6) = (     0         -1          0      )    f =( -0.2500000 )
                  (    -1          0          0      )       ( -0.2500000 )
                  (     0          0         -1      )       ( -0.2500000 )

 cart.    s( 6) = (  0.0000000 -1.0000000  0.0000000 )    f =( -0.3535534 )
                  ( -1.0000000  0.0000000  0.0000000 )       ( -0.3535534 )
                  (  0.0000000  0.0000000 -1.0000000 )       ( -0.3535534 )


      isym =  7      90 deg rotation - cart. axis [0,0,-1]       

 cryst.   s( 7) = (     0          1          0      )    f =( -0.2500000 )
                  (     0          1         -1      )       ( -0.2500000 )
                  (    -1          1          0      )       ( -0.2500000 )

 cart.    s( 7) = (  0.0000000  1.0000000  0.0000000 )    f =( -0.3535534 )
                  ( -1.0000000  0.0000000  0.0000000 )       ( -0.3535534 )
                  (  0.0000000  0.0000000  1.0000000 )       ( -0.3535534 )


      isym =  8      90 deg rotation - cart. axis [0,0,1]        

 cryst.   s( 8) = (     1          0         -1      )    f =( -0.2500000 )
                  (     1          0          0      )       ( -0.2500000 )
                  (     1         -1          0      )       ( -0.2500000 )

 cart.    s( 8) = (  0.0000000 -1.0000000  0.0000000 )    f =( -0.3535534 )
                  (  1.0000000  0.0000000  0.0000000 )       ( -0.3535534 )
                  (  0.0000000  0.0000000  1.0000000 )       ( -0.3535534 )


      isym =  9     180 deg rotation - cart. axis [1,0,1]        

 cryst.   s( 9) = (    -1          1          0      )    f =( -0.2500000 )
                  (     0          1          0      )       ( -0.2500000 )
                  (     0          1         -1      )       ( -0.2500000 )

 cart.    s( 9) = (  0.0000000  0.0000000  1.0000000 )    f =( -0.3535534 )
                  (  0.0000000 -1.0000000  0.0000000 )       ( -0.3535534 )
                  (  1.0000000  0.0000000  0.0000000 )       ( -0.3535534 )


      isym = 10     180 deg rotation - cart. axis [-1,0,1]       

 cryst.   s(10) = (     0          0         -1      )    f =( -0.2500000 )
                  (     0         -1          0      )       ( -0.2500000 )
                  (    -1          0          0      )       ( -0.2500000 )

 cart.    s(10) = (  0.0000000  0.0000000 -1.0000000 )    f =( -0.3535534 )
                  (  0.0000000 -1.0000000  0.0000000 )       ( -0.3535534 )
                  ( -1.0000000  0.0000000  0.0000000 )       ( -0.3535534 )


      isym = 11      90 deg rotation - cart. axis [0,1,0]        

 cryst.   s(11) = (     0          0          1      )    f =( -0.2500000 )
                  (    -1          0          1      )       ( -0.2500000 )
                  (     0         -1          1      )       ( -0.2500000 )

 cart.    s(11) = (  0.0000000  0.0000000  1.0000000 )    f =( -0.3535534 )
                  (  0.0000000  1.0000000  0.0000000 )       ( -0.3535534 )
                  ( -1.0000000  0.0000000  0.0000000 )       ( -0.3535534 )


      isym = 12      90 deg rotation - cart. axis [0,-1,0]       

 cryst.   s(12) = (     1         -1          0      )    f =( -0.2500000 )
                  (     1          0         -1      )       ( -0.2500000 )
                  (     1          0          0      )       ( -0.2500000 )

 cart.    s(12) = (  0.0000000  0.0000000 -1.0000000 )    f =( -0.3535534 )
                  (  0.0000000  1.0000000  0.0000000 )       ( -0.3535534 )
                  (  1.0000000  0.0000000  0.0000000 )       ( -0.3535534 )


      isym = 13     180 deg rotation - cart. axis [0,1,1]        

 cryst.   s(13) = (     1          0          0      )    f =( -0.2500000 )
                  (     1         -1          0      )       ( -0.2500000 )
                  (     1          0         -1      )       ( -0.2500000 )

 cart.    s(13) = ( -1.0000000  0.0000000  0.0000000 )    f =( -0.3535534 )
                  (  0.0000000  0.0000000  1.0000000 )       ( -0.3535534 )
                  (  0.0000000  1.0000000  0.0000000 )       ( -0.3535534 )


      isym = 14     180 deg rotation - cart. axis [0,1,-1]       

 cryst.   s(14) = (    -1          0          0      )    f =( -0.2500000 )
                  (     0          0         -1      )       ( -0.2500000 )
                  (     0         -1          0      )       ( -0.2500000 )

 cart.    s(14) = ( -1.0000000  0.0000000  0.0000000 )    f =( -0.3535534 )
                  (  0.0000000  0.0000000 -1.0000000 )       ( -0.3535534 )
                  (  0.0000000 -1.0000000  0.0000000 )       ( -0.3535534 )


      isym = 15      90 deg rotation - cart. axis [-1,0,0]       

 cryst.   s(15) = (     0         -1          1      )    f =( -0.2500000 )
                  (     0          0          1      )       ( -0.2500000 )
                  (    -1          0          1      )       ( -0.2500000 )

 cart.    s(15) = (  1.0000000  0.0000000  0.0000000 )    f =( -0.3535534 )
                  (  0.0000000  0.0000000  1.0000000 )       ( -0.3535534 )
                  (  0.0000000 -1.0000000  0.0000000 )       ( -0.3535534 )


      isym = 16      90 deg rotation - cart. axis [1,0,0]        

 cryst.   s(16) = (     0          1         -1      )    f =( -0.2500000 )
                  (    -1          1          0      )       ( -0.2500000 )
                  (     0          1          0      )       ( -0.2500000 )

 cart.    s(16) = (  1.0000000  0.0000000  0.0000000 )    f =( -0.3535534 )
                  (  0.0000000  0.0000000 -1.0000000 )       ( -0.3535534 )
                  (  0.0000000  1.0000000  0.0000000 )       ( -0.3535534 )


      isym = 17     120 deg rotation - cart. axis [-1,-1,-1]     

 cryst.   s(17) = (     0          0          1      )
                  (     1          0          0      )
                  (     0          1          0      )

 cart.    s(17) = (  0.0000000  1.0000000  0.0000000 )
                  (  0.0000000  0.0000000  1.0000000 )
                  (  1.0000000  0.0000000  0.0000000 )


      isym = 18     120 deg rotation - cart. axis [-1,1,1]       

 cryst.   s(18) = (     1         -1          0      )
                  (     0         -1          1      )
                  (     0         -1          0      )

 cart.    s(18) = (  0.0000000 -1.0000000  0.0000000 )
                  (  0.0000000  0.0000000  1.0000000 )
                  ( -1.0000000  0.0000000  0.0000000 )


      isym = 19     120 deg rotation - cart. axis [1,1,-1]       

 cryst.   s(19) = (    -1          1          0      )
                  (    -1          0          0      )
                  (    -1          0          1      )

 cart.    s(19) = (  0.0000000  1.0000000  0.0000000 )
                  (  0.0000000  0.0000000 -1.0000000 )
                  ( -1.0000000  0.0000000  0.0000000 )


      isym = 20     120 deg rotation - cart. axis [1,-1,1]       

 cryst.   s(20) = (     0          0         -1      )
                  (     0          1         -1      )
                  (     1          0         -1      )

 cart.    s(20) = (  0.0000000 -1.0000000  0.0000000 )
                  (  0.0000000  0.0000000 -1.0000000 )
                  (  1.0000000  0.0000000  0.0000000 )


      isym = 21     120 deg rotation - cart. axis [1,1,1]        

 cryst.   s(21) = (     0          1          0      )
                  (     0          0          1      )
                  (     1          0          0      )

 cart.    s(21) = (  0.0000000  0.0000000  1.0000000 )
                  (  1.0000000  0.0000000  0.0000000 )
                  (  0.0000000  1.0000000  0.0000000 )


      isym = 22     120 deg rotation - cart. axis [-1,1,-1]      

 cryst.   s(22) = (    -1          0          1      )
                  (    -1          1          0      )
                  (    -1          0          0      )

 cart.    s(22) = (  0.0000000  0.0000000  1.0000000 )
                  ( -1.0000000  0.0000000  0.0000000 )
                  (  0.0000000 -1.0000000  0.0000000 )


      isym = 23     120 deg rotation - cart. axis [1,-1,-1]      

 cryst.   s(23) = (     1          0         -1      )
                  (     0          0         -1      )
                  (     0          1         -1      )

 cart.    s(23) = (  0.0000000  0.0000000 -1.0000000 )
                  ( -1.0000000  0.0000000  0.0000000 )
                  (  0.0000000  1.0000000  0.0000000 )


      isym = 24     120 deg rotation - cart. axis [-1,-1,1]      

 cryst.   s(24) = (     0         -1          0      )
                  (     1         -1          0      )
                  (     0         -1          1      )

 cart.    s(24) = (  0.0000000  0.0000000 -1.0000000 )
                  (  1.0000000  0.0000000  0.0000000 )
                  (  0.0000000 -1.0000000  0.0000000 )


      isym = 25     inversion                                    

 cryst.   s(25) = (    -1          0          0      )    f =( -0.2500000 )
                  (     0         -1          0      )       ( -0.2500000 )
                  (     0          0         -1      )       ( -0.2500000 )

 cart.    s(25) = ( -1.0000000  0.0000000  0.0000000 )    f =( -0.3535534 )
                  (  0.0000000 -1.0000000  0.0000000 )       ( -0.3535534 )
                  (  0.0000000  0.0000000 -1.0000000 )       ( -0.3535534 )


      isym = 26     inv. 180 deg rotation - cart. axis [0,0,1]   

 cryst.   s(26) = (     0         -1          1      )    f =( -0.2500000 )
                  (    -1          0          1      )       ( -0.2500000 )
                  (     0          0          1      )       ( -0.2500000 )

 cart.    s(26) = (  1.0000000  0.0000000  0.0000000 )    f =( -0.3535534 )
                  (  0.0000000  1.0000000  0.0000000 )       ( -0.3535534 )
                  (  0.0000000  0.0000000 -1.0000000 )       ( -0.3535534 )


      isym = 27     inv. 180 deg rotation - cart. axis [0,1,0]   

 cryst.   s(27) = (     0          1         -1      )    f =( -0.2500000 )
                  (     0          1          0      )       ( -0.2500000 )
                  (    -1          1          0      )       ( -0.2500000 )

 cart.    s(27) = (  1.0000000  0.0000000  0.0000000 )    f =( -0.3535534 )
                  (  0.0000000 -1.0000000  0.0000000 )       ( -0.3535534 )
                  (  0.0000000  0.0000000  1.0000000 )       ( -0.3535534 )


      isym = 28     inv. 180 deg rotation - cart. axis [1,0,0]   

 cryst.   s(28) = (     1          0          0      )    f =( -0.2500000 )
                  (     1          0         -1      )       ( -0.2500000 )
                  (     1         -1          0      )       ( -0.2500000 )

 cart.    s(28) = ( -1.0000000  0.0000000  0.0000000 )    f =( -0.3535534 )
                  (  0.0000000  1.0000000  0.0000000 )       ( -0.3535534 )
                  (  0.0000000  0.0000000  1.0000000 )       ( -0.3535534 )


      isym = 29     inv. 180 deg rotation - cart. axis [1,1,0]   

 cryst.   s(29) = (     1          0         -1      )
                  (     0          1         -1      )
                  (     0          0         -1      )

 cart.    s(29) = (  0.0000000 -1.0000000  0.0000000 )
                  ( -1.0000000  0.0000000  0.0000000 )
                  (  0.0000000  0.0000000  1.0000000 )


      isym = 30     inv. 180 deg rotation - cart. axis [1,-1,0]  

 cryst.   s(30) = (     0          1          0      )
                  (     1          0          0      )
                  (     0          0          1      )

 cart.    s(30) = (  0.0000000  1.0000000  0.0000000 )
                  (  1.0000000  0.0000000  0.0000000 )
                  (  0.0000000  0.0000000  1.0000000 )


      isym = 31     inv.  90 deg rotation - cart. axis [0,0,-1]  

 cryst.   s(31) = (     0         -1          0      )
                  (     0         -1          1      )
                  (     1         -1          0      )

 cart.    s(31) = (  0.0000000 -1.0000000  0.0000000 )
                  (  1.0000000  0.0000000  0.0000000 )
                  (  0.0000000  0.0000000 -1.0000000 )


      isym = 32     inv.  90 deg rotation - cart. axis [0,0,1]   

 cryst.   s(32) = (    -1          0          1      )
                  (    -1          0          0      )
                  (    -1          1          0      )

 cart.    s(32) = (  0.0000000  1.0000000  0.0000000 )
                  ( -1.0000000  0.0000000  0.0000000 )
                  (  0.0000000  0.0000000 -1.0000000 )


      isym = 33     inv. 180 deg rotation - cart. axis [1,0,1]   

 cryst.   s(33) = (     1         -1          0      )
                  (     0         -1          0      )
                  (     0         -1          1      )

 cart.    s(33) = (  0.0000000  0.0000000 -1.0000000 )
                  (  0.0000000  1.0000000  0.0000000 )
                  ( -1.0000000  0.0000000  0.0000000 )


      isym = 34     inv. 180 deg rotation - cart. axis [-1,0,1]  

 cryst.   s(34) = (     0          0          1      )
                  (     0          1          0      )
                  (     1          0          0      )

 cart.    s(34) = (  0.0000000  0.0000000  1.0000000 )
                  (  0.0000000  1.0000000  0.0000000 )
                  (  1.0000000  0.0000000  0.0000000 )


      isym = 35     inv.  90 deg rotation - cart. axis [0,1,0]   

 cryst.   s(35) = (     0          0         -1      )
                  (     1          0         -1      )
                  (     0          1         -1      )

 cart.    s(35) = (  0.0000000  0.0000000 -1.0000000 )
                  (  0.0000000 -1.0000000  0.0000000 )
                  (  1.0000000  0.0000000  0.0000000 )


      isym = 36     inv.  90 deg rotation - cart. axis [0,-1,0]  

 cryst.   s(36) = (    -1          1          0      )
                  (    -1          0          1      )
                  (    -1          0          0      )

 cart.    s(36) = (  0.0000000  0.0000000  1.0000000 )
                  (  0.0000000 -1.0000000  0.0000000 )
                  ( -1.0000000  0.0000000  0.0000000 )


      isym = 37     inv. 180 deg rotation - cart. axis [0,1,1]   

 cryst.   s(37) = (    -1          0          0      )
                  (    -1          1          0      )
                  (    -1          0          1      )

 cart.    s(37) = (  1.0000000  0.0000000  0.0000000 )
                  (  0.0000000  0.0000000 -1.0000000 )
                  (  0.0000000 -1.0000000  0.0000000 )


      isym = 38     inv. 180 deg rotation - cart. axis [0,1,-1]  

 cryst.   s(38) = (     1          0          0      )
                  (     0          0          1      )
                  (     0          1          0      )

 cart.    s(38) = (  1.0000000  0.0000000  0.0000000 )
                  (  0.0000000  0.0000000  1.0000000 )
                  (  0.0000000  1.0000000  0.0000000 )


      isym = 39     inv.  90 deg rotation - cart. axis [-1,0,0]  

 cryst.   s(39) = (     0          1         -1      )
                  (     0          0         -1      )
                  (     1          0         -1      )

 cart.    s(39) = ( -1.0000000  0.0000000  0.0000000 )
                  (  0.0000000  0.0000000 -1.0000000 )
                  (  0.0000000  1.0000000  0.0000000 )


      isym = 40     inv.  90 deg rotation - cart. axis [1,0,0]   

 cryst.   s(40) = (     0         -1          1      )
                  (     1         -1          0      )
                  (     0         -1          0      )

 cart.    s(40) = ( -1.0000000  0.0000000  0.0000000 )
                  (  0.0000000  0.0000000  1.0000000 )
                  (  0.0000000 -1.0000000  0.0000000 )


      isym = 41     inv. 120 deg rotation - cart. axis [-1,-1,-1]

 cryst.   s(41) = (     0          0         -1      )    f =( -0.2500000 )
                  (    -1          0          0      )       ( -0.2500000 )
                  (     0         -1          0      )       ( -0.2500000 )

 cart.    s(41) = (  0.0000000 -1.0000000  0.0000000 )    f =( -0.3535534 )
                  (  0.0000000  0.0000000 -1.0000000 )       ( -0.3535534 )
                  ( -1.0000000  0.0000000  0.0000000 )       ( -0.3535534 )


      isym = 42     inv. 120 deg rotation - cart. axis [-1,1,1]  

 cryst.   s(42) = (    -1          1          0      )    f =( -0.2500000 )
                  (     0          1         -1      )       ( -0.2500000 )
                  (     0          1          0      )       ( -0.2500000 )

 cart.    s(42) = (  0.0000000  1.0000000  0.0000000 )    f =( -0.3535534 )
                  (  0.0000000  0.0000000 -1.0000000 )       ( -0.3535534 )
                  (  1.0000000  0.0000000  0.0000000 )       ( -0.3535534 )


      isym = 43     inv. 120 deg rotation - cart. axis [1,1,-1]  

 cryst.   s(43) = (     1         -1          0      )    f =( -0.2500000 )
                  (     1          0          0      )       ( -0.2500000 )
                  (     1          0         -1      )       ( -0.2500000 )

 cart.    s(43) = (  0.0000000 -1.0000000  0.0000000 )    f =( -0.3535534 )
                  (  0.0000000  0.0000000  1.0000000 )       ( -0.3535534 )
                  (  1.0000000  0.0000000  0.0000000 )       ( -0.3535534 )


      isym = 44     inv. 120 deg rotation - cart. axis [1,-1,1]  

 cryst.   s(44) = (     0          0          1      )    f =( -0.2500000 )
                  (     0         -1          1      )       ( -0.2500000 )
                  (    -1          0          1      )       ( -0.2500000 )

 cart.    s(44) = (  0.0000000  1.0000000  0.0000000 )    f =( -0.3535534 )
                  (  0.0000000  0.0000000  1.0000000 )       ( -0.3535534 )
                  ( -1.0000000  0.0000000  0.0000000 )       ( -0.3535534 )


      isym = 45     inv. 120 deg rotation - cart. axis [1,1,1]   

 cryst.   s(45) = (     0         -1          0      )    f =( -0.2500000 )
                  (     0          0         -1      )       ( -0.2500000 )
                  (    -1          0          0      )       ( -0.2500000 )

 cart.    s(45) = (  0.0000000  0.0000000 -1.0000000 )    f =( -0.3535534 )
                  ( -1.0000000  0.0000000  0.0000000 )       ( -0.3535534 )
                  (  0.0000000 -1.0000000  0.0000000 )       ( -0.3535534 )


      isym = 46     inv. 120 deg rotation - cart. axis [-1,1,-1] 

 cryst.   s(46) = (     1          0         -1      )    f =( -0.2500000 )
                  (     1         -1          0      )       ( -0.2500000 )
                  (     1          0          0      )       ( -0.2500000 )

 cart.    s(46) = (  0.0000000  0.0000000 -1.0000000 )    f =( -0.3535534 )
                  (  1.0000000  0.0000000  0.0000000 )       ( -0.3535534 )
                  (  0.0000000  1.0000000  0.0000000 )       ( -0.3535534 )


      isym = 47     inv. 120 deg rotation - cart. axis [1,-1,-1] 

 cryst.   s(47) = (    -1          0          1      )    f =( -0.2500000 )
                  (     0          0          1      )       ( -0.2500000 )
                  (     0         -1          1      )       ( -0.2500000 )

 cart.    s(47) = (  0.0000000  0.0000000  1.0000000 )    f =( -0.3535534 )
                  (  1.0000000  0.0000000  0.0000000 )       ( -0.3535534 )
                  (  0.0000000 -1.0000000  0.0000000 )       ( -0.3535534 )


      isym = 48     inv. 120 deg rotation - cart. axis [-1,-1,1] 

 cryst.   s(48) = (     0          1          0      )    f =( -0.2500000 )
                  (    -1          1          0      )       ( -0.2500000 )
                  (     0          1         -1      )       ( -0.2500000 )

 cart.    s(48) = (  0.0000000  0.0000000  1.0000000 )    f =( -0.3535534 )
                  ( -1.0000000  0.0000000  0.0000000 )       ( -0.3535534 )
                  (  0.0000000  1.0000000  0.0000000 )       ( -0.3535534 )


   Cartesian axes

     site n.     atom                  positions (alat units)
         1           Sn  tau(   1) = (   0.0000000   0.0000000   0.0000000  )
         2           Sn  tau(   2) = (   0.3535534   0.3535534   0.3535534  )

   Crystallographic axes

     site n.     atom                  positions (cryst. coord.)
         1           Sn  tau(   1) = (  0.0000000  0.0000000  0.0000000  )
         2           Sn  tau(   2) = (  0.2500000  0.2500000  0.2500000  )

     number of k points=   624  gaussian smearing, width (Ry)=  0.0001
                       cart. coord. in units 2pi/alat
        k(    1) = (   0.0000000   0.0000000   0.0000000), wk =   0.0000456
        k(    2) = (   0.0252538   0.0252538  -0.0252538), wk =   0.0003644
        k(    3) = (   0.0505076   0.0505076  -0.0505076), wk =   0.0003644
        k(    4) = (   0.0757614   0.0757614  -0.0757614), wk =   0.0003644
        k(    5) = (   0.1010153   0.1010153  -0.1010153), wk =   0.0003644
        k(    6) = (   0.1262691   0.1262691  -0.1262691), wk =   0.0003644
        k(    7) = (   0.1515229   0.1515229  -0.1515229), wk =   0.0003644
        k(    8) = (   0.1767767   0.1767767  -0.1767767), wk =   0.0003644
        k(    9) = (   0.2020305   0.2020305  -0.2020305), wk =   0.0003644
        k(   10) = (   0.2272843   0.2272843  -0.2272843), wk =   0.0003644
        k(   11) = (   0.2525381   0.2525381  -0.2525381), wk =   0.0003644
        k(   12) = (   0.2777919   0.2777919  -0.2777919), wk =   0.0003644
        k(   13) = (   0.3030458   0.3030458  -0.3030458), wk =   0.0003644
        k(   14) = (   0.3282996   0.3282996  -0.3282996), wk =   0.0003644
        k(   15) = (  -0.3535534  -0.3535534   0.3535534), wk =   0.0001822
        k(   16) = (   0.0505076   0.0000000   0.0000000), wk =   0.0002733
        k(   17) = (   0.0757614   0.0252538  -0.0252538), wk =   0.0010933
        k(   18) = (   0.1010153   0.0505076  -0.0505076), wk =   0.0010933
        k(   19) = (   0.1262691   0.0757614  -0.0757614), wk =   0.0010933
        k(   20) = (   0.1515229   0.1010153  -0.1010153), wk =   0.0010933
        k(   21) = (   0.1767767   0.1262691  -0.1262691), wk =   0.0010933
        k(   22) = (   0.2020305   0.1515229  -0.1515229), wk =   0.0010933
        k(   23) = (   0.2272843   0.1767767  -0.1767767), wk =   0.0010933
        k(   24) = (   0.2525381   0.2020305  -0.2020305), wk =   0.0010933
        k(   25) = (   0.2777919   0.2272843  -0.2272843), wk =   0.0010933
        k(   26) = (   0.3030458   0.2525381  -0.2525381), wk =   0.0010933
        k(   27) = (   0.3282996   0.2777919  -0.2777919), wk =   0.0010933
        k(   28) = (   0.3535534   0.3030458  -0.3030458), wk =   0.0010933
        k(   29) = (  -0.3282996  -0.3788072   0.3788072), wk =   0.0010933
        k(   30) = (  -0.3030458  -0.3535534   0.3535534), wk =   0.0010933
        k(   31) = (  -0.2777919  -0.3282996   0.3282996), wk =   0.0010933
        k(   32) = (  -0.2525381  -0.3030458   0.3030458), wk =   0.0010933
        k(   33) = (  -0.2272843  -0.2777919   0.2777919), wk =   0.0010933
        k(   34) = (  -0.2020305  -0.2525381   0.2525381), wk =   0.0010933
        k(   35) = (  -0.1767767  -0.2272843   0.2272843), wk =   0.0010933
        k(   36) = (  -0.1515229  -0.2020305   0.2020305), wk =   0.0010933
        k(   37) = (  -0.1262691  -0.1767767   0.1767767), wk =   0.0010933
        k(   38) = (  -0.1010153  -0.1515229   0.1515229), wk =   0.0010933
        k(   39) = (  -0.0757614  -0.1262691   0.1262691), wk =   0.0010933
        k(   40) = (  -0.0505076  -0.1010153   0.1010153), wk =   0.0010933
        k(   41) = (  -0.0252538  -0.0757614   0.0757614), wk =   0.0010933
        k(   42) = (   0.0000000  -0.0505076   0.0505076), wk =   0.0005466
        k(   43) = (   0.1010153   0.0000000   0.0000000), wk =   0.0002733
        k(   44) = (   0.1262691   0.0252538  -0.0252538), wk =   0.0010933
        k(   45) = (   0.1515229   0.0505076  -0.0505076), wk =   0.0010933
        k(   46) = (   0.1767767   0.0757614  -0.0757614), wk =   0.0010933
        k(   47) = (   0.2020305   0.1010153  -0.1010153), wk =   0.0010933
        k(   48) = (   0.2272843   0.1262691  -0.1262691), wk =   0.0010933
        k(   49) = (   0.2525381   0.1515229  -0.1515229), wk =   0.0010933
        k(   50) = (   0.2777919   0.1767767  -0.1767767), wk =   0.0010933
        k(   51) = (   0.3030458   0.2020305  -0.2020305), wk =   0.0010933
        k(   52) = (   0.3282996   0.2272843  -0.2272843), wk =   0.0010933
        k(   53) = (   0.3535534   0.2525381  -0.2525381), wk =   0.0010933
        k(   54) = (   0.3788072   0.2777919  -0.2777919), wk =   0.0010933
        k(   55) = (  -0.3030458  -0.4040610   0.4040610), wk =   0.0010933
        k(   56) = (  -0.2777919  -0.3788072   0.3788072), wk =   0.0010933
        k(   57) = (  -0.2525381  -0.3535534   0.3535534), wk =   0.0010933
        k(   58) = (  -0.2272843  -0.3282996   0.3282996), wk =   0.0010933
        k(   59) = (  -0.2020305  -0.3030458   0.3030458), wk =   0.0010933
        k(   60) = (  -0.1767767  -0.2777919   0.2777919), wk =   0.0010933
        k(   61) = (  -0.1515229  -0.2525381   0.2525381), wk =   0.0010933
        k(   62) = (  -0.1262691  -0.2272843   0.2272843), wk =   0.0010933
        k(   63) = (  -0.1010153  -0.2020305   0.2020305), wk =   0.0010933
        k(   64) = (  -0.0757614  -0.1767767   0.1767767), wk =   0.0010933
        k(   65) = (  -0.0505076  -0.1515229   0.1515229), wk =   0.0010933
        k(   66) = (  -0.0252538  -0.1262691   0.1262691), wk =   0.0010933
        k(   67) = (   0.0000000  -0.1010153   0.1010153), wk =   0.0005466
        k(   68) = (   0.1515229   0.0000000   0.0000000), wk =   0.0002733
        k(   69) = (   0.1767767   0.0252538  -0.0252538), wk =   0.0010933
        k(   70) = (   0.2020305   0.0505076  -0.0505076), wk =   0.0010933
        k(   71) = (   0.2272843   0.0757614  -0.0757614), wk =   0.0010933
        k(   72) = (   0.2525381   0.1010153  -0.1010153), wk =   0.0010933
        k(   73) = (   0.2777919   0.1262691  -0.1262691), wk =   0.0010933
        k(   74) = (   0.3030458   0.1515229  -0.1515229), wk =   0.0010933
        k(   75) = (   0.3282996   0.1767767  -0.1767767), wk =   0.0010933
        k(   76) = (   0.3535534   0.2020305  -0.2020305), wk =   0.0010933
        k(   77) = (   0.3788072   0.2272843  -0.2272843), wk =   0.0010933
        k(   78) = (   0.4040610   0.2525381  -0.2525381), wk =   0.0010933
        k(   79) = (  -0.2777919  -0.4293148   0.4293148), wk =   0.0010933
        k(   80) = (  -0.2525381  -0.4040610   0.4040610), wk =   0.0010933
        k(   81) = (  -0.2272843  -0.3788072   0.3788072), wk =   0.0010933
        k(   82) = (  -0.2020305  -0.3535534   0.3535534), wk =   0.0010933
        k(   83) = (  -0.1767767  -0.3282996   0.3282996), wk =   0.0010933
        k(   84) = (  -0.1515229  -0.3030458   0.3030458), wk =   0.0010933
        k(   85) = (  -0.1262691  -0.2777919   0.2777919), wk =   0.0010933
        k(   86) = (  -0.1010153  -0.2525381   0.2525381), wk =   0.0010933
        k(   87) = (  -0.0757614  -0.2272843   0.2272843), wk =   0.0010933
        k(   88) = (  -0.0505076  -0.2020305   0.2020305), wk =   0.0010933
        k(   89) = (  -0.0252538  -0.1767767   0.1767767), wk =   0.0010933
        k(   90) = (   0.0000000  -0.1515229   0.1515229), wk =   0.0005466
        k(   91) = (   0.2020305   0.0000000   0.0000000), wk =   0.0002733
        k(   92) = (   0.2272843   0.0252538  -0.0252538), wk =   0.0010933
        k(   93) = (   0.2525381   0.0505076  -0.0505076), wk =   0.0010933
        k(   94) = (   0.2777919   0.0757614  -0.0757614), wk =   0.0010933
        k(   95) = (   0.3030458   0.1010153  -0.1010153), wk =   0.0010933
        k(   96) = (   0.3282996   0.1262691  -0.1262691), wk =   0.0010933
        k(   97) = (   0.3535534   0.1515229  -0.1515229), wk =   0.0010933
        k(   98) = (   0.3788072   0.1767767  -0.1767767), wk =   0.0010933
        k(   99) = (   0.4040610   0.2020305  -0.2020305), wk =   0.0010933
        k(  100) = (   0.4293148   0.2272843  -0.2272843), wk =   0.0010933
        k(  101) = (  -0.2525381  -0.4545686   0.4545686), wk =   0.0010933
        k(  102) = (  -0.2272843  -0.4293148   0.4293148), wk =   0.0010933
        k(  103) = (  -0.2020305  -0.4040610   0.4040610), wk =   0.0010933
        k(  104) = (  -0.1767767  -0.3788072   0.3788072), wk =   0.0010933
        k(  105) = (  -0.1515229  -0.3535534   0.3535534), wk =   0.0010933
        k(  106) = (  -0.1262691  -0.3282996   0.3282996), wk =   0.0010933
        k(  107) = (  -0.1010153  -0.3030458   0.3030458), wk =   0.0010933
        k(  108) = (  -0.0757614  -0.2777919   0.2777919), wk =   0.0010933
        k(  109) = (  -0.0505076  -0.2525381   0.2525381), wk =   0.0010933
        k(  110) = (  -0.0252538  -0.2272843   0.2272843), wk =   0.0010933
        k(  111) = (  -0.0000000  -0.2020305   0.2020305), wk =   0.0005466
        k(  112) = (   0.2525381   0.0000000   0.0000000), wk =   0.0002733
        k(  113) = (   0.2777919   0.0252538  -0.0252538), wk =   0.0010933
        k(  114) = (   0.3030458   0.0505076  -0.0505076), wk =   0.0010933
        k(  115) = (   0.3282996   0.0757614  -0.0757614), wk =   0.0010933
        k(  116) = (   0.3535534   0.1010153  -0.1010153), wk =   0.0010933
        k(  117) = (   0.3788072   0.1262691  -0.1262691), wk =   0.0010933
        k(  118) = (   0.4040610   0.1515229  -0.1515229), wk =   0.0010933
        k(  119) = (   0.4293148   0.1767767  -0.1767767), wk =   0.0010933
        k(  120) = (   0.4545686   0.2020305  -0.2020305), wk =   0.0010933
        k(  121) = (  -0.2272843  -0.4798225   0.4798225), wk =   0.0010933
        k(  122) = (  -0.2020305  -0.4545686   0.4545686), wk =   0.0010933
        k(  123) = (  -0.1767767  -0.4293148   0.4293148), wk =   0.0010933
        k(  124) = (  -0.1515229  -0.4040610   0.4040610), wk =   0.0010933
        k(  125) = (  -0.1262691  -0.3788072   0.3788072), wk =   0.0010933
        k(  126) = (  -0.1010153  -0.3535534   0.3535534), wk =   0.0010933
        k(  127) = (  -0.0757614  -0.3282996   0.3282996), wk =   0.0010933
        k(  128) = (  -0.0505076  -0.3030458   0.3030458), wk =   0.0010933
        k(  129) = (  -0.0252538  -0.2777919   0.2777919), wk =   0.0010933
        k(  130) = (  -0.0000000  -0.2525381   0.2525381), wk =   0.0005466
        k(  131) = (   0.3030458   0.0000000   0.0000000), wk =   0.0002733
        k(  132) = (   0.3282996   0.0252538  -0.0252538), wk =   0.0010933
        k(  133) = (   0.3535534   0.0505076  -0.0505076), wk =   0.0010933
        k(  134) = (   0.3788072   0.0757614  -0.0757614), wk =   0.0010933
        k(  135) = (   0.4040610   0.1010153  -0.1010153), wk =   0.0010933
        k(  136) = (   0.4293148   0.1262691  -0.1262691), wk =   0.0010933
        k(  137) = (   0.4545686   0.1515229  -0.1515229), wk =   0.0010933
        k(  138) = (   0.4798225   0.1767767  -0.1767767), wk =   0.0010933
        k(  139) = (  -0.2020305  -0.5050763   0.5050763), wk =   0.0010933
        k(  140) = (  -0.1767767  -0.4798225   0.4798225), wk =   0.0010933
        k(  141) = (  -0.1515229  -0.4545686   0.4545686), wk =   0.0010933
        k(  142) = (  -0.1262691  -0.4293148   0.4293148), wk =   0.0010933
        k(  143) = (  -0.1010153  -0.4040610   0.4040610), wk =   0.0010933
        k(  144) = (  -0.0757614  -0.3788072   0.3788072), wk =   0.0010933
        k(  145) = (  -0.0505076  -0.3535534   0.3535534), wk =   0.0010933
        k(  146) = (  -0.0252538  -0.3282996   0.3282996), wk =   0.0010933
        k(  147) = (   0.0000000  -0.3030458   0.3030458), wk =   0.0005466
        k(  148) = (   0.3535534   0.0000000   0.0000000), wk =   0.0002733
        k(  149) = (   0.3788072   0.0252538  -0.0252538), wk =   0.0010933
        k(  150) = (   0.4040610   0.0505076  -0.0505076), wk =   0.0010933
        k(  151) = (   0.4293148   0.0757614  -0.0757614), wk =   0.0010933
        k(  152) = (   0.4545686   0.1010153  -0.1010153), wk =   0.0010933
        k(  153) = (   0.4798225   0.1262691  -0.1262691), wk =   0.0010933
        k(  154) = (   0.5050763   0.1515229  -0.1515229), wk =   0.0010933
        k(  155) = (  -0.1767767  -0.5303301   0.5303301), wk =   0.0010933
        k(  156) = (  -0.1515229  -0.5050763   0.5050763), wk =   0.0010933
        k(  157) = (  -0.1262691  -0.4798225   0.4798225), wk =   0.0010933
        k(  158) = (  -0.1010153  -0.4545686   0.4545686), wk =   0.0010933
        k(  159) = (  -0.0757614  -0.4293148   0.4293148), wk =   0.0010933
        k(  160) = (  -0.0505076  -0.4040610   0.4040610), wk =   0.0010933
        k(  161) = (  -0.0252538  -0.3788072   0.3788072), wk =   0.0010933
        k(  162) = (   0.0000000  -0.3535534   0.3535534), wk =   0.0005466
        k(  163) = (   0.4040610   0.0000000   0.0000000), wk =   0.0002733
        k(  164) = (   0.4293148   0.0252538  -0.0252538), wk =   0.0010933
        k(  165) = (   0.4545686   0.0505076  -0.0505076), wk =   0.0010933
        k(  166) = (   0.4798225   0.0757614  -0.0757614), wk =   0.0010933
        k(  167) = (   0.5050763   0.1010153  -0.1010153), wk =   0.0010933
        k(  168) = (   0.5303301   0.1262691  -0.1262691), wk =   0.0010933
        k(  169) = (  -0.1515229  -0.5555839   0.5555839), wk =   0.0010933
        k(  170) = (  -0.1262691  -0.5303301   0.5303301), wk =   0.0010933
        k(  171) = (  -0.1010153  -0.5050763   0.5050763), wk =   0.0010933
        k(  172) = (  -0.0757614  -0.4798225   0.4798225), wk =   0.0010933
        k(  173) = (  -0.0505076  -0.4545686   0.4545686), wk =   0.0010933
        k(  174) = (  -0.0252538  -0.4293148   0.4293148), wk =   0.0010933
        k(  175) = (   0.0000000  -0.4040610   0.4040610), wk =   0.0005466
        k(  176) = (   0.4545686   0.0000000   0.0000000), wk =   0.0002733
        k(  177) = (   0.4798225   0.0252538  -0.0252538), wk =   0.0010933
        k(  178) = (   0.5050763   0.0505076  -0.0505076), wk =   0.0010933
        k(  179) = (   0.5303301   0.0757614  -0.0757614), wk =   0.0010933
        k(  180) = (   0.5555839   0.1010153  -0.1010153), wk =   0.0010933
        k(  181) = (  -0.1262691  -0.5808377   0.5808377), wk =   0.0010933
        k(  182) = (  -0.1010153  -0.5555839   0.5555839), wk =   0.0010933
        k(  183) = (  -0.0757614  -0.5303301   0.5303301), wk =   0.0010933
        k(  184) = (  -0.0505076  -0.5050763   0.5050763), wk =   0.0010933
        k(  185) = (  -0.0252538  -0.4798225   0.4798225), wk =   0.0010933
        k(  186) = (   0.0000000  -0.4545686   0.4545686), wk =   0.0005466
        k(  187) = (   0.5050763   0.0000000   0.0000000), wk =   0.0002733
        k(  188) = (   0.5303301   0.0252538  -0.0252538), wk =   0.0010933
        k(  189) = (   0.5555839   0.0505076  -0.0505076), wk =   0.0010933
        k(  190) = (   0.5808377   0.0757614  -0.0757614), wk =   0.0010933
        k(  191) = (  -0.1010153  -0.6060915   0.6060915), wk =   0.0010933
        k(  192) = (  -0.0757614  -0.5808377   0.5808377), wk =   0.0010933
        k(  193) = (  -0.0505076  -0.5555839   0.5555839), wk =   0.0010933
        k(  194) = (  -0.0252538  -0.5303301   0.5303301), wk =   0.0010933
        k(  195) = (   0.0000000  -0.5050763   0.5050763), wk =   0.0005466
        k(  196) = (   0.5555839   0.0000000   0.0000000), wk =   0.0002733
        k(  197) = (   0.5808377   0.0252538  -0.0252538), wk =   0.0010933
        k(  198) = (   0.6060915   0.0505076  -0.0505076), wk =   0.0010933
        k(  199) = (  -0.0757614  -0.6313453   0.6313453), wk =   0.0010933
        k(  200) = (  -0.0505076  -0.6060915   0.6060915), wk =   0.0010933
        k(  201) = (  -0.0252538  -0.5808377   0.5808377), wk =   0.0010933
        k(  202) = (  -0.0000000  -0.5555839   0.5555839), wk =   0.0005466
        k(  203) = (   0.6060915   0.0000000   0.0000000), wk =   0.0002733
        k(  204) = (   0.6313453   0.0252538  -0.0252538), wk =   0.0010933
        k(  205) = (  -0.0505076  -0.6565992   0.6565992), wk =   0.0010933
        k(  206) = (  -0.0252538  -0.6313453   0.6313453), wk =   0.0010933
        k(  207) = (   0.0000000  -0.6060915   0.6060915), wk =   0.0005466
        k(  208) = (   0.6565992   0.0000000   0.0000000), wk =   0.0002733
        k(  209) = (  -0.0252538  -0.6818530   0.6818530), wk =   0.0010933
        k(  210) = (   0.0000000  -0.6565992   0.6565992), wk =   0.0005466
        k(  211) = (  -0.7071068   0.0000000   0.0000000), wk =   0.0001367
        k(  212) = (   0.1010153   0.0505076   0.0000000), wk =   0.0010933
        k(  213) = (   0.1262691   0.0757614  -0.0252538), wk =   0.0021866
        k(  214) = (   0.1515229   0.1010153  -0.0505076), wk =   0.0021866
        k(  215) = (   0.1767767   0.1262691  -0.0757614), wk =   0.0021866
        k(  216) = (   0.2020305   0.1515229  -0.1010153), wk =   0.0021866
        k(  217) = (   0.2272843   0.1767767  -0.1262691), wk =   0.0021866
        k(  218) = (   0.2525381   0.2020305  -0.1515229), wk =   0.0021866
        k(  219) = (   0.2777919   0.2272843  -0.1767767), wk =   0.0021866
        k(  220) = (   0.3030458   0.2525381  -0.2020305), wk =   0.0021866
        k(  221) = (   0.3282996   0.2777919  -0.2272843), wk =   0.0021866
        k(  222) = (   0.3535534   0.3030458  -0.2525381), wk =   0.0021866
        k(  223) = (  -0.3282996  -0.3788072   0.4293148), wk =   0.0021866
        k(  224) = (  -0.3030458  -0.3535534   0.4040610), wk =   0.0010933
        k(  225) = (   0.1515229   0.0505076   0.0000000), wk =   0.0010933
        k(  226) = (   0.1767767   0.0757614  -0.0252538), wk =   0.0021866
        k(  227) = (   0.2020305   0.1010153  -0.0505076), wk =   0.0021866
        k(  228) = (   0.2272843   0.1262691  -0.0757614), wk =   0.0021866
        k(  229) = (   0.2525381   0.1515229  -0.1010153), wk =   0.0021866
        k(  230) = (   0.2777919   0.1767767  -0.1262691), wk =   0.0021866
        k(  231) = (   0.3030458   0.2020305  -0.1515229), wk =   0.0021866
        k(  232) = (   0.3282996   0.2272843  -0.1767767), wk =   0.0021866
        k(  233) = (   0.3535534   0.2525381  -0.2020305), wk =   0.0021866
        k(  234) = (   0.3788072   0.2777919  -0.2272843), wk =   0.0021866
        k(  235) = (  -0.3030458  -0.4040610   0.4545686), wk =   0.0021866
        k(  236) = (  -0.2777919  -0.3788072   0.4293148), wk =   0.0021866
        k(  237) = (  -0.2525381  -0.3535534   0.4040610), wk =   0.0021866
        k(  238) = (  -0.2272843  -0.3282996   0.3788072), wk =   0.0021866
        k(  239) = (  -0.2020305  -0.3030458   0.3535534), wk =   0.0021866
        k(  240) = (  -0.1767767  -0.2777919   0.3282996), wk =   0.0021866
        k(  241) = (  -0.1515229  -0.2525381   0.3030458), wk =   0.0021866
        k(  242) = (  -0.1262691  -0.2272843   0.2777919), wk =   0.0021866
        k(  243) = (  -0.1010153  -0.2020305   0.2525381), wk =   0.0021866
        k(  244) = (  -0.0757614  -0.1767767   0.2272843), wk =   0.0021866
        k(  245) = (  -0.0505076  -0.1515229   0.2020305), wk =   0.0021866
        k(  246) = (  -0.0252538  -0.1262691   0.1767767), wk =   0.0021866
        k(  247) = (   0.0000000  -0.1010153   0.1515229), wk =   0.0010933
        k(  248) = (   0.2020305   0.0505076   0.0000000), wk =   0.0010933
        k(  249) = (   0.2272843   0.0757614  -0.0252538), wk =   0.0021866
        k(  250) = (   0.2525381   0.1010153  -0.0505076), wk =   0.0021866
        k(  251) = (   0.2777919   0.1262691  -0.0757614), wk =   0.0021866
        k(  252) = (   0.3030458   0.1515229  -0.1010153), wk =   0.0021866
        k(  253) = (   0.3282996   0.1767767  -0.1262691), wk =   0.0021866
        k(  254) = (   0.3535534   0.2020305  -0.1515229), wk =   0.0021866
        k(  255) = (   0.3788072   0.2272843  -0.1767767), wk =   0.0021866
        k(  256) = (   0.4040610   0.2525381  -0.2020305), wk =   0.0021866
        k(  257) = (  -0.2777919  -0.4293148   0.4798225), wk =   0.0021866
        k(  258) = (  -0.2525381  -0.4040610   0.4545686), wk =   0.0021866
        k(  259) = (  -0.2272843  -0.3788072   0.4293148), wk =   0.0021866
        k(  260) = (  -0.2020305  -0.3535534   0.4040610), wk =   0.0021866
        k(  261) = (  -0.1767767  -0.3282996   0.3788072), wk =   0.0021866
        k(  262) = (  -0.1515229  -0.3030458   0.3535534), wk =   0.0021866
        k(  263) = (  -0.1262691  -0.2777919   0.3282996), wk =   0.0021866
        k(  264) = (  -0.1010153  -0.2525381   0.3030458), wk =   0.0021866
        k(  265) = (  -0.0757614  -0.2272843   0.2777919), wk =   0.0021866
        k(  266) = (  -0.0505076  -0.2020305   0.2525381), wk =   0.0021866
        k(  267) = (  -0.0252538  -0.1767767   0.2272843), wk =   0.0021866
        k(  268) = (   0.0000000  -0.1515229   0.2020305), wk =   0.0010933
        k(  269) = (   0.2525381   0.0505076   0.0000000), wk =   0.0010933
        k(  270) = (   0.2777919   0.0757614  -0.0252538), wk =   0.0021866
        k(  271) = (   0.3030458   0.1010153  -0.0505076), wk =   0.0021866
        k(  272) = (   0.3282996   0.1262691  -0.0757614), wk =   0.0021866
        k(  273) = (   0.3535534   0.1515229  -0.1010153), wk =   0.0021866
        k(  274) = (   0.3788072   0.1767767  -0.1262691), wk =   0.0021866
        k(  275) = (   0.4040610   0.2020305  -0.1515229), wk =   0.0021866
        k(  276) = (   0.4293148   0.2272843  -0.1767767), wk =   0.0021866
        k(  277) = (  -0.2525381  -0.4545686   0.5050763), wk =   0.0021866
        k(  278) = (  -0.2272843  -0.4293148   0.4798225), wk =   0.0021866
        k(  279) = (  -0.2020305  -0.4040610   0.4545686), wk =   0.0021866
        k(  280) = (  -0.1767767  -0.3788072   0.4293148), wk =   0.0021866
        k(  281) = (  -0.1515229  -0.3535534   0.4040610), wk =   0.0021866
        k(  282) = (  -0.1262691  -0.3282996   0.3788072), wk =   0.0021866
        k(  283) = (  -0.1010153  -0.3030458   0.3535534), wk =   0.0021866
        k(  284) = (  -0.0757614  -0.2777919   0.3282996), wk =   0.0021866
        k(  285) = (  -0.0505076  -0.2525381   0.3030458), wk =   0.0021866
        k(  286) = (  -0.0252538  -0.2272843   0.2777919), wk =   0.0021866
        k(  287) = (  -0.0000000  -0.2020305   0.2525381), wk =   0.0010933
        k(  288) = (   0.3030458   0.0505076   0.0000000), wk =   0.0010933
        k(  289) = (   0.3282996   0.0757614  -0.0252538), wk =   0.0021866
        k(  290) = (   0.3535534   0.1010153  -0.0505076), wk =   0.0021866
        k(  291) = (   0.3788072   0.1262691  -0.0757614), wk =   0.0021866
        k(  292) = (   0.4040610   0.1515229  -0.1010153), wk =   0.0021866
        k(  293) = (   0.4293148   0.1767767  -0.1262691), wk =   0.0021866
        k(  294) = (   0.4545686   0.2020305  -0.1515229), wk =   0.0021866
        k(  295) = (  -0.2272843  -0.4798225   0.5303301), wk =   0.0021866
        k(  296) = (  -0.2020305  -0.4545686   0.5050763), wk =   0.0021866
        k(  297) = (  -0.1767767  -0.4293148   0.4798225), wk =   0.0021866
        k(  298) = (  -0.1515229  -0.4040610   0.4545686), wk =   0.0021866
        k(  299) = (  -0.1262691  -0.3788072   0.4293148), wk =   0.0021866
        k(  300) = (  -0.1010153  -0.3535534   0.4040610), wk =   0.0021866
        k(  301) = (  -0.0757614  -0.3282996   0.3788072), wk =   0.0021866
        k(  302) = (  -0.0505076  -0.3030458   0.3535534), wk =   0.0021866
        k(  303) = (  -0.0252538  -0.2777919   0.3282996), wk =   0.0021866
        k(  304) = (  -0.0000000  -0.2525381   0.3030458), wk =   0.0010933
        k(  305) = (   0.3535534   0.0505076   0.0000000), wk =   0.0010933
        k(  306) = (   0.3788072   0.0757614  -0.0252538), wk =   0.0021866
        k(  307) = (   0.4040610   0.1010153  -0.0505076), wk =   0.0021866
        k(  308) = (   0.4293148   0.1262691  -0.0757614), wk =   0.0021866
        k(  309) = (   0.4545686   0.1515229  -0.1010153), wk =   0.0021866
        k(  310) = (   0.4798225   0.1767767  -0.1262691), wk =   0.0021866
        k(  311) = (  -0.2020305  -0.5050763   0.5555839), wk =   0.0021866
        k(  312) = (  -0.1767767  -0.4798225   0.5303301), wk =   0.0021866
        k(  313) = (  -0.1515229  -0.4545686   0.5050763), wk =   0.0021866
        k(  314) = (  -0.1262691  -0.4293148   0.4798225), wk =   0.0021866
        k(  315) = (  -0.1010153  -0.4040610   0.4545686), wk =   0.0021866
        k(  316) = (  -0.0757614  -0.3788072   0.4293148), wk =   0.0021866
        k(  317) = (  -0.0505076  -0.3535534   0.4040610), wk =   0.0021866
        k(  318) = (  -0.0252538  -0.3282996   0.3788072), wk =   0.0021866
        k(  319) = (   0.0000000  -0.3030458   0.3535534), wk =   0.0010933
        k(  320) = (   0.4040610   0.0505076  -0.0000000), wk =   0.0010933
        k(  321) = (   0.4293148   0.0757614  -0.0252538), wk =   0.0021866
        k(  322) = (   0.4545686   0.1010153  -0.0505076), wk =   0.0021866
        k(  323) = (   0.4798225   0.1262691  -0.0757614), wk =   0.0021866
        k(  324) = (   0.5050763   0.1515229  -0.1010153), wk =   0.0021866
        k(  325) = (  -0.1767767  -0.5303301   0.5808377), wk =   0.0021866
        k(  326) = (  -0.1515229  -0.5050763   0.5555839), wk =   0.0021866
        k(  327) = (  -0.1262691  -0.4798225   0.5303301), wk =   0.0021866
        k(  328) = (  -0.1010153  -0.4545686   0.5050763), wk =   0.0021866
        k(  329) = (  -0.0757614  -0.4293148   0.4798225), wk =   0.0021866
        k(  330) = (  -0.0505076  -0.4040610   0.4545686), wk =   0.0021866
        k(  331) = (  -0.0252538  -0.3788072   0.4293148), wk =   0.0021866
        k(  332) = (   0.0000000  -0.3535534   0.4040610), wk =   0.0010933
        k(  333) = (   0.4545686   0.0505076   0.0000000), wk =   0.0010933
        k(  334) = (   0.4798225   0.0757614  -0.0252538), wk =   0.0021866
        k(  335) = (   0.5050763   0.1010153  -0.0505076), wk =   0.0021866
        k(  336) = (   0.5303301   0.1262691  -0.0757614), wk =   0.0021866
        k(  337) = (  -0.1515229  -0.5555839   0.6060915), wk =   0.0021866
        k(  338) = (  -0.1262691  -0.5303301   0.5808377), wk =   0.0021866
        k(  339) = (  -0.1010153  -0.5050763   0.5555839), wk =   0.0021866
        k(  340) = (  -0.0757614  -0.4798225   0.5303301), wk =   0.0021866
        k(  341) = (  -0.0505076  -0.4545686   0.5050763), wk =   0.0021866
        k(  342) = (  -0.0252538  -0.4293148   0.4798225), wk =   0.0021866
        k(  343) = (   0.0000000  -0.4040610   0.4545686), wk =   0.0010933
        k(  344) = (   0.5050763   0.0505076   0.0000000), wk =   0.0010933
        k(  345) = (   0.5303301   0.0757614  -0.0252538), wk =   0.0021866
        k(  346) = (   0.5555839   0.1010153  -0.0505076), wk =   0.0021866
        k(  347) = (  -0.1262691  -0.5808377   0.6313453), wk =   0.0021866
        k(  348) = (  -0.1010153  -0.5555839   0.6060915), wk =   0.0021866
        k(  349) = (  -0.0757614  -0.5303301   0.5808377), wk =   0.0021866
        k(  350) = (  -0.0505076  -0.5050763   0.5555839), wk =   0.0021866
        k(  351) = (  -0.0252538  -0.4798225   0.5303301), wk =   0.0021866
        k(  352) = (   0.0000000  -0.4545686   0.5050763), wk =   0.0010933
        k(  353) = (   0.5555839   0.0505076   0.0000000), wk =   0.0010933
        k(  354) = (   0.5808377   0.0757614  -0.0252538), wk =   0.0021866
        k(  355) = (  -0.1010153  -0.6060915   0.6565992), wk =   0.0021866
        k(  356) = (  -0.0757614  -0.5808377   0.6313453), wk =   0.0021866
        k(  357) = (  -0.0505076  -0.5555839   0.6060915), wk =   0.0021866
        k(  358) = (  -0.0252538  -0.5303301   0.5808377), wk =   0.0021866
        k(  359) = (   0.0000000  -0.5050763   0.5555839), wk =   0.0010933
        k(  360) = (   0.6060915   0.0505076   0.0000000), wk =   0.0010933
        k(  361) = (  -0.0757614  -0.6313453   0.6818530), wk =   0.0021866
        k(  362) = (  -0.0505076  -0.6060915   0.6565992), wk =   0.0021866
        k(  363) = (  -0.0252538  -0.5808377   0.6313453), wk =   0.0021866
        k(  364) = (  -0.0000000  -0.5555839   0.6060915), wk =   0.0010933
        k(  365) = (  -0.0505076  -0.6565992   0.7071068), wk =   0.0010933
        k(  366) = (  -0.0252538  -0.6313453   0.6818530), wk =   0.0021866
        k(  367) = (   0.0000000  -0.6060915   0.6565992), wk =   0.0010933
        k(  368) = (  -0.7071068   0.0505076   0.0000000), wk =   0.0005466
        k(  369) = (   0.2020305   0.1010153   0.0000000), wk =   0.0010933
        k(  370) = (   0.2272843   0.1262691  -0.0252538), wk =   0.0021866
        k(  371) = (   0.2525381   0.1515229  -0.0505076), wk =   0.0021866
        k(  372) = (   0.2777919   0.1767767  -0.0757614), wk =   0.0021866
        k(  373) = (   0.3030458   0.2020305  -0.1010153), wk =   0.0021866
        k(  374) = (   0.3282996   0.2272843  -0.1262691), wk =   0.0021866
        k(  375) = (   0.3535534   0.2525381  -0.1515229), wk =   0.0021866
        k(  376) = (   0.3788072   0.2777919  -0.1767767), wk =   0.0021866
        k(  377) = (  -0.3030458  -0.4040610   0.5050763), wk =   0.0021866
        k(  378) = (  -0.2777919  -0.3788072   0.4798225), wk =   0.0021866
        k(  379) = (  -0.2525381  -0.3535534   0.4545686), wk =   0.0010933
        k(  380) = (   0.2525381   0.1010153   0.0000000), wk =   0.0010933
        k(  381) = (   0.2777919   0.1262691  -0.0252538), wk =   0.0021866
        k(  382) = (   0.3030458   0.1515229  -0.0505076), wk =   0.0021866
        k(  383) = (   0.3282996   0.1767767  -0.0757614), wk =   0.0021866
        k(  384) = (   0.3535534   0.2020305  -0.1010153), wk =   0.0021866
        k(  385) = (   0.3788072   0.2272843  -0.1262691), wk =   0.0021866
        k(  386) = (   0.4040610   0.2525381  -0.1515229), wk =   0.0021866
        k(  387) = (  -0.2777919  -0.4293148   0.5303301), wk =   0.0021866
        k(  388) = (  -0.2525381  -0.4040610   0.5050763), wk =   0.0021866
        k(  389) = (  -0.2272843  -0.3788072   0.4798225), wk =   0.0021866
        k(  390) = (  -0.2020305  -0.3535534   0.4545686), wk =   0.0021866
        k(  391) = (  -0.1767767  -0.3282996   0.4293148), wk =   0.0021866
        k(  392) = (  -0.1515229  -0.3030458   0.4040610), wk =   0.0021866
        k(  393) = (  -0.1262691  -0.2777919   0.3788072), wk =   0.0021866
        k(  394) = (  -0.1010153  -0.2525381   0.3535534), wk =   0.0021866
        k(  395) = (  -0.0757614  -0.2272843   0.3282996), wk =   0.0021866
        k(  396) = (  -0.0505076  -0.2020305   0.3030458), wk =   0.0021866
        k(  397) = (  -0.0252538  -0.1767767   0.2777919), wk =   0.0021866
        k(  398) = (   0.0000000  -0.1515229   0.2525381), wk =   0.0010933
        k(  399) = (   0.3030458   0.1010153   0.0000000), wk =   0.0010933
        k(  400) = (   0.3282996   0.1262691  -0.0252538), wk =   0.0021866
        k(  401) = (   0.3535534   0.1515229  -0.0505076), wk =   0.0021866
        k(  402) = (   0.3788072   0.1767767  -0.0757614), wk =   0.0021866
        k(  403) = (   0.4040610   0.2020305  -0.1010153), wk =   0.0021866
        k(  404) = (   0.4293148   0.2272843  -0.1262691), wk =   0.0021866
        k(  405) = (  -0.2525381  -0.4545686   0.5555839), wk =   0.0021866
        k(  406) = (  -0.2272843  -0.4293148   0.5303301), wk =   0.0021866
        k(  407) = (  -0.2020305  -0.4040610   0.5050763), wk =   0.0021866
        k(  408) = (  -0.1767767  -0.3788072   0.4798225), wk =   0.0021866
        k(  409) = (  -0.1515229  -0.3535534   0.4545686), wk =   0.0021866
        k(  410) = (  -0.1262691  -0.3282996   0.4293148), wk =   0.0021866
        k(  411) = (  -0.1010153  -0.3030458   0.4040610), wk =   0.0021866
        k(  412) = (  -0.0757614  -0.2777919   0.3788072), wk =   0.0021866
        k(  413) = (  -0.0505076  -0.2525381   0.3535534), wk =   0.0021866
        k(  414) = (  -0.0252538  -0.2272843   0.3282996), wk =   0.0021866
        k(  415) = (  -0.0000000  -0.2020305   0.3030458), wk =   0.0010933
        k(  416) = (   0.3535534   0.1010153  -0.0000000), wk =   0.0010933
        k(  417) = (   0.3788072   0.1262691  -0.0252538), wk =   0.0021866
        k(  418) = (   0.4040610   0.1515229  -0.0505076), wk =   0.0021866
        k(  419) = (   0.4293148   0.1767767  -0.0757614), wk =   0.0021866
        k(  420) = (   0.4545686   0.2020305  -0.1010153), wk =   0.0021866
        k(  421) = (  -0.2272843  -0.4798225   0.5808377), wk =   0.0021866
        k(  422) = (  -0.2020305  -0.4545686   0.5555839), wk =   0.0021866
        k(  423) = (  -0.1767767  -0.4293148   0.5303301), wk =   0.0021866
        k(  424) = (  -0.1515229  -0.4040610   0.5050763), wk =   0.0021866
        k(  425) = (  -0.1262691  -0.3788072   0.4798225), wk =   0.0021866
        k(  426) = (  -0.1010153  -0.3535534   0.4545686), wk =   0.0021866
        k(  427) = (  -0.0757614  -0.3282996   0.4293148), wk =   0.0021866
        k(  428) = (  -0.0505076  -0.3030458   0.4040610), wk =   0.0021866
        k(  429) = (  -0.0252538  -0.2777919   0.3788072), wk =   0.0021866
        k(  430) = (  -0.0000000  -0.2525381   0.3535534), wk =   0.0010933
        k(  431) = (   0.4040610   0.1010153   0.0000000), wk =   0.0010933
        k(  432) = (   0.4293148   0.1262691  -0.0252538), wk =   0.0021866
        k(  433) = (   0.4545686   0.1515229  -0.0505076), wk =   0.0021866
        k(  434) = (   0.4798225   0.1767767  -0.0757614), wk =   0.0021866
        k(  435) = (  -0.2020305  -0.5050763   0.6060915), wk =   0.0021866
        k(  436) = (  -0.1767767  -0.4798225   0.5808377), wk =   0.0021866
        k(  437) = (  -0.1515229  -0.4545686   0.5555839), wk =   0.0021866
        k(  438) = (  -0.1262691  -0.4293148   0.5303301), wk =   0.0021866
        k(  439) = (  -0.1010153  -0.4040610   0.5050763), wk =   0.0021866
        k(  440) = (  -0.0757614  -0.3788072   0.4798225), wk =   0.0021866
        k(  441) = (  -0.0505076  -0.3535534   0.4545686), wk =   0.0021866
        k(  442) = (  -0.0252538  -0.3282996   0.4293148), wk =   0.0021866
        k(  443) = (   0.0000000  -0.3030458   0.4040610), wk =   0.0010933
        k(  444) = (   0.4545686   0.1010153   0.0000000), wk =   0.0010933
        k(  445) = (   0.4798225   0.1262691  -0.0252538), wk =   0.0021866
        k(  446) = (   0.5050763   0.1515229  -0.0505076), wk =   0.0021866
        k(  447) = (  -0.1767767  -0.5303301   0.6313453), wk =   0.0021866
        k(  448) = (  -0.1515229  -0.5050763   0.6060915), wk =   0.0021866
        k(  449) = (  -0.1262691  -0.4798225   0.5808377), wk =   0.0021866
        k(  450) = (  -0.1010153  -0.4545686   0.5555839), wk =   0.0021866
        k(  451) = (  -0.0757614  -0.4293148   0.5303301), wk =   0.0021866
        k(  452) = (  -0.0505076  -0.4040610   0.5050763), wk =   0.0021866
        k(  453) = (  -0.0252538  -0.3788072   0.4798225), wk =   0.0021866
        k(  454) = (   0.0000000  -0.3535534   0.4545686), wk =   0.0010933
        k(  455) = (   0.5050763   0.1010153   0.0000000), wk =   0.0010933
        k(  456) = (   0.5303301   0.1262691  -0.0252538), wk =   0.0021866
        k(  457) = (  -0.1515229  -0.5555839   0.6565992), wk =   0.0021866
        k(  458) = (  -0.1262691  -0.5303301   0.6313453), wk =   0.0021866
        k(  459) = (  -0.1010153  -0.5050763   0.6060915), wk =   0.0021866
        k(  460) = (  -0.0757614  -0.4798225   0.5808377), wk =   0.0021866
        k(  461) = (  -0.0505076  -0.4545686   0.5555839), wk =   0.0021866
        k(  462) = (  -0.0252538  -0.4293148   0.5303301), wk =   0.0021866
        k(  463) = (   0.0000000  -0.4040610   0.5050763), wk =   0.0010933
        k(  464) = (   0.5555839   0.1010153  -0.0000000), wk =   0.0010933
        k(  465) = (  -0.1262691  -0.5808377   0.6818530), wk =   0.0021866
        k(  466) = (  -0.1010153  -0.5555839   0.6565992), wk =   0.0021866
        k(  467) = (  -0.0757614  -0.5303301   0.6313453), wk =   0.0021866
        k(  468) = (  -0.0505076  -0.5050763   0.6060915), wk =   0.0021866
        k(  469) = (  -0.0252538  -0.4798225   0.5808377), wk =   0.0021866
        k(  470) = (   0.0000000  -0.4545686   0.5555839), wk =   0.0010933
        k(  471) = (  -0.1010153  -0.6060915   0.7071068), wk =   0.0010933
        k(  472) = (  -0.0757614  -0.5808377   0.6818530), wk =   0.0021866
        k(  473) = (  -0.0505076  -0.5555839   0.6565992), wk =   0.0021866
        k(  474) = (  -0.0252538  -0.5303301   0.6313453), wk =   0.0021866
        k(  475) = (   0.0000000  -0.5050763   0.6060915), wk =   0.0010933
        k(  476) = (  -0.0505076  -0.6060915   0.7071068), wk =   0.0010933
        k(  477) = (  -0.0252538  -0.5808377   0.6818530), wk =   0.0021866
        k(  478) = (   0.0000000  -0.5555839   0.6565992), wk =   0.0010933
        k(  479) = (  -0.7071068   0.1010153   0.0000000), wk =   0.0005466
        k(  480) = (   0.3030458   0.1515229  -0.0000000), wk =   0.0010933
        k(  481) = (   0.3282996   0.1767767  -0.0252538), wk =   0.0021866
        k(  482) = (   0.3535534   0.2020305  -0.0505076), wk =   0.0021866
        k(  483) = (   0.3788072   0.2272843  -0.0757614), wk =   0.0021866
        k(  484) = (   0.4040610   0.2525381  -0.1010153), wk =   0.0021866
        k(  485) = (  -0.2777919  -0.4293148   0.5808377), wk =   0.0021866
        k(  486) = (  -0.2525381  -0.4040610   0.5555839), wk =   0.0021866
        k(  487) = (  -0.2272843  -0.3788072   0.5303301), wk =   0.0021866
        k(  488) = (  -0.2020305  -0.3535534   0.5050763), wk =   0.0010933
        k(  489) = (   0.3535534   0.1515229   0.0000000), wk =   0.0010933
        k(  490) = (   0.3788072   0.1767767  -0.0252538), wk =   0.0021866
        k(  491) = (   0.4040610   0.2020305  -0.0505076), wk =   0.0021866
        k(  492) = (   0.4293148   0.2272843  -0.0757614), wk =   0.0021866
        k(  493) = (  -0.2525381  -0.4545686   0.6060915), wk =   0.0021866
        k(  494) = (  -0.2272843  -0.4293148   0.5808377), wk =   0.0021866
        k(  495) = (  -0.2020305  -0.4040610   0.5555839), wk =   0.0021866
        k(  496) = (  -0.1767767  -0.3788072   0.5303301), wk =   0.0021866
        k(  497) = (  -0.1515229  -0.3535534   0.5050763), wk =   0.0021866
        k(  498) = (  -0.1262691  -0.3282996   0.4798225), wk =   0.0021866
        k(  499) = (  -0.1010153  -0.3030458   0.4545686), wk =   0.0021866
        k(  500) = (  -0.0757614  -0.2777919   0.4293148), wk =   0.0021866
        k(  501) = (  -0.0505076  -0.2525381   0.4040610), wk =   0.0021866
        k(  502) = (  -0.0252538  -0.2272843   0.3788072), wk =   0.0021866
        k(  503) = (  -0.0000000  -0.2020305   0.3535534), wk =   0.0010933
        k(  504) = (   0.4040610   0.1515229   0.0000000), wk =   0.0010933
        k(  505) = (   0.4293148   0.1767767  -0.0252538), wk =   0.0021866
        k(  506) = (   0.4545686   0.2020305  -0.0505076), wk =   0.0021866
        k(  507) = (  -0.2272843  -0.4798225   0.6313453), wk =   0.0021866
        k(  508) = (  -0.2020305  -0.4545686   0.6060915), wk =   0.0021866
        k(  509) = (  -0.1767767  -0.4293148   0.5808377), wk =   0.0021866
        k(  510) = (  -0.1515229  -0.4040610   0.5555839), wk =   0.0021866
        k(  511) = (  -0.1262691  -0.3788072   0.5303301), wk =   0.0021866
        k(  512) = (  -0.1010153  -0.3535534   0.5050763), wk =   0.0021866
        k(  513) = (  -0.0757614  -0.3282996   0.4798225), wk =   0.0021866
        k(  514) = (  -0.0505076  -0.3030458   0.4545686), wk =   0.0021866
        k(  515) = (  -0.0252538  -0.2777919   0.4293148), wk =   0.0021866
        k(  516) = (  -0.0000000  -0.2525381   0.4040610), wk =   0.0010933
        k(  517) = (   0.4545686   0.1515229   0.0000000), wk =   0.0010933
        k(  518) = (   0.4798225   0.1767767  -0.0252538), wk =   0.0021866
        k(  519) = (  -0.2020305  -0.5050763   0.6565992), wk =   0.0021866
        k(  520) = (  -0.1767767  -0.4798225   0.6313453), wk =   0.0021866
        k(  521) = (  -0.1515229  -0.4545686   0.6060915), wk =   0.0021866
        k(  522) = (  -0.1262691  -0.4293148   0.5808377), wk =   0.0021866
        k(  523) = (  -0.1010153  -0.4040610   0.5555839), wk =   0.0021866
        k(  524) = (  -0.0757614  -0.3788072   0.5303301), wk =   0.0021866
        k(  525) = (  -0.0505076  -0.3535534   0.5050763), wk =   0.0021866
        k(  526) = (  -0.0252538  -0.3282996   0.4798225), wk =   0.0021866
        k(  527) = (   0.0000000  -0.3030458   0.4545686), wk =   0.0010933
        k(  528) = (   0.5050763   0.1515229   0.0000000), wk =   0.0010933
        k(  529) = (  -0.1767767  -0.5303301   0.6818530), wk =   0.0021866
        k(  530) = (  -0.1515229  -0.5050763   0.6565992), wk =   0.0021866
        k(  531) = (  -0.1262691  -0.4798225   0.6313453), wk =   0.0021866
        k(  532) = (  -0.1010153  -0.4545686   0.6060915), wk =   0.0021866
        k(  533) = (  -0.0757614  -0.4293148   0.5808377), wk =   0.0021866
        k(  534) = (  -0.0505076  -0.4040610   0.5555839), wk =   0.0021866
        k(  535) = (  -0.0252538  -0.3788072   0.5303301), wk =   0.0021866
        k(  536) = (   0.0000000  -0.3535534   0.5050763), wk =   0.0010933
        k(  537) = (  -0.1515229  -0.5555839   0.7071068), wk =   0.0010933
        k(  538) = (  -0.1262691  -0.5303301   0.6818530), wk =   0.0021866
        k(  539) = (  -0.1010153  -0.5050763   0.6565992), wk =   0.0021866
        k(  540) = (  -0.0757614  -0.4798225   0.6313453), wk =   0.0021866
        k(  541) = (  -0.0505076  -0.4545686   0.6060915), wk =   0.0021866
        k(  542) = (  -0.0252538  -0.4293148   0.5808377), wk =   0.0021866
        k(  543) = (  -0.0000000  -0.4040610   0.5555839), wk =   0.0010933
        k(  544) = (  -0.1010153  -0.5555839   0.7071068), wk =   0.0010933
        k(  545) = (  -0.0757614  -0.5303301   0.6818530), wk =   0.0021866
        k(  546) = (  -0.0505076  -0.5050763   0.6565992), wk =   0.0021866
        k(  547) = (  -0.0252538  -0.4798225   0.6313453), wk =   0.0021866
        k(  548) = (   0.0000000  -0.4545686   0.6060915), wk =   0.0010933
        k(  549) = (  -0.0505076  -0.5555839   0.7071068), wk =   0.0010933
        k(  550) = (  -0.0252538  -0.5303301   0.6818530), wk =   0.0021866
        k(  551) = (   0.0000000  -0.5050763   0.6565992), wk =   0.0010933
        k(  552) = (  -0.7071068   0.1515229   0.0000000), wk =   0.0005466
        k(  553) = (   0.4040610   0.2020305   0.0000000), wk =   0.0010933
        k(  554) = (   0.4293148   0.2272843  -0.0252538), wk =   0.0021866
        k(  555) = (  -0.2525381  -0.4545686   0.6565992), wk =   0.0021866
        k(  556) = (  -0.2272843  -0.4293148   0.6313453), wk =   0.0021866
        k(  557) = (  -0.2020305  -0.4040610   0.6060915), wk =   0.0021866
        k(  558) = (  -0.1767767  -0.3788072   0.5808377), wk =   0.0021866
        k(  559) = (  -0.1515229  -0.3535534   0.5555839), wk =   0.0010933
        k(  560) = (   0.4545686   0.2020305   0.0000000), wk =   0.0010933
        k(  561) = (  -0.2272843  -0.4798225   0.6818530), wk =   0.0021866
        k(  562) = (  -0.2020305  -0.4545686   0.6565992), wk =   0.0021866
        k(  563) = (  -0.1767767  -0.4293148   0.6313453), wk =   0.0021866
        k(  564) = (  -0.1515229  -0.4040610   0.6060915), wk =   0.0021866
        k(  565) = (  -0.1262691  -0.3788072   0.5808377), wk =   0.0021866
        k(  566) = (  -0.1010153  -0.3535534   0.5555839), wk =   0.0021866
        k(  567) = (  -0.0757614  -0.3282996   0.5303301), wk =   0.0021866
        k(  568) = (  -0.0505076  -0.3030458   0.5050763), wk =   0.0021866
        k(  569) = (  -0.0252538  -0.2777919   0.4798225), wk =   0.0021866
        k(  570) = (   0.0000000  -0.2525381   0.4545686), wk =   0.0010933
        k(  571) = (  -0.2020305  -0.5050763   0.7071068), wk =   0.0010933
        k(  572) = (  -0.1767767  -0.4798225   0.6818530), wk =   0.0021866
        k(  573) = (  -0.1515229  -0.4545686   0.6565992), wk =   0.0021866
        k(  574) = (  -0.1262691  -0.4293148   0.6313453), wk =   0.0021866
        k(  575) = (  -0.1010153  -0.4040610   0.6060915), wk =   0.0021866
        k(  576) = (  -0.0757614  -0.3788072   0.5808377), wk =   0.0021866
        k(  577) = (  -0.0505076  -0.3535534   0.5555839), wk =   0.0021866
        k(  578) = (  -0.0252538  -0.3282996   0.5303301), wk =   0.0021866
        k(  579) = (   0.0000000  -0.3030458   0.5050763), wk =   0.0010933
        k(  580) = (  -0.1515229  -0.5050763   0.7071068), wk =   0.0010933
        k(  581) = (  -0.1262691  -0.4798225   0.6818530), wk =   0.0021866
        k(  582) = (  -0.1010153  -0.4545686   0.6565992), wk =   0.0021866
        k(  583) = (  -0.0757614  -0.4293148   0.6313453), wk =   0.0021866
        k(  584) = (  -0.0505076  -0.4040610   0.6060915), wk =   0.0021866
        k(  585) = (  -0.0252538  -0.3788072   0.5808377), wk =   0.0021866
        k(  586) = (  -0.0000000  -0.3535534   0.5555839), wk =   0.0010933
        k(  587) = (  -0.1010153  -0.5050763   0.7071068), wk =   0.0010933
        k(  588) = (  -0.0757614  -0.4798225   0.6818530), wk =   0.0021866
        k(  589) = (  -0.0505076  -0.4545686   0.6565992), wk =   0.0021866
        k(  590) = (  -0.0252538  -0.4293148   0.6313453), wk =   0.0021866
        k(  591) = (   0.0000000  -0.4040610   0.6060915), wk =   0.0010933
        k(  592) = (  -0.0505076  -0.5050763   0.7071068), wk =   0.0010933
        k(  593) = (  -0.0252538  -0.4798225   0.6818530), wk =   0.0021866
        k(  594) = (   0.0000000  -0.4545686   0.6565992), wk =   0.0010933
        k(  595) = (  -0.7071068   0.2020305  -0.0000000), wk =   0.0005466
        k(  596) = (  -0.2020305  -0.4545686   0.7071068), wk =   0.0010933
        k(  597) = (  -0.1767767  -0.4293148   0.6818530), wk =   0.0021866
        k(  598) = (  -0.1515229  -0.4040610   0.6565992), wk =   0.0021866
        k(  599) = (  -0.1262691  -0.3788072   0.6313453), wk =   0.0021866
        k(  600) = (  -0.1010153  -0.3535534   0.6060915), wk =   0.0010933
        k(  601) = (  -0.1515229  -0.4545686   0.7071068), wk =   0.0010933
        k(  602) = (  -0.1262691  -0.4293148   0.6818530), wk =   0.0021866
        k(  603) = (  -0.1010153  -0.4040610   0.6565992), wk =   0.0021866
        k(  604) = (  -0.0757614  -0.3788072   0.6313453), wk =   0.0021866
        k(  605) = (  -0.0505076  -0.3535534   0.6060915), wk =   0.0021866
        k(  606) = (  -0.0252538  -0.3282996   0.5808377), wk =   0.0021866
        k(  607) = (  -0.0000000  -0.3030458   0.5555839), wk =   0.0010933
        k(  608) = (  -0.1010153  -0.4545686   0.7071068), wk =   0.0010933
        k(  609) = (  -0.0757614  -0.4293148   0.6818530), wk =   0.0021866
        k(  610) = (  -0.0505076  -0.4040610   0.6565992), wk =   0.0021866
        k(  611) = (  -0.0252538  -0.3788072   0.6313453), wk =   0.0021866
        k(  612) = (   0.0000000  -0.3535534   0.6060915), wk =   0.0010933
        k(  613) = (  -0.0505076  -0.4545686   0.7071068), wk =   0.0010933
        k(  614) = (  -0.0252538  -0.4293148   0.6818530), wk =   0.0021866
        k(  615) = (   0.0000000  -0.4040610   0.6565992), wk =   0.0010933
        k(  616) = (  -0.7071068   0.2525381  -0.0000000), wk =   0.0005466
        k(  617) = (  -0.1010153  -0.4040610   0.7071068), wk =   0.0010933
        k(  618) = (  -0.0757614  -0.3788072   0.6818530), wk =   0.0021866
        k(  619) = (  -0.0505076  -0.3535534   0.6565992), wk =   0.0010933
        k(  620) = (  -0.0505076  -0.4040610   0.7071068), wk =   0.0010933
        k(  621) = (  -0.0252538  -0.3788072   0.6818530), wk =   0.0021866
        k(  622) = (   0.0000000  -0.3535534   0.6565992), wk =   0.0010933
        k(  623) = (  -0.7071068   0.3030458   0.0000000), wk =   0.0005466
        k(  624) = (  -0.7071068   0.3535534   0.0000000), wk =   0.0002733

                       cryst. coord.
        k(    1) = (   0.0000000   0.0000000   0.0000000), wk =   0.0000456
        k(    2) = (   0.0000000   0.0000000   0.0357143), wk =   0.0003644
        k(    3) = (   0.0000000   0.0000000   0.0714286), wk =   0.0003644
        k(    4) = (   0.0000000   0.0000000   0.1071429), wk =   0.0003644
        k(    5) = (   0.0000000   0.0000000   0.1428571), wk =   0.0003644
        k(    6) = (   0.0000000   0.0000000   0.1785714), wk =   0.0003644
        k(    7) = (   0.0000000   0.0000000   0.2142857), wk =   0.0003644
        k(    8) = (   0.0000000   0.0000000   0.2500000), wk =   0.0003644
        k(    9) = (   0.0000000   0.0000000   0.2857143), wk =   0.0003644
        k(   10) = (   0.0000000   0.0000000   0.3214286), wk =   0.0003644
        k(   11) = (   0.0000000   0.0000000   0.3571429), wk =   0.0003644
        k(   12) = (   0.0000000   0.0000000   0.3928571), wk =   0.0003644
        k(   13) = (   0.0000000   0.0000000   0.4285714), wk =   0.0003644
        k(   14) = (   0.0000000   0.0000000   0.4642857), wk =   0.0003644
        k(   15) = (   0.0000000   0.0000000  -0.5000000), wk =   0.0001822
        k(   16) = (   0.0000000   0.0357143   0.0357143), wk =   0.0002733
        k(   17) = (   0.0000000   0.0357143   0.0714286), wk =   0.0010933
        k(   18) = (   0.0000000   0.0357143   0.1071429), wk =   0.0010933
        k(   19) = (   0.0000000   0.0357143   0.1428571), wk =   0.0010933
        k(   20) = (   0.0000000   0.0357143   0.1785714), wk =   0.0010933
        k(   21) = (   0.0000000   0.0357143   0.2142857), wk =   0.0010933
        k(   22) = (   0.0000000   0.0357143   0.2500000), wk =   0.0010933
        k(   23) = (   0.0000000   0.0357143   0.2857143), wk =   0.0010933
        k(   24) = (   0.0000000   0.0357143   0.3214286), wk =   0.0010933
        k(   25) = (   0.0000000   0.0357143   0.3571429), wk =   0.0010933
        k(   26) = (   0.0000000   0.0357143   0.3928571), wk =   0.0010933
        k(   27) = (   0.0000000   0.0357143   0.4285714), wk =   0.0010933
        k(   28) = (   0.0000000   0.0357143   0.4642857), wk =   0.0010933
        k(   29) = (   0.0000000   0.0357143  -0.5000000), wk =   0.0010933
        k(   30) = (   0.0000000   0.0357143  -0.4642857), wk =   0.0010933
        k(   31) = (   0.0000000   0.0357143  -0.4285714), wk =   0.0010933
        k(   32) = (   0.0000000   0.0357143  -0.3928571), wk =   0.0010933
        k(   33) = (   0.0000000   0.0357143  -0.3571429), wk =   0.0010933
        k(   34) = (   0.0000000   0.0357143  -0.3214286), wk =   0.0010933
        k(   35) = (   0.0000000   0.0357143  -0.2857143), wk =   0.0010933
        k(   36) = (   0.0000000   0.0357143  -0.2500000), wk =   0.0010933
        k(   37) = (   0.0000000   0.0357143  -0.2142857), wk =   0.0010933
        k(   38) = (   0.0000000   0.0357143  -0.1785714), wk =   0.0010933
        k(   39) = (   0.0000000   0.0357143  -0.1428571), wk =   0.0010933
        k(   40) = (   0.0000000   0.0357143  -0.1071429), wk =   0.0010933
        k(   41) = (   0.0000000   0.0357143  -0.0714286), wk =   0.0010933
        k(   42) = (   0.0000000   0.0357143  -0.0357143), wk =   0.0005466
        k(   43) = (   0.0000000   0.0714286   0.0714286), wk =   0.0002733
        k(   44) = (   0.0000000   0.0714286   0.1071429), wk =   0.0010933
        k(   45) = (   0.0000000   0.0714286   0.1428571), wk =   0.0010933
        k(   46) = (   0.0000000   0.0714286   0.1785714), wk =   0.0010933
        k(   47) = (   0.0000000   0.0714286   0.2142857), wk =   0.0010933
        k(   48) = (   0.0000000   0.0714286   0.2500000), wk =   0.0010933
        k(   49) = (   0.0000000   0.0714286   0.2857143), wk =   0.0010933
        k(   50) = (   0.0000000   0.0714286   0.3214286), wk =   0.0010933
        k(   51) = (   0.0000000   0.0714286   0.3571429), wk =   0.0010933
        k(   52) = (   0.0000000   0.0714286   0.3928571), wk =   0.0010933
        k(   53) = (   0.0000000   0.0714286   0.4285714), wk =   0.0010933
        k(   54) = (   0.0000000   0.0714286   0.4642857), wk =   0.0010933
        k(   55) = (   0.0000000   0.0714286  -0.5000000), wk =   0.0010933
        k(   56) = (   0.0000000   0.0714286  -0.4642857), wk =   0.0010933
        k(   57) = (   0.0000000   0.0714286  -0.4285714), wk =   0.0010933
        k(   58) = (   0.0000000   0.0714286  -0.3928571), wk =   0.0010933
        k(   59) = (   0.0000000   0.0714286  -0.3571429), wk =   0.0010933
        k(   60) = (   0.0000000   0.0714286  -0.3214286), wk =   0.0010933
        k(   61) = (   0.0000000   0.0714286  -0.2857143), wk =   0.0010933
        k(   62) = (   0.0000000   0.0714286  -0.2500000), wk =   0.0010933
        k(   63) = (   0.0000000   0.0714286  -0.2142857), wk =   0.0010933
        k(   64) = (   0.0000000   0.0714286  -0.1785714), wk =   0.0010933
        k(   65) = (   0.0000000   0.0714286  -0.1428571), wk =   0.0010933
        k(   66) = (   0.0000000   0.0714286  -0.1071429), wk =   0.0010933
        k(   67) = (   0.0000000   0.0714286  -0.0714286), wk =   0.0005466
        k(   68) = (   0.0000000   0.1071429   0.1071429), wk =   0.0002733
        k(   69) = (   0.0000000   0.1071429   0.1428571), wk =   0.0010933
        k(   70) = (   0.0000000   0.1071429   0.1785714), wk =   0.0010933
        k(   71) = (   0.0000000   0.1071429   0.2142857), wk =   0.0010933
        k(   72) = (   0.0000000   0.1071429   0.2500000), wk =   0.0010933
        k(   73) = (   0.0000000   0.1071429   0.2857143), wk =   0.0010933
        k(   74) = (   0.0000000   0.1071429   0.3214286), wk =   0.0010933
        k(   75) = (   0.0000000   0.1071429   0.3571429), wk =   0.0010933
[...]

     occupation numbers 
     1.0000   1.0000   1.0000   1.0000   1.0000   1.0000   1.0000   1.0000
     1.0000   1.0000   1.0000   1.0000   1.0000   1.0000   1.0000   1.0000
     1.0000   1.0000   1.0000   1.0000   1.0000   1.0000   1.0000   1.0000
     1.0000   1.0000   1.0000   1.0000   0.0000   0.0000   0.0000   0.0000
     0.0000   0.0000   0.0000   0.0000

          k =-0.0758-0.3788 0.6313 (  2026 PWs)   bands (ev):

   -14.5559 -14.5559 -14.5229 -14.5229 -14.4869 -14.4869 -14.4400 -14.4400
   -13.5635 -13.5635 -13.5151 -13.5151 -13.4629 -13.4629 -13.4253 -13.4253
   -13.3267 -13.3267 -13.2758 -13.2758  -0.3227  -0.3227   0.7330   0.7330
     4.3941   4.3941   5.1016   5.1016  10.1427  10.1427  10.9635  10.9635
    11.7767  11.7767  12.4157  12.4157

     occupation numbers 
     1.0000   1.0000   1.0000   1.0000   1.0000   1.0000   1.0000   1.0000
     1.0000   1.0000   1.0000   1.0000   1.0000   1.0000   1.0000   1.0000
     1.0000   1.0000   1.0000   1.0000   1.0000   1.0000   1.0000   1.0000
     1.0000   1.0000   1.0000   1.0000   0.0000   0.0000   0.0000   0.0000
     0.0000   0.0000   0.0000   0.0000

          k =-0.0505-0.3536 0.6061 (  2023 PWs)   bands (ev):

   -14.5558 -14.5558 -14.5222 -14.5222 -14.4868 -14.4868 -14.4393 -14.4393
   -13.5631 -13.5631 -13.5147 -13.5147 -13.4630 -13.4630 -13.4242 -13.4242
   -13.3265 -13.3265 -13.2758 -13.2758  -0.3534  -0.3534   0.7671   0.7671
     4.3775   4.3775   5.1313   5.1313  10.1780  10.1780  10.9537  10.9537
    11.8209  11.8209  12.3575  12.3575

     occupation numbers 
     1.0000   1.0000   1.0000   1.0000   1.0000   1.0000   1.0000   1.0000
     1.0000   1.0000   1.0000   1.0000   1.0000   1.0000   1.0000   1.0000
     1.0000   1.0000   1.0000   1.0000   1.0000   1.0000   1.0000   1.0000
     1.0000   1.0000   1.0000   1.0000   0.0000   0.0000   0.0000   0.0000
     0.0000   0.0000   0.0000   0.0000

          k =-0.0253-0.3283 0.5808 (  2028 PWs)   bands (ev):

   -14.5569 -14.5569 -14.5233 -14.5233 -14.4876 -14.4876 -14.4401 -14.4401
   -13.5639 -13.5639 -13.5169 -13.5169 -13.4647 -13.4647 -13.4221 -13.4221
   -13.3273 -13.3273 -13.2773 -13.2773  -0.4773  -0.4773   0.9040   0.9040
     4.3912   4.3912   5.2009   5.2009  10.2031  10.2031  10.8656  10.8656
    11.4593  11.4593  12.8398  12.8398

     occupation numbers 
     1.0000   1.0000   1.0000   1.0000   1.0000   1.0000   1.0000   1.0000
     1.0000   1.0000   1.0000   1.0000   1.0000   1.0000   1.0000   1.0000
     1.0000   1.0000   1.0000   1.0000   1.0000   1.0000   1.0000   1.0000
     1.0000   1.0000   1.0000   1.0000   0.0000   0.0000   0.0000   0.0000
     0.0000   0.0000   0.0000   0.0000

          k =-0.0000-0.3030 0.5556 (  2032 PWs)   bands (ev):

   -14.5576 -14.5576 -14.5243 -14.5243 -14.4880 -14.4880 -14.4412 -14.4412
   -13.5650 -13.5650 -13.5196 -13.5196 -13.4671 -13.4671 -13.4178 -13.4178
   -13.3278 -13.3278 -13.2801 -13.2801  -0.6469  -0.6469   1.0946   1.0946
     4.4404   4.4404   5.3035   5.3035  10.1869  10.1869  10.6419  10.6419
    11.2958  11.2958  13.2944  13.2944

     occupation numbers 
     1.0000   1.0000   1.0000   1.0000   1.0000   1.0000   1.0000   1.0000
     1.0000   1.0000   1.0000   1.0000   1.0000   1.0000   1.0000   1.0000
     1.0000   1.0000   1.0000   1.0000   1.0000   1.0000   1.0000   1.0000
     1.0000   1.0000   1.0000   1.0000   0.0000   0.0000   0.0000   0.0000
     0.0000   0.0000   0.0000   0.0000

          k =-0.1010-0.4546 0.7071 (  2026 PWs)   bands (ev):

   -14.5541 -14.5541 -14.5257 -14.5257 -14.4839 -14.4839 -14.4425 -14.4425
   -13.5628 -13.5628 -13.5176 -13.5176 -13.4628 -13.4628 -13.4236 -13.4236
   -13.3260 -13.3260 -13.2790 -13.2790  -0.4390  -0.4390   0.8598   0.8598
     4.5746   4.5746   5.0495   5.0495   9.9398   9.9398  10.1709  10.1709
    11.8057  11.8057  13.5016  13.5017

     occupation numbers 
     1.0000   1.0000   1.0000   1.0000   1.0000   1.0000   1.0000   1.0000
     1.0000   1.0000   1.0000   1.0000   1.0000   1.0000   1.0000   1.0000
     1.0000   1.0000   1.0000   1.0000   1.0000   1.0000   1.0000   1.0000
     1.0000   1.0000   1.0000   1.0000   0.0000   0.0000   0.0000   0.0000
     0.0000   0.0000   0.0000   0.0000

          k =-0.0758-0.4293 0.6819 (  2028 PWs)   bands (ev):

   -14.5550 -14.5550 -14.5249 -14.5249 -14.4856 -14.4856 -14.4411 -14.4411
   -13.5633 -13.5633 -13.5158 -13.5158 -13.4609 -13.4609 -13.4291 -13.4291
   -13.3259 -13.3259 -13.2768 -13.2768  -0.2682  -0.2682   0.6782   0.6782
     4.5102   4.5102   4.9699   4.9699  10.0634  10.0634  10.5307  10.5307
    11.7144  11.7144  13.0000  13.0000

     occupation numbers 
     1.0000   1.0000   1.0000   1.0000   1.0000   1.0000   1.0000   1.0000
     1.0000   1.0000   1.0000   1.0000   1.0000   1.0000   1.0000   1.0000
     1.0000   1.0000   1.0000   1.0000   1.0000   1.0000   1.0000   1.0000
     1.0000   1.0000   1.0000   1.0000   0.0000   0.0000   0.0000   0.0000
     0.0000   0.0000   0.0000   0.0000

          k =-0.0505-0.4041 0.6566 (  2025 PWs)   bands (ev):

   -14.5553 -14.5553 -14.5240 -14.5240 -14.4853 -14.4853 -14.4398 -14.4398
   -13.5630 -13.5630 -13.5144 -13.5144 -13.4589 -13.4589 -13.4307 -13.4307
   -13.3261 -13.3261 -13.2747 -13.2747  -0.1577  -0.1577   0.5646   0.5646
     4.4470   4.4470   4.9535   4.9535  10.1196  10.1196  10.9633  10.9633
    11.6757  11.6757  12.4712  12.4712

     occupation numbers 
     1.0000   1.0000   1.0000   1.0000   1.0000   1.0000   1.0000   1.0000
     1.0000   1.0000   1.0000   1.0000   1.0000   1.0000   1.0000   1.0000
     1.0000   1.0000   1.0000   1.0000   1.0000   1.0000   1.0000   1.0000
     1.0000   1.0000   1.0000   1.0000   0.0000   0.0000   0.0000   0.0000
     0.0000   0.0000   0.0000   0.0000

          k =-0.0253-0.3788 0.6313 (  2019 PWs)   bands (ev):

   -14.5547 -14.5547 -14.5227 -14.5227 -14.4849 -14.4849 -14.4388 -14.4388
   -13.5628 -13.5628 -13.5127 -13.5127 -13.4582 -13.4582 -13.4296 -13.4296
   -13.3255 -13.3255 -13.2734 -13.2734  -0.1751  -0.1751   0.5848   0.5848
     4.3966   4.3966   4.9945   4.9945  10.1728  10.1728  11.2302  11.2302
    11.7696  11.7696  12.0425  12.0425

     occupation numbers 
     1.0000   1.0000   1.0000   1.0000   1.0000   1.0000   1.0000   1.0000
     1.0000   1.0000   1.0000   1.0000   1.0000   1.0000   1.0000   1.0000
     1.0000   1.0000   1.0000   1.0000   1.0000   1.0000   1.0000   1.0000
     1.0000   1.0000   1.0000   1.0000   0.0000   0.0000   0.0000   0.0000
     0.0000   0.0000   0.0000   0.0000

          k = 0.0000-0.3536 0.6061 (  2025 PWs)   bands (ev):

   -14.5562 -14.5562 -14.5233 -14.5233 -14.4866 -14.4866 -14.4391 -14.4391
   -13.5636 -13.5636 -13.5148 -13.5148 -13.4616 -13.4616 -13.4272 -13.4272
   -13.3262 -13.3262 -13.2752 -13.2752  -0.3043  -0.3043   0.7212   0.7212
     4.3744   4.3744   5.0807   5.0807  10.2153  10.2153  11.1599  11.1599
    11.5547  11.5547  12.3382  12.3382

     occupation numbers 
     1.0000   1.0000   1.0000   1.0000   1.0000   1.0000   1.0000   1.0000
     1.0000   1.0000   1.0000   1.0000   1.0000   1.0000   1.0000   1.0000
     1.0000   1.0000   1.0000   1.0000   1.0000   1.0000   1.0000   1.0000
     1.0000   1.0000   1.0000   1.0000   0.0000   0.0000   0.0000   0.0000
     0.0000   0.0000   0.0000   0.0000

          k =-0.0505-0.4546 0.7071 (  2030 PWs)   bands (ev):

   -14.5549 -14.5549 -14.5264 -14.5264 -14.4843 -14.4843 -14.4423 -14.4423
   -13.5630 -13.5630 -13.5173 -13.5173 -13.4573 -13.4573 -13.4336 -13.4336
   -13.3245 -13.3245 -13.2775 -13.2775  -0.1287  -0.1287   0.5246   0.5246
     4.6017   4.6017   4.8789   4.8789   9.9338   9.9338  10.1281  10.1281
    12.2013  12.2013  13.0974  13.0974

     occupation numbers 
     1.0000   1.0000   1.0000   1.0000   1.0000   1.0000   1.0000   1.0000
     1.0000   1.0000   1.0000   1.0000   1.0000   1.0000   1.0000   1.0000
     1.0000   1.0000   1.0000   1.0000   1.0000   1.0000   1.0000   1.0000
     1.0000   1.0000   1.0000   1.0000   0.0000   0.0000   0.0000   0.0000
     0.0000   0.0000   0.0000   0.0000

          k =-0.0253-0.4293 0.6819 (  2027 PWs)   bands (ev):

   -14.5546 -14.5546 -14.5247 -14.5247 -14.4850 -14.4850 -14.4409 -14.4409
   -13.5631 -13.5631 -13.5144 -13.5144 -13.4554 -13.4554 -13.4367 -13.4367
   -13.3250 -13.3250 -13.2752 -13.2752   0.0139   0.0139   0.3841   0.3841
     4.5422   4.5422   4.8390   4.8390  10.0560  10.0560  10.5255  10.5255
    12.1026  12.1026  12.5547  12.5547

     occupation numbers 
     1.0000   1.0000   1.0000   1.0000   1.0000   1.0000   1.0000   1.0000
     1.0000   1.0000   1.0000   1.0000   1.0000   1.0000   1.0000   1.0000
     1.0000   1.0000   1.0000   1.0000   1.0000   1.0000   1.0000   1.0000
     1.0000   1.0000   1.0000   1.0000   0.0000   0.0000   0.0000   0.0000
     0.0000   0.0000   0.0000   0.0000

          k = 0.0000-0.4041 0.6566 (  2020 PWs)   bands (ev):

   -14.5543 -14.5543 -14.5232 -14.5232 -14.4846 -14.4846 -14.4390 -14.4390
   -13.5624 -13.5624 -13.5125 -13.5125 -13.4556 -13.4556 -13.4341 -13.4341
   -13.3250 -13.3250 -13.2731 -13.2731  -0.0178  -0.0178   0.4214   0.4214
     4.4583   4.4583   4.8910   4.8910  10.1197  10.1197  10.9934  10.9934
    12.0041  12.0041  12.0709  12.0709

     occupation numbers 
     1.0000   1.0000   1.0000   1.0000   1.0000   1.0000   1.0000   1.0000
     1.0000   1.0000   1.0000   1.0000   1.0000   1.0000   1.0000   1.0000
     1.0000   1.0000   1.0000   1.0000   1.0000   1.0000   1.0000   1.0000
     1.0000   1.0000   1.0000   1.0000   0.0000   0.0000   0.0000   0.0000
     0.0000   0.0000   0.0000   0.0000

          k =-0.7071 0.2525-0.0000 (  2030 PWs)   bands (ev):

   -14.5541 -14.5541 -14.5263 -14.5263 -14.4839 -14.4839 -14.4426 -14.4426
   -13.5626 -13.5626 -13.5161 -13.5161 -13.4538 -13.4538 -13.4386 -13.4386
   -13.3251 -13.3251 -13.2769 -13.2769   0.1716   0.1716   0.2161   0.2161
     4.6336   4.6336   4.7988   4.7988   9.9338   9.9338  10.1088  10.1088
    12.5821  12.5821  12.7066  12.7066

     occupation numbers 
     1.0000   1.0000   1.0000   1.0000   1.0000   1.0000   1.0000   1.0000
     1.0000   1.0000   1.0000   1.0000   1.0000   1.0000   1.0000   1.0000
     1.0000   1.0000   1.0000   1.0000   1.0000   1.0000   1.0000   1.0000
     1.0000   1.0000   1.0000   1.0000   0.0000   0.0000   0.0000   0.0000
     0.0000   0.0000   0.0000   0.0000

          k =-0.1010-0.4041 0.7071 (  2035 PWs)   bands (ev):

   -14.5574 -14.5574 -14.5255 -14.5255 -14.4876 -14.4876 -14.4413 -14.4413
   -13.5647 -13.5647 -13.5173 -13.5173 -13.4642 -13.4642 -13.4266 -13.4266
   -13.3274 -13.3274 -13.2773 -13.2773  -0.3736  -0.3736   0.7954   0.7954
     4.4538   4.4538   5.0486   5.0486  10.3649  10.3649  10.6435  10.6435
    11.3715  11.3715  12.9150  12.9150

     occupation numbers 
     1.0000   1.0000   1.0000   1.0000   1.0000   1.0000   1.0000   1.0000
     1.0000   1.0000   1.0000   1.0000   1.0000   1.0000   1.0000   1.0000
     1.0000   1.0000   1.0000   1.0000   1.0000   1.0000   1.0000   1.0000
     1.0000   1.0000   1.0000   1.0000   0.0000   0.0000   0.0000   0.0000
     0.0000   0.0000   0.0000   0.0000

          k =-0.0758-0.3788 0.6819 (  2026 PWs)   bands (ev):

   -14.5557 -14.5557 -14.5238 -14.5238 -14.4861 -14.4861 -14.4398 -14.4398
   -13.5636 -13.5636 -13.5139 -13.5139 -13.4604 -13.4604 -13.4296 -13.4296
   -13.3267 -13.3267 -13.2747 -13.2747  -0.2205  -0.2205   0.6343   0.6343
     4.4319   4.4319   4.9635   4.9635  10.4399  10.4399  10.9128  10.9128
    11.4558  11.4558  12.3923  12.3923

     occupation numbers 
     1.0000   1.0000   1.0000   1.0000   1.0000   1.0000   1.0000   1.0000
     1.0000   1.0000   1.0000   1.0000   1.0000   1.0000   1.0000   1.0000
     1.0000   1.0000   1.0000   1.0000   1.0000   1.0000   1.0000   1.0000
     1.0000   1.0000   1.0000   1.0000   0.0000   0.0000   0.0000   0.0000
     0.0000   0.0000   0.0000   0.0000

          k =-0.0505-0.3536 0.6566 (  2020 PWs)   bands (ev):

   -14.5550 -14.5550 -14.5228 -14.5228 -14.4850 -14.4850 -14.4388 -14.4388
   -13.5628 -13.5628 -13.5126 -13.5126 -13.4579 -13.4579 -13.4305 -13.4305
   -13.3260 -13.3260 -13.2731 -13.2731  -0.1532  -0.1532   0.5642   0.5642
     4.4261   4.4261   4.9332   4.9332  10.4524  10.4524  11.0028  11.0028
    11.6949  11.6949  12.0158  12.0158

     occupation numbers 
     1.0000   1.0000   1.0000   1.0000   1.0000   1.0000   1.0000   1.0000
     1.0000   1.0000   1.0000   1.0000   1.0000   1.0000   1.0000   1.0000
     1.0000   1.0000   1.0000   1.0000   1.0000   1.0000   1.0000   1.0000
     1.0000   1.0000   1.0000   1.0000   0.0000   0.0000   0.0000   0.0000
     0.0000   0.0000   0.0000   0.0000

          k =-0.0505-0.4041 0.7071 (  2026 PWs)   bands (ev):

   -14.5541 -14.5541 -14.5244 -14.5244 -14.4854 -14.4854 -14.4407 -14.4407
   -13.5632 -13.5632 -13.5134 -13.5134 -13.4579 -13.4579 -13.4330 -13.4330
   -13.3266 -13.3266 -13.2746 -13.2746  -0.0903  -0.0903   0.4980   0.4980
     4.5096   4.5096   4.8440   4.8440  10.4244  10.4244  10.6571  10.6571
    11.6307  11.6307  12.4621  12.4621

     occupation numbers 
     1.0000   1.0000   1.0000   1.0000   1.0000   1.0000   1.0000   1.0000
     1.0000   1.0000   1.0000   1.0000   1.0000   1.0000   1.0000   1.0000
     1.0000   1.0000   1.0000   1.0000   1.0000   1.0000   1.0000   1.0000
     1.0000   1.0000   1.0000   1.0000   0.0000   0.0000   0.0000   0.0000
     0.0000   0.0000   0.0000   0.0000

          k =-0.0253-0.3788 0.6819 (  2016 PWs)   bands (ev):

   -14.5535 -14.5535 -14.5228 -14.5228 -14.4839 -14.4839 -14.4385 -14.4385
   -13.5623 -13.5623 -13.5111 -13.5111 -13.4546 -13.4546 -13.4341 -13.4341
   -13.3251 -13.3251 -13.2719 -13.2719   0.0211   0.0211   0.3871   0.3871
     4.4973   4.4973   4.7974   4.7974  10.5334  10.5334  11.0007  11.0007
    11.6124  11.6124  11.9587  11.9587

     occupation numbers 
     1.0000   1.0000   1.0000   1.0000   1.0000   1.0000   1.0000   1.0000
     1.0000   1.0000   1.0000   1.0000   1.0000   1.0000   1.0000   1.0000
     1.0000   1.0000   1.0000   1.0000   1.0000   1.0000   1.0000   1.0000
     1.0000   1.0000   1.0000   1.0000   0.0000   0.0000   0.0000   0.0000
     0.0000   0.0000   0.0000   0.0000

          k = 0.0000-0.3536 0.6566 (  2016 PWs)   bands (ev):

   -14.5536 -14.5536 -14.5225 -14.5225 -14.4843 -14.4843 -14.4384 -14.4384
   -13.5624 -13.5624 -13.5110 -13.5110 -13.4557 -13.4557 -13.4330 -13.4330
   -13.3254 -13.3254 -13.2720 -13.2720  -0.0527  -0.0527   0.4632   0.4632
     4.4602   4.4602   4.8482   4.8482  10.5536  10.5536  11.1087  11.1087
    11.5333  11.5333  11.9193  11.9193

     occupation numbers 
     1.0000   1.0000   1.0000   1.0000   1.0000   1.0000   1.0000   1.0000
     1.0000   1.0000   1.0000   1.0000   1.0000   1.0000   1.0000   1.0000
     1.0000   1.0000   1.0000   1.0000   1.0000   1.0000   1.0000   1.0000
     1.0000   1.0000   1.0000   1.0000   0.0000   0.0000   0.0000   0.0000
     0.0000   0.0000   0.0000   0.0000

          k =-0.7071 0.3030 0.0000 (  2016 PWs)   bands (ev):

   -14.5531 -14.5531 -14.5234 -14.5234 -14.4833 -14.4833 -14.4389 -14.4389
   -13.5619 -13.5619 -13.5115 -13.5115 -13.4528 -13.4528 -13.4362 -13.4362
   -13.3245 -13.3245 -13.2722 -13.2722   0.1773   0.1773   0.2258   0.2258
     4.5650   4.5650   4.7384   4.7384  10.4354  10.4354  10.6590  10.6590
    11.9806  11.9806  12.0546  12.0546

     occupation numbers 
     1.0000   1.0000   1.0000   1.0000   1.0000   1.0000   1.0000   1.0000
     1.0000   1.0000   1.0000   1.0000   1.0000   1.0000   1.0000   1.0000
     1.0000   1.0000   1.0000   1.0000   1.0000   1.0000   1.0000   1.0000
     1.0000   1.0000   1.0000   1.0000   0.0000   0.0000   0.0000   0.0000
     0.0000   0.0000   0.0000   0.0000

          k =-0.7071 0.3536 0.0000 (  1984 PWs)   bands (ev):

   -14.5479 -14.5479 -14.5172 -14.5172 -14.4791 -14.4791 -14.4336 -14.4336
   -13.5575 -13.5575 -13.5058 -13.5058 -13.4475 -13.4475 -13.4321 -13.4321
   -13.3202 -13.3202 -13.2679 -13.2679   0.1794   0.1794   0.2293   0.2293
     4.5413   4.5413   4.7174   4.7174  10.7422  10.7422  11.0608  11.0608
    11.6185  11.6185  11.6401  11.6401

     occupation numbers 
     1.0000   1.0000   1.0000   1.0000   1.0000   1.0000   1.0000   1.0000
     1.0000   1.0000   1.0000   1.0000   1.0000   1.0000   1.0000   1.0000
     1.0000   1.0000   1.0000   1.0000   1.0000   1.0000   1.0000   1.0000
     1.0000   1.0000   1.0000   1.0000   0.0000   0.0000   0.0000   0.0000
     0.0000   0.0000   0.0000   0.0000

     the Fermi energy is     7.6688 ev

!    total energy              =    -885.82839798 Ry
     Harris-Foulkes estimate   =    -885.82839787 Ry
     estimated scf accuracy    <       0.00000010 Ry

     total all-electron energy =    -24716.528148 Ry

     The total energy is the sum of the following terms:

     one-electron contribution =    -148.92409332 Ry
     hartree contribution      =      93.71318151 Ry
     xc contribution           =     -96.16593882 Ry
     ewald contribution        =    -170.59904351 Ry
     one-center paw contrib.   =    -563.85250384 Ry
     smearing contrib. (-TS)   =      -0.00000001 Ry

     convergence has been achieved in   5 iterations

     Writing output data file Sn.save
 
     init_run     :     18.93s CPU     19.75s WALL (       1 calls)
     electrons    :    427.42s CPU    442.49s WALL (       1 calls)

     Called by init_run:
     wfcinit      :     18.36s CPU     19.02s WALL (       1 calls)
     potinit      :      0.28s CPU      0.30s WALL (       1 calls)

     Called by electrons:
     c_bands      :    360.10s CPU    372.99s WALL (       6 calls)
     sum_band     :     65.61s CPU     67.58s WALL (       6 calls)
     v_of_rho     :      0.03s CPU      0.03s WALL (       6 calls)
     v_h          :      0.00s CPU      0.00s WALL (       6 calls)
     v_xc         :      0.03s CPU      0.03s WALL (       6 calls)
     newd         :      0.33s CPU      0.36s WALL (       6 calls)
     PAW_pot      :      1.61s CPU      1.70s WALL (       6 calls)
     mix_rho      :      0.01s CPU      0.02s WALL (       6 calls)

     Called by c_bands:
     init_us_2    :      0.93s CPU      1.14s WALL (    8112 calls)
     cegterg      :    342.21s CPU    354.20s WALL (    3744 calls)

     Called by sum_band:
     sum_band:bec :     12.67s CPU     12.80s WALL (    3744 calls)
     addusdens    :      0.16s CPU      0.20s WALL (       6 calls)

     Called by *egterg:
     h_psi        :    251.04s CPU    258.46s WALL (   13274 calls)
     s_psi        :     11.60s CPU     11.70s WALL (   13274 calls)
     g_psi        :      0.80s CPU      0.81s WALL (    8906 calls)
     cdiaghg      :     50.31s CPU     51.12s WALL (   12026 calls)
     cegterg:over :     18.50s CPU     18.61s WALL (    8906 calls)
     cegterg:upda :      7.29s CPU      7.33s WALL (    8906 calls)
     cegterg:last :      4.06s CPU      4.09s WALL (    3744 calls)

     Called by h_psi:
     h_psi:vloc   :    222.42s CPU    229.52s WALL (   13274 calls)
     h_psi:vnl    :     27.91s CPU     28.19s WALL (   13274 calls)
     add_vuspsi   :     13.15s CPU     13.22s WALL (   13274 calls)

     General routines
     calbec       :     19.68s CPU     20.02s WALL (   17018 calls)
     fft          :      0.04s CPU      0.04s WALL (     116 calls)
     fftw         :    249.35s CPU    257.52s WALL ( 1701436 calls)
     davcio       :      0.11s CPU      0.69s WALL (     624 calls)
 
     Parallel routines
     fft_scatter  :    150.59s CPU    156.52s WALL ( 1701552 calls)

     PAW routines
     PAW_pot      :      1.61s CPU      1.70s WALL (       6 calls)
     PAW_symme    :      0.04s CPU      0.04s WALL (      12 calls)
 
     PWSCF        :  7m28.63s CPU     7m45.39s WALL

 
   This run was terminated on:  23: 4:22   8Mar2020            

=------------------------------------------------------------------------------=
   JOB DONE.
=------------------------------------------------------------------------------=
