
     Program PWSCF v.5.4.0 starts on  1Mar2020 at 12:48:57 

     This program is part of the open-source Quantum ESPRESSO suite
     for quantum simulation of materials; please cite
         "P. Giannozzi et al., J. Phys.:Condens. Matter 21 395502 (2009);
          URL http://www.quantum-espresso.org", 
     in publications or presentations arising from this work. More details at
     http://www.quantum-espresso.org/quote

     Parallel version (MPI & OpenMP), running on      16 processor cores
     Number of MPI processes:                16
     Threads/MPI process:                     1
     R & G space division:  proc/nbgrp/npool/nimage =      16
     Waiting for input...
     Reading input from standard input
Warning: card &IONS ignored
Warning: card / ignored
Warning: card &CELL ignored
Warning: card / ignored

     Current dimensions of program PWSCF are:
     Max number of different atomic species (ntypx) = 10
     Max number of k-points (npk) =  40000
     Max angular momentum in pseudopotentials (lmaxx) =  3

     Subspace diagonalization in iterative solution of the eigenvalue problem:
     a serial algorithm will be used

 
     Parallelization info
     --------------------
     sticks:   dense  smooth     PW     G-vecs:    dense   smooth      PW
     Min         138     138     39                 4245     4245     650
     Max         139     139     40                 4247     4247     652
     Sum        2209    2209    637                67937    67937   10417
 

     Title: 
     Sn                                                                         


     bravais-lattice index     =            0
     lattice parameter (alat)  =       8.9261  a.u.
     unit-cell volume          =     502.8819 (a.u.)^3
     number of atoms/cell      =            2
     number of atomic types    =            1
     number of electrons       =        28.00
     number of Kohn-Sham states=           18
     kinetic-energy cutoff     =     100.0000  Ry
     charge density cutoff     =     400.0000  Ry
     convergence threshold     =      1.0E-06
     mixing beta               =       0.7000
     number of iterations used =            8  plain     mixing
     Exchange-correlation      = PBE ( 1  4  3  4 0 0)

     celldm(1)=   8.926071  celldm(2)=   0.000000  celldm(3)=   0.000000
     celldm(4)=   0.000000  celldm(5)=   0.000000  celldm(6)=   0.000000

     crystal axes: (cart. coord. in units of alat)
               a(1) = (   0.000000   0.707107   0.707107 )  
               a(2) = (   0.707107   0.000000   0.707107 )  
               a(3) = (   0.707107   0.707107   0.000000 )  

     reciprocal axes: (cart. coord. in units 2 pi/alat)
               b(1) = ( -0.707107  0.707107  0.707107 )  
               b(2) = (  0.707107 -0.707107  0.707107 )  
               b(3) = (  0.707107  0.707107 -0.707107 )  


     PseudoPot. # 1 for Sn read from file:
     ../PseudopotentialDatabase/Sn_ONCV_PBE_FR-1.1.upf
     MD5 check sum: 6dd2180f739ea5ae1610ead5e1628a0e
     Pseudo is Norm-conserving, Zval = 14.0
     Generated using ONCVPSP code by D. R. Hamann
     Using radial grid of  602 points,  6 beta functions with: 
                l(1) =   0
                l(2) =   0
                l(3) =   1
                l(4) =   1
                l(5) =   2
                l(6) =   2

     atomic species   valence    mass     pseudopotential
        Sn            14.00   118.71000     Sn( 1.00)

     48 Sym. Ops., with inversion, found (24 have fractional translation)


                                    s                        frac. trans.

      isym =  1     identity                                     

 cryst.   s( 1) = (     1          0          0      )
                  (     0          1          0      )
                  (     0          0          1      )

 cart.    s( 1) = (  1.0000000  0.0000000  0.0000000 )
                  (  0.0000000  1.0000000  0.0000000 )
                  (  0.0000000  0.0000000  1.0000000 )


      isym =  2     180 deg rotation - cart. axis [0,0,1]        

 cryst.   s( 2) = (     0          1         -1      )
                  (     1          0         -1      )
                  (     0          0         -1      )

 cart.    s( 2) = ( -1.0000000  0.0000000  0.0000000 )
                  (  0.0000000 -1.0000000  0.0000000 )
                  (  0.0000000  0.0000000  1.0000000 )


      isym =  3     180 deg rotation - cart. axis [0,1,0]        

 cryst.   s( 3) = (     0         -1          1      )
                  (     0         -1          0      )
                  (     1         -1          0      )

 cart.    s( 3) = ( -1.0000000  0.0000000  0.0000000 )
                  (  0.0000000  1.0000000  0.0000000 )
                  (  0.0000000  0.0000000 -1.0000000 )


      isym =  4     180 deg rotation - cart. axis [1,0,0]        

 cryst.   s( 4) = (    -1          0          0      )
                  (    -1          0          1      )
                  (    -1          1          0      )

 cart.    s( 4) = (  1.0000000  0.0000000  0.0000000 )
                  (  0.0000000 -1.0000000  0.0000000 )
                  (  0.0000000  0.0000000 -1.0000000 )


      isym =  5     180 deg rotation - cart. axis [1,1,0]        

 cryst.   s( 5) = (    -1          0          1      )    f =( -0.2500000 )
                  (     0         -1          1      )       ( -0.2500000 )
                  (     0          0          1      )       ( -0.2500000 )

 cart.    s( 5) = (  0.0000000  1.0000000  0.0000000 )    f =( -0.3535534 )
                  (  1.0000000  0.0000000  0.0000000 )       ( -0.3535534 )
                  (  0.0000000  0.0000000 -1.0000000 )       ( -0.3535534 )


      isym =  6     180 deg rotation - cart. axis [1,-1,0]       

 cryst.   s( 6) = (     0         -1          0      )    f =( -0.2500000 )
                  (    -1          0          0      )       ( -0.2500000 )
                  (     0          0         -1      )       ( -0.2500000 )

 cart.    s( 6) = (  0.0000000 -1.0000000  0.0000000 )    f =( -0.3535534 )
                  ( -1.0000000  0.0000000  0.0000000 )       ( -0.3535534 )
                  (  0.0000000  0.0000000 -1.0000000 )       ( -0.3535534 )


      isym =  7      90 deg rotation - cart. axis [0,0,-1]       

 cryst.   s( 7) = (     0          1          0      )    f =( -0.2500000 )
                  (     0          1         -1      )       ( -0.2500000 )
                  (    -1          1          0      )       ( -0.2500000 )

 cart.    s( 7) = (  0.0000000  1.0000000  0.0000000 )    f =( -0.3535534 )
                  ( -1.0000000  0.0000000  0.0000000 )       ( -0.3535534 )
                  (  0.0000000  0.0000000  1.0000000 )       ( -0.3535534 )


      isym =  8      90 deg rotation - cart. axis [0,0,1]        

 cryst.   s( 8) = (     1          0         -1      )    f =( -0.2500000 )
                  (     1          0          0      )       ( -0.2500000 )
                  (     1         -1          0      )       ( -0.2500000 )

 cart.    s( 8) = (  0.0000000 -1.0000000  0.0000000 )    f =( -0.3535534 )
                  (  1.0000000  0.0000000  0.0000000 )       ( -0.3535534 )
                  (  0.0000000  0.0000000  1.0000000 )       ( -0.3535534 )


      isym =  9     180 deg rotation - cart. axis [1,0,1]        

 cryst.   s( 9) = (    -1          1          0      )    f =( -0.2500000 )
                  (     0          1          0      )       ( -0.2500000 )
                  (     0          1         -1      )       ( -0.2500000 )

 cart.    s( 9) = (  0.0000000  0.0000000  1.0000000 )    f =( -0.3535534 )
                  (  0.0000000 -1.0000000  0.0000000 )       ( -0.3535534 )
                  (  1.0000000  0.0000000  0.0000000 )       ( -0.3535534 )


      isym = 10     180 deg rotation - cart. axis [-1,0,1]       

 cryst.   s(10) = (     0          0         -1      )    f =( -0.2500000 )
                  (     0         -1          0      )       ( -0.2500000 )
                  (    -1          0          0      )       ( -0.2500000 )

 cart.    s(10) = (  0.0000000  0.0000000 -1.0000000 )    f =( -0.3535534 )
                  (  0.0000000 -1.0000000  0.0000000 )       ( -0.3535534 )
                  ( -1.0000000  0.0000000  0.0000000 )       ( -0.3535534 )


      isym = 11      90 deg rotation - cart. axis [0,1,0]        

 cryst.   s(11) = (     0          0          1      )    f =( -0.2500000 )
                  (    -1          0          1      )       ( -0.2500000 )
                  (     0         -1          1      )       ( -0.2500000 )

 cart.    s(11) = (  0.0000000  0.0000000  1.0000000 )    f =( -0.3535534 )
                  (  0.0000000  1.0000000  0.0000000 )       ( -0.3535534 )
                  ( -1.0000000  0.0000000  0.0000000 )       ( -0.3535534 )


      isym = 12      90 deg rotation - cart. axis [0,-1,0]       

 cryst.   s(12) = (     1         -1          0      )    f =( -0.2500000 )
                  (     1          0         -1      )       ( -0.2500000 )
                  (     1          0          0      )       ( -0.2500000 )

 cart.    s(12) = (  0.0000000  0.0000000 -1.0000000 )    f =( -0.3535534 )
                  (  0.0000000  1.0000000  0.0000000 )       ( -0.3535534 )
                  (  1.0000000  0.0000000  0.0000000 )       ( -0.3535534 )


      isym = 13     180 deg rotation - cart. axis [0,1,1]        

 cryst.   s(13) = (     1          0          0      )    f =( -0.2500000 )
                  (     1         -1          0      )       ( -0.2500000 )
                  (     1          0         -1      )       ( -0.2500000 )

 cart.    s(13) = ( -1.0000000  0.0000000  0.0000000 )    f =( -0.3535534 )
                  (  0.0000000  0.0000000  1.0000000 )       ( -0.3535534 )
                  (  0.0000000  1.0000000  0.0000000 )       ( -0.3535534 )


      isym = 14     180 deg rotation - cart. axis [0,1,-1]       

 cryst.   s(14) = (    -1          0          0      )    f =( -0.2500000 )
                  (     0          0         -1      )       ( -0.2500000 )
                  (     0         -1          0      )       ( -0.2500000 )

 cart.    s(14) = ( -1.0000000  0.0000000  0.0000000 )    f =( -0.3535534 )
                  (  0.0000000  0.0000000 -1.0000000 )       ( -0.3535534 )
                  (  0.0000000 -1.0000000  0.0000000 )       ( -0.3535534 )


      isym = 15      90 deg rotation - cart. axis [-1,0,0]       

 cryst.   s(15) = (     0         -1          1      )    f =( -0.2500000 )
                  (     0          0          1      )       ( -0.2500000 )
                  (    -1          0          1      )       ( -0.2500000 )

 cart.    s(15) = (  1.0000000  0.0000000  0.0000000 )    f =( -0.3535534 )
                  (  0.0000000  0.0000000  1.0000000 )       ( -0.3535534 )
                  (  0.0000000 -1.0000000  0.0000000 )       ( -0.3535534 )


      isym = 16      90 deg rotation - cart. axis [1,0,0]        

 cryst.   s(16) = (     0          1         -1      )    f =( -0.2500000 )
                  (    -1          1          0      )       ( -0.2500000 )
                  (     0          1          0      )       ( -0.2500000 )

 cart.    s(16) = (  1.0000000  0.0000000  0.0000000 )    f =( -0.3535534 )
                  (  0.0000000  0.0000000 -1.0000000 )       ( -0.3535534 )
                  (  0.0000000  1.0000000  0.0000000 )       ( -0.3535534 )


      isym = 17     120 deg rotation - cart. axis [-1,-1,-1]     

 cryst.   s(17) = (     0          0          1      )
                  (     1          0          0      )
                  (     0          1          0      )

 cart.    s(17) = (  0.0000000  1.0000000  0.0000000 )
                  (  0.0000000  0.0000000  1.0000000 )
                  (  1.0000000  0.0000000  0.0000000 )


      isym = 18     120 deg rotation - cart. axis [-1,1,1]       

 cryst.   s(18) = (     1         -1          0      )
                  (     0         -1          1      )
                  (     0         -1          0      )

 cart.    s(18) = (  0.0000000 -1.0000000  0.0000000 )
                  (  0.0000000  0.0000000  1.0000000 )
                  ( -1.0000000  0.0000000  0.0000000 )


      isym = 19     120 deg rotation - cart. axis [1,1,-1]       

 cryst.   s(19) = (    -1          1          0      )
                  (    -1          0          0      )
                  (    -1          0          1      )

 cart.    s(19) = (  0.0000000  1.0000000  0.0000000 )
                  (  0.0000000  0.0000000 -1.0000000 )
                  ( -1.0000000  0.0000000  0.0000000 )


      isym = 20     120 deg rotation - cart. axis [1,-1,1]       

 cryst.   s(20) = (     0          0         -1      )
                  (     0          1         -1      )
                  (     1          0         -1      )

 cart.    s(20) = (  0.0000000 -1.0000000  0.0000000 )
                  (  0.0000000  0.0000000 -1.0000000 )
                  (  1.0000000  0.0000000  0.0000000 )


      isym = 21     120 deg rotation - cart. axis [1,1,1]        

 cryst.   s(21) = (     0          1          0      )
                  (     0          0          1      )
                  (     1          0          0      )

 cart.    s(21) = (  0.0000000  0.0000000  1.0000000 )
                  (  1.0000000  0.0000000  0.0000000 )
                  (  0.0000000  1.0000000  0.0000000 )


      isym = 22     120 deg rotation - cart. axis [-1,1,-1]      

 cryst.   s(22) = (    -1          0          1      )
                  (    -1          1          0      )
                  (    -1          0          0      )

 cart.    s(22) = (  0.0000000  0.0000000  1.0000000 )
                  ( -1.0000000  0.0000000  0.0000000 )
                  (  0.0000000 -1.0000000  0.0000000 )


      isym = 23     120 deg rotation - cart. axis [1,-1,-1]      

 cryst.   s(23) = (     1          0         -1      )
                  (     0          0         -1      )
                  (     0          1         -1      )

 cart.    s(23) = (  0.0000000  0.0000000 -1.0000000 )
                  ( -1.0000000  0.0000000  0.0000000 )
                  (  0.0000000  1.0000000  0.0000000 )


      isym = 24     120 deg rotation - cart. axis [-1,-1,1]      

 cryst.   s(24) = (     0         -1          0      )
                  (     1         -1          0      )
                  (     0         -1          1      )

 cart.    s(24) = (  0.0000000  0.0000000 -1.0000000 )
                  (  1.0000000  0.0000000  0.0000000 )
                  (  0.0000000 -1.0000000  0.0000000 )


      isym = 25     inversion                                    

 cryst.   s(25) = (    -1          0          0      )    f =( -0.2500000 )
                  (     0         -1          0      )       ( -0.2500000 )
                  (     0          0         -1      )       ( -0.2500000 )

 cart.    s(25) = ( -1.0000000  0.0000000  0.0000000 )    f =( -0.3535534 )
                  (  0.0000000 -1.0000000  0.0000000 )       ( -0.3535534 )
                  (  0.0000000  0.0000000 -1.0000000 )       ( -0.3535534 )


      isym = 26     inv. 180 deg rotation - cart. axis [0,0,1]   

 cryst.   s(26) = (     0         -1          1      )    f =( -0.2500000 )
                  (    -1          0          1      )       ( -0.2500000 )
                  (     0          0          1      )       ( -0.2500000 )

 cart.    s(26) = (  1.0000000  0.0000000  0.0000000 )    f =( -0.3535534 )
                  (  0.0000000  1.0000000  0.0000000 )       ( -0.3535534 )
                  (  0.0000000  0.0000000 -1.0000000 )       ( -0.3535534 )


      isym = 27     inv. 180 deg rotation - cart. axis [0,1,0]   

 cryst.   s(27) = (     0          1         -1      )    f =( -0.2500000 )
                  (     0          1          0      )       ( -0.2500000 )
                  (    -1          1          0      )       ( -0.2500000 )

 cart.    s(27) = (  1.0000000  0.0000000  0.0000000 )    f =( -0.3535534 )
                  (  0.0000000 -1.0000000  0.0000000 )       ( -0.3535534 )
                  (  0.0000000  0.0000000  1.0000000 )       ( -0.3535534 )


      isym = 28     inv. 180 deg rotation - cart. axis [1,0,0]   

 cryst.   s(28) = (     1          0          0      )    f =( -0.2500000 )
                  (     1          0         -1      )       ( -0.2500000 )
                  (     1         -1          0      )       ( -0.2500000 )

 cart.    s(28) = ( -1.0000000  0.0000000  0.0000000 )    f =( -0.3535534 )
                  (  0.0000000  1.0000000  0.0000000 )       ( -0.3535534 )
                  (  0.0000000  0.0000000  1.0000000 )       ( -0.3535534 )


      isym = 29     inv. 180 deg rotation - cart. axis [1,1,0]   

 cryst.   s(29) = (     1          0         -1      )
                  (     0          1         -1      )
                  (     0          0         -1      )

 cart.    s(29) = (  0.0000000 -1.0000000  0.0000000 )
                  ( -1.0000000  0.0000000  0.0000000 )
                  (  0.0000000  0.0000000  1.0000000 )


      isym = 30     inv. 180 deg rotation - cart. axis [1,-1,0]  

 cryst.   s(30) = (     0          1          0      )
                  (     1          0          0      )
                  (     0          0          1      )

 cart.    s(30) = (  0.0000000  1.0000000  0.0000000 )
                  (  1.0000000  0.0000000  0.0000000 )
                  (  0.0000000  0.0000000  1.0000000 )


      isym = 31     inv.  90 deg rotation - cart. axis [0,0,-1]  

 cryst.   s(31) = (     0         -1          0      )
                  (     0         -1          1      )
                  (     1         -1          0      )

 cart.    s(31) = (  0.0000000 -1.0000000  0.0000000 )
                  (  1.0000000  0.0000000  0.0000000 )
                  (  0.0000000  0.0000000 -1.0000000 )


      isym = 32     inv.  90 deg rotation - cart. axis [0,0,1]   

 cryst.   s(32) = (    -1          0          1      )
                  (    -1          0          0      )
                  (    -1          1          0      )

 cart.    s(32) = (  0.0000000  1.0000000  0.0000000 )
                  ( -1.0000000  0.0000000  0.0000000 )
                  (  0.0000000  0.0000000 -1.0000000 )


      isym = 33     inv. 180 deg rotation - cart. axis [1,0,1]   

 cryst.   s(33) = (     1         -1          0      )
                  (     0         -1          0      )
                  (     0         -1          1      )

 cart.    s(33) = (  0.0000000  0.0000000 -1.0000000 )
                  (  0.0000000  1.0000000  0.0000000 )
                  ( -1.0000000  0.0000000  0.0000000 )


      isym = 34     inv. 180 deg rotation - cart. axis [-1,0,1]  

 cryst.   s(34) = (     0          0          1      )
                  (     0          1          0      )
                  (     1          0          0      )

 cart.    s(34) = (  0.0000000  0.0000000  1.0000000 )
                  (  0.0000000  1.0000000  0.0000000 )
                  (  1.0000000  0.0000000  0.0000000 )


      isym = 35     inv.  90 deg rotation - cart. axis [0,1,0]   

 cryst.   s(35) = (     0          0         -1      )
                  (     1          0         -1      )
                  (     0          1         -1      )

 cart.    s(35) = (  0.0000000  0.0000000 -1.0000000 )
                  (  0.0000000 -1.0000000  0.0000000 )
                  (  1.0000000  0.0000000  0.0000000 )


      isym = 36     inv.  90 deg rotation - cart. axis [0,-1,0]  

 cryst.   s(36) = (    -1          1          0      )
                  (    -1          0          1      )
                  (    -1          0          0      )

 cart.    s(36) = (  0.0000000  0.0000000  1.0000000 )
                  (  0.0000000 -1.0000000  0.0000000 )
                  ( -1.0000000  0.0000000  0.0000000 )


      isym = 37     inv. 180 deg rotation - cart. axis [0,1,1]   

 cryst.   s(37) = (    -1          0          0      )
                  (    -1          1          0      )
                  (    -1          0          1      )

 cart.    s(37) = (  1.0000000  0.0000000  0.0000000 )
                  (  0.0000000  0.0000000 -1.0000000 )
                  (  0.0000000 -1.0000000  0.0000000 )


      isym = 38     inv. 180 deg rotation - cart. axis [0,1,-1]  

 cryst.   s(38) = (     1          0          0      )
                  (     0          0          1      )
                  (     0          1          0      )

 cart.    s(38) = (  1.0000000  0.0000000  0.0000000 )
                  (  0.0000000  0.0000000  1.0000000 )
                  (  0.0000000  1.0000000  0.0000000 )


      isym = 39     inv.  90 deg rotation - cart. axis [-1,0,0]  

 cryst.   s(39) = (     0          1         -1      )
                  (     0          0         -1      )
                  (     1          0         -1      )

 cart.    s(39) = ( -1.0000000  0.0000000  0.0000000 )
                  (  0.0000000  0.0000000 -1.0000000 )
                  (  0.0000000  1.0000000  0.0000000 )


      isym = 40     inv.  90 deg rotation - cart. axis [1,0,0]   

 cryst.   s(40) = (     0         -1          1      )
                  (     1         -1          0      )
                  (     0         -1          0      )

 cart.    s(40) = ( -1.0000000  0.0000000  0.0000000 )
                  (  0.0000000  0.0000000  1.0000000 )
                  (  0.0000000 -1.0000000  0.0000000 )


      isym = 41     inv. 120 deg rotation - cart. axis [-1,-1,-1]

 cryst.   s(41) = (     0          0         -1      )    f =( -0.2500000 )
                  (    -1          0          0      )       ( -0.2500000 )
                  (     0         -1          0      )       ( -0.2500000 )

 cart.    s(41) = (  0.0000000 -1.0000000  0.0000000 )    f =( -0.3535534 )
                  (  0.0000000  0.0000000 -1.0000000 )       ( -0.3535534 )
                  ( -1.0000000  0.0000000  0.0000000 )       ( -0.3535534 )


      isym = 42     inv. 120 deg rotation - cart. axis [-1,1,1]  

 cryst.   s(42) = (    -1          1          0      )    f =( -0.2500000 )
                  (     0          1         -1      )       ( -0.2500000 )
                  (     0          1          0      )       ( -0.2500000 )

 cart.    s(42) = (  0.0000000  1.0000000  0.0000000 )    f =( -0.3535534 )
                  (  0.0000000  0.0000000 -1.0000000 )       ( -0.3535534 )
                  (  1.0000000  0.0000000  0.0000000 )       ( -0.3535534 )


      isym = 43     inv. 120 deg rotation - cart. axis [1,1,-1]  

 cryst.   s(43) = (     1         -1          0      )    f =( -0.2500000 )
                  (     1          0          0      )       ( -0.2500000 )
                  (     1          0         -1      )       ( -0.2500000 )

 cart.    s(43) = (  0.0000000 -1.0000000  0.0000000 )    f =( -0.3535534 )
                  (  0.0000000  0.0000000  1.0000000 )       ( -0.3535534 )
                  (  1.0000000  0.0000000  0.0000000 )       ( -0.3535534 )


      isym = 44     inv. 120 deg rotation - cart. axis [1,-1,1]  

 cryst.   s(44) = (     0          0          1      )    f =( -0.2500000 )
                  (     0         -1          1      )       ( -0.2500000 )
                  (    -1          0          1      )       ( -0.2500000 )

 cart.    s(44) = (  0.0000000  1.0000000  0.0000000 )    f =( -0.3535534 )
                  (  0.0000000  0.0000000  1.0000000 )       ( -0.3535534 )
                  ( -1.0000000  0.0000000  0.0000000 )       ( -0.3535534 )


      isym = 45     inv. 120 deg rotation - cart. axis [1,1,1]   

 cryst.   s(45) = (     0         -1          0      )    f =( -0.2500000 )
                  (     0          0         -1      )       ( -0.2500000 )
                  (    -1          0          0      )       ( -0.2500000 )

 cart.    s(45) = (  0.0000000  0.0000000 -1.0000000 )    f =( -0.3535534 )
                  ( -1.0000000  0.0000000  0.0000000 )       ( -0.3535534 )
                  (  0.0000000 -1.0000000  0.0000000 )       ( -0.3535534 )


      isym = 46     inv. 120 deg rotation - cart. axis [-1,1,-1] 

 cryst.   s(46) = (     1          0         -1      )    f =( -0.2500000 )
                  (     1         -1          0      )       ( -0.2500000 )
                  (     1          0          0      )       ( -0.2500000 )

 cart.    s(46) = (  0.0000000  0.0000000 -1.0000000 )    f =( -0.3535534 )
                  (  1.0000000  0.0000000  0.0000000 )       ( -0.3535534 )
                  (  0.0000000  1.0000000  0.0000000 )       ( -0.3535534 )


      isym = 47     inv. 120 deg rotation - cart. axis [1,-1,-1] 

 cryst.   s(47) = (    -1          0          1      )    f =( -0.2500000 )
                  (     0          0          1      )       ( -0.2500000 )
                  (     0         -1          1      )       ( -0.2500000 )

 cart.    s(47) = (  0.0000000  0.0000000  1.0000000 )    f =( -0.3535534 )
                  (  1.0000000  0.0000000  0.0000000 )       ( -0.3535534 )
                  (  0.0000000 -1.0000000  0.0000000 )       ( -0.3535534 )


      isym = 48     inv. 120 deg rotation - cart. axis [-1,-1,1] 

 cryst.   s(48) = (     0          1          0      )    f =( -0.2500000 )
                  (    -1          1          0      )       ( -0.2500000 )
                  (     0          1         -1      )       ( -0.2500000 )

 cart.    s(48) = (  0.0000000  0.0000000  1.0000000 )    f =( -0.3535534 )
                  ( -1.0000000  0.0000000  0.0000000 )       ( -0.3535534 )
                  (  0.0000000  1.0000000  0.0000000 )       ( -0.3535534 )


   Cartesian axes

     site n.     atom                  positions (alat units)
         1           Sn  tau(   1) = (   0.0000000   0.0000000   0.0000000  )
         2           Sn  tau(   2) = (   0.3535534   0.3535534   0.3535534  )

   Crystallographic axes

     site n.     atom                  positions (cryst. coord.)
         1           Sn  tau(   1) = (  0.0000000  0.0000000  0.0000000  )
         2           Sn  tau(   2) = (  0.2500000  0.2500000  0.2500000  )

     number of k points=   752  gaussian smearing, width (Ry)=  0.0001
                       cart. coord. in units 2pi/alat
        k(    1) = (   0.0000000   0.0000000   0.0000000), wk =   0.0000741
        k(    2) = (   0.0235702   0.0235702  -0.0235702), wk =   0.0005926
        k(    3) = (   0.0471405   0.0471405  -0.0471405), wk =   0.0005926
        k(    4) = (   0.0707107   0.0707107  -0.0707107), wk =   0.0005926
        k(    5) = (   0.0942809   0.0942809  -0.0942809), wk =   0.0005926
        k(    6) = (   0.1178511   0.1178511  -0.1178511), wk =   0.0005926
        k(    7) = (   0.1414214   0.1414214  -0.1414214), wk =   0.0005926
        k(    8) = (   0.1649916   0.1649916  -0.1649916), wk =   0.0005926
        k(    9) = (   0.1885618   0.1885618  -0.1885618), wk =   0.0005926
        k(   10) = (   0.2121320   0.2121320  -0.2121320), wk =   0.0005926
        k(   11) = (   0.2357023   0.2357023  -0.2357023), wk =   0.0005926
        k(   12) = (   0.2592725   0.2592725  -0.2592725), wk =   0.0005926
        k(   13) = (   0.2828427   0.2828427  -0.2828427), wk =   0.0005926
        k(   14) = (   0.3064129   0.3064129  -0.3064129), wk =   0.0005926
        k(   15) = (   0.3299832   0.3299832  -0.3299832), wk =   0.0005926
        k(   16) = (  -0.3535534  -0.3535534   0.3535534), wk =   0.0002963
        k(   17) = (   0.0471405   0.0000000   0.0000000), wk =   0.0004444
        k(   18) = (   0.0707107   0.0235702  -0.0235702), wk =   0.0017778
        k(   19) = (   0.0942809   0.0471405  -0.0471405), wk =   0.0017778
        k(   20) = (   0.1178511   0.0707107  -0.0707107), wk =   0.0017778
        k(   21) = (   0.1414214   0.0942809  -0.0942809), wk =   0.0017778
        k(   22) = (   0.1649916   0.1178511  -0.1178511), wk =   0.0017778
        k(   23) = (   0.1885618   0.1414214  -0.1414214), wk =   0.0017778
        k(   24) = (   0.2121320   0.1649916  -0.1649916), wk =   0.0017778
        k(   25) = (   0.2357023   0.1885618  -0.1885618), wk =   0.0017778
        k(   26) = (   0.2592725   0.2121320  -0.2121320), wk =   0.0017778
        k(   27) = (   0.2828427   0.2357023  -0.2357023), wk =   0.0017778
        k(   28) = (   0.3064129   0.2592725  -0.2592725), wk =   0.0017778
        k(   29) = (   0.3299832   0.2828427  -0.2828427), wk =   0.0017778
        k(   30) = (   0.3535534   0.3064129  -0.3064129), wk =   0.0017778
        k(   31) = (  -0.3299832  -0.3771236   0.3771236), wk =   0.0017778
        k(   32) = (  -0.3064129  -0.3535534   0.3535534), wk =   0.0017778
        k(   33) = (  -0.2828427  -0.3299832   0.3299832), wk =   0.0017778
        k(   34) = (  -0.2592725  -0.3064129   0.3064129), wk =   0.0017778
        k(   35) = (  -0.2357023  -0.2828427   0.2828427), wk =   0.0017778
        k(   36) = (  -0.2121320  -0.2592725   0.2592725), wk =   0.0017778
        k(   37) = (  -0.1885618  -0.2357023   0.2357023), wk =   0.0017778
        k(   38) = (  -0.1649916  -0.2121320   0.2121320), wk =   0.0017778
        k(   39) = (  -0.1414214  -0.1885618   0.1885618), wk =   0.0017778
        k(   40) = (  -0.1178511  -0.1649916   0.1649916), wk =   0.0017778
        k(   41) = (  -0.0942809  -0.1414214   0.1414214), wk =   0.0017778
        k(   42) = (  -0.0707107  -0.1178511   0.1178511), wk =   0.0017778
        k(   43) = (  -0.0471405  -0.0942809   0.0942809), wk =   0.0017778
        k(   44) = (  -0.0235702  -0.0707107   0.0707107), wk =   0.0017778
        k(   45) = (   0.0000000  -0.0471405   0.0471405), wk =   0.0008889
        k(   46) = (   0.0942809   0.0000000   0.0000000), wk =   0.0004444
        k(   47) = (   0.1178511   0.0235702  -0.0235702), wk =   0.0017778
        k(   48) = (   0.1414214   0.0471405  -0.0471405), wk =   0.0017778
        k(   49) = (   0.1649916   0.0707107  -0.0707107), wk =   0.0017778
        k(   50) = (   0.1885618   0.0942809  -0.0942809), wk =   0.0017778
        k(   51) = (   0.2121320   0.1178511  -0.1178511), wk =   0.0017778
        k(   52) = (   0.2357023   0.1414214  -0.1414214), wk =   0.0017778
        k(   53) = (   0.2592725   0.1649916  -0.1649916), wk =   0.0017778
        k(   54) = (   0.2828427   0.1885618  -0.1885618), wk =   0.0017778
        k(   55) = (   0.3064129   0.2121320  -0.2121320), wk =   0.0017778
        k(   56) = (   0.3299832   0.2357023  -0.2357023), wk =   0.0017778
        k(   57) = (   0.3535534   0.2592725  -0.2592725), wk =   0.0017778
        k(   58) = (   0.3771236   0.2828427  -0.2828427), wk =   0.0017778
        k(   59) = (  -0.3064129  -0.4006938   0.4006938), wk =   0.0017778
        k(   60) = (  -0.2828427  -0.3771236   0.3771236), wk =   0.0017778
        k(   61) = (  -0.2592725  -0.3535534   0.3535534), wk =   0.0017778
        k(   62) = (  -0.2357023  -0.3299832   0.3299832), wk =   0.0017778
        k(   63) = (  -0.2121320  -0.3064129   0.3064129), wk =   0.0017778
        k(   64) = (  -0.1885618  -0.2828427   0.2828427), wk =   0.0017778
        k(   65) = (  -0.1649916  -0.2592725   0.2592725), wk =   0.0017778
        k(   66) = (  -0.1414214  -0.2357023   0.2357023), wk =   0.0017778
        k(   67) = (  -0.1178511  -0.2121320   0.2121320), wk =   0.0017778
        k(   68) = (  -0.0942809  -0.1885618   0.1885618), wk =   0.0017778
        k(   69) = (  -0.0707107  -0.1649916   0.1649916), wk =   0.0017778
        k(   70) = (  -0.0471405  -0.1414214   0.1414214), wk =   0.0017778
        k(   71) = (  -0.0235702  -0.1178511   0.1178511), wk =   0.0017778
        k(   72) = (   0.0000000  -0.0942809   0.0942809), wk =   0.0008889
        k(   73) = (   0.1414214   0.0000000   0.0000000), wk =   0.0004444
        k(   74) = (   0.1649916   0.0235702  -0.0235702), wk =   0.0017778
        k(   75) = (   0.1885618   0.0471405  -0.0471405), wk =   0.0017778
        k(   76) = (   0.2121320   0.0707107  -0.0707107), wk =   0.0017778
        k(   77) = (   0.2357023   0.0942809  -0.0942809), wk =   0.0017778
        k(   78) = (   0.2592725   0.1178511  -0.1178511), wk =   0.0017778
        k(   79) = (   0.2828427   0.1414214  -0.1414214), wk =   0.0017778
        k(   80) = (   0.3064129   0.1649916  -0.1649916), wk =   0.0017778
        k(   81) = (   0.3299832   0.1885618  -0.1885618), wk =   0.0017778
        k(   82) = (   0.3535534   0.2121320  -0.2121320), wk =   0.0017778
        k(   83) = (   0.3771236   0.2357023  -0.2357023), wk =   0.0017778
        k(   84) = (   0.4006938   0.2592725  -0.2592725), wk =   0.0017778
        k(   85) = (  -0.2828427  -0.4242641   0.4242641), wk =   0.0017778
        k(   86) = (  -0.2592725  -0.4006938   0.4006938), wk =   0.0017778
        k(   87) = (  -0.2357023  -0.3771236   0.3771236), wk =   0.0017778
        k(   88) = (  -0.2121320  -0.3535534   0.3535534), wk =   0.0017778
        k(   89) = (  -0.1885618  -0.3299832   0.3299832), wk =   0.0017778
        k(   90) = (  -0.1649916  -0.3064129   0.3064129), wk =   0.0017778
        k(   91) = (  -0.1414214  -0.2828427   0.2828427), wk =   0.0017778
        k(   92) = (  -0.1178511  -0.2592725   0.2592725), wk =   0.0017778
        k(   93) = (  -0.0942809  -0.2357023   0.2357023), wk =   0.0017778
        k(   94) = (  -0.0707107  -0.2121320   0.2121320), wk =   0.0017778
        k(   95) = (  -0.0471405  -0.1885618   0.1885618), wk =   0.0017778
        k(   96) = (  -0.0235702  -0.1649916   0.1649916), wk =   0.0017778
        k(   97) = (   0.0000000  -0.1414214   0.1414214), wk =   0.0008889
        k(   98) = (   0.1885618   0.0000000   0.0000000), wk =   0.0004444
        k(   99) = (   0.2121320   0.0235702  -0.0235702), wk =   0.0017778
        k(  100) = (   0.2357023   0.0471405  -0.0471405), wk =   0.0017778
        k(  101) = (   0.2592725   0.0707107  -0.0707107), wk =   0.0017778
        k(  102) = (   0.2828427   0.0942809  -0.0942809), wk =   0.0017778
        k(  103) = (   0.3064129   0.1178511  -0.1178511), wk =   0.0017778
        k(  104) = (   0.3299832   0.1414214  -0.1414214), wk =   0.0017778
        k(  105) = (   0.3535534   0.1649916  -0.1649916), wk =   0.0017778
        k(  106) = (   0.3771236   0.1885618  -0.1885618), wk =   0.0017778
        k(  107) = (   0.4006938   0.2121320  -0.2121320), wk =   0.0017778
        k(  108) = (   0.4242641   0.2357023  -0.2357023), wk =   0.0017778
        k(  109) = (  -0.2592725  -0.4478343   0.4478343), wk =   0.0017778
        k(  110) = (  -0.2357023  -0.4242641   0.4242641), wk =   0.0017778
        k(  111) = (  -0.2121320  -0.4006938   0.4006938), wk =   0.0017778
        k(  112) = (  -0.1885618  -0.3771236   0.3771236), wk =   0.0017778
        k(  113) = (  -0.1649916  -0.3535534   0.3535534), wk =   0.0017778
        k(  114) = (  -0.1414214  -0.3299832   0.3299832), wk =   0.0017778
        k(  115) = (  -0.1178511  -0.3064129   0.3064129), wk =   0.0017778
        k(  116) = (  -0.0942809  -0.2828427   0.2828427), wk =   0.0017778
        k(  117) = (  -0.0707107  -0.2592725   0.2592725), wk =   0.0017778
        k(  118) = (  -0.0471405  -0.2357023   0.2357023), wk =   0.0017778
        k(  119) = (  -0.0235702  -0.2121320   0.2121320), wk =   0.0017778
        k(  120) = (   0.0000000  -0.1885618   0.1885618), wk =   0.0008889
        k(  121) = (   0.2357023   0.0000000   0.0000000), wk =   0.0004444
        k(  122) = (   0.2592725   0.0235702  -0.0235702), wk =   0.0017778
        k(  123) = (   0.2828427   0.0471405  -0.0471405), wk =   0.0017778
        k(  124) = (   0.3064129   0.0707107  -0.0707107), wk =   0.0017778
        k(  125) = (   0.3299832   0.0942809  -0.0942809), wk =   0.0017778
        k(  126) = (   0.3535534   0.1178511  -0.1178511), wk =   0.0017778
        k(  127) = (   0.3771236   0.1414214  -0.1414214), wk =   0.0017778
        k(  128) = (   0.4006938   0.1649916  -0.1649916), wk =   0.0017778
        k(  129) = (   0.4242641   0.1885618  -0.1885618), wk =   0.0017778
        k(  130) = (   0.4478343   0.2121320  -0.2121320), wk =   0.0017778
        k(  131) = (  -0.2357023  -0.4714045   0.4714045), wk =   0.0017778
        k(  132) = (  -0.2121320  -0.4478343   0.4478343), wk =   0.0017778
        k(  133) = (  -0.1885618  -0.4242641   0.4242641), wk =   0.0017778
        k(  134) = (  -0.1649916  -0.4006938   0.4006938), wk =   0.0017778
        k(  135) = (  -0.1414214  -0.3771236   0.3771236), wk =   0.0017778
        k(  136) = (  -0.1178511  -0.3535534   0.3535534), wk =   0.0017778
        k(  137) = (  -0.0942809  -0.3299832   0.3299832), wk =   0.0017778
        k(  138) = (  -0.0707107  -0.3064129   0.3064129), wk =   0.0017778
        k(  139) = (  -0.0471405  -0.2828427   0.2828427), wk =   0.0017778
        k(  140) = (  -0.0235702  -0.2592725   0.2592725), wk =   0.0017778
        k(  141) = (   0.0000000  -0.2357023   0.2357023), wk =   0.0008889
        k(  142) = (   0.2828427   0.0000000   0.0000000), wk =   0.0004444
        k(  143) = (   0.3064129   0.0235702  -0.0235702), wk =   0.0017778
        k(  144) = (   0.3299832   0.0471405  -0.0471405), wk =   0.0017778
        k(  145) = (   0.3535534   0.0707107  -0.0707107), wk =   0.0017778
        k(  146) = (   0.3771236   0.0942809  -0.0942809), wk =   0.0017778
        k(  147) = (   0.4006938   0.1178511  -0.1178511), wk =   0.0017778
        k(  148) = (   0.4242641   0.1414214  -0.1414214), wk =   0.0017778
        k(  149) = (   0.4478343   0.1649916  -0.1649916), wk =   0.0017778
        k(  150) = (   0.4714045   0.1885618  -0.1885618), wk =   0.0017778
        k(  151) = (  -0.2121320  -0.4949747   0.4949747), wk =   0.0017778
        k(  152) = (  -0.1885618  -0.4714045   0.4714045), wk =   0.0017778
        k(  153) = (  -0.1649916  -0.4478343   0.4478343), wk =   0.0017778
        k(  154) = (  -0.1414214  -0.4242641   0.4242641), wk =   0.0017778
        k(  155) = (  -0.1178511  -0.4006938   0.4006938), wk =   0.0017778
        k(  156) = (  -0.0942809  -0.3771236   0.3771236), wk =   0.0017778
        k(  157) = (  -0.0707107  -0.3535534   0.3535534), wk =   0.0017778
        k(  158) = (  -0.0471405  -0.3299832   0.3299832), wk =   0.0017778
        k(  159) = (  -0.0235702  -0.3064129   0.3064129), wk =   0.0017778
        k(  160) = (   0.0000000  -0.2828427   0.2828427), wk =   0.0008889
        k(  161) = (   0.3299832   0.0000000   0.0000000), wk =   0.0004444
        k(  162) = (   0.3535534   0.0235702  -0.0235702), wk =   0.0017778
        k(  163) = (   0.3771236   0.0471405  -0.0471405), wk =   0.0017778
        k(  164) = (   0.4006938   0.0707107  -0.0707107), wk =   0.0017778
        k(  165) = (   0.4242641   0.0942809  -0.0942809), wk =   0.0017778
        k(  166) = (   0.4478343   0.1178511  -0.1178511), wk =   0.0017778
        k(  167) = (   0.4714045   0.1414214  -0.1414214), wk =   0.0017778
        k(  168) = (   0.4949747   0.1649916  -0.1649916), wk =   0.0017778
        k(  169) = (  -0.1885618  -0.5185450   0.5185450), wk =   0.0017778
        k(  170) = (  -0.1649916  -0.4949747   0.4949747), wk =   0.0017778
        k(  171) = (  -0.1414214  -0.4714045   0.4714045), wk =   0.0017778
        k(  172) = (  -0.1178511  -0.4478343   0.4478343), wk =   0.0017778
        k(  173) = (  -0.0942809  -0.4242641   0.4242641), wk =   0.0017778
        k(  174) = (  -0.0707107  -0.4006938   0.4006938), wk =   0.0017778
        k(  175) = (  -0.0471405  -0.3771236   0.3771236), wk =   0.0017778
        k(  176) = (  -0.0235702  -0.3535534   0.3535534), wk =   0.0017778
        k(  177) = (   0.0000000  -0.3299832   0.3299832), wk =   0.0008889
        k(  178) = (   0.3771236   0.0000000   0.0000000), wk =   0.0004444
        k(  179) = (   0.4006938   0.0235702  -0.0235702), wk =   0.0017778
        k(  180) = (   0.4242641   0.0471405  -0.0471405), wk =   0.0017778
        k(  181) = (   0.4478343   0.0707107  -0.0707107), wk =   0.0017778
        k(  182) = (   0.4714045   0.0942809  -0.0942809), wk =   0.0017778
        k(  183) = (   0.4949747   0.1178511  -0.1178511), wk =   0.0017778
        k(  184) = (   0.5185450   0.1414214  -0.1414214), wk =   0.0017778
        k(  185) = (  -0.1649916  -0.5421152   0.5421152), wk =   0.0017778
        k(  186) = (  -0.1414214  -0.5185450   0.5185450), wk =   0.0017778
        k(  187) = (  -0.1178511  -0.4949747   0.4949747), wk =   0.0017778
        k(  188) = (  -0.0942809  -0.4714045   0.4714045), wk =   0.0017778
        k(  189) = (  -0.0707107  -0.4478343   0.4478343), wk =   0.0017778
        k(  190) = (  -0.0471405  -0.4242641   0.4242641), wk =   0.0017778
        k(  191) = (  -0.0235702  -0.4006938   0.4006938), wk =   0.0017778
        k(  192) = (  -0.0000000  -0.3771236   0.3771236), wk =   0.0008889
        k(  193) = (   0.4242641   0.0000000   0.0000000), wk =   0.0004444
        k(  194) = (   0.4478343   0.0235702  -0.0235702), wk =   0.0017778
        k(  195) = (   0.4714045   0.0471405  -0.0471405), wk =   0.0017778
        k(  196) = (   0.4949747   0.0707107  -0.0707107), wk =   0.0017778
        k(  197) = (   0.5185450   0.0942809  -0.0942809), wk =   0.0017778
        k(  198) = (   0.5421152   0.1178511  -0.1178511), wk =   0.0017778
        k(  199) = (  -0.1414214  -0.5656854   0.5656854), wk =   0.0017778
        k(  200) = (  -0.1178511  -0.5421152   0.5421152), wk =   0.0017778
        k(  201) = (  -0.0942809  -0.5185450   0.5185450), wk =   0.0017778
        k(  202) = (  -0.0707107  -0.4949747   0.4949747), wk =   0.0017778
        k(  203) = (  -0.0471405  -0.4714045   0.4714045), wk =   0.0017778
        k(  204) = (  -0.0235702  -0.4478343   0.4478343), wk =   0.0017778
        k(  205) = (  -0.0000000  -0.4242641   0.4242641), wk =   0.0008889
        k(  206) = (   0.4714045   0.0000000   0.0000000), wk =   0.0004444
        k(  207) = (   0.4949747   0.0235702  -0.0235702), wk =   0.0017778
        k(  208) = (   0.5185450   0.0471405  -0.0471405), wk =   0.0017778
        k(  209) = (   0.5421152   0.0707107  -0.0707107), wk =   0.0017778
        k(  210) = (   0.5656854   0.0942809  -0.0942809), wk =   0.0017778
        k(  211) = (  -0.1178511  -0.5892557   0.5892557), wk =   0.0017778
        k(  212) = (  -0.0942809  -0.5656854   0.5656854), wk =   0.0017778
        k(  213) = (  -0.0707107  -0.5421152   0.5421152), wk =   0.0017778
        k(  214) = (  -0.0471405  -0.5185450   0.5185450), wk =   0.0017778
        k(  215) = (  -0.0235702  -0.4949747   0.4949747), wk =   0.0017778
        k(  216) = (  -0.0000000  -0.4714045   0.4714045), wk =   0.0008889
        k(  217) = (   0.5185450   0.0000000   0.0000000), wk =   0.0004444
        k(  218) = (   0.5421152   0.0235702  -0.0235702), wk =   0.0017778
        k(  219) = (   0.5656854   0.0471405  -0.0471405), wk =   0.0017778
        k(  220) = (   0.5892557   0.0707107  -0.0707107), wk =   0.0017778
        k(  221) = (  -0.0942809  -0.6128259   0.6128259), wk =   0.0017778
        k(  222) = (  -0.0707107  -0.5892557   0.5892557), wk =   0.0017778
        k(  223) = (  -0.0471405  -0.5656854   0.5656854), wk =   0.0017778
        k(  224) = (  -0.0235702  -0.5421152   0.5421152), wk =   0.0017778
        k(  225) = (   0.0000000  -0.5185450   0.5185450), wk =   0.0008889
        k(  226) = (   0.5656854   0.0000000   0.0000000), wk =   0.0004444
        k(  227) = (   0.5892557   0.0235702  -0.0235702), wk =   0.0017778
        k(  228) = (   0.6128259   0.0471405  -0.0471405), wk =   0.0017778
        k(  229) = (  -0.0707107  -0.6363961   0.6363961), wk =   0.0017778
        k(  230) = (  -0.0471405  -0.6128259   0.6128259), wk =   0.0017778
        k(  231) = (  -0.0235702  -0.5892557   0.5892557), wk =   0.0017778
        k(  232) = (   0.0000000  -0.5656854   0.5656854), wk =   0.0008889
        k(  233) = (   0.6128259   0.0000000   0.0000000), wk =   0.0004444
        k(  234) = (   0.6363961   0.0235702  -0.0235702), wk =   0.0017778
        k(  235) = (  -0.0471405  -0.6599663   0.6599663), wk =   0.0017778
        k(  236) = (  -0.0235702  -0.6363961   0.6363961), wk =   0.0017778
        k(  237) = (   0.0000000  -0.6128259   0.6128259), wk =   0.0008889
        k(  238) = (   0.6599663   0.0000000   0.0000000), wk =   0.0004444
        k(  239) = (  -0.0235702  -0.6835366   0.6835366), wk =   0.0017778
        k(  240) = (   0.0000000  -0.6599663   0.6599663), wk =   0.0008889
        k(  241) = (  -0.7071068   0.0000000   0.0000000), wk =   0.0002222
        k(  242) = (   0.0942809   0.0471405  -0.0000000), wk =   0.0017778
        k(  243) = (   0.1178511   0.0707107  -0.0235702), wk =   0.0035556
        k(  244) = (   0.1414214   0.0942809  -0.0471405), wk =   0.0035556
        k(  245) = (   0.1649916   0.1178511  -0.0707107), wk =   0.0035556
        k(  246) = (   0.1885618   0.1414214  -0.0942809), wk =   0.0035556
        k(  247) = (   0.2121320   0.1649916  -0.1178511), wk =   0.0035556
        k(  248) = (   0.2357023   0.1885618  -0.1414214), wk =   0.0035556
        k(  249) = (   0.2592725   0.2121320  -0.1649916), wk =   0.0035556
        k(  250) = (   0.2828427   0.2357023  -0.1885618), wk =   0.0035556
        k(  251) = (   0.3064129   0.2592725  -0.2121320), wk =   0.0035556
        k(  252) = (   0.3299832   0.2828427  -0.2357023), wk =   0.0035556
        k(  253) = (   0.3535534   0.3064129  -0.2592725), wk =   0.0035556
        k(  254) = (  -0.3299832  -0.3771236   0.4242641), wk =   0.0035556
        k(  255) = (  -0.3064129  -0.3535534   0.4006938), wk =   0.0017778
        k(  256) = (   0.1414214   0.0471405   0.0000000), wk =   0.0017778
        k(  257) = (   0.1649916   0.0707107  -0.0235702), wk =   0.0035556
        k(  258) = (   0.1885618   0.0942809  -0.0471405), wk =   0.0035556
        k(  259) = (   0.2121320   0.1178511  -0.0707107), wk =   0.0035556
        k(  260) = (   0.2357023   0.1414214  -0.0942809), wk =   0.0035556
        k(  261) = (   0.2592725   0.1649916  -0.1178511), wk =   0.0035556
        k(  262) = (   0.2828427   0.1885618  -0.1414214), wk =   0.0035556
        k(  263) = (   0.3064129   0.2121320  -0.1649916), wk =   0.0035556
        k(  264) = (   0.3299832   0.2357023  -0.1885618), wk =   0.0035556
        k(  265) = (   0.3535534   0.2592725  -0.2121320), wk =   0.0035556
        k(  266) = (   0.3771236   0.2828427  -0.2357023), wk =   0.0035556
        k(  267) = (  -0.3064129  -0.4006938   0.4478343), wk =   0.0035556
        k(  268) = (  -0.2828427  -0.3771236   0.4242641), wk =   0.0035556
        k(  269) = (  -0.2592725  -0.3535534   0.4006938), wk =   0.0035556
        k(  270) = (  -0.2357023  -0.3299832   0.3771236), wk =   0.0035556
        k(  271) = (  -0.2121320  -0.3064129   0.3535534), wk =   0.0035556
        k(  272) = (  -0.1885618  -0.2828427   0.3299832), wk =   0.0035556
        k(  273) = (  -0.1649916  -0.2592725   0.3064129), wk =   0.0035556
        k(  274) = (  -0.1414214  -0.2357023   0.2828427), wk =   0.0035556
        k(  275) = (  -0.1178511  -0.2121320   0.2592725), wk =   0.0035556
        k(  276) = (  -0.0942809  -0.1885618   0.2357023), wk =   0.0035556
        k(  277) = (  -0.0707107  -0.1649916   0.2121320), wk =   0.0035556
        k(  278) = (  -0.0471405  -0.1414214   0.1885618), wk =   0.0035556
        k(  279) = (  -0.0235702  -0.1178511   0.1649916), wk =   0.0035556
        k(  280) = (   0.0000000  -0.0942809   0.1414214), wk =   0.0017778
        k(  281) = (   0.1885618   0.0471405   0.0000000), wk =   0.0017778
        k(  282) = (   0.2121320   0.0707107  -0.0235702), wk =   0.0035556
        k(  283) = (   0.2357023   0.0942809  -0.0471405), wk =   0.0035556
        k(  284) = (   0.2592725   0.1178511  -0.0707107), wk =   0.0035556
        k(  285) = (   0.2828427   0.1414214  -0.0942809), wk =   0.0035556
        k(  286) = (   0.3064129   0.1649916  -0.1178511), wk =   0.0035556
        k(  287) = (   0.3299832   0.1885618  -0.1414214), wk =   0.0035556
        k(  288) = (   0.3535534   0.2121320  -0.1649916), wk =   0.0035556
        k(  289) = (   0.3771236   0.2357023  -0.1885618), wk =   0.0035556
        k(  290) = (   0.4006938   0.2592725  -0.2121320), wk =   0.0035556
        k(  291) = (  -0.2828427  -0.4242641   0.4714045), wk =   0.0035556
        k(  292) = (  -0.2592725  -0.4006938   0.4478343), wk =   0.0035556
        k(  293) = (  -0.2357023  -0.3771236   0.4242641), wk =   0.0035556
        k(  294) = (  -0.2121320  -0.3535534   0.4006938), wk =   0.0035556
        k(  295) = (  -0.1885618  -0.3299832   0.3771236), wk =   0.0035556
        k(  296) = (  -0.1649916  -0.3064129   0.3535534), wk =   0.0035556
        k(  297) = (  -0.1414214  -0.2828427   0.3299832), wk =   0.0035556
        k(  298) = (  -0.1178511  -0.2592725   0.3064129), wk =   0.0035556
        k(  299) = (  -0.0942809  -0.2357023   0.2828427), wk =   0.0035556
        k(  300) = (  -0.0707107  -0.2121320   0.2592725), wk =   0.0035556
        k(  301) = (  -0.0471405  -0.1885618   0.2357023), wk =   0.0035556
        k(  302) = (  -0.0235702  -0.1649916   0.2121320), wk =   0.0035556
        k(  303) = (   0.0000000  -0.1414214   0.1885618), wk =   0.0017778
        k(  304) = (   0.2357023   0.0471405  -0.0000000), wk =   0.0017778
        k(  305) = (   0.2592725   0.0707107  -0.0235702), wk =   0.0035556
        k(  306) = (   0.2828427   0.0942809  -0.0471405), wk =   0.0035556
        k(  307) = (   0.3064129   0.1178511  -0.0707107), wk =   0.0035556
        k(  308) = (   0.3299832   0.1414214  -0.0942809), wk =   0.0035556
        k(  309) = (   0.3535534   0.1649916  -0.1178511), wk =   0.0035556
        k(  310) = (   0.3771236   0.1885618  -0.1414214), wk =   0.0035556
        k(  311) = (   0.4006938   0.2121320  -0.1649916), wk =   0.0035556
        k(  312) = (   0.4242641   0.2357023  -0.1885618), wk =   0.0035556
        k(  313) = (  -0.2592725  -0.4478343   0.4949747), wk =   0.0035556
        k(  314) = (  -0.2357023  -0.4242641   0.4714045), wk =   0.0035556
        k(  315) = (  -0.2121320  -0.4006938   0.4478343), wk =   0.0035556
        k(  316) = (  -0.1885618  -0.3771236   0.4242641), wk =   0.0035556
        k(  317) = (  -0.1649916  -0.3535534   0.4006938), wk =   0.0035556
        k(  318) = (  -0.1414214  -0.3299832   0.3771236), wk =   0.0035556
        k(  319) = (  -0.1178511  -0.3064129   0.3535534), wk =   0.0035556
        k(  320) = (  -0.0942809  -0.2828427   0.3299832), wk =   0.0035556
        k(  321) = (  -0.0707107  -0.2592725   0.3064129), wk =   0.0035556
        k(  322) = (  -0.0471405  -0.2357023   0.2828427), wk =   0.0035556
        k(  323) = (  -0.0235702  -0.2121320   0.2592725), wk =   0.0035556
        k(  324) = (   0.0000000  -0.1885618   0.2357023), wk =   0.0017778
        k(  325) = (   0.2828427   0.0471405   0.0000000), wk =   0.0017778
        k(  326) = (   0.3064129   0.0707107  -0.0235702), wk =   0.0035556
        k(  327) = (   0.3299832   0.0942809  -0.0471405), wk =   0.0035556
        k(  328) = (   0.3535534   0.1178511  -0.0707107), wk =   0.0035556
        k(  329) = (   0.3771236   0.1414214  -0.0942809), wk =   0.0035556
        k(  330) = (   0.4006938   0.1649916  -0.1178511), wk =   0.0035556
        k(  331) = (   0.4242641   0.1885618  -0.1414214), wk =   0.0035556
        k(  332) = (   0.4478343   0.2121320  -0.1649916), wk =   0.0035556
        k(  333) = (  -0.2357023  -0.4714045   0.5185450), wk =   0.0035556
        k(  334) = (  -0.2121320  -0.4478343   0.4949747), wk =   0.0035556
        k(  335) = (  -0.1885618  -0.4242641   0.4714045), wk =   0.0035556
        k(  336) = (  -0.1649916  -0.4006938   0.4478343), wk =   0.0035556
        k(  337) = (  -0.1414214  -0.3771236   0.4242641), wk =   0.0035556
        k(  338) = (  -0.1178511  -0.3535534   0.4006938), wk =   0.0035556
        k(  339) = (  -0.0942809  -0.3299832   0.3771236), wk =   0.0035556
        k(  340) = (  -0.0707107  -0.3064129   0.3535534), wk =   0.0035556
        k(  341) = (  -0.0471405  -0.2828427   0.3299832), wk =   0.0035556
        k(  342) = (  -0.0235702  -0.2592725   0.3064129), wk =   0.0035556
        k(  343) = (   0.0000000  -0.2357023   0.2828427), wk =   0.0017778
        k(  344) = (   0.3299832   0.0471405   0.0000000), wk =   0.0017778
        k(  345) = (   0.3535534   0.0707107  -0.0235702), wk =   0.0035556
        k(  346) = (   0.3771236   0.0942809  -0.0471405), wk =   0.0035556
        k(  347) = (   0.4006938   0.1178511  -0.0707107), wk =   0.0035556
        k(  348) = (   0.4242641   0.1414214  -0.0942809), wk =   0.0035556
        k(  349) = (   0.4478343   0.1649916  -0.1178511), wk =   0.0035556
        k(  350) = (   0.4714045   0.1885618  -0.1414214), wk =   0.0035556
        k(  351) = (  -0.2121320  -0.4949747   0.5421152), wk =   0.0035556
        k(  352) = (  -0.1885618  -0.4714045   0.5185450), wk =   0.0035556
        k(  353) = (  -0.1649916  -0.4478343   0.4949747), wk =   0.0035556
        k(  354) = (  -0.1414214  -0.4242641   0.4714045), wk =   0.0035556
        k(  355) = (  -0.1178511  -0.4006938   0.4478343), wk =   0.0035556
        k(  356) = (  -0.0942809  -0.3771236   0.4242641), wk =   0.0035556
        k(  357) = (  -0.0707107  -0.3535534   0.4006938), wk =   0.0035556
        k(  358) = (  -0.0471405  -0.3299832   0.3771236), wk =   0.0035556
        k(  359) = (  -0.0235702  -0.3064129   0.3535534), wk =   0.0035556
        k(  360) = (   0.0000000  -0.2828427   0.3299832), wk =   0.0017778
        k(  361) = (   0.3771236   0.0471405   0.0000000), wk =   0.0017778
        k(  362) = (   0.4006938   0.0707107  -0.0235702), wk =   0.0035556
        k(  363) = (   0.4242641   0.0942809  -0.0471405), wk =   0.0035556
        k(  364) = (   0.4478343   0.1178511  -0.0707107), wk =   0.0035556
        k(  365) = (   0.4714045   0.1414214  -0.0942809), wk =   0.0035556
        k(  366) = (   0.4949747   0.1649916  -0.1178511), wk =   0.0035556
        k(  367) = (  -0.1885618  -0.5185450   0.5656854), wk =   0.0035556
        k(  368) = (  -0.1649916  -0.4949747   0.5421152), wk =   0.0035556
        k(  369) = (  -0.1414214  -0.4714045   0.5185450), wk =   0.0035556
        k(  370) = (  -0.1178511  -0.4478343   0.4949747), wk =   0.0035556
        k(  371) = (  -0.0942809  -0.4242641   0.4714045), wk =   0.0035556
        k(  372) = (  -0.0707107  -0.4006938   0.4478343), wk =   0.0035556
        k(  373) = (  -0.0471405  -0.3771236   0.4242641), wk =   0.0035556
        k(  374) = (  -0.0235702  -0.3535534   0.4006938), wk =   0.0035556
        k(  375) = (   0.0000000  -0.3299832   0.3771236), wk =   0.0017778
        k(  376) = (   0.4242641   0.0471405   0.0000000), wk =   0.0017778
        k(  377) = (   0.4478343   0.0707107  -0.0235702), wk =   0.0035556
        k(  378) = (   0.4714045   0.0942809  -0.0471405), wk =   0.0035556
        k(  379) = (   0.4949747   0.1178511  -0.0707107), wk =   0.0035556
        k(  380) = (   0.5185450   0.1414214  -0.0942809), wk =   0.0035556
        k(  381) = (  -0.1649916  -0.5421152   0.5892557), wk =   0.0035556
        k(  382) = (  -0.1414214  -0.5185450   0.5656854), wk =   0.0035556
        k(  383) = (  -0.1178511  -0.4949747   0.5421152), wk =   0.0035556
        k(  384) = (  -0.0942809  -0.4714045   0.5185450), wk =   0.0035556
        k(  385) = (  -0.0707107  -0.4478343   0.4949747), wk =   0.0035556
        k(  386) = (  -0.0471405  -0.4242641   0.4714045), wk =   0.0035556
        k(  387) = (  -0.0235702  -0.4006938   0.4478343), wk =   0.0035556
        k(  388) = (  -0.0000000  -0.3771236   0.4242641), wk =   0.0017778
        k(  389) = (   0.4714045   0.0471405  -0.0000000), wk =   0.0017778
        k(  390) = (   0.4949747   0.0707107  -0.0235702), wk =   0.0035556
        k(  391) = (   0.5185450   0.0942809  -0.0471405), wk =   0.0035556
        k(  392) = (   0.5421152   0.1178511  -0.0707107), wk =   0.0035556
        k(  393) = (  -0.1414214  -0.5656854   0.6128259), wk =   0.0035556
        k(  394) = (  -0.1178511  -0.5421152   0.5892557), wk =   0.0035556
        k(  395) = (  -0.0942809  -0.5185450   0.5656854), wk =   0.0035556
        k(  396) = (  -0.0707107  -0.4949747   0.5421152), wk =   0.0035556
        k(  397) = (  -0.0471405  -0.4714045   0.5185450), wk =   0.0035556
        k(  398) = (  -0.0235702  -0.4478343   0.4949747), wk =   0.0035556
        k(  399) = (  -0.0000000  -0.4242641   0.4714045), wk =   0.0017778
        k(  400) = (   0.5185450   0.0471405  -0.0000000), wk =   0.0017778
        k(  401) = (   0.5421152   0.0707107  -0.0235702), wk =   0.0035556
        k(  402) = (   0.5656854   0.0942809  -0.0471405), wk =   0.0035556
        k(  403) = (  -0.1178511  -0.5892557   0.6363961), wk =   0.0035556
        k(  404) = (  -0.0942809  -0.5656854   0.6128259), wk =   0.0035556
        k(  405) = (  -0.0707107  -0.5421152   0.5892557), wk =   0.0035556
        k(  406) = (  -0.0471405  -0.5185450   0.5656854), wk =   0.0035556
        k(  407) = (  -0.0235702  -0.4949747   0.5421152), wk =   0.0035556
        k(  408) = (  -0.0000000  -0.4714045   0.5185450), wk =   0.0017778
        k(  409) = (   0.5656854   0.0471405   0.0000000), wk =   0.0017778
        k(  410) = (   0.5892557   0.0707107  -0.0235702), wk =   0.0035556
        k(  411) = (  -0.0942809  -0.6128259   0.6599663), wk =   0.0035556
        k(  412) = (  -0.0707107  -0.5892557   0.6363961), wk =   0.0035556
        k(  413) = (  -0.0471405  -0.5656854   0.6128259), wk =   0.0035556
        k(  414) = (  -0.0235702  -0.5421152   0.5892557), wk =   0.0035556
        k(  415) = (   0.0000000  -0.5185450   0.5656854), wk =   0.0017778
        k(  416) = (   0.6128259   0.0471405   0.0000000), wk =   0.0017778
        k(  417) = (  -0.0707107  -0.6363961   0.6835366), wk =   0.0035556
        k(  418) = (  -0.0471405  -0.6128259   0.6599663), wk =   0.0035556
        k(  419) = (  -0.0235702  -0.5892557   0.6363961), wk =   0.0035556
        k(  420) = (  -0.0000000  -0.5656854   0.6128259), wk =   0.0017778
        k(  421) = (  -0.0471405  -0.6599663   0.7071068), wk =   0.0017778
        k(  422) = (  -0.0235702  -0.6363961   0.6835366), wk =   0.0035556
        k(  423) = (   0.0000000  -0.6128259   0.6599663), wk =   0.0017778
        k(  424) = (  -0.7071068   0.0471405   0.0000000), wk =   0.0008889
        k(  425) = (   0.1885618   0.0942809  -0.0000000), wk =   0.0017778
        k(  426) = (   0.2121320   0.1178511  -0.0235702), wk =   0.0035556
        k(  427) = (   0.2357023   0.1414214  -0.0471405), wk =   0.0035556
        k(  428) = (   0.2592725   0.1649916  -0.0707107), wk =   0.0035556
        k(  429) = (   0.2828427   0.1885618  -0.0942809), wk =   0.0035556
        k(  430) = (   0.3064129   0.2121320  -0.1178511), wk =   0.0035556
        k(  431) = (   0.3299832   0.2357023  -0.1414214), wk =   0.0035556
        k(  432) = (   0.3535534   0.2592725  -0.1649916), wk =   0.0035556
        k(  433) = (   0.3771236   0.2828427  -0.1885618), wk =   0.0035556
        k(  434) = (  -0.3064129  -0.4006938   0.4949747), wk =   0.0035556
        k(  435) = (  -0.2828427  -0.3771236   0.4714045), wk =   0.0035556
        k(  436) = (  -0.2592725  -0.3535534   0.4478343), wk =   0.0017778
        k(  437) = (   0.2357023   0.0942809  -0.0000000), wk =   0.0017778
        k(  438) = (   0.2592725   0.1178511  -0.0235702), wk =   0.0035556
        k(  439) = (   0.2828427   0.1414214  -0.0471405), wk =   0.0035556
        k(  440) = (   0.3064129   0.1649916  -0.0707107), wk =   0.0035556
        k(  441) = (   0.3299832   0.1885618  -0.0942809), wk =   0.0035556
        k(  442) = (   0.3535534   0.2121320  -0.1178511), wk =   0.0035556
        k(  443) = (   0.3771236   0.2357023  -0.1414214), wk =   0.0035556
        k(  444) = (   0.4006938   0.2592725  -0.1649916), wk =   0.0035556
        k(  445) = (  -0.2828427  -0.4242641   0.5185450), wk =   0.0035556
        k(  446) = (  -0.2592725  -0.4006938   0.4949747), wk =   0.0035556
        k(  447) = (  -0.2357023  -0.3771236   0.4714045), wk =   0.0035556
        k(  448) = (  -0.2121320  -0.3535534   0.4478343), wk =   0.0035556
        k(  449) = (  -0.1885618  -0.3299832   0.4242641), wk =   0.0035556
        k(  450) = (  -0.1649916  -0.3064129   0.4006938), wk =   0.0035556
        k(  451) = (  -0.1414214  -0.2828427   0.3771236), wk =   0.0035556
        k(  452) = (  -0.1178511  -0.2592725   0.3535534), wk =   0.0035556
        k(  453) = (  -0.0942809  -0.2357023   0.3299832), wk =   0.0035556
        k(  454) = (  -0.0707107  -0.2121320   0.3064129), wk =   0.0035556
        k(  455) = (  -0.0471405  -0.1885618   0.2828427), wk =   0.0035556
        k(  456) = (  -0.0235702  -0.1649916   0.2592725), wk =   0.0035556
        k(  457) = (   0.0000000  -0.1414214   0.2357023), wk =   0.0017778
        k(  458) = (   0.2828427   0.0942809   0.0000000), wk =   0.0017778
        k(  459) = (   0.3064129   0.1178511  -0.0235702), wk =   0.0035556
        k(  460) = (   0.3299832   0.1414214  -0.0471405), wk =   0.0035556
        k(  461) = (   0.3535534   0.1649916  -0.0707107), wk =   0.0035556
        k(  462) = (   0.3771236   0.1885618  -0.0942809), wk =   0.0035556
        k(  463) = (   0.4006938   0.2121320  -0.1178511), wk =   0.0035556
        k(  464) = (   0.4242641   0.2357023  -0.1414214), wk =   0.0035556
        k(  465) = (  -0.2592725  -0.4478343   0.5421152), wk =   0.0035556
        k(  466) = (  -0.2357023  -0.4242641   0.5185450), wk =   0.0035556
        k(  467) = (  -0.2121320  -0.4006938   0.4949747), wk =   0.0035556
        k(  468) = (  -0.1885618  -0.3771236   0.4714045), wk =   0.0035556
        k(  469) = (  -0.1649916  -0.3535534   0.4478343), wk =   0.0035556
        k(  470) = (  -0.1414214  -0.3299832   0.4242641), wk =   0.0035556
        k(  471) = (  -0.1178511  -0.3064129   0.4006938), wk =   0.0035556
        k(  472) = (  -0.0942809  -0.2828427   0.3771236), wk =   0.0035556
        k(  473) = (  -0.0707107  -0.2592725   0.3535534), wk =   0.0035556
        k(  474) = (  -0.0471405  -0.2357023   0.3299832), wk =   0.0035556
        k(  475) = (  -0.0235702  -0.2121320   0.3064129), wk =   0.0035556
        k(  476) = (   0.0000000  -0.1885618   0.2828427), wk =   0.0017778
        k(  477) = (   0.3299832   0.0942809   0.0000000), wk =   0.0017778
        k(  478) = (   0.3535534   0.1178511  -0.0235702), wk =   0.0035556
        k(  479) = (   0.3771236   0.1414214  -0.0471405), wk =   0.0035556
        k(  480) = (   0.4006938   0.1649916  -0.0707107), wk =   0.0035556
        k(  481) = (   0.4242641   0.1885618  -0.0942809), wk =   0.0035556
        k(  482) = (   0.4478343   0.2121320  -0.1178511), wk =   0.0035556
        k(  483) = (  -0.2357023  -0.4714045   0.5656854), wk =   0.0035556
        k(  484) = (  -0.2121320  -0.4478343   0.5421152), wk =   0.0035556
        k(  485) = (  -0.1885618  -0.4242641   0.5185450), wk =   0.0035556
        k(  486) = (  -0.1649916  -0.4006938   0.4949747), wk =   0.0035556
        k(  487) = (  -0.1414214  -0.3771236   0.4714045), wk =   0.0035556
        k(  488) = (  -0.1178511  -0.3535534   0.4478343), wk =   0.0035556
        k(  489) = (  -0.0942809  -0.3299832   0.4242641), wk =   0.0035556
        k(  490) = (  -0.0707107  -0.3064129   0.4006938), wk =   0.0035556
        k(  491) = (  -0.0471405  -0.2828427   0.3771236), wk =   0.0035556
        k(  492) = (  -0.0235702  -0.2592725   0.3535534), wk =   0.0035556
        k(  493) = (   0.0000000  -0.2357023   0.3299832), wk =   0.0017778
        k(  494) = (   0.3771236   0.0942809   0.0000000), wk =   0.0017778
        k(  495) = (   0.4006938   0.1178511  -0.0235702), wk =   0.0035556
        k(  496) = (   0.4242641   0.1414214  -0.0471405), wk =   0.0035556
        k(  497) = (   0.4478343   0.1649916  -0.0707107), wk =   0.0035556
        k(  498) = (   0.4714045   0.1885618  -0.0942809), wk =   0.0035556
        k(  499) = (  -0.2121320  -0.4949747   0.5892557), wk =   0.0035556
        k(  500) = (  -0.1885618  -0.4714045   0.5656854), wk =   0.0035556
        k(  501) = (  -0.1649916  -0.4478343   0.5421152), wk =   0.0035556
        k(  502) = (  -0.1414214  -0.4242641   0.5185450), wk =   0.0035556
        k(  503) = (  -0.1178511  -0.4006938   0.4949747), wk =   0.0035556
        k(  504) = (  -0.0942809  -0.3771236   0.4714045), wk =   0.0035556
        k(  505) = (  -0.0707107  -0.3535534   0.4478343), wk =   0.0035556
        k(  506) = (  -0.0471405  -0.3299832   0.4242641), wk =   0.0035556
        k(  507) = (  -0.0235702  -0.3064129   0.4006938), wk =   0.0035556
        k(  508) = (   0.0000000  -0.2828427   0.3771236), wk =   0.0017778
        k(  509) = (   0.4242641   0.0942809  -0.0000000), wk =   0.0017778
        k(  510) = (   0.4478343   0.1178511  -0.0235702), wk =   0.0035556
        k(  511) = (   0.4714045   0.1414214  -0.0471405), wk =   0.0035556
        k(  512) = (   0.4949747   0.1649916  -0.0707107), wk =   0.0035556
        k(  513) = (  -0.1885618  -0.5185450   0.6128259), wk =   0.0035556
        k(  514) = (  -0.1649916  -0.4949747   0.5892557), wk =   0.0035556
        k(  515) = (  -0.1414214  -0.4714045   0.5656854), wk =   0.0035556
        k(  516) = (  -0.1178511  -0.4478343   0.5421152), wk =   0.0035556
        k(  517) = (  -0.0942809  -0.4242641   0.5185450), wk =   0.0035556
        k(  518) = (  -0.0707107  -0.4006938   0.4949747), wk =   0.0035556
        k(  519) = (  -0.0471405  -0.3771236   0.4714045), wk =   0.0035556
        k(  520) = (  -0.0235702  -0.3535534   0.4478343), wk =   0.0035556
        k(  521) = (   0.0000000  -0.3299832   0.4242641), wk =   0.0017778
        k(  522) = (   0.4714045   0.0942809  -0.0000000), wk =   0.0017778
        k(  523) = (   0.4949747   0.1178511  -0.0235702), wk =   0.0035556
        k(  524) = (   0.5185450   0.1414214  -0.0471405), wk =   0.0035556
        k(  525) = (  -0.1649916  -0.5421152   0.6363961), wk =   0.0035556
        k(  526) = (  -0.1414214  -0.5185450   0.6128259), wk =   0.0035556
        k(  527) = (  -0.1178511  -0.4949747   0.5892557), wk =   0.0035556
        k(  528) = (  -0.0942809  -0.4714045   0.5656854), wk =   0.0035556
        k(  529) = (  -0.0707107  -0.4478343   0.5421152), wk =   0.0035556
        k(  530) = (  -0.0471405  -0.4242641   0.5185450), wk =   0.0035556
        k(  531) = (  -0.0235702  -0.4006938   0.4949747), wk =   0.0035556
        k(  532) = (  -0.0000000  -0.3771236   0.4714045), wk =   0.0017778
        k(  533) = (   0.5185450   0.0942809   0.0000000), wk =   0.0017778
        k(  534) = (   0.5421152   0.1178511  -0.0235702), wk =   0.0035556
        k(  535) = (  -0.1414214  -0.5656854   0.6599663), wk =   0.0035556
        k(  536) = (  -0.1178511  -0.5421152   0.6363961), wk =   0.0035556
        k(  537) = (  -0.0942809  -0.5185450   0.6128259), wk =   0.0035556
        k(  538) = (  -0.0707107  -0.4949747   0.5892557), wk =   0.0035556
        k(  539) = (  -0.0471405  -0.4714045   0.5656854), wk =   0.0035556
        k(  540) = (  -0.0235702  -0.4478343   0.5421152), wk =   0.0035556
        k(  541) = (  -0.0000000  -0.4242641   0.5185450), wk =   0.0017778
        k(  542) = (   0.5656854   0.0942809   0.0000000), wk =   0.0017778
        k(  543) = (  -0.1178511  -0.5892557   0.6835366), wk =   0.0035556
        k(  544) = (  -0.0942809  -0.5656854   0.6599663), wk =   0.0035556
        k(  545) = (  -0.0707107  -0.5421152   0.6363961), wk =   0.0035556
        k(  546) = (  -0.0471405  -0.5185450   0.6128259), wk =   0.0035556
        k(  547) = (  -0.0235702  -0.4949747   0.5892557), wk =   0.0035556
        k(  548) = (   0.0000000  -0.4714045   0.5656854), wk =   0.0017778
        k(  549) = (  -0.0942809  -0.6128259   0.7071068), wk =   0.0017778
        k(  550) = (  -0.0707107  -0.5892557   0.6835366), wk =   0.0035556
        k(  551) = (  -0.0471405  -0.5656854   0.6599663), wk =   0.0035556
        k(  552) = (  -0.0235702  -0.5421152   0.6363961), wk =   0.0035556
        k(  553) = (   0.0000000  -0.5185450   0.6128259), wk =   0.0017778
        k(  554) = (  -0.0471405  -0.6128259   0.7071068), wk =   0.0017778
        k(  555) = (  -0.0235702  -0.5892557   0.6835366), wk =   0.0035556
        k(  556) = (   0.0000000  -0.5656854   0.6599663), wk =   0.0017778
        k(  557) = (  -0.7071068   0.0942809   0.0000000), wk =   0.0008889
        k(  558) = (   0.2828427   0.1414214   0.0000000), wk =   0.0017778
        k(  559) = (   0.3064129   0.1649916  -0.0235702), wk =   0.0035556
        k(  560) = (   0.3299832   0.1885618  -0.0471405), wk =   0.0035556
        k(  561) = (   0.3535534   0.2121320  -0.0707107), wk =   0.0035556
        k(  562) = (   0.3771236   0.2357023  -0.0942809), wk =   0.0035556
        k(  563) = (   0.4006938   0.2592725  -0.1178511), wk =   0.0035556
        k(  564) = (  -0.2828427  -0.4242641   0.5656854), wk =   0.0035556
        k(  565) = (  -0.2592725  -0.4006938   0.5421152), wk =   0.0035556
        k(  566) = (  -0.2357023  -0.3771236   0.5185450), wk =   0.0035556
        k(  567) = (  -0.2121320  -0.3535534   0.4949747), wk =   0.0017778
        k(  568) = (   0.3299832   0.1414214   0.0000000), wk =   0.0017778
        k(  569) = (   0.3535534   0.1649916  -0.0235702), wk =   0.0035556
        k(  570) = (   0.3771236   0.1885618  -0.0471405), wk =   0.0035556
        k(  571) = (   0.4006938   0.2121320  -0.0707107), wk =   0.0035556
        k(  572) = (   0.4242641   0.2357023  -0.0942809), wk =   0.0035556
        k(  573) = (  -0.2592725  -0.4478343   0.5892557), wk =   0.0035556
        k(  574) = (  -0.2357023  -0.4242641   0.5656854), wk =   0.0035556
        k(  575) = (  -0.2121320  -0.4006938   0.5421152), wk =   0.0035556
        k(  576) = (  -0.1885618  -0.3771236   0.5185450), wk =   0.0035556
        k(  577) = (  -0.1649916  -0.3535534   0.4949747), wk =   0.0035556
        k(  578) = (  -0.1414214  -0.3299832   0.4714045), wk =   0.0035556
        k(  579) = (  -0.1178511  -0.3064129   0.4478343), wk =   0.0035556
        k(  580) = (  -0.0942809  -0.2828427   0.4242641), wk =   0.0035556
        k(  581) = (  -0.0707107  -0.2592725   0.4006938), wk =   0.0035556
        k(  582) = (  -0.0471405  -0.2357023   0.3771236), wk =   0.0035556
        k(  583) = (  -0.0235702  -0.2121320   0.3535534), wk =   0.0035556
        k(  584) = (   0.0000000  -0.1885618   0.3299832), wk =   0.0017778
        k(  585) = (   0.3771236   0.1414214   0.0000000), wk =   0.0017778
        k(  586) = (   0.4006938   0.1649916  -0.0235702), wk =   0.0035556
        k(  587) = (   0.4242641   0.1885618  -0.0471405), wk =   0.0035556
        k(  588) = (   0.4478343   0.2121320  -0.0707107), wk =   0.0035556
        k(  589) = (  -0.2357023  -0.4714045   0.6128259), wk =   0.0035556
        k(  590) = (  -0.2121320  -0.4478343   0.5892557), wk =   0.0035556
        k(  591) = (  -0.1885618  -0.4242641   0.5656854), wk =   0.0035556
        k(  592) = (  -0.1649916  -0.4006938   0.5421152), wk =   0.0035556
        k(  593) = (  -0.1414214  -0.3771236   0.5185450), wk =   0.0035556
        k(  594) = (  -0.1178511  -0.3535534   0.4949747), wk =   0.0035556
        k(  595) = (  -0.0942809  -0.3299832   0.4714045), wk =   0.0035556
        k(  596) = (  -0.0707107  -0.3064129   0.4478343), wk =   0.0035556
        k(  597) = (  -0.0471405  -0.2828427   0.4242641), wk =   0.0035556
        k(  598) = (  -0.0235702  -0.2592725   0.4006938), wk =   0.0035556
        k(  599) = (   0.0000000  -0.2357023   0.3771236), wk =   0.0017778
        k(  600) = (   0.4242641   0.1414214  -0.0000000), wk =   0.0017778
        k(  601) = (   0.4478343   0.1649916  -0.0235702), wk =   0.0035556
        k(  602) = (   0.4714045   0.1885618  -0.0471405), wk =   0.0035556
        k(  603) = (  -0.2121320  -0.4949747   0.6363961), wk =   0.0035556
        k(  604) = (  -0.1885618  -0.4714045   0.6128259), wk =   0.0035556
        k(  605) = (  -0.1649916  -0.4478343   0.5892557), wk =   0.0035556
        k(  606) = (  -0.1414214  -0.4242641   0.5656854), wk =   0.0035556
        k(  607) = (  -0.1178511  -0.4006938   0.5421152), wk =   0.0035556
        k(  608) = (  -0.0942809  -0.3771236   0.5185450), wk =   0.0035556
        k(  609) = (  -0.0707107  -0.3535534   0.4949747), wk =   0.0035556
        k(  610) = (  -0.0471405  -0.3299832   0.4714045), wk =   0.0035556
        k(  611) = (  -0.0235702  -0.3064129   0.4478343), wk =   0.0035556
        k(  612) = (   0.0000000  -0.2828427   0.4242641), wk =   0.0017778
        k(  613) = (   0.4714045   0.1414214   0.0000000), wk =   0.0017778
        k(  614) = (   0.4949747   0.1649916  -0.0235702), wk =   0.0035556
        k(  615) = (  -0.1885618  -0.5185450   0.6599663), wk =   0.0035556
        k(  616) = (  -0.1649916  -0.4949747   0.6363961), wk =   0.0035556
        k(  617) = (  -0.1414214  -0.4714045   0.6128259), wk =   0.0035556
        k(  618) = (  -0.1178511  -0.4478343   0.5892557), wk =   0.0035556
        k(  619) = (  -0.0942809  -0.4242641   0.5656854), wk =   0.0035556
        k(  620) = (  -0.0707107  -0.4006938   0.5421152), wk =   0.0035556
        k(  621) = (  -0.0471405  -0.3771236   0.5185450), wk =   0.0035556
        k(  622) = (  -0.0235702  -0.3535534   0.4949747), wk =   0.0035556
        k(  623) = (   0.0000000  -0.3299832   0.4714045), wk =   0.0017778
        k(  624) = (   0.5185450   0.1414214   0.0000000), wk =   0.0017778
        k(  625) = (  -0.1649916  -0.5421152   0.6835366), wk =   0.0035556
        k(  626) = (  -0.1414214  -0.5185450   0.6599663), wk =   0.0035556
        k(  627) = (  -0.1178511  -0.4949747   0.6363961), wk =   0.0035556
        k(  628) = (  -0.0942809  -0.4714045   0.6128259), wk =   0.0035556
        k(  629) = (  -0.0707107  -0.4478343   0.5892557), wk =   0.0035556
        k(  630) = (  -0.0471405  -0.4242641   0.5656854), wk =   0.0035556
        k(  631) = (  -0.0235702  -0.4006938   0.5421152), wk =   0.0035556
        k(  632) = (  -0.0000000  -0.3771236   0.5185450), wk =   0.0017778
        k(  633) = (  -0.1414214  -0.5656854   0.7071068), wk =   0.0017778
        k(  634) = (  -0.1178511  -0.5421152   0.6835366), wk =   0.0035556
        k(  635) = (  -0.0942809  -0.5185450   0.6599663), wk =   0.0035556
        k(  636) = (  -0.0707107  -0.4949747   0.6363961), wk =   0.0035556
        k(  637) = (  -0.0471405  -0.4714045   0.6128259), wk =   0.0035556
        k(  638) = (  -0.0235702  -0.4478343   0.5892557), wk =   0.0035556
        k(  639) = (  -0.0000000  -0.4242641   0.5656854), wk =   0.0017778
        k(  640) = (  -0.0942809  -0.5656854   0.7071068), wk =   0.0017778
        k(  641) = (  -0.0707107  -0.5421152   0.6835366), wk =   0.0035556
        k(  642) = (  -0.0471405  -0.5185450   0.6599663), wk =   0.0035556
        k(  643) = (  -0.0235702  -0.4949747   0.6363961), wk =   0.0035556
        k(  644) = (  -0.0000000  -0.4714045   0.6128259), wk =   0.0017778
        k(  645) = (  -0.0471405  -0.5656854   0.7071068), wk =   0.0017778
        k(  646) = (  -0.0235702  -0.5421152   0.6835366), wk =   0.0035556
        k(  647) = (   0.0000000  -0.5185450   0.6599663), wk =   0.0017778
        k(  648) = (  -0.7071068   0.1414214   0.0000000), wk =   0.0008889
        k(  649) = (   0.3771236   0.1885618  -0.0000000), wk =   0.0017778
        k(  650) = (   0.4006938   0.2121320  -0.0235702), wk =   0.0035556
        k(  651) = (   0.4242641   0.2357023  -0.0471405), wk =   0.0035556
        k(  652) = (  -0.2592725  -0.4478343   0.6363961), wk =   0.0035556
        k(  653) = (  -0.2357023  -0.4242641   0.6128259), wk =   0.0035556
        k(  654) = (  -0.2121320  -0.4006938   0.5892557), wk =   0.0035556
        k(  655) = (  -0.1885618  -0.3771236   0.5656854), wk =   0.0035556
        k(  656) = (  -0.1649916  -0.3535534   0.5421152), wk =   0.0017778
        k(  657) = (   0.4242641   0.1885618   0.0000000), wk =   0.0017778
        k(  658) = (   0.4478343   0.2121320  -0.0235702), wk =   0.0035556
        k(  659) = (  -0.2357023  -0.4714045   0.6599663), wk =   0.0035556
        k(  660) = (  -0.2121320  -0.4478343   0.6363961), wk =   0.0035556
        k(  661) = (  -0.1885618  -0.4242641   0.6128259), wk =   0.0035556
        k(  662) = (  -0.1649916  -0.4006938   0.5892557), wk =   0.0035556
        k(  663) = (  -0.1414214  -0.3771236   0.5656854), wk =   0.0035556
        k(  664) = (  -0.1178511  -0.3535534   0.5421152), wk =   0.0035556
        k(  665) = (  -0.0942809  -0.3299832   0.5185450), wk =   0.0035556
        k(  666) = (  -0.0707107  -0.3064129   0.4949747), wk =   0.0035556
        k(  667) = (  -0.0471405  -0.2828427   0.4714045), wk =   0.0035556
        k(  668) = (  -0.0235702  -0.2592725   0.4478343), wk =   0.0035556
        k(  669) = (   0.0000000  -0.2357023   0.4242641), wk =   0.0017778
        k(  670) = (   0.4714045   0.1885618  -0.0000000), wk =   0.0017778
        k(  671) = (  -0.2121320  -0.4949747   0.6835366), wk =   0.0035556
        k(  672) = (  -0.1885618  -0.4714045   0.6599663), wk =   0.0035556
        k(  673) = (  -0.1649916  -0.4478343   0.6363961), wk =   0.0035556
        k(  674) = (  -0.1414214  -0.4242641   0.6128259), wk =   0.0035556
        k(  675) = (  -0.1178511  -0.4006938   0.5892557), wk =   0.0035556
        k(  676) = (  -0.0942809  -0.3771236   0.5656854), wk =   0.0035556
        k(  677) = (  -0.0707107  -0.3535534   0.5421152), wk =   0.0035556
        k(  678) = (  -0.0471405  -0.3299832   0.5185450), wk =   0.0035556
        k(  679) = (  -0.0235702  -0.3064129   0.4949747), wk =   0.0035556
        k(  680) = (   0.0000000  -0.2828427   0.4714045), wk =   0.0017778
        k(  681) = (  -0.1885618  -0.5185450   0.7071068), wk =   0.0017778
        k(  682) = (  -0.1649916  -0.4949747   0.6835366), wk =   0.0035556
        k(  683) = (  -0.1414214  -0.4714045   0.6599663), wk =   0.0035556
        k(  684) = (  -0.1178511  -0.4478343   0.6363961), wk =   0.0035556
        k(  685) = (  -0.0942809  -0.4242641   0.6128259), wk =   0.0035556
        k(  686) = (  -0.0707107  -0.4006938   0.5892557), wk =   0.0035556
        k(  687) = (  -0.0471405  -0.3771236   0.5656854), wk =   0.0035556
        k(  688) = (  -0.0235702  -0.3535534   0.5421152), wk =   0.0035556
        k(  689) = (   0.0000000  -0.3299832   0.5185450), wk =   0.0017778
        k(  690) = (  -0.1414214  -0.5185450   0.7071068), wk =   0.0017778
        k(  691) = (  -0.1178511  -0.4949747   0.6835366), wk =   0.0035556
        k(  692) = (  -0.0942809  -0.4714045   0.6599663), wk =   0.0035556
        k(  693) = (  -0.0707107  -0.4478343   0.6363961), wk =   0.0035556
        k(  694) = (  -0.0471405  -0.4242641   0.6128259), wk =   0.0035556
        k(  695) = (  -0.0235702  -0.4006938   0.5892557), wk =   0.0035556
        k(  696) = (   0.0000000  -0.3771236   0.5656854), wk =   0.0017778
        k(  697) = (  -0.0942809  -0.5185450   0.7071068), wk =   0.0017778
        k(  698) = (  -0.0707107  -0.4949747   0.6835366), wk =   0.0035556
        k(  699) = (  -0.0471405  -0.4714045   0.6599663), wk =   0.0035556
        k(  700) = (  -0.0235702  -0.4478343   0.6363961), wk =   0.0035556
        k(  701) = (  -0.0000000  -0.4242641   0.6128259), wk =   0.0017778
        k(  702) = (  -0.0471405  -0.5185450   0.7071068), wk =   0.0017778
        k(  703) = (  -0.0235702  -0.4949747   0.6835366), wk =   0.0035556
        k(  704) = (   0.0000000  -0.4714045   0.6599663), wk =   0.0017778
[...]
    12.6836  14.0267

     occupation numbers 
     1.0000   1.0000   1.0000   1.0000   1.0000   1.0000   1.0000   1.0000
     1.0000   1.0000   1.0000   1.0000   1.0000   1.0000   0.0000   0.0000
     0.0000   0.0000

          k =-0.1414-0.4243 0.6600 (  8502 PWs)   bands (ev):

   -12.5250 -12.5180 -12.4139 -12.3550 -12.3432 -12.3266 -12.2917 -12.2691
   -12.1647 -12.1583  -0.5373   0.9958   5.6645   6.3615  10.3273  11.2028
    12.6884  13.8679

     occupation numbers 
     1.0000   1.0000   1.0000   1.0000   1.0000   1.0000   1.0000   1.0000
     1.0000   1.0000   1.0000   1.0000   1.0000   1.0000   0.0000   0.0000
     0.0000   0.0000

          k =-0.1179-0.4007 0.6364 (  8505 PWs)   bands (ev):

   -12.5266 -12.5185 -12.4091 -12.3523 -12.3421 -12.3265 -12.2970 -12.2727
   -12.1642 -12.1564  -0.4287   0.8673   5.6102   6.3244  10.3352  11.4337
    12.7586  13.6249

     occupation numbers 
     1.0000   1.0000   1.0000   1.0000   1.0000   1.0000   1.0000   1.0000
     1.0000   1.0000   1.0000   1.0000   1.0000   1.0000   0.0000   0.0000
     0.0000   0.0000

          k =-0.0943-0.3771 0.6128 (  8500 PWs)   bands (ev):

   -12.5274 -12.5187 -12.4067 -12.3513 -12.3393 -12.3280 -12.3000 -12.2744
   -12.1639 -12.1555  -0.3742   0.8045   5.5771   6.3163  10.3377  11.5770
    12.8797  13.3828

     occupation numbers 
     1.0000   1.0000   1.0000   1.0000   1.0000   1.0000   1.0000   1.0000
     1.0000   1.0000   1.0000   1.0000   1.0000   1.0000   0.0000   0.0000
     0.0000   0.0000

          k =-0.0707-0.3536 0.5893 (  8500 PWs)   bands (ev):

   -12.5275 -12.5186 -12.4069 -12.3515 -12.3386 -12.3286 -12.3000 -12.2743
   -12.1640 -12.1555  -0.3934   0.8269   5.5667   6.3371  10.3353  11.6106
    12.8671  13.3637

     occupation numbers 
     1.0000   1.0000   1.0000   1.0000   1.0000   1.0000   1.0000   1.0000
     1.0000   1.0000   1.0000   1.0000   1.0000   1.0000   0.0000   0.0000
     0.0000   0.0000

          k =-0.0471-0.3300 0.5657 (  8504 PWs)   bands (ev):

   -12.5267 -12.5182 -12.4096 -12.3539 -12.3385 -12.3287 -12.2965 -12.2725
   -12.1643 -12.1564  -0.4786   0.9265   5.5810   6.3851  10.3243  11.5347
    12.7138  13.5728

     occupation numbers 
     1.0000   1.0000   1.0000   1.0000   1.0000   1.0000   1.0000   1.0000
     1.0000   1.0000   1.0000   1.0000   1.0000   1.0000   0.0000   0.0000
     0.0000   0.0000

          k =-0.0236-0.3064 0.5421 (  8501 PWs)   bands (ev):

   -12.5253 -12.5175 -12.4144 -12.3586 -12.3364 -12.3308 -12.2902 -12.2693
   -12.1650 -12.1583  -0.6040   1.0768   5.6220   6.4567  10.2958  11.3695
    12.6161  13.7747

     occupation numbers 
     1.0000   1.0000   1.0000   1.0000   1.0000   1.0000   1.0000   1.0000
     1.0000   1.0000   1.0000   1.0000   1.0000   1.0000   0.0000   0.0000
     0.0000   0.0000

          k = 0.0000-0.2828 0.5185 (  8503 PWs)   bands (ev):

   -12.5232 -12.5164 -12.4207 -12.3637 -12.3348 -12.3327 -12.2825 -12.2648
   -12.1662 -12.1609  -0.7473   1.2546   5.6913   6.5469  10.2338  11.1697
    12.5956  13.8741

     occupation numbers 
     1.0000   1.0000   1.0000   1.0000   1.0000   1.0000   1.0000   1.0000
     1.0000   1.0000   1.0000   1.0000   1.0000   1.0000   0.0000   0.0000
     0.0000   0.0000

          k =-0.1414-0.4714 0.7071 (  8509 PWs)   bands (ev):

   -12.5219 -12.5182 -12.4197 -12.3541 -12.3518 -12.3213 -12.2890 -12.2631
   -12.1646 -12.1618  -0.5860   1.0560   5.7951   6.3069  10.3698  10.6338
    12.8624  14.1897

     occupation numbers 
     1.0000   1.0000   1.0000   1.0000   1.0000   1.0000   1.0000   1.0000
     1.0000   1.0000   1.0000   1.0000   1.0000   1.0000   0.0000   0.0000
     0.0000   0.0000

          k =-0.1179-0.4478 0.6835 (  8506 PWs)   bands (ev):

   -12.5241 -12.5194 -12.4118 -12.3546 -12.3491 -12.3183 -12.2955 -12.2701
   -12.1633 -12.1591  -0.4409   0.8849   5.7216   6.2305  10.4321  10.8979
    12.8112  14.0057

     occupation numbers 
     1.0000   1.0000   1.0000   1.0000   1.0000   1.0000   1.0000   1.0000
     1.0000   1.0000   1.0000   1.0000   1.0000   1.0000   0.0000   0.0000
     0.0000   0.0000

          k =-0.0943-0.4243 0.6600 (  8500 PWs)   bands (ev):

   -12.5260 -12.5200 -12.4054 -12.3557 -12.3444 -12.3175 -12.3014 -12.2752
   -12.1626 -12.1569  -0.3162   0.7434   5.6576   6.1879  10.4484  11.2024
    12.7949  13.7278

     occupation numbers 
     1.0000   1.0000   1.0000   1.0000   1.0000   1.0000   1.0000   1.0000
     1.0000   1.0000   1.0000   1.0000   1.0000   1.0000   0.0000   0.0000
     0.0000   0.0000

          k =-0.0707-0.4007 0.6364 (  8504 PWs)   bands (ev):

   -12.5272 -12.5202 -12.4016 -12.3548 -12.3409 -12.3192 -12.3052 -12.2780
   -12.1623 -12.1554  -0.2412   0.6608   5.6056   6.1821  10.4545  11.4656
    12.8241  13.4307

     occupation numbers 
     1.0000   1.0000   1.0000   1.0000   1.0000   1.0000   1.0000   1.0000
     1.0000   1.0000   1.0000   1.0000   1.0000   1.0000   0.0000   0.0000
     0.0000   0.0000

          k =-0.0471-0.3771 0.6128 (  8491 PWs)   bands (ev):

   -12.5278 -12.5201 -12.4011 -12.3518 -12.3410 -12.3210 -12.3066 -12.2783
   -12.1624 -12.1549  -0.2476   0.6686   5.5709   6.2109  10.4523  11.6246
    12.8424  13.2545

     occupation numbers 
     1.0000   1.0000   1.0000   1.0000   1.0000   1.0000   1.0000   1.0000
     1.0000   1.0000   1.0000   1.0000   1.0000   1.0000   0.0000   0.0000
     0.0000   0.0000

          k =-0.0236-0.3536 0.5893 (  8494 PWs)   bands (ev):

   -12.5276 -12.5196 -12.4034 -12.3483 -12.3446 -12.3226 -12.3045 -12.2766
   -12.1628 -12.1552  -0.3316   0.7623   5.5593   6.2700  10.4350  11.6395
    12.7296  13.3677

     occupation numbers 
     1.0000   1.0000   1.0000   1.0000   1.0000   1.0000   1.0000   1.0000
     1.0000   1.0000   1.0000   1.0000   1.0000   1.0000   0.0000   0.0000
     0.0000   0.0000

          k = 0.0000-0.3300 0.5657 (  8501 PWs)   bands (ev):

   -12.5268 -12.5188 -12.4081 -12.3525 -12.3413 -12.3261 -12.2982 -12.2735
   -12.1637 -12.1564  -0.4593   0.9076   5.5753   6.3538  10.3891  11.5291
    12.6357  13.5939

     occupation numbers 
     1.0000   1.0000   1.0000   1.0000   1.0000   1.0000   1.0000   1.0000
     1.0000   1.0000   1.0000   1.0000   1.0000   1.0000   0.0000   0.0000
     0.0000   0.0000

          k =-0.0943-0.4714 0.7071 (  8509 PWs)   bands (ev):

   -12.5229 -12.5203 -12.4104 -12.3648 -12.3436 -12.3102 -12.2997 -12.2707
   -12.1624 -12.1602  -0.3368   0.7636   5.7919   6.1351  10.4492  10.5859
    13.0726  14.1202

     occupation numbers 
     1.0000   1.0000   1.0000   1.0000   1.0000   1.0000   1.0000   1.0000
     1.0000   1.0000   1.0000   1.0000   1.0000   1.0000   0.0000   0.0000
     0.0000   0.0000

          k =-0.0707-0.4478 0.6835 (  8498 PWs)   bands (ev):

   -12.5247 -12.5212 -12.4024 -12.3667 -12.3388 -12.3085 -12.3056 -12.2776
   -12.1613 -12.1580  -0.1975   0.6115   5.7359   6.0727  10.5004  10.8835
    13.0116  13.8202

     occupation numbers 
     1.0000   1.0000   1.0000   1.0000   1.0000   1.0000   1.0000   1.0000
     1.0000   1.0000   1.0000   1.0000   1.0000   1.0000   0.0000   0.0000
     0.0000   0.0000

          k =-0.0471-0.4243 0.6600 (  8495 PWs)   bands (ev):

   -12.5264 -12.5214 -12.3972 -12.3657 -12.3351 -12.3130 -12.3072 -12.2816
   -12.1611 -12.1562  -0.1013   0.5100   5.6709   6.0646  10.5102  11.2155
    12.9727  13.4885

     occupation numbers 
     1.0000   1.0000   1.0000   1.0000   1.0000   1.0000   1.0000   1.0000
     1.0000   1.0000   1.0000   1.0000   1.0000   1.0000   0.0000   0.0000
     0.0000   0.0000

          k =-0.0236-0.4007 0.6364 (  8499 PWs)   bands (ev):

   -12.5275 -12.5212 -12.3962 -12.3610 -12.3350 -12.3152 -12.3104 -12.2820
   -12.1612 -12.1550  -0.1012   0.5115   5.6109   6.1022  10.5096  11.4967
    12.9399  13.2223

     occupation numbers 
     1.0000   1.0000   1.0000   1.0000   1.0000   1.0000   1.0000   1.0000
     1.0000   1.0000   1.0000   1.0000   1.0000   1.0000   0.0000   0.0000
     0.0000   0.0000

          k =-0.0000-0.3771 0.6128 (  8490 PWs)   bands (ev):

   -12.5279 -12.5206 -12.3987 -12.3539 -12.3399 -12.3165 -12.3109 -12.2799
   -12.1618 -12.1547  -0.1957   0.6137   5.5708   6.1734  10.4902  11.6516
    12.8234  13.2025

     occupation numbers 
     1.0000   1.0000   1.0000   1.0000   1.0000   1.0000   1.0000   1.0000
     1.0000   1.0000   1.0000   1.0000   1.0000   1.0000   0.0000   0.0000
     0.0000   0.0000

          k =-0.0471-0.4714 0.7071 (  8503 PWs)   bands (ev):

   -12.5232 -12.5219 -12.4002 -12.3772 -12.3327 -12.3106 -12.2994 -12.2794
   -12.1607 -12.1595  -0.0754   0.4765   5.8243   5.9965  10.4953  10.5517
    13.3370  13.9076

     occupation numbers 
     1.0000   1.0000   1.0000   1.0000   1.0000   1.0000   1.0000   1.0000
     1.0000   1.0000   1.0000   1.0000   1.0000   1.0000   0.0000   0.0000
     0.0000   0.0000

          k =-0.0236-0.4478 0.6835 (  8500 PWs)   bands (ev):

   -12.5249 -12.5223 -12.3930 -12.3775 -12.3284 -12.3167 -12.2988 -12.2852
   -12.1602 -12.1576   0.0448   0.3543   5.7688   5.9673  10.5270  10.8808
    13.2669  13.5548

     occupation numbers 
     1.0000   1.0000   1.0000   1.0000   1.0000   1.0000   1.0000   1.0000
     1.0000   1.0000   1.0000   1.0000   1.0000   1.0000   0.0000   0.0000
     0.0000   0.0000

          k = 0.0000-0.4243 0.6600 (  8504 PWs)   bands (ev):

   -12.5265 -12.5220 -12.3927 -12.3709 -12.3289 -12.3182 -12.3041 -12.2851
   -12.1605 -12.1560   0.0267   0.3759   5.6817   6.0168  10.5283  11.2224
    13.1650  13.2694

     occupation numbers 
     1.0000   1.0000   1.0000   1.0000   1.0000   1.0000   1.0000   1.0000
     1.0000   1.0000   1.0000   1.0000   1.0000   1.0000   0.0000   0.0000
     0.0000   0.0000

          k =-0.7071 0.2357 0.0000 (  8502 PWs)   bands (ev):

   -12.5229 -12.5229 -12.3891 -12.3891 -12.3217 -12.3217 -12.2890 -12.2890
   -12.1597 -12.1597   0.1962   0.1962   5.8926   5.8926  10.5247  10.5247
    13.6279  13.6279

     occupation numbers 
     1.0000   1.0000   1.0000   1.0000   1.0000   1.0000   1.0000   1.0000
     1.0000   1.0000   1.0000   1.0000   1.0000   1.0000   0.0000   0.0000
     0.0000   0.0000

          k =-0.1414-0.4243 0.7071 (  8492 PWs)   bands (ev):

   -12.5246 -12.5189 -12.4126 -12.3542 -12.3456 -12.3245 -12.2924 -12.2701
   -12.1637 -12.1588  -0.5262   0.9861   5.6710   6.3220  10.4564  11.0876
    12.6450  13.9027

     occupation numbers 
     1.0000   1.0000   1.0000   1.0000   1.0000   1.0000   1.0000   1.0000
     1.0000   1.0000   1.0000   1.0000   1.0000   1.0000   0.0000   0.0000
     0.0000   0.0000

          k =-0.1179-0.4007 0.6835 (  8502 PWs)   bands (ev):

   -12.5261 -12.5199 -12.4060 -12.3504 -12.3475 -12.3212 -12.2994 -12.2751
   -12.1626 -12.1569  -0.3882   0.8266   5.6253   6.2404  10.5313  11.2930
    12.6551  13.6621

     occupation numbers 
     1.0000   1.0000   1.0000   1.0000   1.0000   1.0000   1.0000   1.0000
     1.0000   1.0000   1.0000   1.0000   1.0000   1.0000   0.0000   0.0000
     0.0000   0.0000

          k =-0.0943-0.3771 0.6600 (  8493 PWs)   bands (ev):

   -12.5272 -12.5205 -12.4014 -12.3521 -12.3433 -12.3203 -12.3043 -12.2784
   -12.1620 -12.1556  -0.2814   0.7067   5.5994   6.1878  10.5618  11.4677
    12.7297  13.3895

     occupation numbers 
     1.0000   1.0000   1.0000   1.0000   1.0000   1.0000   1.0000   1.0000
     1.0000   1.0000   1.0000   1.0000   1.0000   1.0000   0.0000   0.0000
     0.0000   0.0000

          k =-0.0707-0.3536 0.6364 (  8494 PWs)   bands (ev):

   -12.5275 -12.5207 -12.3998 -12.3530 -12.3410 -12.3208 -12.3057 -12.2796
   -12.1618 -12.1552  -0.2389   0.6597   5.5911   6.1696  10.5699  11.5354
    12.8047  13.2373

     occupation numbers 
     1.0000   1.0000   1.0000   1.0000   1.0000   1.0000   1.0000   1.0000
     1.0000   1.0000   1.0000   1.0000   1.0000   1.0000   0.0000   0.0000
     0.0000   0.0000

          k =-0.0943-0.4243 0.7071 (  8503 PWs)   bands (ev):

   -12.5252 -12.5211 -12.4035 -12.3584 -12.3442 -12.3140 -12.3026 -12.2769
   -12.1614 -12.1577  -0.2934   0.7200   5.6877   6.1257  10.6366  11.0152
    12.7653  13.7427

     occupation numbers 
     1.0000   1.0000   1.0000   1.0000   1.0000   1.0000   1.0000   1.0000
     1.0000   1.0000   1.0000   1.0000   1.0000   1.0000   0.0000   0.0000
     0.0000   0.0000

          k =-0.0707-0.4007 0.6835 (  8490 PWs)   bands (ev):

   -12.5263 -12.5221 -12.3968 -12.3611 -12.3394 -12.3123 -12.3081 -12.2821
   -12.1604 -12.1563  -0.1656   0.5816   5.6631   6.0570  10.7183  11.2293
    12.7584  13.4314

     occupation numbers 
     1.0000   1.0000   1.0000   1.0000   1.0000   1.0000   1.0000   1.0000
     1.0000   1.0000   1.0000   1.0000   1.0000   1.0000   0.0000   0.0000
     0.0000   0.0000

          k =-0.0471-0.3771 0.6600 (  8484 PWs)   bands (ev):

   -12.5271 -12.5223 -12.3934 -12.3615 -12.3364 -12.3154 -12.3087 -12.2845
   -12.1601 -12.1555  -0.0975   0.5096   5.6403   6.0370  10.7364  11.4190
    12.7898  13.1736

     occupation numbers 
     1.0000   1.0000   1.0000   1.0000   1.0000   1.0000   1.0000   1.0000
     1.0000   1.0000   1.0000   1.0000   1.0000   1.0000   0.0000   0.0000
     0.0000   0.0000

          k =-0.0236-0.3536 0.6364 (  8487 PWs)   bands (ev):

   -12.5273 -12.5220 -12.3945 -12.3588 -12.3382 -12.3147 -12.3102 -12.2835
   -12.1604 -12.1553  -0.1331   0.5479   5.6203   6.0673  10.7201  11.4828
    12.7517  13.1649

     occupation numbers 
     1.0000   1.0000   1.0000   1.0000   1.0000   1.0000   1.0000   1.0000
     1.0000   1.0000   1.0000   1.0000   1.0000   1.0000   0.0000   0.0000
     0.0000   0.0000

          k = 0.0000-0.3300 0.6128 (  8495 PWs)   bands (ev):

   -12.5270 -12.5212 -12.3992 -12.3541 -12.3433 -12.3162 -12.3069 -12.2800
   -12.1612 -12.1558  -0.2459   0.6696   5.6123   6.1389  10.6601  11.4122
    12.6726  13.3904

     occupation numbers 
     1.0000   1.0000   1.0000   1.0000   1.0000   1.0000   1.0000   1.0000
     1.0000   1.0000   1.0000   1.0000   1.0000   1.0000   0.0000   0.0000
     0.0000   0.0000

          k =-0.0471-0.4243 0.7071 (  8491 PWs)   bands (ev):

   -12.5252 -12.5230 -12.3934 -12.3707 -12.3339 -12.3130 -12.3038 -12.2850
   -12.1594 -12.1574  -0.0507   0.4576   5.7419   5.9621  10.7712  10.9459
    12.9585  13.4865

     occupation numbers 
     1.0000   1.0000   1.0000   1.0000   1.0000   1.0000   1.0000   1.0000
     1.0000   1.0000   1.0000   1.0000   1.0000   1.0000   0.0000   0.0000
     0.0000   0.0000

          k =-0.0236-0.4007 0.6835 (  8486 PWs)   bands (ev):

   -12.5260 -12.5235 -12.3876 -12.3717 -12.3302 -12.3186 -12.3025 -12.2893
   -12.1589 -12.1564   0.0492   0.3558   5.7225   5.9238  10.8294  11.1855
    12.9307  13.1734

     occupation numbers 
     1.0000   1.0000   1.0000   1.0000   1.0000   1.0000   1.0000   1.0000
     1.0000   1.0000   1.0000   1.0000   1.0000   1.0000   0.0000   0.0000
     0.0000   0.0000

          k =-0.0000-0.3771 0.6600 (  8488 PWs)   bands (ev):

   -12.5269 -12.5231 -12.3891 -12.3665 -12.3323 -12.3178 -12.3065 -12.2878
   -12.1593 -12.1556   0.0011   0.4067   5.6676   5.9726  10.8032  11.3994
    12.8576  13.0441

     occupation numbers 
     1.0000   1.0000   1.0000   1.0000   1.0000   1.0000   1.0000   1.0000
     1.0000   1.0000   1.0000   1.0000   1.0000   1.0000   0.0000   0.0000
     0.0000   0.0000

          k =-0.7071 0.2828 0.0000 (  8492 PWs)   bands (ev):

   -12.5244 -12.5244 -12.3824 -12.3824 -12.3235 -12.3235 -12.2940 -12.2940
   -12.1580 -12.1580   0.2001   0.2001   5.8336   5.8336  10.8693  10.8693
    13.2093  13.2093

     occupation numbers 
     1.0000   1.0000   1.0000   1.0000   1.0000   1.0000   1.0000   1.0000
     1.0000   1.0000   1.0000   1.0000   1.0000   1.0000   0.0000   0.0000
     0.0000   0.0000

          k =-0.0471-0.3771 0.7071 (  8477 PWs)   bands (ev):

   -12.5264 -12.5234 -12.3892 -12.3665 -12.3341 -12.3158 -12.3063 -12.2879
   -12.1589 -12.1561  -0.0249   0.4342   5.6882   5.9536  10.9053  11.2777
    12.7672  13.1469

     occupation numbers 
     1.0000   1.0000   1.0000   1.0000   1.0000   1.0000   1.0000   1.0000
     1.0000   1.0000   1.0000   1.0000   1.0000   1.0000   0.0000   0.0000
     0.0000   0.0000

          k =-0.0236-0.3536 0.6835 (  8486 PWs)   bands (ev):

   -12.5264 -12.5240 -12.3855 -12.3695 -12.3310 -12.3195 -12.3038 -12.2907
   -12.1584 -12.1560   0.0508   0.3563   5.7067   5.9086  10.9652  11.3122
    12.8064  12.9972

     occupation numbers 
     1.0000   1.0000   1.0000   1.0000   1.0000   1.0000   1.0000   1.0000
     1.0000   1.0000   1.0000   1.0000   1.0000   1.0000   0.0000   0.0000
     0.0000   0.0000

          k =-0.7071 0.3300 0.0000 (  8486 PWs)   bands (ev):

   -12.5252 -12.5252 -12.3783 -12.3783 -12.3249 -12.3249 -12.2967 -12.2967
   -12.1572 -12.1572   0.2023   0.2023   5.8025   5.8025  11.1119  11.1119
    12.9281  12.9281

     occupation numbers 
     1.0000   1.0000   1.0000   1.0000   1.0000   1.0000   1.0000   1.0000
     1.0000   1.0000   1.0000   1.0000   1.0000   1.0000   0.0000   0.0000
     0.0000   0.0000

     the Fermi energy is     8.1785 ev

!    total energy              =    -233.44777930 Ry
     Harris-Foulkes estimate   =    -233.44777944 Ry
     estimated scf accuracy    <       0.00000039 Ry

     The total energy is the sum of the following terms:

     one-electron contribution =     -96.10803468 Ry
     hartree contribution      =      58.63777269 Ry
     xc contribution           =     -28.69851500 Ry
     ewald contribution        =    -167.27900223 Ry
     smearing contrib. (-TS)   =      -0.00000008 Ry

     convergence has been achieved in   5 iterations

     Writing output data file Sn.save
 
     init_run     :     13.69s CPU     14.99s WALL (       1 calls)
     electrons    :    330.75s CPU    343.37s WALL (       1 calls)

     Called by init_run:
     wfcinit      :     13.43s CPU     14.63s WALL (       1 calls)
     potinit      :      0.02s CPU      0.02s WALL (       1 calls)

     Called by electrons:
     c_bands      :    295.29s CPU    306.93s WALL (       5 calls)
     sum_band     :     35.33s CPU     36.24s WALL (       5 calls)
     v_of_rho     :      0.09s CPU      0.10s WALL (       6 calls)
     v_h          :      0.01s CPU      0.01s WALL (       6 calls)
     v_xc         :      0.09s CPU      0.09s WALL (       6 calls)
     mix_rho      :      0.01s CPU      0.01s WALL (       5 calls)

     Called by c_bands:
     init_us_2    :      1.92s CPU      2.17s WALL (    8272 calls)
     cegterg      :    284.26s CPU    295.23s WALL (    3760 calls)

     Called by sum_band:

     Called by *egterg:
     h_psi        :    242.30s CPU    253.06s WALL (   16374 calls)
     g_psi        :      0.63s CPU      0.64s WALL (   11862 calls)
     cdiaghg      :     14.84s CPU     14.94s WALL (   15622 calls)
     cegterg:over :     18.35s CPU     18.48s WALL (   11862 calls)
     cegterg:upda :      4.90s CPU      4.95s WALL (   11862 calls)
     cegterg:last :      2.76s CPU      2.78s WALL (    4757 calls)

     Called by h_psi:
     h_psi:vloc   :    226.55s CPU    236.93s WALL (   16374 calls)
     h_psi:vnl    :     15.21s CPU     15.54s WALL (   16374 calls)
     add_vuspsi   :      4.09s CPU      4.16s WALL (   16374 calls)

     General routines
     calbec       :     10.99s CPU     11.28s WALL (   16374 calls)
     fft          :      0.07s CPU      0.08s WALL (      65 calls)
     fftw         :    244.76s CPU    255.31s WALL (  536632 calls)
     davcio       :      0.03s CPU      0.71s WALL (     752 calls)
 
     Parallel routines
     fft_scatter  :    152.73s CPU    158.82s WALL (  536697 calls)
 
     PWSCF        :  5m45.73s CPU     6m 0.54s WALL

 
   This run was terminated on:  12:54:58   1Mar2020            

=------------------------------------------------------------------------------=
   JOB DONE.
=------------------------------------------------------------------------------=
