
     Program PWSCF v.5.4.0 starts on 15Mar2020 at 19:52:56 

     This program is part of the open-source Quantum ESPRESSO suite
     for quantum simulation of materials; please cite
         "P. Giannozzi et al., J. Phys.:Condens. Matter 21 395502 (2009);
          URL http://www.quantum-espresso.org", 
     in publications or presentations arising from this work. More details at
     http://www.quantum-espresso.org/quote

     Parallel version (MPI & OpenMP), running on      16 processor cores
     Number of MPI processes:                16
     Threads/MPI process:                     1
     R & G space division:  proc/nbgrp/npool/nimage =      16
     Waiting for input...
     Reading input from standard input
Warning: card &IONS ignored
Warning: card / ignored
Warning: card &CELL ignored
Warning: card / ignored

     Current dimensions of program PWSCF are:
     Max number of different atomic species (ntypx) = 10
     Max number of k-points (npk) =  40000
     Max angular momentum in pseudopotentials (lmaxx) =  3
               file Sn.rel-pbe-dn-kjpaw_psl.0.2.UPF: wavefunction(s)  5P 5P 4D 4D renormalized

     Subspace diagonalization in iterative solution of the eigenvalue problem:
     a serial algorithm will be used

 
     Parallelization info
     --------------------
     sticks:   dense  smooth     PW     G-vecs:    dense   smooth      PW
     Min          74      74     22                 1722     1722     279
     Max          76      76     23                 1725     1725     281
     Sum        1201    1201    361                27581    27581    4477
 

     Title: 
     Sn                                                                         


     bravais-lattice index     =            0
     lattice parameter (alat)  =       8.9127  a.u.
     unit-cell volume          =     500.6268 (a.u.)^3
     number of atoms/cell      =            2
     number of atomic types    =            1
     number of electrons       =        28.00
     number of Kohn-Sham states=           36
     kinetic-energy cutoff     =      55.0000  Ry
     charge density cutoff     =     220.0000  Ry
     convergence threshold     =      1.0E-06
     mixing beta               =       0.7000
     number of iterations used =            8  plain     mixing
     Exchange-correlation      =  SLA  PW   PBX  PBC ( 1  4  3  4 0 0)
     Non magnetic calculation with spin-orbit


     celldm(1)=   8.912709  celldm(2)=   0.000000  celldm(3)=   0.000000
     celldm(4)=   0.000000  celldm(5)=   0.000000  celldm(6)=   0.000000

     crystal axes: (cart. coord. in units of alat)
               a(1) = (   0.000000   0.707107   0.707107 )  
               a(2) = (   0.707107   0.000000   0.707107 )  
               a(3) = (   0.707107   0.707107   0.000000 )  

     reciprocal axes: (cart. coord. in units 2 pi/alat)
               b(1) = ( -0.707107  0.707107  0.707107 )  
               b(2) = (  0.707107 -0.707107  0.707107 )  
               b(3) = (  0.707107  0.707107 -0.707107 )  


     PseudoPot. # 1 for Sn read from file:
     ../PseudopotentialDatabase/Sn.rel-pbe-dn-kjpaw_psl.0.2.UPF
     MD5 check sum: 79f626d90b2bb8cc2658247f48f3d9cb
     Pseudo is Projector augmented-wave + core cor, Zval = 14.0
     Generated using "atomic" code by A. Dal Corso  v.5.0.2 svn rev. 9415
     Shape of augmentation charge: BESSEL
     Using radial grid of 1243 points, 10 beta functions with: 
                l(1) =   0
                l(2) =   0
                l(3) =   1
                l(4) =   1
                l(5) =   1
                l(6) =   1
                l(7) =   2
                l(8) =   2
                l(9) =   2
               l(10) =   2
     Q(r) pseudized with 0 coefficients 


     atomic species   valence    mass     pseudopotential
        Sn            14.00   118.71000     Sn( 1.00)

     24 Sym. Ops. (no inversion) found
          (note: 24 additional sym.ops. were found but ignored
           their fractional translations are incommensurate with FFT grid)

                                    s                        frac. trans.

      isym =  1     identity                                     

 cryst.   s( 1) = (     1          0          0      )
                  (     0          1          0      )
                  (     0          0          1      )

 cart.    s( 1) = (  1.0000000  0.0000000  0.0000000 )
                  (  0.0000000  1.0000000  0.0000000 )
                  (  0.0000000  0.0000000  1.0000000 )


      isym =  2     180 deg rotation - cart. axis [0,0,1]        

 cryst.   s( 2) = (     0          1         -1      )
                  (     1          0         -1      )
                  (     0          0         -1      )

 cart.    s( 2) = ( -1.0000000  0.0000000  0.0000000 )
                  (  0.0000000 -1.0000000  0.0000000 )
                  (  0.0000000  0.0000000  1.0000000 )


      isym =  3     180 deg rotation - cart. axis [0,1,0]        

 cryst.   s( 3) = (     0         -1          1      )
                  (     0         -1          0      )
                  (     1         -1          0      )

 cart.    s( 3) = ( -1.0000000  0.0000000  0.0000000 )
                  (  0.0000000  1.0000000  0.0000000 )
                  (  0.0000000  0.0000000 -1.0000000 )


      isym =  4     180 deg rotation - cart. axis [1,0,0]        

 cryst.   s( 4) = (    -1          0          0      )
                  (    -1          0          1      )
                  (    -1          1          0      )

 cart.    s( 4) = (  1.0000000  0.0000000  0.0000000 )
                  (  0.0000000 -1.0000000  0.0000000 )
                  (  0.0000000  0.0000000 -1.0000000 )


      isym =  5     120 deg rotation - cart. axis [-1,-1,-1]     

 cryst.   s( 5) = (     0          0          1      )
                  (     1          0          0      )
                  (     0          1          0      )

 cart.    s( 5) = (  0.0000000  1.0000000  0.0000000 )
                  (  0.0000000  0.0000000  1.0000000 )
                  (  1.0000000  0.0000000  0.0000000 )


      isym =  6     120 deg rotation - cart. axis [-1,1,1]       

 cryst.   s( 6) = (     1         -1          0      )
                  (     0         -1          1      )
                  (     0         -1          0      )

 cart.    s( 6) = (  0.0000000 -1.0000000  0.0000000 )
                  (  0.0000000  0.0000000  1.0000000 )
                  ( -1.0000000  0.0000000  0.0000000 )


      isym =  7     120 deg rotation - cart. axis [1,1,-1]       

 cryst.   s( 7) = (    -1          1          0      )
                  (    -1          0          0      )
                  (    -1          0          1      )

 cart.    s( 7) = (  0.0000000  1.0000000  0.0000000 )
                  (  0.0000000  0.0000000 -1.0000000 )
                  ( -1.0000000  0.0000000  0.0000000 )


      isym =  8     120 deg rotation - cart. axis [1,-1,1]       

 cryst.   s( 8) = (     0          0         -1      )
                  (     0          1         -1      )
                  (     1          0         -1      )

 cart.    s( 8) = (  0.0000000 -1.0000000  0.0000000 )
                  (  0.0000000  0.0000000 -1.0000000 )
                  (  1.0000000  0.0000000  0.0000000 )


      isym =  9     120 deg rotation - cart. axis [1,1,1]        

 cryst.   s( 9) = (     0          1          0      )
                  (     0          0          1      )
                  (     1          0          0      )

 cart.    s( 9) = (  0.0000000  0.0000000  1.0000000 )
                  (  1.0000000  0.0000000  0.0000000 )
                  (  0.0000000  1.0000000  0.0000000 )


      isym = 10     120 deg rotation - cart. axis [-1,1,-1]      

 cryst.   s(10) = (    -1          0          1      )
                  (    -1          1          0      )
                  (    -1          0          0      )

 cart.    s(10) = (  0.0000000  0.0000000  1.0000000 )
                  ( -1.0000000  0.0000000  0.0000000 )
                  (  0.0000000 -1.0000000  0.0000000 )


      isym = 11     120 deg rotation - cart. axis [1,-1,-1]      

 cryst.   s(11) = (     1          0         -1      )
                  (     0          0         -1      )
                  (     0          1         -1      )

 cart.    s(11) = (  0.0000000  0.0000000 -1.0000000 )
                  ( -1.0000000  0.0000000  0.0000000 )
                  (  0.0000000  1.0000000  0.0000000 )


      isym = 12     120 deg rotation - cart. axis [-1,-1,1]      

 cryst.   s(12) = (     0         -1          0      )
                  (     1         -1          0      )
                  (     0         -1          1      )

 cart.    s(12) = (  0.0000000  0.0000000 -1.0000000 )
                  (  1.0000000  0.0000000  0.0000000 )
                  (  0.0000000 -1.0000000  0.0000000 )


      isym = 13     inv. 180 deg rotation - cart. axis [1,1,0]   

 cryst.   s(13) = (     1          0         -1      )
                  (     0          1         -1      )
                  (     0          0         -1      )

 cart.    s(13) = (  0.0000000 -1.0000000  0.0000000 )
                  ( -1.0000000  0.0000000  0.0000000 )
                  (  0.0000000  0.0000000  1.0000000 )


      isym = 14     inv. 180 deg rotation - cart. axis [1,-1,0]  

 cryst.   s(14) = (     0          1          0      )
                  (     1          0          0      )
                  (     0          0          1      )

 cart.    s(14) = (  0.0000000  1.0000000  0.0000000 )
                  (  1.0000000  0.0000000  0.0000000 )
                  (  0.0000000  0.0000000  1.0000000 )


      isym = 15     inv.  90 deg rotation - cart. axis [0,0,-1]  

 cryst.   s(15) = (     0         -1          0      )
                  (     0         -1          1      )
                  (     1         -1          0      )

 cart.    s(15) = (  0.0000000 -1.0000000  0.0000000 )
                  (  1.0000000  0.0000000  0.0000000 )
                  (  0.0000000  0.0000000 -1.0000000 )


      isym = 16     inv.  90 deg rotation - cart. axis [0,0,1]   

 cryst.   s(16) = (    -1          0          1      )
                  (    -1          0          0      )
                  (    -1          1          0      )

 cart.    s(16) = (  0.0000000  1.0000000  0.0000000 )
                  ( -1.0000000  0.0000000  0.0000000 )
                  (  0.0000000  0.0000000 -1.0000000 )


      isym = 17     inv. 180 deg rotation - cart. axis [1,0,1]   

 cryst.   s(17) = (     1         -1          0      )
                  (     0         -1          0      )
                  (     0         -1          1      )

 cart.    s(17) = (  0.0000000  0.0000000 -1.0000000 )
                  (  0.0000000  1.0000000  0.0000000 )
                  ( -1.0000000  0.0000000  0.0000000 )


      isym = 18     inv. 180 deg rotation - cart. axis [-1,0,1]  

 cryst.   s(18) = (     0          0          1      )
                  (     0          1          0      )
                  (     1          0          0      )

 cart.    s(18) = (  0.0000000  0.0000000  1.0000000 )
                  (  0.0000000  1.0000000  0.0000000 )
                  (  1.0000000  0.0000000  0.0000000 )


      isym = 19     inv.  90 deg rotation - cart. axis [0,1,0]   

 cryst.   s(19) = (     0          0         -1      )
                  (     1          0         -1      )
                  (     0          1         -1      )

 cart.    s(19) = (  0.0000000  0.0000000 -1.0000000 )
                  (  0.0000000 -1.0000000  0.0000000 )
                  (  1.0000000  0.0000000  0.0000000 )


      isym = 20     inv.  90 deg rotation - cart. axis [0,-1,0]  

 cryst.   s(20) = (    -1          1          0      )
                  (    -1          0          1      )
                  (    -1          0          0      )

 cart.    s(20) = (  0.0000000  0.0000000  1.0000000 )
                  (  0.0000000 -1.0000000  0.0000000 )
                  ( -1.0000000  0.0000000  0.0000000 )


      isym = 21     inv. 180 deg rotation - cart. axis [0,1,1]   

 cryst.   s(21) = (    -1          0          0      )
                  (    -1          1          0      )
                  (    -1          0          1      )

 cart.    s(21) = (  1.0000000  0.0000000  0.0000000 )
                  (  0.0000000  0.0000000 -1.0000000 )
                  (  0.0000000 -1.0000000  0.0000000 )


      isym = 22     inv. 180 deg rotation - cart. axis [0,1,-1]  

 cryst.   s(22) = (     1          0          0      )
                  (     0          0          1      )
                  (     0          1          0      )

 cart.    s(22) = (  1.0000000  0.0000000  0.0000000 )
                  (  0.0000000  0.0000000  1.0000000 )
                  (  0.0000000  1.0000000  0.0000000 )


      isym = 23     inv.  90 deg rotation - cart. axis [-1,0,0]  

 cryst.   s(23) = (     0          1         -1      )
                  (     0          0         -1      )
                  (     1          0         -1      )

 cart.    s(23) = ( -1.0000000  0.0000000  0.0000000 )
                  (  0.0000000  0.0000000 -1.0000000 )
                  (  0.0000000  1.0000000  0.0000000 )


      isym = 24     inv.  90 deg rotation - cart. axis [1,0,0]   

 cryst.   s(24) = (     0         -1          1      )
                  (     1         -1          0      )
                  (     0         -1          0      )

 cart.    s(24) = ( -1.0000000  0.0000000  0.0000000 )
                  (  0.0000000  0.0000000  1.0000000 )
                  (  0.0000000 -1.0000000  0.0000000 )


   Cartesian axes

     site n.     atom                  positions (alat units)
         1           Sn  tau(   1) = (   0.0000000   0.0000000   0.0000000  )
         2           Sn  tau(   2) = (   0.3535534   0.3535534   0.3535534  )

   Crystallographic axes

     site n.     atom                  positions (cryst. coord.)
         1           Sn  tau(   1) = (  0.0000000  0.0000000  0.0000000  )
         2           Sn  tau(   2) = (  0.2500000  0.2500000  0.2500000  )

     number of k points=   145  gaussian smearing, width (Ry)=  0.0001
                       cart. coord. in units 2pi/alat
        k(    1) = (   0.0000000   0.0000000   0.0000000), wk =   0.0002441
        k(    2) = (   0.0441942   0.0441942  -0.0441942), wk =   0.0019531
        k(    3) = (   0.0883883   0.0883883  -0.0883883), wk =   0.0019531
        k(    4) = (   0.1325825   0.1325825  -0.1325825), wk =   0.0019531
        k(    5) = (   0.1767767   0.1767767  -0.1767767), wk =   0.0019531
        k(    6) = (   0.2209709   0.2209709  -0.2209709), wk =   0.0019531
        k(    7) = (   0.2651650   0.2651650  -0.2651650), wk =   0.0019531
        k(    8) = (   0.3093592   0.3093592  -0.3093592), wk =   0.0019531
        k(    9) = (  -0.3535534  -0.3535534   0.3535534), wk =   0.0009766
        k(   10) = (   0.0883883   0.0000000   0.0000000), wk =   0.0014648
        k(   11) = (   0.1325825   0.0441942  -0.0441942), wk =   0.0058594
        k(   12) = (   0.1767767   0.0883883  -0.0883883), wk =   0.0058594
        k(   13) = (   0.2209709   0.1325825  -0.1325825), wk =   0.0058594
        k(   14) = (   0.2651650   0.1767767  -0.1767767), wk =   0.0058594
        k(   15) = (   0.3093592   0.2209709  -0.2209709), wk =   0.0058594
        k(   16) = (   0.3535534   0.2651650  -0.2651650), wk =   0.0058594
        k(   17) = (  -0.3093592  -0.3977476   0.3977476), wk =   0.0058594
        k(   18) = (  -0.2651650  -0.3535534   0.3535534), wk =   0.0058594
        k(   19) = (  -0.2209709  -0.3093592   0.3093592), wk =   0.0058594
        k(   20) = (  -0.1767767  -0.2651650   0.2651650), wk =   0.0058594
        k(   21) = (  -0.1325825  -0.2209709   0.2209709), wk =   0.0058594
        k(   22) = (  -0.0883883  -0.1767767   0.1767767), wk =   0.0058594
        k(   23) = (  -0.0441942  -0.1325825   0.1325825), wk =   0.0058594
        k(   24) = (   0.0000000  -0.0883883   0.0883883), wk =   0.0029297
        k(   25) = (   0.1767767   0.0000000   0.0000000), wk =   0.0014648
        k(   26) = (   0.2209709   0.0441942  -0.0441942), wk =   0.0058594
        k(   27) = (   0.2651650   0.0883883  -0.0883883), wk =   0.0058594
        k(   28) = (   0.3093592   0.1325825  -0.1325825), wk =   0.0058594
        k(   29) = (   0.3535534   0.1767767  -0.1767767), wk =   0.0058594
        k(   30) = (   0.3977476   0.2209709  -0.2209709), wk =   0.0058594
        k(   31) = (  -0.2651650  -0.4419417   0.4419417), wk =   0.0058594
        k(   32) = (  -0.2209709  -0.3977476   0.3977476), wk =   0.0058594
        k(   33) = (  -0.1767767  -0.3535534   0.3535534), wk =   0.0058594
        k(   34) = (  -0.1325825  -0.3093592   0.3093592), wk =   0.0058594
        k(   35) = (  -0.0883883  -0.2651650   0.2651650), wk =   0.0058594
        k(   36) = (  -0.0441942  -0.2209709   0.2209709), wk =   0.0058594
        k(   37) = (   0.0000000  -0.1767767   0.1767767), wk =   0.0029297
        k(   38) = (   0.2651650   0.0000000   0.0000000), wk =   0.0014648
        k(   39) = (   0.3093592   0.0441942  -0.0441942), wk =   0.0058594
        k(   40) = (   0.3535534   0.0883883  -0.0883883), wk =   0.0058594
        k(   41) = (   0.3977476   0.1325825  -0.1325825), wk =   0.0058594
        k(   42) = (   0.4419417   0.1767767  -0.1767767), wk =   0.0058594
        k(   43) = (  -0.2209709  -0.4861359   0.4861359), wk =   0.0058594
        k(   44) = (  -0.1767767  -0.4419417   0.4419417), wk =   0.0058594
        k(   45) = (  -0.1325825  -0.3977476   0.3977476), wk =   0.0058594
        k(   46) = (  -0.0883883  -0.3535534   0.3535534), wk =   0.0058594
        k(   47) = (  -0.0441942  -0.3093592   0.3093592), wk =   0.0058594
        k(   48) = (   0.0000000  -0.2651650   0.2651650), wk =   0.0029297
        k(   49) = (   0.3535534   0.0000000   0.0000000), wk =   0.0014648
        k(   50) = (   0.3977476   0.0441942  -0.0441942), wk =   0.0058594
        k(   51) = (   0.4419417   0.0883883  -0.0883883), wk =   0.0058594
        k(   52) = (   0.4861359   0.1325825  -0.1325825), wk =   0.0058594
        k(   53) = (  -0.1767767  -0.5303301   0.5303301), wk =   0.0058594
        k(   54) = (  -0.1325825  -0.4861359   0.4861359), wk =   0.0058594
        k(   55) = (  -0.0883883  -0.4419417   0.4419417), wk =   0.0058594
        k(   56) = (  -0.0441942  -0.3977476   0.3977476), wk =   0.0058594
        k(   57) = (   0.0000000  -0.3535534   0.3535534), wk =   0.0029297
        k(   58) = (   0.4419417   0.0000000   0.0000000), wk =   0.0014648
        k(   59) = (   0.4861359   0.0441942  -0.0441942), wk =   0.0058594
        k(   60) = (   0.5303301   0.0883883  -0.0883883), wk =   0.0058594
        k(   61) = (  -0.1325825  -0.5745243   0.5745243), wk =   0.0058594
        k(   62) = (  -0.0883883  -0.5303301   0.5303301), wk =   0.0058594
        k(   63) = (  -0.0441942  -0.4861359   0.4861359), wk =   0.0058594
        k(   64) = (   0.0000000  -0.4419417   0.4419417), wk =   0.0029297
        k(   65) = (   0.5303301   0.0000000   0.0000000), wk =   0.0014648
        k(   66) = (   0.5745243   0.0441942  -0.0441942), wk =   0.0058594
        k(   67) = (  -0.0883883  -0.6187184   0.6187184), wk =   0.0058594
        k(   68) = (  -0.0441942  -0.5745243   0.5745243), wk =   0.0058594
        k(   69) = (   0.0000000  -0.5303301   0.5303301), wk =   0.0029297
        k(   70) = (   0.6187184   0.0000000   0.0000000), wk =   0.0014648
        k(   71) = (  -0.0441942  -0.6629126   0.6629126), wk =   0.0058594
        k(   72) = (   0.0000000  -0.6187184   0.6187184), wk =   0.0029297
        k(   73) = (  -0.7071068   0.0000000   0.0000000), wk =   0.0007324
        k(   74) = (   0.1767767   0.0883883   0.0000000), wk =   0.0058594
        k(   75) = (   0.2209709   0.1325825  -0.0441942), wk =   0.0117188
        k(   76) = (   0.2651650   0.1767767  -0.0883883), wk =   0.0117188
        k(   77) = (   0.3093592   0.2209709  -0.1325825), wk =   0.0117188
        k(   78) = (   0.3535534   0.2651650  -0.1767767), wk =   0.0117188
        k(   79) = (  -0.3093592  -0.3977476   0.4861359), wk =   0.0117188
        k(   80) = (  -0.2651650  -0.3535534   0.4419417), wk =   0.0058594
        k(   81) = (   0.2651650   0.0883883   0.0000000), wk =   0.0058594
        k(   82) = (   0.3093592   0.1325825  -0.0441942), wk =   0.0117188
        k(   83) = (   0.3535534   0.1767767  -0.0883883), wk =   0.0117188
        k(   84) = (   0.3977476   0.2209709  -0.1325825), wk =   0.0117188
        k(   85) = (  -0.2651650  -0.4419417   0.5303301), wk =   0.0117188
        k(   86) = (  -0.2209709  -0.3977476   0.4861359), wk =   0.0117188
        k(   87) = (  -0.1767767  -0.3535534   0.4419417), wk =   0.0117188
        k(   88) = (  -0.1325825  -0.3093592   0.3977476), wk =   0.0117188
        k(   89) = (  -0.0883883  -0.2651650   0.3535534), wk =   0.0117188
        k(   90) = (  -0.0441942  -0.2209709   0.3093592), wk =   0.0117188
        k(   91) = (   0.0000000  -0.1767767   0.2651650), wk =   0.0058594
        k(   92) = (   0.3535534   0.0883883   0.0000000), wk =   0.0058594
        k(   93) = (   0.3977476   0.1325825  -0.0441942), wk =   0.0117188
        k(   94) = (   0.4419417   0.1767767  -0.0883883), wk =   0.0117188
        k(   95) = (  -0.2209709  -0.4861359   0.5745243), wk =   0.0117188
        k(   96) = (  -0.1767767  -0.4419417   0.5303301), wk =   0.0117188
        k(   97) = (  -0.1325825  -0.3977476   0.4861359), wk =   0.0117188
        k(   98) = (  -0.0883883  -0.3535534   0.4419417), wk =   0.0117188
        k(   99) = (  -0.0441942  -0.3093592   0.3977476), wk =   0.0117188
        k(  100) = (   0.0000000  -0.2651650   0.3535534), wk =   0.0058594
        k(  101) = (   0.4419417   0.0883883   0.0000000), wk =   0.0058594
        k(  102) = (   0.4861359   0.1325825  -0.0441942), wk =   0.0117188
        k(  103) = (  -0.1767767  -0.5303301   0.6187184), wk =   0.0117188
        k(  104) = (  -0.1325825  -0.4861359   0.5745243), wk =   0.0117188
        k(  105) = (  -0.0883883  -0.4419417   0.5303301), wk =   0.0117188
        k(  106) = (  -0.0441942  -0.3977476   0.4861359), wk =   0.0117188
        k(  107) = (   0.0000000  -0.3535534   0.4419417), wk =   0.0058594
        k(  108) = (   0.5303301   0.0883883   0.0000000), wk =   0.0058594
        k(  109) = (  -0.1325825  -0.5745243   0.6629126), wk =   0.0117188
        k(  110) = (  -0.0883883  -0.5303301   0.6187184), wk =   0.0117188
        k(  111) = (  -0.0441942  -0.4861359   0.5745243), wk =   0.0117188
        k(  112) = (   0.0000000  -0.4419417   0.5303301), wk =   0.0058594
        k(  113) = (  -0.0883883  -0.6187184   0.7071068), wk =   0.0058594
        k(  114) = (  -0.0441942  -0.5745243   0.6629126), wk =   0.0117188
        k(  115) = (  -0.0000000  -0.5303301   0.6187184), wk =   0.0058594
        k(  116) = (  -0.7071068   0.0883883   0.0000000), wk =   0.0029297
        k(  117) = (   0.3535534   0.1767767   0.0000000), wk =   0.0058594
        k(  118) = (   0.3977476   0.2209709  -0.0441942), wk =   0.0117188
        k(  119) = (  -0.2651650  -0.4419417   0.6187184), wk =   0.0117188
        k(  120) = (  -0.2209709  -0.3977476   0.5745243), wk =   0.0117188
        k(  121) = (  -0.1767767  -0.3535534   0.5303301), wk =   0.0058594
        k(  122) = (   0.4419417   0.1767767   0.0000000), wk =   0.0058594
        k(  123) = (  -0.2209709  -0.4861359   0.6629126), wk =   0.0117188
        k(  124) = (  -0.1767767  -0.4419417   0.6187184), wk =   0.0117188
        k(  125) = (  -0.1325825  -0.3977476   0.5745243), wk =   0.0117188
        k(  126) = (  -0.0883883  -0.3535534   0.5303301), wk =   0.0117188
        k(  127) = (  -0.0441942  -0.3093592   0.4861359), wk =   0.0117188
        k(  128) = (   0.0000000  -0.2651650   0.4419417), wk =   0.0058594
        k(  129) = (  -0.1767767  -0.5303301   0.7071068), wk =   0.0058594
        k(  130) = (  -0.1325825  -0.4861359   0.6629126), wk =   0.0117188
        k(  131) = (  -0.0883883  -0.4419417   0.6187184), wk =   0.0117188
        k(  132) = (  -0.0441942  -0.3977476   0.5745243), wk =   0.0117188
        k(  133) = (   0.0000000  -0.3535534   0.5303301), wk =   0.0058594
        k(  134) = (  -0.0883883  -0.5303301   0.7071068), wk =   0.0058594
        k(  135) = (  -0.0441942  -0.4861359   0.6629126), wk =   0.0117188
        k(  136) = (   0.0000000  -0.4419417   0.6187184), wk =   0.0058594
        k(  137) = (  -0.7071068   0.1767767   0.0000000), wk =   0.0029297
        k(  138) = (  -0.1767767  -0.4419417   0.7071068), wk =   0.0058594
        k(  139) = (  -0.1325825  -0.3977476   0.6629126), wk =   0.0117188
        k(  140) = (  -0.0883883  -0.3535534   0.6187184), wk =   0.0058594
        k(  141) = (  -0.0883883  -0.4419417   0.7071068), wk =   0.0058594
        k(  142) = (  -0.0441942  -0.3977476   0.6629126), wk =   0.0117188
        k(  143) = (  -0.0000000  -0.3535534   0.6187184), wk =   0.0058594
        k(  144) = (  -0.7071068   0.2651650   0.0000000), wk =   0.0029297
        k(  145) = (  -0.7071068   0.3535534   0.0000000), wk =   0.0014648

                       cryst. coord.
        k(    1) = (   0.0000000   0.0000000   0.0000000), wk =   0.0002441
        k(    2) = (   0.0000000   0.0000000   0.0625000), wk =   0.0019531
        k(    3) = (   0.0000000   0.0000000   0.1250000), wk =   0.0019531
        k(    4) = (   0.0000000   0.0000000   0.1875000), wk =   0.0019531
        k(    5) = (   0.0000000   0.0000000   0.2500000), wk =   0.0019531
        k(    6) = (   0.0000000   0.0000000   0.3125000), wk =   0.0019531
        k(    7) = (   0.0000000   0.0000000   0.3750000), wk =   0.0019531
        k(    8) = (   0.0000000   0.0000000   0.4375000), wk =   0.0019531
        k(    9) = (   0.0000000   0.0000000  -0.5000000), wk =   0.0009766
        k(   10) = (   0.0000000   0.0625000   0.0625000), wk =   0.0014648
        k(   11) = (   0.0000000   0.0625000   0.1250000), wk =   0.0058594
        k(   12) = (   0.0000000   0.0625000   0.1875000), wk =   0.0058594
        k(   13) = (   0.0000000   0.0625000   0.2500000), wk =   0.0058594
        k(   14) = (   0.0000000   0.0625000   0.3125000), wk =   0.0058594
        k(   15) = (   0.0000000   0.0625000   0.3750000), wk =   0.0058594
        k(   16) = (   0.0000000   0.0625000   0.4375000), wk =   0.0058594
        k(   17) = (   0.0000000   0.0625000  -0.5000000), wk =   0.0058594
        k(   18) = (   0.0000000   0.0625000  -0.4375000), wk =   0.0058594
        k(   19) = (   0.0000000   0.0625000  -0.3750000), wk =   0.0058594
        k(   20) = (   0.0000000   0.0625000  -0.3125000), wk =   0.0058594
        k(   21) = (   0.0000000   0.0625000  -0.2500000), wk =   0.0058594
        k(   22) = (   0.0000000   0.0625000  -0.1875000), wk =   0.0058594
        k(   23) = (   0.0000000   0.0625000  -0.1250000), wk =   0.0058594
        k(   24) = (   0.0000000   0.0625000  -0.0625000), wk =   0.0029297
        k(   25) = (   0.0000000   0.1250000   0.1250000), wk =   0.0014648
        k(   26) = (   0.0000000   0.1250000   0.1875000), wk =   0.0058594
        k(   27) = (   0.0000000   0.1250000   0.2500000), wk =   0.0058594
        k(   28) = (   0.0000000   0.1250000   0.3125000), wk =   0.0058594
        k(   29) = (   0.0000000   0.1250000   0.3750000), wk =   0.0058594
        k(   30) = (   0.0000000   0.1250000   0.4375000), wk =   0.0058594
        k(   31) = (   0.0000000   0.1250000  -0.5000000), wk =   0.0058594
        k(   32) = (   0.0000000   0.1250000  -0.4375000), wk =   0.0058594
        k(   33) = (   0.0000000   0.1250000  -0.3750000), wk =   0.0058594
        k(   34) = (   0.0000000   0.1250000  -0.3125000), wk =   0.0058594
        k(   35) = (   0.0000000   0.1250000  -0.2500000), wk =   0.0058594
        k(   36) = (   0.0000000   0.1250000  -0.1875000), wk =   0.0058594
        k(   37) = (   0.0000000   0.1250000  -0.1250000), wk =   0.0029297
        k(   38) = (   0.0000000   0.1875000   0.1875000), wk =   0.0014648
        k(   39) = (   0.0000000   0.1875000   0.2500000), wk =   0.0058594
        k(   40) = (   0.0000000   0.1875000   0.3125000), wk =   0.0058594
        k(   41) = (   0.0000000   0.1875000   0.3750000), wk =   0.0058594
        k(   42) = (   0.0000000   0.1875000   0.4375000), wk =   0.0058594
        k(   43) = (   0.0000000   0.1875000  -0.5000000), wk =   0.0058594
        k(   44) = (   0.0000000   0.1875000  -0.4375000), wk =   0.0058594
        k(   45) = (   0.0000000   0.1875000  -0.3750000), wk =   0.0058594
        k(   46) = (   0.0000000   0.1875000  -0.3125000), wk =   0.0058594
        k(   47) = (   0.0000000   0.1875000  -0.2500000), wk =   0.0058594
        k(   48) = (   0.0000000   0.1875000  -0.1875000), wk =   0.0029297
        k(   49) = (   0.0000000   0.2500000   0.2500000), wk =   0.0014648
        k(   50) = (   0.0000000   0.2500000   0.3125000), wk =   0.0058594
        k(   51) = (   0.0000000   0.2500000   0.3750000), wk =   0.0058594
        k(   52) = (   0.0000000   0.2500000   0.4375000), wk =   0.0058594
        k(   53) = (   0.0000000   0.2500000  -0.5000000), wk =   0.0058594
        k(   54) = (   0.0000000   0.2500000  -0.4375000), wk =   0.0058594
        k(   55) = (   0.0000000   0.2500000  -0.3750000), wk =   0.0058594
        k(   56) = (   0.0000000   0.2500000  -0.3125000), wk =   0.0058594
        k(   57) = (   0.0000000   0.2500000  -0.2500000), wk =   0.0029297
        k(   58) = (   0.0000000   0.3125000   0.3125000), wk =   0.0014648
        k(   59) = (   0.0000000   0.3125000   0.3750000), wk =   0.0058594
        k(   60) = (   0.0000000   0.3125000   0.4375000), wk =   0.0058594
        k(   61) = (   0.0000000   0.3125000  -0.5000000), wk =   0.0058594
        k(   62) = (   0.0000000   0.3125000  -0.4375000), wk =   0.0058594
        k(   63) = (   0.0000000   0.3125000  -0.3750000), wk =   0.0058594
        k(   64) = (   0.0000000   0.3125000  -0.3125000), wk =   0.0029297
        k(   65) = (   0.0000000   0.3750000   0.3750000), wk =   0.0014648
        k(   66) = (   0.0000000   0.3750000   0.4375000), wk =   0.0058594
        k(   67) = (   0.0000000   0.3750000  -0.5000000), wk =   0.0058594
        k(   68) = (   0.0000000   0.3750000  -0.4375000), wk =   0.0058594
        k(   69) = (   0.0000000   0.3750000  -0.3750000), wk =   0.0029297
        k(   70) = (   0.0000000   0.4375000   0.4375000), wk =   0.0014648
        k(   71) = (   0.0000000   0.4375000  -0.5000000), wk =   0.0058594
        k(   72) = (   0.0000000   0.4375000  -0.4375000), wk =   0.0029297
        k(   73) = (   0.0000000  -0.5000000  -0.5000000), wk =   0.0007324
        k(   74) = (   0.0625000   0.1250000   0.1875000), wk =   0.0058594
        k(   75) = (   0.0625000   0.1250000   0.2500000), wk =   0.0117188
        k(   76) = (   0.0625000   0.1250000   0.3125000), wk =   0.0117188
        k(   77) = (   0.0625000   0.1250000   0.3750000), wk =   0.0117188
        k(   78) = (   0.0625000   0.1250000   0.4375000), wk =   0.0117188
        k(   79) = (   0.0625000   0.1250000  -0.5000000), wk =   0.0117188
        k(   80) = (   0.0625000   0.1250000  -0.4375000), wk =   0.0058594
        k(   81) = (   0.0625000   0.1875000   0.2500000), wk =   0.0058594
        k(   82) = (   0.0625000   0.1875000   0.3125000), wk =   0.0117188
        k(   83) = (   0.0625000   0.1875000   0.3750000), wk =   0.0117188
        k(   84) = (   0.0625000   0.1875000   0.4375000), wk =   0.0117188
        k(   85) = (   0.0625000   0.1875000  -0.5000000), wk =   0.0117188
        k(   86) = (   0.0625000   0.1875000  -0.4375000), wk =   0.0117188
        k(   87) = (   0.0625000   0.1875000  -0.3750000), wk =   0.0117188
        k(   88) = (   0.0625000   0.1875000  -0.3125000), wk =   0.0117188
        k(   89) = (   0.0625000   0.1875000  -0.2500000), wk =   0.0117188
        k(   90) = (   0.0625000   0.1875000  -0.1875000), wk =   0.0117188
        k(   91) = (   0.0625000   0.1875000  -0.1250000), wk =   0.0058594
        k(   92) = (   0.0625000   0.2500000   0.3125000), wk =   0.0058594
        k(   93) = (   0.0625000   0.2500000   0.3750000), wk =   0.0117188
        k(   94) = (   0.0625000   0.2500000   0.4375000), wk =   0.0117188
        k(   95) = (   0.0625000   0.2500000  -0.5000000), wk =   0.0117188
        k(   96) = (   0.0625000   0.2500000  -0.4375000), wk =   0.0117188
        k(   97) = (   0.0625000   0.2500000  -0.3750000), wk =   0.0117188
        k(   98) = (   0.0625000   0.2500000  -0.3125000), wk =   0.0117188
        k(   99) = (   0.0625000   0.2500000  -0.2500000), wk =   0.0117188
        k(  100) = (   0.0625000   0.2500000  -0.1875000), wk =   0.0058594
        k(  101) = (   0.0625000   0.3125000   0.3750000), wk =   0.0058594
        k(  102) = (   0.0625000   0.3125000   0.4375000), wk =   0.0117188
        k(  103) = (   0.0625000   0.3125000  -0.5000000), wk =   0.0117188
        k(  104) = (   0.0625000   0.3125000  -0.4375000), wk =   0.0117188
        k(  105) = (   0.0625000   0.3125000  -0.3750000), wk =   0.0117188
        k(  106) = (   0.0625000   0.3125000  -0.3125000), wk =   0.0117188
        k(  107) = (   0.0625000   0.3125000  -0.2500000), wk =   0.0058594
        k(  108) = (   0.0625000   0.3750000   0.4375000), wk =   0.0058594
        k(  109) = (   0.0625000   0.3750000  -0.5000000), wk =   0.0117188
        k(  110) = (   0.0625000   0.3750000  -0.4375000), wk =   0.0117188
        k(  111) = (   0.0625000   0.3750000  -0.3750000), wk =   0.0117188
        k(  112) = (   0.0625000   0.3750000  -0.3125000), wk =   0.0058594
        k(  113) = (   0.0625000   0.4375000  -0.5000000), wk =   0.0058594
        k(  114) = (   0.0625000   0.4375000  -0.4375000), wk =   0.0117188
        k(  115) = (   0.0625000   0.4375000  -0.3750000), wk =   0.0058594
        k(  116) = (   0.0625000  -0.5000000  -0.4375000), wk =   0.0029297
        k(  117) = (   0.1250000   0.2500000   0.3750000), wk =   0.0058594
        k(  118) = (   0.1250000   0.2500000   0.4375000), wk =   0.0117188
        k(  119) = (   0.1250000   0.2500000  -0.5000000), wk =   0.0117188
        k(  120) = (   0.1250000   0.2500000  -0.4375000), wk =   0.0117188
        k(  121) = (   0.1250000   0.2500000  -0.3750000), wk =   0.0058594
        k(  122) = (   0.1250000   0.3125000   0.4375000), wk =   0.0058594
        k(  123) = (   0.1250000   0.3125000  -0.5000000), wk =   0.0117188
        k(  124) = (   0.1250000   0.3125000  -0.4375000), wk =   0.0117188
        k(  125) = (   0.1250000   0.3125000  -0.3750000), wk =   0.0117188
        k(  126) = (   0.1250000   0.3125000  -0.3125000), wk =   0.0117188
        k(  127) = (   0.1250000   0.3125000  -0.2500000), wk =   0.0117188
        k(  128) = (   0.1250000   0.3125000  -0.1875000), wk =   0.0058594
        k(  129) = (   0.1250000   0.3750000  -0.5000000), wk =   0.0058594
        k(  130) = (   0.1250000   0.3750000  -0.4375000), wk =   0.0117188
        k(  131) = (   0.1250000   0.3750000  -0.3750000), wk =   0.0117188
        k(  132) = (   0.1250000   0.3750000  -0.3125000), wk =   0.0117188
        k(  133) = (   0.1250000   0.3750000  -0.2500000), wk =   0.0058594
        k(  134) = (   0.1250000   0.4375000  -0.4375000), wk =   0.0058594
        k(  135) = (   0.1250000   0.4375000  -0.3750000), wk =   0.0117188
        k(  136) = (   0.1250000   0.4375000  -0.3125000), wk =   0.0058594
        k(  137) = (   0.1250000  -0.5000000  -0.3750000), wk =   0.0029297
        k(  138) = (   0.1875000   0.3750000  -0.4375000), wk =   0.0058594
        k(  139) = (   0.1875000   0.3750000  -0.3750000), wk =   0.0117188
        k(  140) = (   0.1875000   0.3750000  -0.3125000), wk =   0.0058594
        k(  141) = (   0.1875000   0.4375000  -0.3750000), wk =   0.0058594
        k(  142) = (   0.1875000   0.4375000  -0.3125000), wk =   0.0117188
        k(  143) = (   0.1875000   0.4375000  -0.2500000), wk =   0.0058594
        k(  144) = (   0.1875000  -0.5000000  -0.3125000), wk =   0.0029297
        k(  145) = (   0.2500000  -0.5000000  -0.2500000), wk =   0.0014648

     Dense  grid:    27581 G-vectors     FFT dimensions: (  45,  45,  45)

     Largest allocated arrays     est. size (Mb)     dimensions
        Kohn-Sham Wavefunctions         0.24 Mb     (     446,   36)
        NL pseudopotentials             0.23 Mb     (     223,   68)
        Each V/rho on FFT grid          0.09 Mb     (    6075)
        Each G-vector array             0.01 Mb     (    1725)
        G-vector shells                 0.00 Mb     (     281)
     Largest temporary arrays     est. size (Mb)     dimensions
        Auxiliary wavefunctions         0.98 Mb     (     446,  144)
        Each subspace H/S matrix        0.32 Mb     (     144,  144)
        Each <psi_i|beta_j> matrix      0.07 Mb     (      68,   2,   36)
        Arrays for rho mixing           0.74 Mb     (    6075,    8)

     Check: negative/imaginary core charge=   -0.000021    0.000000

     Initial potential from superposition of free atoms

     starting charge   27.99781, renormalised to   28.00000
     Starting wfc are   36 randomized atomic wfcs
     Checking if some PAW data can be deallocated... 

     total cpu time spent up to now is       13.4 secs

     Self-consistent Calculation

     iteration #  1     ecut=    55.00 Ry     beta=0.70
     Davidson diagonalization with overlap
     ethr =  1.00E-02,  avg # of iterations =  4.0

     Threshold (ethr) on eigenvalues was too large:
     Diagonalizing with lowered threshold

     Davidson diagonalization with overlap
     ethr =  4.52E-05,  avg # of iterations =  4.2

     total cpu time spent up to now is      109.8 secs

     total energy              =    -885.88230501 Ry
     Harris-Foulkes estimate   =    -885.88522686 Ry
     estimated scf accuracy    <       0.01953995 Ry

     iteration #  2     ecut=    55.00 Ry     beta=0.70
     Davidson diagonalization with overlap
     ethr =  6.98E-05,  avg # of iterations =  1.0

     total cpu time spent up to now is      140.0 secs

     total energy              =    -885.88249780 Ry
     Harris-Foulkes estimate   =    -885.88277374 Ry
     estimated scf accuracy    <       0.00143729 Ry

     iteration #  3     ecut=    55.00 Ry     beta=0.70
     Davidson diagonalization with overlap
     ethr =  5.13E-06,  avg # of iterations =  2.6

     total cpu time spent up to now is      177.0 secs

     total energy              =    -885.88270987 Ry
     Harris-Foulkes estimate   =    -885.88277957 Ry
     estimated scf accuracy    <       0.00009182 Ry

     iteration #  4     ecut=    55.00 Ry     beta=0.70
     Davidson diagonalization with overlap
     ethr =  3.28E-07,  avg # of iterations =  3.0

     total cpu time spent up to now is      221.5 secs

     total energy              =    -885.88275676 Ry
     Harris-Foulkes estimate   =    -885.88275575 Ry
     estimated scf accuracy    <       0.00000468 Ry

     iteration #  5     ecut=    55.00 Ry     beta=0.70
     Davidson diagonalization with overlap
     ethr =  1.67E-08,  avg # of iterations =  2.0

     total cpu time spent up to now is      254.7 secs

     End of self-consistent calculation

          k = 0.0000 0.0000 0.0000 (  3479 PWs)   bands (ev):

   -14.5226 -14.5226 -14.5226 -14.5226 -14.4426 -14.4426 -14.4426 -14.4426
   -13.5949 -13.5949 -13.4261 -13.4261 -13.4261 -13.4261 -13.3885 -13.3885
   -13.3885 -13.3885 -13.2869 -13.2869  -2.5429  -2.5429   6.3483   6.3483
     7.1790   7.1790   7.8302   7.8302   7.8302   7.8302   9.3596   9.3596
     9.8344   9.8344   9.8344   9.8344

     occupation numbers 
     1.0000   1.0000   1.0000   1.0000   1.0000   1.0000   1.0000   1.0000
     1.0000   1.0000   1.0000   1.0000   1.0000   1.0000   1.0000   1.0000
     1.0000   1.0000   1.0000   1.0000   1.0000   1.0000   1.0000   1.0000
     1.0000   1.0000   0.0000   0.0000   0.0000   0.0000   0.0000   0.0000
     0.0000   0.0000   0.0000   0.0000

          k = 0.0442 0.0442-0.0442 (  3467 PWs)   bands (ev):

   -14.5230 -14.5229 -14.5218 -14.5218 -14.4434 -14.4434 -14.4421 -14.4421
   -13.5931 -13.5931 -13.4311 -13.4311 -13.4293 -13.4291 -13.3853 -13.3852
   -13.3843 -13.3843 -13.2878 -13.2878  -2.5081  -2.5081   5.9399   5.9399
     7.2254   7.2254   7.7553   7.7553   7.8904   7.8904   9.5172   9.5172
     9.9172   9.9172   9.9316   9.9316

     occupation numbers 
     1.0000   1.0000   1.0000   1.0000   1.0000   1.0000   1.0000   1.0000
     1.0000   1.0000   1.0000   1.0000   1.0000   1.0000   1.0000   1.0000
     1.0000   1.0000   1.0000   1.0000   1.0000   1.0000   1.0000   1.0000
     1.0000   1.0000   0.0000   0.0000   0.0000   0.0000   0.0000   0.0000
     0.0000   0.0000   0.0000   0.0000

          k = 0.0884 0.0884-0.0884 (  3467 PWs)   bands (ev):

   -14.5240 -14.5240 -14.5195 -14.5195 -14.4456 -14.4456 -14.4407 -14.4406
   -13.5880 -13.5880 -13.4420 -13.4420 -13.4362 -13.4360 -13.3779 -13.3777
   -13.3754 -13.3754 -13.2905 -13.2905  -2.4048  -2.4048   5.1770   5.1770
     7.1192   7.1192   7.5735   7.5735   7.9365   7.9365   9.8445   9.8445
    10.1695  10.1695  10.2725  10.2725

     occupation numbers 
     1.0000   1.0000   1.0000   1.0000   1.0000   1.0000   1.0000   1.0000
     1.0000   1.0000   1.0000   1.0000   1.0000   1.0000   1.0000   1.0000
     1.0000   1.0000   1.0000   1.0000   1.0000   1.0000   1.0000   1.0000
     1.0000   1.0000   1.0000   1.0000   0.0000   0.0000   0.0000   0.0000
     0.0000   0.0000   0.0000   0.0000

          k = 0.1326 0.1326-0.1326 (  3467 PWs)   bands (ev):

   -14.5255 -14.5254 -14.5159 -14.5159 -14.4491 -14.4491 -14.4387 -14.4385
   -13.5799 -13.5799 -13.4550 -13.4550 -13.4440 -13.4439 -13.3692 -13.3690
   -13.3657 -13.3657 -13.2948 -13.2948  -2.2359  -2.2359   4.3490   4.3490
     6.9238   6.9238   7.3552   7.3552   7.8574   7.8574  10.1307  10.1307
    10.4446  10.4446  10.9415  10.9415

     occupation numbers 
     1.0000   1.0000   1.0000   1.0000   1.0000   1.0000   1.0000   1.0000
     1.0000   1.0000   1.0000   1.0000   1.0000   1.0000   1.0000   1.0000
     1.0000   1.0000   1.0000   1.0000   1.0000   1.0000   1.0000   1.0000
     1.0000   1.0000   1.0000   1.0000   0.0000   0.0000   0.0000   0.0000
     0.0000   0.0000   0.0000   0.0000

          k = 0.1768 0.1768-0.1768 (  3455 PWs)   bands (ev):

   -14.5271 -14.5270 -14.5111 -14.5111 -14.4537 -14.4537 -14.4364 -14.4362
   -13.5695 -13.5695 -13.4683 -13.4683 -13.4514 -13.4512 -13.3608 -13.3607
   -13.3565 -13.3565 -13.3003 -13.3003  -2.0075  -2.0075   3.5389   3.5389
     6.7237   6.7237   7.1463   7.1463   7.7183   7.7183  10.3616  10.3616
    10.6675  10.6675  11.7507  11.7507

     occupation numbers 
     1.0000   1.0000   1.0000   1.0000   1.0000   1.0000   1.0000   1.0000
     1.0000   1.0000   1.0000   1.0000   1.0000   1.0000   1.0000   1.0000
     1.0000   1.0000   1.0000   1.0000   1.0000   1.0000   1.0000   1.0000
     1.0000   1.0000   1.0000   1.0000   0.0000   0.0000   0.0000   0.0000
     0.0000   0.0000   0.0000   0.0000

          k = 0.2210 0.2210-0.2210 (  3446 PWs)   bands (ev):

   -14.5286 -14.5285 -14.5054 -14.5054 -14.4592 -14.4592 -14.4342 -14.4341
   -13.5577 -13.5577 -13.4815 -13.4815 -13.4575 -13.4574 -13.3536 -13.3535
   -13.3481 -13.3481 -13.3067 -13.3067  -1.7328  -1.7328   2.7919   2.7919
     6.5518   6.5518   6.9704   6.9704   7.5788   7.5788  10.5101  10.5101
    10.7932  10.7932  12.6125  12.6125

     occupation numbers 
     1.0000   1.0000   1.0000   1.0000   1.0000   1.0000   1.0000   1.0000
     1.0000   1.0000   1.0000   1.0000   1.0000   1.0000   1.0000   1.0000
     1.0000   1.0000   1.0000   1.0000   1.0000   1.0000   1.0000   1.0000
     1.0000   1.0000   1.0000   1.0000   0.1253   0.1253   0.0000   0.0000
     0.0000   0.0000   0.0000   0.0000

          k = 0.2652 0.2652-0.2652 (  3452 PWs)   bands (ev):

   -14.5298 -14.5297 -14.4994 -14.4994 -14.4650 -14.4650 -14.4324 -14.4323
   -13.5453 -13.5453 -13.4942 -13.4942 -13.4621 -13.4621 -13.3481 -13.3481
   -13.3406 -13.3406 -13.3134 -13.3134  -1.4398  -1.4398   2.1526   2.1526
     6.4226   6.4226   6.8391   6.8391   7.4678   7.4678  10.5789  10.5789
    10.8359  10.8359  13.2758  13.2758

     occupation numbers 
     1.0000   1.0000   1.0000   1.0000   1.0000   1.0000   1.0000   1.0000
     1.0000   1.0000   1.0000   1.0000   1.0000   1.0000   1.0000   1.0000
     1.0000   1.0000   1.0000   1.0000   1.0000   1.0000   1.0000   1.0000
     1.0000   1.0000   1.0000   1.0000   1.0000   1.0000   0.0000   0.0000
     0.0000   0.0000   0.0000   0.0000

          k = 0.3094 0.3094-0.3094 (  3444 PWs)   bands (ev):

   -14.5305 -14.5305 -14.4939 -14.4939 -14.4704 -14.4704 -14.4313 -14.4312
   -13.5330 -13.5330 -13.5063 -13.5063 -13.4650 -13.4649 -13.3447 -13.3447
   -13.3337 -13.3337 -13.3201 -13.3201  -1.1884  -1.1884   1.6903   1.6903
     6.3430   6.3430   6.7585   6.7585   7.3978   7.3978  10.6001  10.6001
    10.8387  10.8387  13.3058  13.3058

     occupation numbers 
     1.0000   1.0000   1.0000   1.0000   1.0000   1.0000   1.0000   1.0000
     1.0000   1.0000   1.0000   1.0000   1.0000   1.0000   1.0000   1.0000
     1.0000   1.0000   1.0000   1.0000   1.0000   1.0000   1.0000   1.0000
     1.0000   1.0000   1.0000   1.0000   1.0000   1.0000   0.0000   0.0000
     0.0000   0.0000   0.0000   0.0000

          k =-0.3536-0.3536 0.3536 (  3444 PWs)   bands (ev):

   -14.5308 -14.5308 -14.4912 -14.4912 -14.4730 -14.4730 -14.4309 -14.4309
   -13.5244 -13.5244 -13.5149 -13.5149 -13.4659 -13.4659 -13.3435 -13.3435
   -13.3282 -13.3282 -13.3257 -13.3257  -1.0821  -1.0821   1.5132   1.5132
     6.3161   6.3161   6.7313   6.7313   7.3740   7.3740  10.6035  10.6035
    10.8356  10.8356  13.2812  13.2812

     occupation numbers 
     1.0000   1.0000   1.0000   1.0000   1.0000   1.0000   1.0000   1.0000
     1.0000   1.0000   1.0000   1.0000   1.0000   1.0000   1.0000   1.0000
     1.0000   1.0000   1.0000   1.0000   1.0000   1.0000   1.0000   1.0000
     1.0000   1.0000   1.0000   1.0000   1.0000   1.0000   0.0000   0.0000
     0.0000   0.0000   0.0000   0.0000

          k = 0.0884 0.0000 0.0000 (  3471 PWs)   bands (ev):

   -14.5227 -14.5227 -14.5220 -14.5220 -14.4433 -14.4433 -14.4422 -14.4422
   -13.5926 -13.5926 -13.4334 -13.4334 -13.4291 -13.4291 -13.3846 -13.3846
   -13.3829 -13.3829 -13.2881 -13.2881  -2.4965  -2.4965   5.8591   5.8591
     7.1582   7.1582   7.5744   7.5744   8.1478   8.1478   9.4357   9.4357
     9.9298   9.9298  10.0657  10.0657

     occupation numbers 
     1.0000   1.0000   1.0000   1.0000   1.0000   1.0000   1.0000   1.0000
     1.0000   1.0000   1.0000   1.0000   1.0000   1.0000   1.0000   1.0000
     1.0000   1.0000   1.0000   1.0000   1.0000   1.0000   1.0000   1.0000
     1.0000   1.0000   0.9997   0.9997   0.0000   0.0000   0.0000   0.0000
     0.0000   0.0000   0.0000   0.0000

          k = 0.1326 0.0442-0.0442 (  3461 PWs)   bands (ev):

   -14.5235 -14.5234 -14.5203 -14.5203 -14.4449 -14.4449 -14.4412 -14.4411
   -13.5885 -13.5885 -13.4422 -13.4422 -13.4340 -13.4339 -13.3794 -13.3794
   -13.3757 -13.3757 -13.2901 -13.2901  -2.4159  -2.4159   5.2937   5.2937
     7.0191   7.0191   7.3635   7.3635   8.3503   8.3503   9.5038   9.5038
    10.2156  10.2156  10.3678  10.3678

     occupation numbers 
     1.0000   1.0000   1.0000   1.0000   1.0000   1.0000   1.0000   1.0000
     1.0000   1.0000   1.0000   1.0000   1.0000   1.0000   1.0000   1.0000
     1.0000   1.0000   1.0000   1.0000   1.0000   1.0000   1.0000   1.0000
     1.0000   1.0000   1.0000   1.0000   0.0000   0.0000   0.0000   0.0000
     0.0000   0.0000   0.0000   0.0000

          k = 0.1768 0.0884-0.0884 (  3472 PWs)   bands (ev):

   -14.5249 -14.5248 -14.5171 -14.5171 -14.4480 -14.4480 -14.4393 -14.4392
   -13.5814 -13.5814 -13.4539 -13.4539 -13.4410 -13.4408 -13.3730 -13.3729
   -13.3658 -13.3658 -13.2937 -13.2937  -2.2684  -2.2684   4.5414   4.5414
     6.8145   6.8145   7.1451   7.1451   8.3454   8.3455   9.7472   9.7472
    10.5497  10.5497  10.8806  10.8807

     occupation numbers 
     1.0000   1.0000   1.0000   1.0000   1.0000   1.0000   1.0000   1.0000
     1.0000   1.0000   1.0000   1.0000   1.0000   1.0000   1.0000   1.0000
     1.0000   1.0000   1.0000   1.0000   1.0000   1.0000   1.0000   1.0000
     1.0000   1.0000   1.0000   1.0000   0.0000   0.0000   0.0000   0.0000
     0.0000   0.0000   0.0000   0.0000

          k = 0.2210 0.1326-0.1326 (  3455 PWs)   bands (ev):

   -14.5265 -14.5264 -14.5126 -14.5126 -14.4524 -14.4523 -14.4370 -14.4369
   -13.5718 -13.5718 -13.4664 -13.4664 -13.4482 -13.4480 -13.3665 -13.3664
   -13.3558 -13.3557 -13.2985 -13.2985  -2.0588  -2.0588   3.7548   3.7548
     6.5987   6.5988   6.9274   6.9274   8.2282   8.2282  10.0518  10.0518
    10.8050  10.8050  11.5188  11.5188

     occupation numbers 
     1.0000   1.0000   1.0000   1.0000   1.0000   1.0000   1.0000   1.0000
     1.0000   1.0000   1.0000   1.0000   1.0000   1.0000   1.0000   1.0000
     1.0000   1.0000   1.0000   1.0000   1.0000   1.0000   1.0000   1.0000
     1.0000   1.0000   1.0000   1.0000   0.0000   0.0000   0.0000   0.0000
     0.0000   0.0000   0.0000   0.0000

          k = 0.2652 0.1768-0.1768 (  3458 PWs)   bands (ev):

   -14.5281 -14.5280 -14.5073 -14.5072 -14.4576 -14.4576 -14.4347 -14.4346
   -13.5606 -13.5606 -13.4789 -13.4789 -13.4546 -13.4545 -13.3607 -13.3607
   -13.3467 -13.3467 -13.3040 -13.3039  -1.7974  -1.7974   3.0022   3.0022
     6.4040   6.4040   6.7413   6.7413   8.0845   8.0845  10.3046  10.3046
    10.9452  10.9452  12.1951  12.1951

     occupation numbers 
     1.0000   1.0000   1.0000   1.0000   1.0000   1.0000   1.0000   1.0000
     1.0000   1.0000   1.0000   1.0000   1.0000   1.0000   1.0000   1.0000
     1.0000   1.0000   1.0000   1.0000   1.0000   1.0000   1.0000   1.0000
     1.0000   1.0000   1.0000   1.0000   0.0000   0.0000   0.0000   0.0000
     0.0000   0.0000   0.0000   0.0000

          k = 0.3094 0.2210-0.2210 (  3454 PWs)   bands (ev):

   -14.5294 -14.5293 -14.5014 -14.5013 -14.4634 -14.4633 -14.4327 -14.4326
   -13.5486 -13.5486 -13.4909 -13.4909 -13.4598 -13.4598 -13.3560 -13.3560
   -13.3392 -13.3391 -13.3095 -13.3095  -1.5057  -1.5057   2.3326   2.3326
     6.2437   6.2437   6.6069   6.6069   7.9565   7.9565  10.4602  10.4602
    10.9771  10.9771  12.8609  12.8609

     occupation numbers 
     1.0000   1.0000   1.0000   1.0000   1.0000   1.0000   1.0000   1.0000
     1.0000   1.0000   1.0000   1.0000   1.0000   1.0000   1.0000   1.0000
     1.0000   1.0000   1.0000   1.0000   1.0000   1.0000   1.0000   1.0000
     1.0000   1.0000   1.0000   1.0000   0.0000   0.0000   0.0000   0.0000
     0.0000   0.0000   0.0000   0.0000

          k = 0.3536 0.2652-0.2652 (  3445 PWs)   bands (ev):

   -14.5303 -14.5302 -14.4956 -14.4954 -14.4691 -14.4690 -14.4313 -14.4312
   -13.5367 -13.5366 -13.5023 -13.5023 -13.4634 -13.4634 -13.3528 -13.3528
   -13.3335 -13.3335 -13.3143 -13.3143  -1.2302  -1.2302   1.8070   1.8070
     6.1252   6.1252   6.5328   6.5328   7.8630   7.8630  10.5434  10.5434
    10.9463  10.9463  13.2950  13.2950

     occupation numbers 
     1.0000   1.0000   1.0000   1.0000   1.0000   1.0000   1.0000   1.0000
     1.0000   1.0000   1.0000   1.0000   1.0000   1.0000   1.0000   1.0000
     1.0000   1.0000   1.0000   1.0000   1.0000   1.0000   1.0000   1.0000
     1.0000   1.0000   1.0000   1.0000   0.0000   0.0000   0.0000   0.0000
     0.0000   0.0000   0.0000   0.0000

          k =-0.3094-0.3977 0.3977 (  3447 PWs)   bands (ev):

   -14.5307 -14.5307 -14.4916 -14.4913 -14.4732 -14.4729 -14.4306 -14.4306
   -13.5267 -13.5267 -13.5118 -13.5118 -13.4650 -13.4650 -13.3513 -13.3513
   -13.3302 -13.3301 -13.3174 -13.3174  -1.0624  -1.0624   1.5243   1.5243
     6.0545   6.0546   6.5208   6.5208   7.8126   7.8126  10.5945  10.5945
    10.8981  10.8981  13.3915  13.3915

     occupation numbers 
     1.0000   1.0000   1.0000   1.0000   1.0000   1.0000   1.0000   1.0000
     1.0000   1.0000   1.0000   1.0000   1.0000   1.0000   1.0000   1.0000
     1.0000   1.0000   1.0000   1.0000   1.0000   1.0000   1.0000   1.0000
     1.0000   1.0000   1.0000   1.0000   0.0000   0.0000   0.0000   0.0000
     0.0000   0.0000   0.0000   0.0000

          k =-0.2652-0.3536 0.3536 (  3444 PWs)   bands (ev):

   -14.5306 -14.5306 -14.4925 -14.4922 -14.4723 -14.4721 -14.4307 -14.4307
   -13.5295 -13.5295 -13.5092 -13.5091 -13.4647 -13.4646 -13.3518 -13.3518
   -13.3306 -13.3306 -13.3168 -13.3168  -1.0994  -1.0994   1.5845   1.5846
     6.0364   6.0364   6.5689   6.5689   7.8084   7.8084  10.6279  10.6279
    10.8623  10.8623  13.4039  13.4039

     occupation numbers 
     1.0000   1.0000   1.0000   1.0000   1.0000   1.0000   1.0000   1.0000
     1.0000   1.0000   1.0000   1.0000   1.0000   1.0000   1.0000   1.0000
     1.0000   1.0000   1.0000   1.0000   1.0000   1.0000   1.0000   1.0000
     1.0000   1.0000   1.0000   1.0000   0.0000   0.0000   0.0000   0.0000
     0.0000   0.0000   0.0000   0.0000

          k =-0.2210-0.3094 0.3094 (  3450 PWs)   bands (ev):

   -14.5301 -14.5300 -14.4973 -14.4971 -14.4675 -14.4673 -14.4316 -14.4315
   -13.5406 -13.5406 -13.4986 -13.4986 -13.4623 -13.4622 -13.3542 -13.3542
   -13.3345 -13.3345 -13.3130 -13.3130  -1.3161  -1.3161   1.9621   1.9621
     6.0743   6.0743   6.6728   6.6728   7.8497   7.8497  10.6227  10.6227
    10.8532  10.8532  13.2860  13.2860

     occupation numbers 
     1.0000   1.0000   1.0000   1.0000   1.0000   1.0000   1.0000   1.0000
     1.0000   1.0000   1.0000   1.0000   1.0000   1.0000   1.0000   1.0000
     1.0000   1.0000   1.0000   1.0000   1.0000   1.0000   1.0000   1.0000
     1.0000   1.0000   1.0000   1.0000   0.0000   0.0000   0.0000   0.0000
     0.0000   0.0000   0.0000   0.0000

          k =-0.1768-0.2652 0.2652 (  3437 PWs)   bands (ev):

   -14.5290 -14.5290 -14.5032 -14.5031 -14.4616 -14.4615 -14.4332 -14.4331
   -13.5527 -13.5527 -13.4870 -13.4870 -13.4581 -13.4580 -13.3583 -13.3582
   -13.3407 -13.3406 -13.3078 -13.3078  -1.6048  -1.6048   2.5444   2.5444
     6.1702   6.1703   6.8260   6.8260   7.9320   7.9320  10.5491  10.5491
    10.8427  10.8427  12.7154  12.7154

     occupation numbers 
     1.0000   1.0000   1.0000   1.0000   1.0000   1.0000   1.0000   1.0000
     1.0000   1.0000   1.0000   1.0000   1.0000   1.0000   1.0000   1.0000
     1.0000   1.0000   1.0000   1.0000   1.0000   1.0000   1.0000   1.0000
     1.0000   1.0000   1.0000   1.0000   0.0000   0.0000   0.0000   0.0000
     0.0000   0.0000   0.0000   0.0000

          k =-0.1326-0.2210 0.2210 (  3451 PWs)   bands (ev):

   -14.5277 -14.5276 -14.5090 -14.5089 -14.4560 -14.4559 -14.4353 -14.4352
   -13.5645 -13.5645 -13.4749 -13.4748 -13.4524 -13.4523 -13.3635 -13.3634
   -13.3486 -13.3486 -13.3022 -13.3022  -1.8899  -1.8899   3.2463   3.2463
     6.3248   6.3249   7.0183   7.0183   8.0431   8.0431  10.3930  10.3930
    10.7479  10.7479  11.9889  11.9889

     occupation numbers 
     1.0000   1.0000   1.0000   1.0000   1.0000   1.0000   1.0000   1.0000
     1.0000   1.0000   1.0000   1.0000   1.0000   1.0000   1.0000   1.0000
     1.0000   1.0000   1.0000   1.0000   1.0000   1.0000   1.0000   1.0000
     1.0000   1.0000   1.0000   1.0000   0.0000   0.0000   0.0000   0.0000
     0.0000   0.0000   0.0000   0.0000

          k =-0.0884-0.1768 0.1768 (  3460 PWs)   bands (ev):

   -14.5261 -14.5260 -14.5140 -14.5140 -14.4510 -14.4510 -14.4376 -14.4375
   -13.5753 -13.5753 -13.4623 -13.4623 -13.4456 -13.4455 -13.3696 -13.3695
   -13.3581 -13.3580 -13.2969 -13.2969  -2.1355  -2.1355   4.0128   4.0128
     6.5366   6.5366   7.2323   7.2323   8.1549   8.1549  10.1610  10.1610
    10.4950  10.4950  11.3358  11.3358

     occupation numbers 
     1.0000   1.0000   1.0000   1.0000   1.0000   1.0000   1.0000   1.0000
     1.0000   1.0000   1.0000   1.0000   1.0000   1.0000   1.0000   1.0000
     1.0000   1.0000   1.0000   1.0000   1.0000   1.0000   1.0000   1.0000
     1.0000   1.0000   1.0000   1.0000   0.0000   0.0000   0.0000   0.0000
     0.0000   0.0000   0.0000   0.0000

          k =-0.0442-0.1326 0.1326 (  3466 PWs)   bands (ev):

   -14.5246 -14.5245 -14.5180 -14.5180 -14.4471 -14.4471 -14.4398 -14.4397
   -13.5841 -13.5841 -13.4498 -13.4497 -13.4386 -13.4384 -13.3761 -13.3760
   -13.3683 -13.3682 -13.2924 -13.2924  -2.3250  -2.3250   4.7904   4.7904
     6.7987   6.7988   7.4381   7.4382   8.2051   8.2052   9.8945   9.8945
    10.1502  10.1502  10.7697  10.7697

     occupation numbers 
     1.0000   1.0000   1.0000   1.0000   1.0000   1.0000   1.0000   1.0000
     1.0000   1.0000   1.0000   1.0000   1.0000   1.0000   1.0000   1.0000
     1.0000   1.0000   1.0000   1.0000   1.0000   1.0000   1.0000   1.0000
     1.0000   1.0000   1.0000   1.0000   0.0000   0.0000   0.0000   0.0000
     0.0000   0.0000   0.0000   0.0000

          k = 0.0000-0.0884 0.0884 (  3467 PWs)   bands (ev):

   -14.5234 -14.5234 -14.5207 -14.5207 -14.4445 -14.4445 -14.4414 -14.4413
   -13.5902 -13.5902 -13.4384 -13.4384 -13.4325 -13.4324 -13.3819 -13.3818
   -13.3781 -13.3780 -13.2893 -13.2893  -2.4505  -2.4505   5.4924   5.4924
     7.0800   7.0800   7.6005   7.6006   8.0994   8.0994   9.6519   9.6519
     9.9358   9.9358  10.2690  10.2690

     occupation numbers 
     1.0000   1.0000   1.0000   1.0000   1.0000   1.0000   1.0000   1.0000
     1.0000   1.0000   1.0000   1.0000   1.0000   1.0000   1.0000   1.0000
     1.0000   1.0000   1.0000   1.0000   1.0000   1.0000   1.0000   1.0000
     1.0000   1.0000   0.0000   0.0000   0.0000   0.0000   0.0000   0.0000
     0.0000   0.0000   0.0000   0.0000

          k = 0.1768 0.0000 0.0000 (  3459 PWs)   bands (ev):

   -14.5228 -14.5228 -14.5203 -14.5203 -14.4451 -14.4451 -14.4413 -14.4413
   -13.5857 -13.5857 -13.4482 -13.4482 -13.4356 -13.4356 -13.3751 -13.3751
   -13.3735 -13.3735 -13.2913 -13.2913  -2.3578  -2.3578   5.0445   5.0445
     6.8288   6.8288   7.0850   7.0850   8.8151   8.8151   9.1979   9.1979
    10.5167  10.5167  10.6230  10.6230

     occupation numbers 
     1.0000   1.0000   1.0000   1.0000   1.0000   1.0000   1.0000   1.0000
     1.0000   1.0000   1.0000   1.0000   1.0000   1.0000   1.0000   1.0000
     1.0000   1.0000   1.0000   1.0000   1.0000   1.0000   1.0000   1.0000
     1.0000   1.0000   1.0000   1.0000   0.0000   0.0000   0.0000   0.0000
     0.0000   0.0000   0.0000   0.0000

          k = 0.2210 0.0442-0.0442 (  3472 PWs)   bands (ev):

   -14.5237 -14.5237 -14.5180 -14.5180 -14.4474 -14.4474 -14.4400 -14.4399
   -13.5797 -13.5797 -13.4575 -13.4575 -13.4403 -13.4402 -13.3718 -13.3718
   -13.3653 -13.3653 -13.2938 -13.2938  -2.2321  -2.2321   4.5026   4.5026
     6.6091   6.6092   6.8433   6.8433   8.9610   8.9611   9.2272   9.2273
    10.8883  10.8883  11.0182  11.0182

     occupation numbers 
     1.0000   1.0000   1.0000   1.0000   1.0000   1.0000   1.0000   1.0000
     1.0000   1.0000   1.0000   1.0000   1.0000   1.0000   1.0000   1.0000
     1.0000   1.0000   1.0000   1.0000   1.0000   1.0000   1.0000   1.0000
     1.0000   1.0000   1.0000   1.0000   0.0000   0.0000   0.0000   0.0000
     0.0000   0.0000   0.0000   0.0000

          k = 0.2652 0.0884-0.0884 (  3457 PWs)   bands (ev):

   -14.5254 -14.5253 -14.5140 -14.5140 -14.4512 -14.4512 -14.4378 -14.4377
   -13.5711 -13.5711 -13.4684 -13.4684 -13.4458 -13.4458 -13.3692 -13.3692
   -13.3551 -13.3550 -13.2973 -13.2973  -2.0425  -2.0425   3.8281   3.8281
     6.3588   6.3589   6.6212   6.6212   8.8878   8.8878   9.5156   9.5157
    11.1848  11.1848  11.4413  11.4413

     occupation numbers 
     1.0000   1.0000   1.0000   1.0000   1.0000   1.0000   1.0000   1.0000
     1.0000   1.0000   1.0000   1.0000   1.0000   1.0000   1.0000   1.0000
     1.0000   1.0000   1.0000   1.0000   1.0000   1.0000   1.0000   1.0000
     1.0000   1.0000   1.0000   1.0000   0.0000   0.0000   0.0000   0.0000
     0.0000   0.0000   0.0000   0.0000

          k = 0.3094 0.1326-0.1326 (  3456 PWs)   bands (ev):

   -14.5270 -14.5270 -14.5090 -14.5090 -14.4562 -14.4561 -14.4353 -14.4352
   -13.5608 -13.5608 -13.4794 -13.4794 -13.4514 -13.4513 -13.3671 -13.3671
   -13.3456 -13.3456 -13.3011 -13.3011  -1.7966  -1.7966   3.1275   3.1275
     6.1036   6.1036   6.4442   6.4442   8.7530   8.7531   9.8877   9.8877
    11.3562  11.3562  11.7592  11.7592

     occupation numbers 
     1.0000   1.0000   1.0000   1.0000   1.0000   1.0000   1.0000   1.0000
     1.0000   1.0000   1.0000   1.0000   1.0000   1.0000   1.0000   1.0000
     1.0000   1.0000   1.0000   1.0000   1.0000   1.0000   1.0000   1.0000
     1.0000   1.0000   1.0000   1.0000   0.0000   0.0000   0.0000   0.0000
     0.0000   0.0000   0.0000   0.0000

          k = 0.3536 0.1768-0.1768 (  3452 PWs)   bands (ev):

   -14.5285 -14.5285 -14.5034 -14.5033 -14.4619 -14.4617 -14.4330 -14.4329
   -13.5497 -13.5496 -13.4898 -13.4897 -13.4564 -13.4563 -13.3657 -13.3656
   -13.3381 -13.3380 -13.3044 -13.3044  -1.5109  -1.5109   2.4673   2.4673
     5.8705   5.8705   6.3305   6.3305   8.6138   8.6139  10.2061  10.2061
    11.3938  11.3938  12.1164  12.1164

     occupation numbers 
     1.0000   1.0000   1.0000   1.0000   1.0000   1.0000   1.0000   1.0000
     1.0000   1.0000   1.0000   1.0000   1.0000   1.0000   1.0000   1.0000
     1.0000   1.0000   1.0000   1.0000   1.0000   1.0000   1.0000   1.0000
     1.0000   1.0000   1.0000   1.0000   0.0000   0.0000   0.0000   0.0000
     0.0000   0.0000   0.0000   0.0000

          k = 0.3977 0.2210-0.2210 (  3463 PWs)   bands (ev):

   -14.5297 -14.5296 -14.4977 -14.4974 -14.4678 -14.4675 -14.4311 -14.4311
   -13.5388 -13.5388 -13.4991 -13.4991 -13.4603 -13.4603 -13.3649 -13.3649
   -13.3332 -13.3332 -13.3065 -13.3064  -1.2209  -1.2209   1.9097   1.9097
     5.6802   5.6802   6.2823   6.2823   8.4997   8.4997  10.4035  10.4035
    11.3389  11.3389  12.6315  12.6315

     occupation numbers 
     1.0000   1.0000   1.0000   1.0000   1.0000   1.0000   1.0000   1.0000
     1.0000   1.0000   1.0000   1.0000   1.0000   1.0000   1.0000   1.0000
     1.0000   1.0000   1.0000   1.0000   1.0000   1.0000   1.0000   1.0000
     1.0000   1.0000   1.0000   1.0000   0.0000   0.0000   0.0000   0.0000
     0.0000   0.0000   0.0000   0.0000

          k =-0.2652-0.4419 0.4419 (  3450 PWs)   bands (ev):

   -14.5304 -14.5304 -14.4928 -14.4923 -14.4729 -14.4724 -14.4300 -14.4300
   -13.5301 -13.5300 -13.5067 -13.5066 -13.4626 -13.4625 -13.3649 -13.3648
   -13.3308 -13.3307 -13.3073 -13.3073  -1.0026  -1.0026   1.5446   1.5446
     5.5448   5.5448   6.2981   6.2981   8.4241   8.4241  10.5218  10.5218
    11.2411  11.2411  13.1971  13.1971

     occupation numbers 
     1.0000   1.0000   1.0000   1.0000   1.0000   1.0000   1.0000   1.0000
     1.0000   1.0000   1.0000   1.0000   1.0000   1.0000   1.0000   1.0000
     1.0000   1.0000   1.0000   1.0000   1.0000   1.0000   1.0000   1.0000
     1.0000   1.0000   1.0000   1.0000   0.0000   0.0000   0.0000   0.0000
     0.0000   0.0000   0.0000   0.0000

          k =-0.2210-0.3977 0.3977 (  3446 PWs)   bands (ev):

   -14.5306 -14.5305 -14.4915 -14.4909 -14.4744 -14.4738 -14.4297 -14.4296
   -13.5285 -13.5284 -13.5082 -13.5081 -13.4627 -13.4627 -13.3654 -13.3654
   -13.3300 -13.3300 -13.3075 -13.3074  -0.9672  -0.9672   1.4894   1.4894
     5.4720   5.4720   6.3747   6.3747   8.3920   8.3920  10.6180  10.6180
    11.1297  11.1297  13.5017  13.5018

     occupation numbers 
     1.0000   1.0000   1.0000   1.0000   1.0000   1.0000   1.0000   1.0000
     1.0000   1.0000   1.0000   1.0000   1.0000   1.0000   1.0000   1.0000
     1.0000   1.0000   1.0000   1.0000   1.0000   1.0000   1.0000   1.0000
     1.0000   1.0000   1.0000   1.0000   0.0000   0.0000   0.0000   0.0000
     0.0000   0.0000   0.0000   0.0000

          k =-0.1768-0.3536 0.3536 (  3443 PWs)   bands (ev):

   -14.5303 -14.5302 -14.4949 -14.4945 -14.4708 -14.4704 -14.4302 -14.4302
   -13.5358 -13.5358 -13.5019 -13.5019 -13.4606 -13.4606 -13.3664 -13.3664
   -13.3307 -13.3307 -13.3072 -13.3072  -1.1392  -1.1392   1.7687   1.7687
     5.4680   5.4681   6.5068   6.5068   8.4024   8.4025  10.7072  10.7072
    11.0142  11.0142  13.2456  13.2456

     occupation numbers 
     1.0000   1.0000   1.0000   1.0000   1.0000   1.0000   1.0000   1.0000
     1.0000   1.0000   1.0000   1.0000   1.0000   1.0000   1.0000   1.0000
     1.0000   1.0000   1.0000   1.0000   1.0000   1.0000   1.0000   1.0000
     1.0000   1.0000   1.0000   1.0000   0.0000   0.0000   0.0000   0.0000
     0.0000   0.0000   0.0000   0.0000

          k =-0.1326-0.3094 0.3094 (  3456 PWs)   bands (ev):

   -14.5295 -14.5294 -14.5004 -14.5001 -14.4652 -14.4650 -14.4316 -14.4315
   -13.5463 -13.5462 -13.4932 -13.4931 -13.4568 -13.4567 -13.3678 -13.3678
   -13.3337 -13.3337 -13.3059 -13.3058  -1.4171  -1.4171   2.2751   2.2752
     5.5396   5.5397   6.6858   6.6858   8.4480   8.4480  10.7292  10.7292
    10.9144  10.9144  12.5975  12.5975

     occupation numbers 
     1.0000   1.0000   1.0000   1.0000   1.0000   1.0000   1.0000   1.0000
     1.0000   1.0000   1.0000   1.0000   1.0000   1.0000   1.0000   1.0000
     1.0000   1.0000   1.0000   1.0000   1.0000   1.0000   1.0000   1.0000
     1.0000   1.0000   1.0000   1.0000   0.0000   0.0000   0.0000   0.0000
     0.0000   0.0000   0.0000   0.0000

          k =-0.0884-0.2652 0.2652 (  3447 PWs)   bands (ev):

   -14.5283 -14.5282 -14.5060 -14.5059 -14.4595 -14.4594 -14.4335 -14.4334
   -13.5574 -13.5574 -13.4832 -13.4832 -13.4519 -13.4519 -13.3697 -13.3697
   -13.3397 -13.3396 -13.3031 -13.3030  -1.7092  -1.7092   2.9026   2.9026
     5.6961   5.6961   6.8979   6.8979   8.5098   8.5098  10.5738  10.5738
    10.8268  10.8268  11.9916  11.9916

     occupation numbers 
     1.0000   1.0000   1.0000   1.0000   1.0000   1.0000   1.0000   1.0000
     1.0000   1.0000   1.0000   1.0000   1.0000   1.0000   1.0000   1.0000
     1.0000   1.0000   1.0000   1.0000   1.0000   1.0000   1.0000   1.0000
     1.0000   1.0000   1.0000   1.0000   0.0000   0.0000   0.0000   0.0000
     0.0000   0.0000   0.0000   0.0000

          k =-0.0442-0.2210 0.2210 (  3455 PWs)   bands (ev):

   -14.5269 -14.5268 -14.5111 -14.5110 -14.4543 -14.4543 -14.4358 -14.4357
   -13.5681 -13.5680 -13.4723 -13.4723 -13.4468 -13.4467 -13.3719 -13.3719
   -13.3482 -13.3481 -13.2993 -13.2993  -1.9699  -1.9699   3.5775   3.5775
     5.9515   5.9515   7.1196   7.1197   8.5440   8.5440  10.3246  10.3246
    10.5614  10.5614  11.6089  11.6089

     occupation numbers 
     1.0000   1.0000   1.0000   1.0000   1.0000   1.0000   1.0000   1.0000
     1.0000   1.0000   1.0000   1.0000   1.0000   1.0000   1.0000   1.0000
     1.0000   1.0000   1.0000   1.0000   1.0000   1.0000   1.0000   1.0000
     1.0000   1.0000   1.0000   1.0000   0.0000   0.0000   0.0000   0.0000
     0.0000   0.0000   0.0000   0.0000

          k = 0.0000-0.1768 0.1768 (  3465 PWs)   bands (ev):

   -14.5256 -14.5255 -14.5152 -14.5152 -14.4501 -14.4501 -14.4381 -14.4380
   -13.5773 -13.5772 -13.4608 -13.4608 -13.4421 -13.4420 -13.3742 -13.3741
   -13.3582 -13.3581 -13.2955 -13.2955  -2.1785  -2.1785   4.2318   4.2318
     6.3233   6.3234   7.3130   7.3130   8.4651   8.4651  10.0671  10.0672
    10.2583  10.2583  11.2685  11.2685

     occupation numbers 
     1.0000   1.0000   1.0000   1.0000   1.0000   1.0000   1.0000   1.0000
     1.0000   1.0000   1.0000   1.0000   1.0000   1.0000   1.0000   1.0000
     1.0000   1.0000   1.0000   1.0000   1.0000   1.0000   1.0000   1.0000
     1.0000   1.0000   1.0000   1.0000   0.0000   0.0000   0.0000   0.0000
     0.0000   0.0000   0.0000   0.0000

          k = 0.2652 0.0000 0.0000 (  3475 PWs)   bands (ev):

   -14.5229 -14.5229 -14.5179 -14.5179 -14.4477 -14.4477 -14.4402 -14.4402
   -13.5749 -13.5749 -13.4642 -13.4642 -13.4428 -13.4428 -13.3676 -13.3676
   -13.3630 -13.3630 -13.2951 -13.2951  -2.1280  -2.1280   4.1912   4.1912
     6.4175   6.4175   6.5896   6.5896   8.8703   8.8703   9.3623   9.3623
    11.2923  11.2923  11.3295  11.3295

     occupation numbers 
     1.0000   1.0000   1.0000   1.0000   1.0000   1.0000   1.0000   1.0000
     1.0000   1.0000   1.0000   1.0000   1.0000   1.0000   1.0000   1.0000
     1.0000   1.0000   1.0000   1.0000   1.0000   1.0000   1.0000   1.0000
     1.0000   1.0000   1.0000   1.0000   0.0000   0.0000   0.0000   0.0000
     0.0000   0.0000   0.0000   0.0000

          k = 0.3094 0.0442-0.0442 (  3467 PWs)   bands (ev):

   -14.5237 -14.5237 -14.5153 -14.5153 -14.4502 -14.4502 -14.4389 -14.4388
   -13.5675 -13.5675 -13.4728 -13.4728 -13.4465 -13.4465 -13.3681 -13.3681
   -13.3543 -13.3543 -13.2971 -13.2971  -1.9586  -1.9586   3.6876   3.6876
     6.1854   6.1855   6.3640   6.3640   8.8510   8.8510   9.4668   9.4669
    11.6232  11.6233  11.6767  11.6767

     occupation numbers 
     1.0000   1.0000   1.0000   1.0000   1.0000   1.0000   1.0000   1.0000
     1.0000   1.0000   1.0000   1.0000   1.0000   1.0000   1.0000   1.0000
     1.0000   1.0000   1.0000   1.0000   1.0000   1.0000   1.0000   1.0000
     1.0000   1.0000   1.0000   1.0000   0.0000   0.0000   0.0000   0.0000
     0.0000   0.0000   0.0000   0.0000

          k = 0.3536 0.0884-0.0884 (  3462 PWs)   bands (ev):

   -14.5254 -14.5253 -14.5110 -14.5110 -14.4544 -14.4544 -14.4365 -14.4364
   -13.5583 -13.5583 -13.4821 -13.4820 -13.4502 -13.4502 -13.3702 -13.3702
   -13.3450 -13.3449 -13.2992 -13.2992  -1.7298  -1.7298   3.0970   3.0970
     5.8937   5.8938   6.1848   6.1848   8.9395   8.9395   9.6135   9.6135
    11.7011  11.7011  11.9007  11.9007

     occupation numbers 
     1.0000   1.0000   1.0000   1.0000   1.0000   1.0000   1.0000   1.0000
     1.0000   1.0000   1.0000   1.0000   1.0000   1.0000   1.0000   1.0000
     1.0000   1.0000   1.0000   1.0000   1.0000   1.0000   1.0000   1.0000
     1.0000   1.0000   1.0000   1.0000   0.0000   0.0000   0.0000   0.0000
     0.0000   0.0000   0.0000   0.0000

          k = 0.3977 0.1326-0.1326 (  3457 PWs)   bands (ev):

   -14.5271 -14.5270 -14.5059 -14.5058 -14.4597 -14.4596 -14.4339 -14.4338
   -13.5483 -13.5483 -13.4906 -13.4905 -13.4537 -13.4537 -13.3730 -13.3729
   -13.3375 -13.3374 -13.3005 -13.3005  -1.4538  -1.4538   2.4960   2.4960
     5.5894   5.5894   6.0751   6.0751   8.9133   8.9134   9.9889   9.9889
    11.7048  11.7048  11.9821  11.9821

     occupation numbers 
     1.0000   1.0000   1.0000   1.0000   1.0000   1.0000   1.0000   1.0000
     1.0000   1.0000   1.0000   1.0000   1.0000   1.0000   1.0000   1.0000
     1.0000   1.0000   1.0000   1.0000   1.0000   1.0000   1.0000   1.0000
     1.0000   1.0000   1.0000   1.0000   0.0000   0.0000   0.0000   0.0000
     0.0000   0.0000   0.0000   0.0000

          k = 0.4419 0.1768-0.1768 (  3455 PWs)   bands (ev):

   -14.5285 -14.5285 -14.5005 -14.5002 -14.4655 -14.4652 -14.4315 -14.4315
   -13.5390 -13.5390 -13.4976 -13.4975 -13.4568 -13.4567 -13.3759 -13.3758
   -13.3328 -13.3328 -13.3004 -13.3004  -1.1573  -1.1573   1.9485   1.9485
     5.3229   5.3229   6.0330   6.0330   8.8391   8.8391  10.4001  10.4001
    11.8313  11.8313  11.9851  11.9851

     occupation numbers 
     1.0000   1.0000   1.0000   1.0000   1.0000   1.0000   1.0000   1.0000
     1.0000   1.0000   1.0000   1.0000   1.0000   1.0000   1.0000   1.0000
     1.0000   1.0000   1.0000   1.0000   1.0000   1.0000   1.0000   1.0000
     1.0000   1.0000   1.0000   1.0000   0.0000   0.0000   0.0000   0.0000
     0.0000   0.0000   0.0000   0.0000

          k =-0.2210-0.4861 0.4861 (  3450 PWs)   bands (ev):

   -14.5296 -14.5296 -14.4954 -14.4948 -14.4710 -14.4704 -14.4298 -14.4298
   -13.5321 -13.5320 -13.5023 -13.5022 -13.4589 -13.4588 -13.3784 -13.3783
   -13.3307 -13.3306 -13.2995 -13.2995  -0.9005  -0.9005   1.5362   1.5363
     5.1187   5.1187   6.0567   6.0567   8.7822   8.7822  10.6568  10.6568
    11.7841  11.7841  12.3884  12.3885

     occupation numbers 
     1.0000   1.0000   1.0000   1.0000   1.0000   1.0000   1.0000   1.0000
     1.0000   1.0000   1.0000   1.0000   1.0000   1.0000   1.0000   1.0000
     1.0000   1.0000   1.0000   1.0000   1.0000   1.0000   1.0000   1.0000
     1.0000   1.0000   1.0000   1.0000   0.0000   0.0000   0.0000   0.0000
     0.0000   0.0000   0.0000   0.0000

          k =-0.1768-0.4419 0.4419 (  3439 PWs)   bands (ev):

   -14.5302 -14.5302 -14.4921 -14.4913 -14.4748 -14.4739 -14.4288 -14.4288
   -13.5297 -13.5296 -13.5039 -13.5039 -13.4592 -13.4591 -13.3800 -13.3799
   -13.3298 -13.3298 -13.2990 -13.2989  -0.7954  -0.7954   1.3816   1.3816
     4.9896   4.9896   6.1431   6.1431   8.7609   8.7609  10.7918  10.7918
    11.6347  11.6347  13.0154  13.0154

     occupation numbers 
     1.0000   1.0000   1.0000   1.0000   1.0000   1.0000   1.0000   1.0000
     1.0000   1.0000   1.0000   1.0000   1.0000   1.0000   1.0000   1.0000
     1.0000   1.0000   1.0000   1.0000   1.0000   1.0000   1.0000   1.0000
     1.0000   1.0000   1.0000   1.0000   0.0000   0.0000   0.0000   0.0000
     0.0000   0.0000   0.0000   0.0000

          k =-0.1326-0.3977 0.3977 (  3447 PWs)   bands (ev):

   -14.5303 -14.5302 -14.4930 -14.4922 -14.4739 -14.4731 -14.4288 -14.4288
   -13.5328 -13.5327 -13.5021 -13.5021 -13.4576 -13.4575 -13.3804 -13.3803
   -13.3296 -13.3296 -13.2995 -13.2995  -0.9148  -0.9148   1.5589   1.5589
     4.9461   4.9461   6.2868   6.2868   8.7745   8.7746  10.8991  10.8991
    11.4554  11.4554  13.1205  13.1205

     occupation numbers 
     1.0000   1.0000   1.0000   1.0000   1.0000   1.0000   1.0000   1.0000
     1.0000   1.0000   1.0000   1.0000   1.0000   1.0000   1.0000   1.0000
     1.0000   1.0000   1.0000   1.0000   1.0000   1.0000   1.0000   1.0000
     1.0000   1.0000   1.0000   1.0000   0.0000   0.0000   0.0000   0.0000
     0.0000   0.0000   0.0000   0.0000

          k =-0.0884-0.3536 0.3536 (  3449 PWs)   bands (ev):

   -14.5299 -14.5298 -14.4971 -14.4967 -14.4695 -14.4690 -14.4298 -14.4297
   -13.5399 -13.5399 -13.4976 -13.4976 -13.4546 -13.4545 -13.3793 -13.3793
   -13.3304 -13.3303 -13.3009 -13.3009  -1.1765  -1.1765   1.9776   1.9776
     5.0007   5.0008   6.4783   6.4783   8.8093   8.8093  10.9996  10.9996
    11.2401  11.2401  12.4567  12.4568

     occupation numbers 
     1.0000   1.0000   1.0000   1.0000   1.0000   1.0000   1.0000   1.0000
     1.0000   1.0000   1.0000   1.0000   1.0000   1.0000   1.0000   1.0000
     1.0000   1.0000   1.0000   1.0000   1.0000   1.0000   1.0000   1.0000
     1.0000   1.0000   1.0000   1.0000   0.0000   0.0000   0.0000   0.0000
     0.0000   0.0000   0.0000   0.0000

          k =-0.0442-0.3094 0.3094 (  3456 PWs)   bands (ev):

   -14.5291 -14.5290 -14.5022 -14.5019 -14.4641 -14.4638 -14.4314 -14.4313
   -13.5492 -13.5492 -13.4908 -13.4908 -13.4513 -13.4513 -13.3773 -13.3772
   -13.3333 -13.3332 -13.3019 -13.3018  -1.4721  -1.4721   2.5093   2.5093
     5.1719   5.1719   6.7014   6.7014   8.8318   8.8318  10.9237  10.9237
    11.0650  11.0650  11.8504  11.8504

     occupation numbers 
     1.0000   1.0000   1.0000   1.0000   1.0000   1.0000   1.0000   1.0000
     1.0000   1.0000   1.0000   1.0000   1.0000   1.0000   1.0000   1.0000
     1.0000   1.0000   1.0000   1.0000   1.0000   1.0000   1.0000   1.0000
     1.0000   1.0000   1.0000   1.0000   0.0000   0.0000   0.0000   0.0000
     0.0000   0.0000   0.0000   0.0000

          k = 0.0000-0.2652 0.2652 (  3459 PWs)   bands (ev):

   -14.5280 -14.5279 -14.5070 -14.5069 -14.4588 -14.4587 -14.4336 -14.4335
   -13.5590 -13.5590 -13.4822 -13.4822 -13.4487 -13.4486 -13.3746 -13.3746
   -13.3394 -13.3393 -13.3013 -13.3013  -1.7449  -1.7449   3.0638   3.0639
     5.4836   5.4836   6.9292   6.9292   8.7733   8.7734  10.6196  10.6196
    10.8046  10.8047  11.6579  11.6579

     occupation numbers 
     1.0000   1.0000   1.0000   1.0000   1.0000   1.0000   1.0000   1.0000
     1.0000   1.0000   1.0000   1.0000   1.0000   1.0000   1.0000   1.0000
     1.0000   1.0000   1.0000   1.0000   1.0000   1.0000   1.0000   1.0000
     1.0000   1.0000   1.0000   1.0000   0.0000   0.0000   0.0000   0.0000
     0.0000   0.0000   0.0000   0.0000

          k = 0.3536 0.0000 0.0000 (  3479 PWs)   bands (ev):

   -14.5225 -14.5225 -14.5153 -14.5153 -14.4501 -14.4501 -14.4394 -14.4394
   -13.5613 -13.5613 -13.4791 -13.4791 -13.4488 -13.4488 -13.3685 -13.3685
   -13.3499 -13.3499 -13.2977 -13.2977  -1.8089  -1.8089   3.3441   3.3441
     6.0341   6.0341   6.1531   6.1531   8.5889   8.5889   9.5267   9.5267
    12.0918  12.0920  12.1239  12.1240

     occupation numbers 
     1.0000   1.0000   1.0000   1.0000   1.0000   1.0000   1.0000   1.0000
     1.0000   1.0000   1.0000   1.0000   1.0000   1.0000   1.0000   1.0000
     1.0000   1.0000   1.0000   1.0000   1.0000   1.0000   1.0000   1.0000
     1.0000   1.0000   1.0000   1.0000   0.0000   0.0000   0.0000   0.0000
     0.0000   0.0000   0.0000   0.0000

          k = 0.3977 0.0442-0.0442 (  3461 PWs)   bands (ev):

   -14.5232 -14.5232 -14.5129 -14.5128 -14.4525 -14.4524 -14.4383 -14.4383
   -13.5533 -13.5533 -13.4864 -13.4864 -13.4510 -13.4510 -13.3725 -13.3725
   -13.3423 -13.3423 -13.2985 -13.2985  -1.5978  -1.5978   2.8786   2.8786
     5.8112   5.8112   5.9648   5.9648   8.6102   8.6102   9.4934   9.4934
    12.2415  12.2415  12.4514  12.4514

     occupation numbers 
     1.0000   1.0000   1.0000   1.0000   1.0000   1.0000   1.0000   1.0000
     1.0000   1.0000   1.0000   1.0000   1.0000   1.0000   1.0000   1.0000
     1.0000   1.0000   1.0000   1.0000   1.0000   1.0000   1.0000   1.0000
     1.0000   1.0000   1.0000   1.0000   0.0000   0.0000   0.0000   0.0000
     0.0000   0.0000   0.0000   0.0000

          k = 0.4419 0.0884-0.0884 (  3454 PWs)   bands (ev):

   -14.5249 -14.5248 -14.5087 -14.5086 -14.4568 -14.4567 -14.4358 -14.4358
   -13.5447 -13.5447 -13.4932 -13.4932 -13.4526 -13.4526 -13.3784 -13.3784
   -13.3354 -13.3353 -13.2986 -13.2986  -1.3342  -1.3342   2.3666   2.3666
     5.4916   5.4916   5.8448   5.8449   8.7521   8.7522   9.6278   9.6278
    12.1155  12.1155  12.6145  12.6145

     occupation numbers 
     1.0000   1.0000   1.0000   1.0000   1.0000   1.0000   1.0000   1.0000
     1.0000   1.0000   1.0000   1.0000   1.0000   1.0000   1.0000   1.0000
     1.0000   1.0000   1.0000   1.0000   1.0000   1.0000   1.0000   1.0000
     1.0000   1.0000   1.0000   1.0000   0.0000   0.0000   0.0000   0.0000
     0.0000   0.0000   0.0000   0.0000

          k = 0.4861 0.1326-0.1326 (  3451 PWs)   bands (ev):

   -14.5266 -14.5266 -14.5039 -14.5036 -14.4621 -14.4618 -14.4331 -14.4330
   -13.5371 -13.5371 -13.4981 -13.4980 -13.4537 -13.4536 -13.3848 -13.3847
   -13.3311 -13.3310 -13.2972 -13.2971  -1.0376  -1.0376   1.8669   1.8670
     5.1600   5.1600   5.7975   5.7975   8.7950   8.7951  10.0829  10.0829
    11.9919  11.9920  12.6071  12.6071

     occupation numbers 
     1.0000   1.0000   1.0000   1.0000   1.0000   1.0000   1.0000   1.0000
     1.0000   1.0000   1.0000   1.0000   1.0000   1.0000   1.0000   1.0000
     1.0000   1.0000   1.0000   1.0000   1.0000   1.0000   1.0000   1.0000
     1.0000   1.0000   1.0000   1.0000   0.0000   0.0000   0.0000   0.0000
     0.0000   0.0000   0.0000   0.0000

          k =-0.1768-0.5303 0.5303 (  3447 PWs)   bands (ev):

   -14.5281 -14.5281 -14.4991 -14.4986 -14.4676 -14.4670 -14.4306 -14.4306
   -13.5323 -13.5323 -13.5000 -13.4999 -13.4544 -13.4543 -13.3904 -13.3902
   -13.3294 -13.3294 -13.2949 -13.2948  -0.7538  -0.7538   1.4477   1.4477
     4.8807   4.8807   5.8177   5.8177   8.7923   8.7923  10.6959  10.6960
    11.9744  11.9744  12.4890  12.4890

     occupation numbers 
     1.0000   1.0000   1.0000   1.0000   1.0000   1.0000   1.0000   1.0000
[...]

     occupation numbers 
     1.0000   1.0000   1.0000   1.0000   1.0000   1.0000   1.0000   1.0000
     1.0000   1.0000   1.0000   1.0000   1.0000   1.0000   1.0000   1.0000
     1.0000   1.0000   1.0000   1.0000   1.0000   1.0000   1.0000   1.0000
     1.0000   1.0000   1.0000   1.0000   0.0000   0.0000   0.0000   0.0000
     0.0000   0.0000   0.0000   0.0000

          k =-0.1326-0.3977 0.5745 (  3439 PWs)   bands (ev):

   -14.5292 -14.5291 -14.4950 -14.4941 -14.4728 -14.4718 -14.4285 -14.4284
   -13.5317 -13.5317 -13.4973 -13.4972 -13.4525 -13.4523 -13.3990 -13.3988
   -13.3300 -13.3299 -13.2906 -13.2905  -0.4972  -0.4972   1.1509   1.1509
     4.6469   4.6469   5.6261   5.6261   9.4604   9.4605  10.7189  10.7189
    11.9842  11.9843  12.6987  12.6988

     occupation numbers 
     1.0000   1.0000   1.0000   1.0000   1.0000   1.0000   1.0000   1.0000
     1.0000   1.0000   1.0000   1.0000   1.0000   1.0000   1.0000   1.0000
     1.0000   1.0000   1.0000   1.0000   1.0000   1.0000   1.0000   1.0000
     1.0000   1.0000   1.0000   1.0000   0.0000   0.0000   0.0000   0.0000
     0.0000   0.0000   0.0000   0.0000

          k =-0.0884-0.3536 0.5303 (  3449 PWs)   bands (ev):

   -14.5294 -14.5293 -14.4945 -14.4935 -14.4735 -14.4724 -14.4283 -14.4282
   -13.5322 -13.5322 -13.4974 -13.4973 -13.4522 -13.4520 -13.3985 -13.3983
   -13.3301 -13.3300 -13.2908 -13.2908  -0.5517  -0.5517   1.2201   1.2202
     4.6144   4.6145   5.6945   5.6945   9.5044   9.5045  10.7126  10.7127
    12.0421  12.0422  12.6652  12.6652

     occupation numbers 
     1.0000   1.0000   1.0000   1.0000   1.0000   1.0000   1.0000   1.0000
     1.0000   1.0000   1.0000   1.0000   1.0000   1.0000   1.0000   1.0000
     1.0000   1.0000   1.0000   1.0000   1.0000   1.0000   1.0000   1.0000
     1.0000   1.0000   1.0000   1.0000   0.0000   0.0000   0.0000   0.0000
     0.0000   0.0000   0.0000   0.0000

          k =-0.0442-0.3094 0.4861 (  3451 PWs)   bands (ev):

   -14.5292 -14.5292 -14.4965 -14.4957 -14.4711 -14.4703 -14.4289 -14.4288
   -13.5345 -13.5344 -13.4980 -13.4979 -13.4519 -13.4517 -13.3940 -13.3939
   -13.3303 -13.3302 -13.2930 -13.2930  -0.7952  -0.7952   1.5392   1.5392
     4.6858   4.6858   5.8364   5.8365   9.5520   9.5521  10.6008  10.6008
    11.4831  11.4831  12.8709  12.8709

     occupation numbers 
     1.0000   1.0000   1.0000   1.0000   1.0000   1.0000   1.0000   1.0000
     1.0000   1.0000   1.0000   1.0000   1.0000   1.0000   1.0000   1.0000
     1.0000   1.0000   1.0000   1.0000   1.0000   1.0000   1.0000   1.0000
     1.0000   1.0000   1.0000   1.0000   0.0000   0.0000   0.0000   0.0000
     0.0000   0.0000   0.0000   0.0000

          k = 0.0000-0.2652 0.4419 (  3445 PWs)   bands (ev):

   -14.5287 -14.5286 -14.4999 -14.4994 -14.4670 -14.4665 -14.4304 -14.4303
   -13.5392 -13.5392 -13.4967 -13.4966 -13.4519 -13.4518 -13.3867 -13.3866
   -13.3314 -13.3313 -13.2965 -13.2964  -1.0931  -1.0931   1.9578   1.9579
     4.8798   4.8798   6.0267   6.0267   9.5426   9.5427  10.2575  10.2575
    11.3091  11.3091  12.6431  12.6432

     occupation numbers 
     1.0000   1.0000   1.0000   1.0000   1.0000   1.0000   1.0000   1.0000
     1.0000   1.0000   1.0000   1.0000   1.0000   1.0000   1.0000   1.0000
     1.0000   1.0000   1.0000   1.0000   1.0000   1.0000   1.0000   1.0000
     1.0000   1.0000   1.0000   1.0000   0.0000   0.0000   0.0000   0.0000
     0.0000   0.0000   0.0000   0.0000

          k =-0.1768-0.5303 0.7071 (  3439 PWs)   bands (ev):

   -14.5258 -14.5258 -14.5045 -14.5041 -14.4619 -14.4614 -14.4333 -14.4332
   -13.5337 -13.5336 -13.4994 -13.4993 -13.4506 -13.4504 -13.3947 -13.3946
   -13.3285 -13.3284 -13.2945 -13.2945  -0.8021  -0.8021   1.5769   1.5769
     5.0450   5.0450   5.5029   5.5029   9.1945   9.1945   9.5885   9.5886
    11.9934  11.9935  13.5930  13.5930

     occupation numbers 
     1.0000   1.0000   1.0000   1.0000   1.0000   1.0000   1.0000   1.0000
     1.0000   1.0000   1.0000   1.0000   1.0000   1.0000   1.0000   1.0000
     1.0000   1.0000   1.0000   1.0000   1.0000   1.0000   1.0000   1.0000
     1.0000   1.0000   1.0000   1.0000   0.0000   0.0000   0.0000   0.0000
     0.0000   0.0000   0.0000   0.0000

          k =-0.1326-0.4861 0.6629 (  3441 PWs)   bands (ev):

   -14.5269 -14.5268 -14.5013 -14.5007 -14.4658 -14.4651 -14.4312 -14.4310
   -13.5318 -13.5318 -13.4980 -13.4979 -13.4484 -13.4481 -13.4036 -13.4034
   -13.3282 -13.3280 -13.2909 -13.2909  -0.4985  -0.4985   1.1935   1.1936
     4.8172   4.8172   5.3806   5.3806   9.3661   9.3661  10.0536  10.0536
    11.8210  11.8210  13.5494  13.5494

     occupation numbers 
     1.0000   1.0000   1.0000   1.0000   1.0000   1.0000   1.0000   1.0000
     1.0000   1.0000   1.0000   1.0000   1.0000   1.0000   1.0000   1.0000
     1.0000   1.0000   1.0000   1.0000   1.0000   1.0000   1.0000   1.0000
     1.0000   1.0000   1.0000   1.0000   0.0000   0.0000   0.0000   0.0000
     0.0000   0.0000   0.0000   0.0000

          k =-0.0884-0.4419 0.6187 (  3435 PWs)   bands (ev):

   -14.5280 -14.5279 -14.4983 -14.4974 -14.4695 -14.4687 -14.4294 -14.4292
   -13.5319 -13.5318 -13.4954 -13.4952 -13.4467 -13.4463 -13.4097 -13.4094
   -13.3289 -13.3288 -13.2882 -13.2882  -0.2608  -0.2608   0.9184   0.9184
     4.6219   4.6219   5.3691   5.3691   9.4254   9.4255  10.7682  10.7682
    11.7224  11.7224  12.9798  12.9798

     occupation numbers 
     1.0000   1.0000   1.0000   1.0000   1.0000   1.0000   1.0000   1.0000
     1.0000   1.0000   1.0000   1.0000   1.0000   1.0000   1.0000   1.0000
     1.0000   1.0000   1.0000   1.0000   1.0000   1.0000   1.0000   1.0000
     1.0000   1.0000   1.0000   1.0000   0.0000   0.0000   0.0000   0.0000
     0.0000   0.0000   0.0000   0.0000

          k =-0.0442-0.3977 0.5745 (  3442 PWs)   bands (ev):

   -14.5288 -14.5286 -14.4960 -14.4950 -14.4722 -14.4712 -14.4283 -14.4282
   -13.5324 -13.5324 -13.4944 -13.4943 -13.4469 -13.4465 -13.4101 -13.4097
   -13.3296 -13.3295 -13.2875 -13.2874  -0.2628  -0.2628   0.9233   0.9233
     4.5108   4.5108   5.4566   5.4566   9.5022   9.5022  11.2277  11.2277
    11.9311  11.9312  12.2703  12.2704

     occupation numbers 
     1.0000   1.0000   1.0000   1.0000   1.0000   1.0000   1.0000   1.0000
     1.0000   1.0000   1.0000   1.0000   1.0000   1.0000   1.0000   1.0000
     1.0000   1.0000   1.0000   1.0000   1.0000   1.0000   1.0000   1.0000
     1.0000   1.0000   1.0000   1.0000   0.0000   0.0000   0.0000   0.0000
     0.0000   0.0000   0.0000   0.0000

          k = 0.0000-0.3536 0.5303 (  3451 PWs)   bands (ev):

   -14.5292 -14.5291 -14.4953 -14.4943 -14.4729 -14.4718 -14.4282 -14.4281
   -13.5330 -13.5329 -13.4959 -13.4958 -13.4491 -13.4488 -13.4041 -13.4038
   -13.3300 -13.3299 -13.2892 -13.2891  -0.4980  -0.4979   1.1919   1.1920
     4.5238   4.5238   5.6213   5.6213   9.5775   9.5775  11.0940  11.0940
    11.5616  11.5616  12.7412  12.7412

     occupation numbers 
     1.0000   1.0000   1.0000   1.0000   1.0000   1.0000   1.0000   1.0000
     1.0000   1.0000   1.0000   1.0000   1.0000   1.0000   1.0000   1.0000
     1.0000   1.0000   1.0000   1.0000   1.0000   1.0000   1.0000   1.0000
     1.0000   1.0000   1.0000   1.0000   0.0000   0.0000   0.0000   0.0000
     0.0000   0.0000   0.0000   0.0000

          k =-0.0884-0.5303 0.7071 (  3435 PWs)   bands (ev):

   -14.5251 -14.5249 -14.5045 -14.5040 -14.4620 -14.4614 -14.4335 -14.4333
   -13.5296 -13.5296 -13.5002 -13.5000 -13.4433 -13.4430 -13.4109 -13.4106
   -13.3247 -13.3246 -13.2918 -13.2918  -0.2763  -0.2763   0.9265   0.9265
     4.9638   4.9638   5.2211   5.2211   9.1591   9.1591   9.4141   9.4141
    12.6609  12.6609  13.8837  13.8837

     occupation numbers 
     1.0000   1.0000   1.0000   1.0000   1.0000   1.0000   1.0000   1.0000
     1.0000   1.0000   1.0000   1.0000   1.0000   1.0000   1.0000   1.0000
     1.0000   1.0000   1.0000   1.0000   1.0000   1.0000   1.0000   1.0000
     1.0000   1.0000   1.0000   1.0000   0.0000   0.0000   0.0000   0.0000
     0.0000   0.0000   0.0000   0.0000

          k =-0.0442-0.4861 0.6629 (  3430 PWs)   bands (ev):

   -14.5264 -14.5263 -14.5017 -14.5010 -14.4657 -14.4649 -14.4312 -14.4311
   -13.5309 -13.5308 -13.4965 -13.4963 -13.4399 -13.4392 -13.4185 -13.4178
   -13.3265 -13.3264 -13.2885 -13.2884   0.0068   0.0068   0.6272   0.6272
     4.7605   4.7606   5.1739   5.1739   9.3164   9.3164   9.9993   9.9993
    12.4791  12.4791  13.1977  13.1977

     occupation numbers 
     1.0000   1.0000   1.0000   1.0000   1.0000   1.0000   1.0000   1.0000
     1.0000   1.0000   1.0000   1.0000   1.0000   1.0000   1.0000   1.0000
     1.0000   1.0000   1.0000   1.0000   1.0000   1.0000   1.0000   1.0000
     1.0000   1.0000   1.0000   1.0000   0.0000   0.0000   0.0000   0.0000
     0.0000   0.0000   0.0000   0.0000

          k = 0.0000-0.4419 0.6187 (  3433 PWs)   bands (ev):

   -14.5277 -14.5276 -14.4987 -14.4978 -14.4693 -14.4684 -14.4294 -14.4292
   -13.5321 -13.5320 -13.4940 -13.4938 -13.4414 -13.4407 -13.4182 -13.4176
   -13.3284 -13.3283 -13.2868 -13.2867   0.0046   0.0047   0.6387   0.6387
     4.5729   4.5730   5.2736   5.2736   9.4064   9.4064  10.8058  10.8058
    12.2886  12.2887  12.3850  12.3851

     occupation numbers 
     1.0000   1.0000   1.0000   1.0000   1.0000   1.0000   1.0000   1.0000
     1.0000   1.0000   1.0000   1.0000   1.0000   1.0000   1.0000   1.0000
     1.0000   1.0000   1.0000   1.0000   1.0000   1.0000   1.0000   1.0000
     1.0000   1.0000   1.0000   1.0000   0.0000   0.0000   0.0000   0.0000
     0.0000   0.0000   0.0000   0.0000

          k =-0.7071 0.1768 0.0000 (  3422 PWs)   bands (ev):

   -14.5247 -14.5246 -14.5047 -14.5042 -14.4618 -14.4612 -14.4336 -14.4334
   -13.5289 -13.5288 -13.4998 -13.4997 -13.4347 -13.4335 -13.4234 -13.4223
   -13.3233 -13.3232 -13.2909 -13.2908   0.2883   0.2888   0.3195   0.3200
     4.9619   4.9620   5.1005   5.1005   9.1758   9.1759   9.3157   9.3158
    13.3034  13.3034  13.4632  13.4632

     occupation numbers 
     1.0000   1.0000   1.0000   1.0000   1.0000   1.0000   1.0000   1.0000
     1.0000   1.0000   1.0000   1.0000   1.0000   1.0000   1.0000   1.0000
     1.0000   1.0000   1.0000   1.0000   1.0000   1.0000   1.0000   1.0000
     1.0000   1.0000   1.0000   1.0000   0.0000   0.0000   0.0000   0.0000
     0.0000   0.0000   0.0000   0.0000

          k =-0.1768-0.4419 0.7071 (  3445 PWs)   bands (ev):

   -14.5282 -14.5281 -14.4990 -14.4983 -14.4684 -14.4677 -14.4299 -14.4297
   -13.5336 -13.5335 -13.4973 -13.4971 -13.4503 -13.4501 -13.3989 -13.3987
   -13.3300 -13.3298 -13.2913 -13.2912  -0.6685  -0.6685   1.4045   1.4045
     4.7405   4.7405   5.5364   5.5364   9.8903   9.8904  10.1695  10.1696
    11.2651  11.2651  13.3264  13.3265

     occupation numbers 
     1.0000   1.0000   1.0000   1.0000   1.0000   1.0000   1.0000   1.0000
     1.0000   1.0000   1.0000   1.0000   1.0000   1.0000   1.0000   1.0000
     1.0000   1.0000   1.0000   1.0000   1.0000   1.0000   1.0000   1.0000
     1.0000   1.0000   1.0000   1.0000   0.0000   0.0000   0.0000   0.0000
     0.0000   0.0000   0.0000   0.0000

          k =-0.1326-0.3977 0.6629 (  3436 PWs)   bands (ev):

   -14.5286 -14.5285 -14.4970 -14.4960 -14.4711 -14.4701 -14.4287 -14.4286
   -13.5327 -13.5326 -13.4950 -13.4948 -13.4483 -13.4480 -13.4069 -13.4065
   -13.3300 -13.3299 -13.2882 -13.2881  -0.3853  -0.3852   1.0661   1.0661
     4.6130   4.6130   5.3817   5.3817   9.9621   9.9622  10.6129  10.6129
    11.3753  11.3753  12.8670  12.8670

     occupation numbers 
     1.0000   1.0000   1.0000   1.0000   1.0000   1.0000   1.0000   1.0000
     1.0000   1.0000   1.0000   1.0000   1.0000   1.0000   1.0000   1.0000
     1.0000   1.0000   1.0000   1.0000   1.0000   1.0000   1.0000   1.0000
     1.0000   1.0000   1.0000   1.0000   0.0000   0.0000   0.0000   0.0000
     0.0000   0.0000   0.0000   0.0000

          k =-0.0884-0.3536 0.6187 (  3438 PWs)   bands (ev):

   -14.5287 -14.5286 -14.4962 -14.4951 -14.4721 -14.4710 -14.4283 -14.4282
   -13.5326 -13.5325 -13.4937 -13.4936 -13.4474 -13.4470 -13.4100 -13.4096
   -13.3301 -13.3300 -13.2870 -13.2870  -0.2475  -0.2475   0.9088   0.9089
     4.5725   4.5725   5.3252   5.3252   9.9671   9.9672  10.7319  10.7320
    11.8759  11.8760  12.2112  12.2113

     occupation numbers 
     1.0000   1.0000   1.0000   1.0000   1.0000   1.0000   1.0000   1.0000
     1.0000   1.0000   1.0000   1.0000   1.0000   1.0000   1.0000   1.0000
     1.0000   1.0000   1.0000   1.0000   1.0000   1.0000   1.0000   1.0000
     1.0000   1.0000   1.0000   1.0000   0.0000   0.0000   0.0000   0.0000
     0.0000   0.0000   0.0000   0.0000

          k =-0.0884-0.4419 0.7071 (  3428 PWs)   bands (ev):

   -14.5275 -14.5273 -14.4996 -14.4987 -14.4683 -14.4674 -14.4298 -14.4296
   -13.5322 -13.5321 -13.4947 -13.4945 -13.4442 -13.4438 -13.4135 -13.4130
   -13.3288 -13.3287 -13.2875 -13.2874  -0.1930  -0.1930   0.8567   0.8567
     4.7238   4.7239   5.1501   5.1501   9.9492   9.9493  10.1651  10.1652
    11.6441  11.6441  13.0331  13.0331

     occupation numbers 
     1.0000   1.0000   1.0000   1.0000   1.0000   1.0000   1.0000   1.0000
     1.0000   1.0000   1.0000   1.0000   1.0000   1.0000   1.0000   1.0000
     1.0000   1.0000   1.0000   1.0000   1.0000   1.0000   1.0000   1.0000
     1.0000   1.0000   1.0000   1.0000   0.0000   0.0000   0.0000   0.0000
     0.0000   0.0000   0.0000   0.0000

          k =-0.0442-0.3977 0.6629 (  3430 PWs)   bands (ev):

   -14.5280 -14.5279 -14.4980 -14.4970 -14.4703 -14.4693 -14.4288 -14.4286
   -13.5328 -13.5328 -13.4921 -13.4919 -13.4415 -13.4408 -13.4193 -13.4186
   -13.3297 -13.3295 -13.2855 -13.2854   0.0263   0.0263   0.6281   0.6281
     4.6417   4.6418   5.0708   5.0708  10.0915  10.0916  10.8018  10.8018
    11.5686  11.5687  12.1833  12.1833

     occupation numbers 
     1.0000   1.0000   1.0000   1.0000   1.0000   1.0000   1.0000   1.0000
     1.0000   1.0000   1.0000   1.0000   1.0000   1.0000   1.0000   1.0000
     1.0000   1.0000   1.0000   1.0000   1.0000   1.0000   1.0000   1.0000
     1.0000   1.0000   1.0000   1.0000   0.0000   0.0000   0.0000   0.0000
     0.0000   0.0000   0.0000   0.0000

          k =-0.0000-0.3536 0.6187 (  3436 PWs)   bands (ev):

   -14.5284 -14.5282 -14.4971 -14.4960 -14.4714 -14.4703 -14.4284 -14.4282
   -13.5330 -13.5329 -13.4923 -13.4921 -13.4437 -13.4431 -13.4162 -13.4156
   -13.3301 -13.3299 -13.2857 -13.2857  -0.0953  -0.0952   0.7576   0.7577
     4.5810   4.5811   5.1701   5.1701  10.1405  10.1405  10.9839  10.9840
    11.4557  11.4558  12.0910  12.0911

     occupation numbers 
     1.0000   1.0000   1.0000   1.0000   1.0000   1.0000   1.0000   1.0000
     1.0000   1.0000   1.0000   1.0000   1.0000   1.0000   1.0000   1.0000
     1.0000   1.0000   1.0000   1.0000   1.0000   1.0000   1.0000   1.0000
     1.0000   1.0000   1.0000   1.0000   0.0000   0.0000   0.0000   0.0000
     0.0000   0.0000   0.0000   0.0000

          k =-0.7071 0.2652 0.0000 (  3426 PWs)   bands (ev):

   -14.5272 -14.5270 -14.5000 -14.4991 -14.4680 -14.4671 -14.4299 -14.4297
   -13.5321 -13.5321 -13.4933 -13.4931 -13.4374 -13.4363 -13.4239 -13.4227
   -13.3283 -13.3282 -13.2861 -13.2861   0.2992   0.2997   0.3407   0.3412
     4.7854   4.7855   4.9504   4.9504   9.9483   9.9484  10.1454  10.1455
    12.2599  12.2599  12.3638  12.3639

     occupation numbers 
     1.0000   1.0000   1.0000   1.0000   1.0000   1.0000   1.0000   1.0000
     1.0000   1.0000   1.0000   1.0000   1.0000   1.0000   1.0000   1.0000
     1.0000   1.0000   1.0000   1.0000   1.0000   1.0000   1.0000   1.0000
     1.0000   1.0000   1.0000   1.0000   0.0000   0.0000   0.0000   0.0000
     0.0000   0.0000   0.0000   0.0000

          k =-0.7071 0.3536 0.0000 (  3448 PWs)   bands (ev):

   -14.5280 -14.5278 -14.4980 -14.4969 -14.4706 -14.4695 -14.4286 -14.4284
   -13.5332 -13.5332 -13.4908 -13.4905 -13.4385 -13.4373 -13.4243 -13.4232
   -13.3300 -13.3299 -13.2845 -13.2844   0.3040   0.3046   0.3493   0.3498
     4.7194   4.7194   4.8923   4.8923  10.5442  10.5445  10.8689  10.8692
    11.5438  11.5440  11.5691  11.5693

     occupation numbers 
     1.0000   1.0000   1.0000   1.0000   1.0000   1.0000   1.0000   1.0000
     1.0000   1.0000   1.0000   1.0000   1.0000   1.0000   1.0000   1.0000
     1.0000   1.0000   1.0000   1.0000   1.0000   1.0000   1.0000   1.0000
     1.0000   1.0000   1.0000   1.0000   0.0000   0.0000   0.0000   0.0000
     0.0000   0.0000   0.0000   0.0000

     the Fermi energy is     7.5777 ev

!    total energy              =    -885.88275786 Ry
     Harris-Foulkes estimate   =    -885.88275751 Ry
     estimated scf accuracy    <       0.00000031 Ry

     total all-electron energy =    -24716.582573 Ry

     The total energy is the sum of the following terms:

     one-electron contribution =    -155.27743301 Ry
     hartree contribution      =      78.92566419 Ry
     xc contribution           =     -54.74031241 Ry
     ewald contribution        =    -167.52979536 Ry
     one-center paw contrib.   =    -587.26088122 Ry
     smearing contrib. (-TS)   =      -0.00000006 Ry

     convergence has been achieved in   5 iterations

     Writing output data file Sn.save
 
     init_run     :     11.52s CPU     12.09s WALL (       1 calls)
     electrons    :    235.88s CPU    241.41s WALL (       1 calls)

     Called by init_run:
     wfcinit      :     10.91s CPU     11.21s WALL (       1 calls)
     potinit      :      0.23s CPU      0.27s WALL (       1 calls)

     Called by electrons:
     c_bands      :    201.63s CPU    206.43s WALL (       6 calls)
     sum_band     :     32.86s CPU     33.44s WALL (       6 calls)
     v_of_rho     :      0.06s CPU      0.07s WALL (       6 calls)
     v_h          :      0.01s CPU      0.01s WALL (       6 calls)
     v_xc         :      0.05s CPU      0.06s WALL (       6 calls)
     newd         :      0.38s CPU      0.41s WALL (       6 calls)
     PAW_pot      :      1.17s CPU      1.25s WALL (       6 calls)
     mix_rho      :      0.02s CPU      0.04s WALL (       6 calls)

     Called by c_bands:
     init_us_2    :      0.28s CPU      0.39s WALL (    1885 calls)
     cegterg      :    195.15s CPU    199.65s WALL (     870 calls)

     Called by sum_band:
     sum_band:bec :      2.79s CPU      2.88s WALL (     870 calls)
     addusdens    :      0.22s CPU      0.27s WALL (       6 calls)

     Called by *egterg:
     h_psi        :    169.73s CPU    172.19s WALL (    3457 calls)
     s_psi        :      3.77s CPU      3.81s WALL (    3457 calls)
     g_psi        :      0.35s CPU      0.36s WALL (    2442 calls)
     cdiaghg      :     14.76s CPU     14.98s WALL (    3167 calls)
     cegterg:over :      6.89s CPU      6.93s WALL (    2442 calls)
     cegterg:upda :      3.12s CPU      3.14s WALL (    2442 calls)
     cegterg:last :      2.26s CPU      2.27s WALL (    1011 calls)

     Called by h_psi:
     h_psi:vloc   :    159.90s CPU    162.25s WALL (    3457 calls)
     h_psi:vnl    :      9.54s CPU      9.64s WALL (    3457 calls)
     add_vuspsi   :      4.15s CPU      4.18s WALL (    3457 calls)

     General routines
     calbec       :      6.98s CPU      7.08s WALL (    4327 calls)
     fft          :      0.12s CPU      0.20s WALL (     116 calls)
     fftw         :    181.15s CPU    183.81s WALL (  430176 calls)
     davcio       :      0.02s CPU      0.42s WALL (     145 calls)
 
     Parallel routines
     fft_scatter  :    141.83s CPU    144.09s WALL (  430292 calls)

     PAW routines
     PAW_pot      :      1.17s CPU      1.25s WALL (       6 calls)
     PAW_symme    :      0.02s CPU      0.02s WALL (      12 calls)
 
     PWSCF        :  4m 8.86s CPU     4m15.72s WALL

 
   This run was terminated on:  19:57:11  15Mar2020            

=------------------------------------------------------------------------------=
   JOB DONE.
=------------------------------------------------------------------------------=
