
     Program PWSCF v.5.4.0 starts on 27Feb2020 at 21:23:37 

     This program is part of the open-source Quantum ESPRESSO suite
     for quantum simulation of materials; please cite
         "P. Giannozzi et al., J. Phys.:Condens. Matter 21 395502 (2009);
          URL http://www.quantum-espresso.org", 
     in publications or presentations arising from this work. More details at
     http://www.quantum-espresso.org/quote

     Parallel version (MPI & OpenMP), running on      16 processor cores
     Number of MPI processes:                16
     Threads/MPI process:                     1
     R & G space division:  proc/nbgrp/npool/nimage =      16
     Waiting for input...
     Reading input from standard input
Warning: card &IONS ignored
Warning: card / ignored
Warning: card &CELL ignored
Warning: card / ignored

     Current dimensions of program PWSCF are:
     Max number of different atomic species (ntypx) = 10
     Max number of k-points (npk) =  40000
     Max angular momentum in pseudopotentials (lmaxx) =  3

     Subspace diagonalization in iterative solution of the eigenvalue problem:
     a serial algorithm will be used

 
     Parallelization info
     --------------------
     sticks:   dense  smooth     PW     G-vecs:    dense   smooth      PW
     Min         272     272     74                11887    11887    1706
     Max         273     273     75                11890    11890    1709
     Sum        4357    4357   1189               190217   190217   27317
 

     Title: 
     Sn                                                                         


     bravais-lattice index     =            0
     lattice parameter (alat)  =       8.8993  a.u.
     unit-cell volume          =     498.3785 (a.u.)^3
     number of atoms/cell      =            2
     number of atomic types    =            1
     number of electrons       =        28.00
     number of Kohn-Sham states=           18
     kinetic-energy cutoff     =     200.0000  Ry
     charge density cutoff     =     800.0000  Ry
     convergence threshold     =      1.0E-06
     mixing beta               =       0.7000
     number of iterations used =            8  plain     mixing
     Exchange-correlation      = PBE ( 1  4  3  4 0 0)

     celldm(1)=   8.899346  celldm(2)=   0.000000  celldm(3)=   0.000000
     celldm(4)=   0.000000  celldm(5)=   0.000000  celldm(6)=   0.000000

     crystal axes: (cart. coord. in units of alat)
               a(1) = (   0.000000   0.707107   0.707107 )  
               a(2) = (   0.707107   0.000000   0.707107 )  
               a(3) = (   0.707107   0.707107   0.000000 )  

     reciprocal axes: (cart. coord. in units 2 pi/alat)
               b(1) = ( -0.707107  0.707107  0.707107 )  
               b(2) = (  0.707107 -0.707107  0.707107 )  
               b(3) = (  0.707107  0.707107 -0.707107 )  


     PseudoPot. # 1 for Sn read from file:
     ../PseudopotentialDatabase/Sn_ONCV_PBE_FR-1.1.upf
     MD5 check sum: 6dd2180f739ea5ae1610ead5e1628a0e
     Pseudo is Norm-conserving, Zval = 14.0
     Generated using ONCVPSP code by D. R. Hamann
     Using radial grid of  602 points,  6 beta functions with: 
                l(1) =   0
                l(2) =   0
                l(3) =   1
                l(4) =   1
                l(5) =   2
                l(6) =   2

     atomic species   valence    mass     pseudopotential
        Sn            14.00   118.71000     Sn( 1.00)

     24 Sym. Ops. (no inversion) found
          (note: 24 additional sym.ops. were found but ignored
           their fractional translations are incommensurate with FFT grid)

                                    s                        frac. trans.

      isym =  1     identity                                     

 cryst.   s( 1) = (     1          0          0      )
                  (     0          1          0      )
                  (     0          0          1      )

 cart.    s( 1) = (  1.0000000  0.0000000  0.0000000 )
                  (  0.0000000  1.0000000  0.0000000 )
                  (  0.0000000  0.0000000  1.0000000 )


      isym =  2     180 deg rotation - cart. axis [0,0,1]        

 cryst.   s( 2) = (     0          1         -1      )
                  (     1          0         -1      )
                  (     0          0         -1      )

 cart.    s( 2) = ( -1.0000000  0.0000000  0.0000000 )
                  (  0.0000000 -1.0000000  0.0000000 )
                  (  0.0000000  0.0000000  1.0000000 )


      isym =  3     180 deg rotation - cart. axis [0,1,0]        

 cryst.   s( 3) = (     0         -1          1      )
                  (     0         -1          0      )
                  (     1         -1          0      )

 cart.    s( 3) = ( -1.0000000  0.0000000  0.0000000 )
                  (  0.0000000  1.0000000  0.0000000 )
                  (  0.0000000  0.0000000 -1.0000000 )


      isym =  4     180 deg rotation - cart. axis [1,0,0]        

 cryst.   s( 4) = (    -1          0          0      )
                  (    -1          0          1      )
                  (    -1          1          0      )

 cart.    s( 4) = (  1.0000000  0.0000000  0.0000000 )
                  (  0.0000000 -1.0000000  0.0000000 )
                  (  0.0000000  0.0000000 -1.0000000 )


      isym =  5     120 deg rotation - cart. axis [-1,-1,-1]     

 cryst.   s( 5) = (     0          0          1      )
                  (     1          0          0      )
                  (     0          1          0      )

 cart.    s( 5) = (  0.0000000  1.0000000  0.0000000 )
                  (  0.0000000  0.0000000  1.0000000 )
                  (  1.0000000  0.0000000  0.0000000 )


      isym =  6     120 deg rotation - cart. axis [-1,1,1]       

 cryst.   s( 6) = (     1         -1          0      )
                  (     0         -1          1      )
                  (     0         -1          0      )

 cart.    s( 6) = (  0.0000000 -1.0000000  0.0000000 )
                  (  0.0000000  0.0000000  1.0000000 )
                  ( -1.0000000  0.0000000  0.0000000 )


      isym =  7     120 deg rotation - cart. axis [1,1,-1]       

 cryst.   s( 7) = (    -1          1          0      )
                  (    -1          0          0      )
                  (    -1          0          1      )

 cart.    s( 7) = (  0.0000000  1.0000000  0.0000000 )
                  (  0.0000000  0.0000000 -1.0000000 )
                  ( -1.0000000  0.0000000  0.0000000 )


      isym =  8     120 deg rotation - cart. axis [1,-1,1]       

 cryst.   s( 8) = (     0          0         -1      )
                  (     0          1         -1      )
                  (     1          0         -1      )

 cart.    s( 8) = (  0.0000000 -1.0000000  0.0000000 )
                  (  0.0000000  0.0000000 -1.0000000 )
                  (  1.0000000  0.0000000  0.0000000 )


      isym =  9     120 deg rotation - cart. axis [1,1,1]        

 cryst.   s( 9) = (     0          1          0      )
                  (     0          0          1      )
                  (     1          0          0      )

 cart.    s( 9) = (  0.0000000  0.0000000  1.0000000 )
                  (  1.0000000  0.0000000  0.0000000 )
                  (  0.0000000  1.0000000  0.0000000 )


      isym = 10     120 deg rotation - cart. axis [-1,1,-1]      

 cryst.   s(10) = (    -1          0          1      )
                  (    -1          1          0      )
                  (    -1          0          0      )

 cart.    s(10) = (  0.0000000  0.0000000  1.0000000 )
                  ( -1.0000000  0.0000000  0.0000000 )
                  (  0.0000000 -1.0000000  0.0000000 )


      isym = 11     120 deg rotation - cart. axis [1,-1,-1]      

 cryst.   s(11) = (     1          0         -1      )
                  (     0          0         -1      )
                  (     0          1         -1      )

 cart.    s(11) = (  0.0000000  0.0000000 -1.0000000 )
                  ( -1.0000000  0.0000000  0.0000000 )
                  (  0.0000000  1.0000000  0.0000000 )


      isym = 12     120 deg rotation - cart. axis [-1,-1,1]      

 cryst.   s(12) = (     0         -1          0      )
                  (     1         -1          0      )
                  (     0         -1          1      )

 cart.    s(12) = (  0.0000000  0.0000000 -1.0000000 )
                  (  1.0000000  0.0000000  0.0000000 )
                  (  0.0000000 -1.0000000  0.0000000 )


      isym = 13     inv. 180 deg rotation - cart. axis [1,1,0]   

 cryst.   s(13) = (     1          0         -1      )
                  (     0          1         -1      )
                  (     0          0         -1      )

 cart.    s(13) = (  0.0000000 -1.0000000  0.0000000 )
                  ( -1.0000000  0.0000000  0.0000000 )
                  (  0.0000000  0.0000000  1.0000000 )


      isym = 14     inv. 180 deg rotation - cart. axis [1,-1,0]  

 cryst.   s(14) = (     0          1          0      )
                  (     1          0          0      )
                  (     0          0          1      )

 cart.    s(14) = (  0.0000000  1.0000000  0.0000000 )
                  (  1.0000000  0.0000000  0.0000000 )
                  (  0.0000000  0.0000000  1.0000000 )


      isym = 15     inv.  90 deg rotation - cart. axis [0,0,-1]  

 cryst.   s(15) = (     0         -1          0      )
                  (     0         -1          1      )
                  (     1         -1          0      )

 cart.    s(15) = (  0.0000000 -1.0000000  0.0000000 )
                  (  1.0000000  0.0000000  0.0000000 )
                  (  0.0000000  0.0000000 -1.0000000 )


      isym = 16     inv.  90 deg rotation - cart. axis [0,0,1]   

 cryst.   s(16) = (    -1          0          1      )
                  (    -1          0          0      )
                  (    -1          1          0      )

 cart.    s(16) = (  0.0000000  1.0000000  0.0000000 )
                  ( -1.0000000  0.0000000  0.0000000 )
                  (  0.0000000  0.0000000 -1.0000000 )


      isym = 17     inv. 180 deg rotation - cart. axis [1,0,1]   

 cryst.   s(17) = (     1         -1          0      )
                  (     0         -1          0      )
                  (     0         -1          1      )

 cart.    s(17) = (  0.0000000  0.0000000 -1.0000000 )
                  (  0.0000000  1.0000000  0.0000000 )
                  ( -1.0000000  0.0000000  0.0000000 )


      isym = 18     inv. 180 deg rotation - cart. axis [-1,0,1]  

 cryst.   s(18) = (     0          0          1      )
                  (     0          1          0      )
                  (     1          0          0      )

 cart.    s(18) = (  0.0000000  0.0000000  1.0000000 )
                  (  0.0000000  1.0000000  0.0000000 )
                  (  1.0000000  0.0000000  0.0000000 )


      isym = 19     inv.  90 deg rotation - cart. axis [0,1,0]   

 cryst.   s(19) = (     0          0         -1      )
                  (     1          0         -1      )
                  (     0          1         -1      )

 cart.    s(19) = (  0.0000000  0.0000000 -1.0000000 )
                  (  0.0000000 -1.0000000  0.0000000 )
                  (  1.0000000  0.0000000  0.0000000 )


      isym = 20     inv.  90 deg rotation - cart. axis [0,-1,0]  

 cryst.   s(20) = (    -1          1          0      )
                  (    -1          0          1      )
                  (    -1          0          0      )

 cart.    s(20) = (  0.0000000  0.0000000  1.0000000 )
                  (  0.0000000 -1.0000000  0.0000000 )
                  ( -1.0000000  0.0000000  0.0000000 )


      isym = 21     inv. 180 deg rotation - cart. axis [0,1,1]   

 cryst.   s(21) = (    -1          0          0      )
                  (    -1          1          0      )
                  (    -1          0          1      )

 cart.    s(21) = (  1.0000000  0.0000000  0.0000000 )
                  (  0.0000000  0.0000000 -1.0000000 )
                  (  0.0000000 -1.0000000  0.0000000 )


      isym = 22     inv. 180 deg rotation - cart. axis [0,1,-1]  

 cryst.   s(22) = (     1          0          0      )
                  (     0          0          1      )
                  (     0          1          0      )

 cart.    s(22) = (  1.0000000  0.0000000  0.0000000 )
                  (  0.0000000  0.0000000  1.0000000 )
                  (  0.0000000  1.0000000  0.0000000 )


      isym = 23     inv.  90 deg rotation - cart. axis [-1,0,0]  

 cryst.   s(23) = (     0          1         -1      )
                  (     0          0         -1      )
                  (     1          0         -1      )

 cart.    s(23) = ( -1.0000000  0.0000000  0.0000000 )
                  (  0.0000000  0.0000000 -1.0000000 )
                  (  0.0000000  1.0000000  0.0000000 )


      isym = 24     inv.  90 deg rotation - cart. axis [1,0,0]   

 cryst.   s(24) = (     0         -1          1      )
                  (     1         -1          0      )
                  (     0         -1          0      )

 cart.    s(24) = ( -1.0000000  0.0000000  0.0000000 )
                  (  0.0000000  0.0000000  1.0000000 )
                  (  0.0000000 -1.0000000  0.0000000 )


   Cartesian axes

     site n.     atom                  positions (alat units)
         1           Sn  tau(   1) = (   0.0000000   0.0000000   0.0000000  )
         2           Sn  tau(   2) = (   0.3535534   0.3535534   0.3535534  )

   Crystallographic axes

     site n.     atom                  positions (cryst. coord.)
         1           Sn  tau(   1) = (  0.0000000  0.0000000  0.0000000  )
         2           Sn  tau(   2) = (  0.2500000  0.2500000  0.2500000  )

     number of k points=  2300  gaussian smearing, width (Ry)=  0.0001
                       cart. coord. in units 2pi/alat
        k(    1) = (   0.0000000   0.0000000   0.0000000), wk =   0.0000219
        k(    2) = (   0.0157135   0.0157135  -0.0157135), wk =   0.0001756
        k(    3) = (   0.0314270   0.0314270  -0.0314270), wk =   0.0001756
        k(    4) = (   0.0471405   0.0471405  -0.0471405), wk =   0.0001756
        k(    5) = (   0.0628539   0.0628539  -0.0628539), wk =   0.0001756
        k(    6) = (   0.0785674   0.0785674  -0.0785674), wk =   0.0001756
        k(    7) = (   0.0942809   0.0942809  -0.0942809), wk =   0.0001756
        k(    8) = (   0.1099944   0.1099944  -0.1099944), wk =   0.0001756
        k(    9) = (   0.1257079   0.1257079  -0.1257079), wk =   0.0001756
        k(   10) = (   0.1414214   0.1414214  -0.1414214), wk =   0.0001756
        k(   11) = (   0.1571348   0.1571348  -0.1571348), wk =   0.0001756
        k(   12) = (   0.1728483   0.1728483  -0.1728483), wk =   0.0001756
        k(   13) = (   0.1885618   0.1885618  -0.1885618), wk =   0.0001756
        k(   14) = (   0.2042753   0.2042753  -0.2042753), wk =   0.0001756
        k(   15) = (   0.2199888   0.2199888  -0.2199888), wk =   0.0001756
        k(   16) = (   0.2357023   0.2357023  -0.2357023), wk =   0.0001756
        k(   17) = (   0.2514157   0.2514157  -0.2514157), wk =   0.0001756
        k(   18) = (   0.2671292   0.2671292  -0.2671292), wk =   0.0001756
        k(   19) = (   0.2828427   0.2828427  -0.2828427), wk =   0.0001756
        k(   20) = (   0.2985562   0.2985562  -0.2985562), wk =   0.0001756
        k(   21) = (   0.3142697   0.3142697  -0.3142697), wk =   0.0001756
        k(   22) = (   0.3299832   0.3299832  -0.3299832), wk =   0.0001756
        k(   23) = (   0.3456966   0.3456966  -0.3456966), wk =   0.0001756
        k(   24) = (   0.0314270   0.0000000   0.0000000), wk =   0.0001317
        k(   25) = (   0.0471405   0.0157135  -0.0157135), wk =   0.0005267
        k(   26) = (   0.0628539   0.0314270  -0.0314270), wk =   0.0005267
        k(   27) = (   0.0785674   0.0471405  -0.0471405), wk =   0.0005267
        k(   28) = (   0.0942809   0.0628539  -0.0628539), wk =   0.0005267
        k(   29) = (   0.1099944   0.0785674  -0.0785674), wk =   0.0005267
        k(   30) = (   0.1257079   0.0942809  -0.0942809), wk =   0.0005267
        k(   31) = (   0.1414214   0.1099944  -0.1099944), wk =   0.0005267
        k(   32) = (   0.1571348   0.1257079  -0.1257079), wk =   0.0005267
        k(   33) = (   0.1728483   0.1414214  -0.1414214), wk =   0.0005267
        k(   34) = (   0.1885618   0.1571348  -0.1571348), wk =   0.0005267
        k(   35) = (   0.2042753   0.1728483  -0.1728483), wk =   0.0005267
        k(   36) = (   0.2199888   0.1885618  -0.1885618), wk =   0.0005267
        k(   37) = (   0.2357023   0.2042753  -0.2042753), wk =   0.0005267
        k(   38) = (   0.2514157   0.2199888  -0.2199888), wk =   0.0005267
        k(   39) = (   0.2671292   0.2357023  -0.2357023), wk =   0.0005267
        k(   40) = (   0.2828427   0.2514157  -0.2514157), wk =   0.0005267
        k(   41) = (   0.2985562   0.2671292  -0.2671292), wk =   0.0005267
        k(   42) = (   0.3142697   0.2828427  -0.2828427), wk =   0.0005267
        k(   43) = (   0.3299832   0.2985562  -0.2985562), wk =   0.0005267
        k(   44) = (   0.3456966   0.3142697  -0.3142697), wk =   0.0005267
        k(   45) = (   0.3614101   0.3299832  -0.3299832), wk =   0.0005267
        k(   46) = (  -0.3299832  -0.3614101   0.3614101), wk =   0.0005267
        k(   47) = (  -0.3142697  -0.3456966   0.3456966), wk =   0.0005267
        k(   48) = (  -0.2985562  -0.3299832   0.3299832), wk =   0.0005267
        k(   49) = (  -0.2828427  -0.3142697   0.3142697), wk =   0.0005267
        k(   50) = (  -0.2671292  -0.2985562   0.2985562), wk =   0.0005267
        k(   51) = (  -0.2514157  -0.2828427   0.2828427), wk =   0.0005267
        k(   52) = (  -0.2357023  -0.2671292   0.2671292), wk =   0.0005267
        k(   53) = (  -0.2199888  -0.2514157   0.2514157), wk =   0.0005267
        k(   54) = (  -0.2042753  -0.2357023   0.2357023), wk =   0.0005267
        k(   55) = (  -0.1885618  -0.2199888   0.2199888), wk =   0.0005267
        k(   56) = (  -0.1728483  -0.2042753   0.2042753), wk =   0.0005267
        k(   57) = (  -0.1571348  -0.1885618   0.1885618), wk =   0.0005267
        k(   58) = (  -0.1414214  -0.1728483   0.1728483), wk =   0.0005267
        k(   59) = (  -0.1257079  -0.1571348   0.1571348), wk =   0.0005267
        k(   60) = (  -0.1099944  -0.1414214   0.1414214), wk =   0.0005267
        k(   61) = (  -0.0942809  -0.1257079   0.1257079), wk =   0.0005267
        k(   62) = (  -0.0785674  -0.1099944   0.1099944), wk =   0.0005267
        k(   63) = (  -0.0628539  -0.0942809   0.0942809), wk =   0.0005267
        k(   64) = (  -0.0471405  -0.0785674   0.0785674), wk =   0.0005267
        k(   65) = (  -0.0314270  -0.0628539   0.0628539), wk =   0.0005267
        k(   66) = (  -0.0157135  -0.0471405   0.0471405), wk =   0.0005267
        k(   67) = (  -0.0000000  -0.0314270   0.0314270), wk =   0.0002634
        k(   68) = (   0.0628539   0.0000000   0.0000000), wk =   0.0001317
        k(   69) = (   0.0785674   0.0157135  -0.0157135), wk =   0.0005267
        k(   70) = (   0.0942809   0.0314270  -0.0314270), wk =   0.0005267
        k(   71) = (   0.1099944   0.0471405  -0.0471405), wk =   0.0005267
        k(   72) = (   0.1257079   0.0628539  -0.0628539), wk =   0.0005267
        k(   73) = (   0.1414214   0.0785674  -0.0785674), wk =   0.0005267
        k(   74) = (   0.1571348   0.0942809  -0.0942809), wk =   0.0005267
        k(   75) = (   0.1728483   0.1099944  -0.1099944), wk =   0.0005267
        k(   76) = (   0.1885618   0.1257079  -0.1257079), wk =   0.0005267
        k(   77) = (   0.2042753   0.1414214  -0.1414214), wk =   0.0005267
        k(   78) = (   0.2199888   0.1571348  -0.1571348), wk =   0.0005267
        k(   79) = (   0.2357023   0.1728483  -0.1728483), wk =   0.0005267
        k(   80) = (   0.2514157   0.1885618  -0.1885618), wk =   0.0005267
        k(   81) = (   0.2671292   0.2042753  -0.2042753), wk =   0.0005267
        k(   82) = (   0.2828427   0.2199888  -0.2199888), wk =   0.0005267
        k(   83) = (   0.2985562   0.2357023  -0.2357023), wk =   0.0005267
        k(   84) = (   0.3142697   0.2514157  -0.2514157), wk =   0.0005267
        k(   85) = (   0.3299832   0.2671292  -0.2671292), wk =   0.0005267
        k(   86) = (   0.3456966   0.2828427  -0.2828427), wk =   0.0005267
        k(   87) = (   0.3614101   0.2985562  -0.2985562), wk =   0.0005267
        k(   88) = (   0.3771236   0.3142697  -0.3142697), wk =   0.0005267
        k(   89) = (  -0.3142697  -0.3771236   0.3771236), wk =   0.0005267
        k(   90) = (  -0.2985562  -0.3614101   0.3614101), wk =   0.0005267
        k(   91) = (  -0.2828427  -0.3456966   0.3456966), wk =   0.0005267
        k(   92) = (  -0.2671292  -0.3299832   0.3299832), wk =   0.0005267
        k(   93) = (  -0.2514157  -0.3142697   0.3142697), wk =   0.0005267
        k(   94) = (  -0.2357023  -0.2985562   0.2985562), wk =   0.0005267
        k(   95) = (  -0.2199888  -0.2828427   0.2828427), wk =   0.0005267
        k(   96) = (  -0.2042753  -0.2671292   0.2671292), wk =   0.0005267
        k(   97) = (  -0.1885618  -0.2514157   0.2514157), wk =   0.0005267
        k(   98) = (  -0.1728483  -0.2357023   0.2357023), wk =   0.0005267
        k(   99) = (  -0.1571348  -0.2199888   0.2199888), wk =   0.0005267
        k(  100) = (  -0.1414214  -0.2042753   0.2042753), wk =   0.0005267
        k(  101) = (  -0.1257079  -0.1885618   0.1885618), wk =   0.0005267
        k(  102) = (  -0.1099944  -0.1728483   0.1728483), wk =   0.0005267
        k(  103) = (  -0.0942809  -0.1571348   0.1571348), wk =   0.0005267
        k(  104) = (  -0.0785674  -0.1414214   0.1414214), wk =   0.0005267
        k(  105) = (  -0.0628539  -0.1257079   0.1257079), wk =   0.0005267
        k(  106) = (  -0.0471405  -0.1099944   0.1099944), wk =   0.0005267
        k(  107) = (  -0.0314270  -0.0942809   0.0942809), wk =   0.0005267
        k(  108) = (  -0.0157135  -0.0785674   0.0785674), wk =   0.0005267
        k(  109) = (   0.0000000  -0.0628539   0.0628539), wk =   0.0002634
        k(  110) = (   0.0942809   0.0000000   0.0000000), wk =   0.0001317
        k(  111) = (   0.1099944   0.0157135  -0.0157135), wk =   0.0005267
        k(  112) = (   0.1257079   0.0314270  -0.0314270), wk =   0.0005267
        k(  113) = (   0.1414214   0.0471405  -0.0471405), wk =   0.0005267
        k(  114) = (   0.1571348   0.0628539  -0.0628539), wk =   0.0005267
        k(  115) = (   0.1728483   0.0785674  -0.0785674), wk =   0.0005267
        k(  116) = (   0.1885618   0.0942809  -0.0942809), wk =   0.0005267
        k(  117) = (   0.2042753   0.1099944  -0.1099944), wk =   0.0005267
        k(  118) = (   0.2199888   0.1257079  -0.1257079), wk =   0.0005267
        k(  119) = (   0.2357023   0.1414214  -0.1414214), wk =   0.0005267
        k(  120) = (   0.2514157   0.1571348  -0.1571348), wk =   0.0005267
        k(  121) = (   0.2671292   0.1728483  -0.1728483), wk =   0.0005267
        k(  122) = (   0.2828427   0.1885618  -0.1885618), wk =   0.0005267
        k(  123) = (   0.2985562   0.2042753  -0.2042753), wk =   0.0005267
        k(  124) = (   0.3142697   0.2199888  -0.2199888), wk =   0.0005267
        k(  125) = (   0.3299832   0.2357023  -0.2357023), wk =   0.0005267
        k(  126) = (   0.3456966   0.2514157  -0.2514157), wk =   0.0005267
        k(  127) = (   0.3614101   0.2671292  -0.2671292), wk =   0.0005267
        k(  128) = (   0.3771236   0.2828427  -0.2828427), wk =   0.0005267
        k(  129) = (   0.3928371   0.2985562  -0.2985562), wk =   0.0005267
        k(  130) = (  -0.2985562  -0.3928371   0.3928371), wk =   0.0005267
        k(  131) = (  -0.2828427  -0.3771236   0.3771236), wk =   0.0005267
        k(  132) = (  -0.2671292  -0.3614101   0.3614101), wk =   0.0005267
        k(  133) = (  -0.2514157  -0.3456966   0.3456966), wk =   0.0005267
        k(  134) = (  -0.2357023  -0.3299832   0.3299832), wk =   0.0005267
        k(  135) = (  -0.2199888  -0.3142697   0.3142697), wk =   0.0005267
        k(  136) = (  -0.2042753  -0.2985562   0.2985562), wk =   0.0005267
        k(  137) = (  -0.1885618  -0.2828427   0.2828427), wk =   0.0005267
        k(  138) = (  -0.1728483  -0.2671292   0.2671292), wk =   0.0005267
        k(  139) = (  -0.1571348  -0.2514157   0.2514157), wk =   0.0005267
        k(  140) = (  -0.1414214  -0.2357023   0.2357023), wk =   0.0005267
        k(  141) = (  -0.1257079  -0.2199888   0.2199888), wk =   0.0005267
        k(  142) = (  -0.1099944  -0.2042753   0.2042753), wk =   0.0005267
        k(  143) = (  -0.0942809  -0.1885618   0.1885618), wk =   0.0005267
        k(  144) = (  -0.0785674  -0.1728483   0.1728483), wk =   0.0005267
        k(  145) = (  -0.0628539  -0.1571348   0.1571348), wk =   0.0005267
        k(  146) = (  -0.0471405  -0.1414214   0.1414214), wk =   0.0005267
        k(  147) = (  -0.0314270  -0.1257079   0.1257079), wk =   0.0005267
        k(  148) = (  -0.0157135  -0.1099944   0.1099944), wk =   0.0005267
        k(  149) = (   0.0000000  -0.0942809   0.0942809), wk =   0.0002634
        k(  150) = (   0.1257079   0.0000000   0.0000000), wk =   0.0001317
        k(  151) = (   0.1414214   0.0157135  -0.0157135), wk =   0.0005267
        k(  152) = (   0.1571348   0.0314270  -0.0314270), wk =   0.0005267
        k(  153) = (   0.1728483   0.0471405  -0.0471405), wk =   0.0005267
        k(  154) = (   0.1885618   0.0628539  -0.0628539), wk =   0.0005267
        k(  155) = (   0.2042753   0.0785674  -0.0785674), wk =   0.0005267
        k(  156) = (   0.2199888   0.0942809  -0.0942809), wk =   0.0005267
        k(  157) = (   0.2357023   0.1099944  -0.1099944), wk =   0.0005267
        k(  158) = (   0.2514157   0.1257079  -0.1257079), wk =   0.0005267
        k(  159) = (   0.2671292   0.1414214  -0.1414214), wk =   0.0005267
        k(  160) = (   0.2828427   0.1571348  -0.1571348), wk =   0.0005267
        k(  161) = (   0.2985562   0.1728483  -0.1728483), wk =   0.0005267
        k(  162) = (   0.3142697   0.1885618  -0.1885618), wk =   0.0005267
        k(  163) = (   0.3299832   0.2042753  -0.2042753), wk =   0.0005267
        k(  164) = (   0.3456966   0.2199888  -0.2199888), wk =   0.0005267
        k(  165) = (   0.3614101   0.2357023  -0.2357023), wk =   0.0005267
        k(  166) = (   0.3771236   0.2514157  -0.2514157), wk =   0.0005267
        k(  167) = (   0.3928371   0.2671292  -0.2671292), wk =   0.0005267
        k(  168) = (   0.4085506   0.2828427  -0.2828427), wk =   0.0005267
        k(  169) = (  -0.2828427  -0.4085506   0.4085506), wk =   0.0005267
        k(  170) = (  -0.2671292  -0.3928371   0.3928371), wk =   0.0005267
        k(  171) = (  -0.2514157  -0.3771236   0.3771236), wk =   0.0005267
        k(  172) = (  -0.2357023  -0.3614101   0.3614101), wk =   0.0005267
        k(  173) = (  -0.2199888  -0.3456966   0.3456966), wk =   0.0005267
        k(  174) = (  -0.2042753  -0.3299832   0.3299832), wk =   0.0005267
        k(  175) = (  -0.1885618  -0.3142697   0.3142697), wk =   0.0005267
        k(  176) = (  -0.1728483  -0.2985562   0.2985562), wk =   0.0005267
        k(  177) = (  -0.1571348  -0.2828427   0.2828427), wk =   0.0005267
        k(  178) = (  -0.1414214  -0.2671292   0.2671292), wk =   0.0005267
        k(  179) = (  -0.1257079  -0.2514157   0.2514157), wk =   0.0005267
        k(  180) = (  -0.1099944  -0.2357023   0.2357023), wk =   0.0005267
        k(  181) = (  -0.0942809  -0.2199888   0.2199888), wk =   0.0005267
        k(  182) = (  -0.0785674  -0.2042753   0.2042753), wk =   0.0005267
        k(  183) = (  -0.0628539  -0.1885618   0.1885618), wk =   0.0005267
        k(  184) = (  -0.0471405  -0.1728483   0.1728483), wk =   0.0005267
        k(  185) = (  -0.0314270  -0.1571348   0.1571348), wk =   0.0005267
        k(  186) = (  -0.0157135  -0.1414214   0.1414214), wk =   0.0005267
        k(  187) = (  -0.0000000  -0.1257079   0.1257079), wk =   0.0002634
        k(  188) = (   0.1571348   0.0000000   0.0000000), wk =   0.0001317
        k(  189) = (   0.1728483   0.0157135  -0.0157135), wk =   0.0005267
        k(  190) = (   0.1885618   0.0314270  -0.0314270), wk =   0.0005267
        k(  191) = (   0.2042753   0.0471405  -0.0471405), wk =   0.0005267
        k(  192) = (   0.2199888   0.0628539  -0.0628539), wk =   0.0005267
        k(  193) = (   0.2357023   0.0785674  -0.0785674), wk =   0.0005267
        k(  194) = (   0.2514157   0.0942809  -0.0942809), wk =   0.0005267
        k(  195) = (   0.2671292   0.1099944  -0.1099944), wk =   0.0005267
        k(  196) = (   0.2828427   0.1257079  -0.1257079), wk =   0.0005267
        k(  197) = (   0.2985562   0.1414214  -0.1414214), wk =   0.0005267
        k(  198) = (   0.3142697   0.1571348  -0.1571348), wk =   0.0005267
        k(  199) = (   0.3299832   0.1728483  -0.1728483), wk =   0.0005267
        k(  200) = (   0.3456966   0.1885618  -0.1885618), wk =   0.0005267
        k(  201) = (   0.3614101   0.2042753  -0.2042753), wk =   0.0005267
        k(  202) = (   0.3771236   0.2199888  -0.2199888), wk =   0.0005267
        k(  203) = (   0.3928371   0.2357023  -0.2357023), wk =   0.0005267
        k(  204) = (   0.4085506   0.2514157  -0.2514157), wk =   0.0005267
        k(  205) = (   0.4242641   0.2671292  -0.2671292), wk =   0.0005267
        k(  206) = (  -0.2671292  -0.4242641   0.4242641), wk =   0.0005267
        k(  207) = (  -0.2514157  -0.4085506   0.4085506), wk =   0.0005267
        k(  208) = (  -0.2357023  -0.3928371   0.3928371), wk =   0.0005267
        k(  209) = (  -0.2199888  -0.3771236   0.3771236), wk =   0.0005267
        k(  210) = (  -0.2042753  -0.3614101   0.3614101), wk =   0.0005267
        k(  211) = (  -0.1885618  -0.3456966   0.3456966), wk =   0.0005267
        k(  212) = (  -0.1728483  -0.3299832   0.3299832), wk =   0.0005267
        k(  213) = (  -0.1571348  -0.3142697   0.3142697), wk =   0.0005267
        k(  214) = (  -0.1414214  -0.2985562   0.2985562), wk =   0.0005267
        k(  215) = (  -0.1257079  -0.2828427   0.2828427), wk =   0.0005267
        k(  216) = (  -0.1099944  -0.2671292   0.2671292), wk =   0.0005267
        k(  217) = (  -0.0942809  -0.2514157   0.2514157), wk =   0.0005267
        k(  218) = (  -0.0785674  -0.2357023   0.2357023), wk =   0.0005267
        k(  219) = (  -0.0628539  -0.2199888   0.2199888), wk =   0.0005267
        k(  220) = (  -0.0471405  -0.2042753   0.2042753), wk =   0.0005267
        k(  221) = (  -0.0314270  -0.1885618   0.1885618), wk =   0.0005267
        k(  222) = (  -0.0157135  -0.1728483   0.1728483), wk =   0.0005267
        k(  223) = (  -0.0000000  -0.1571348   0.1571348), wk =   0.0002634
        k(  224) = (   0.1885618   0.0000000   0.0000000), wk =   0.0001317
        k(  225) = (   0.2042753   0.0157135  -0.0157135), wk =   0.0005267
        k(  226) = (   0.2199888   0.0314270  -0.0314270), wk =   0.0005267
        k(  227) = (   0.2357023   0.0471405  -0.0471405), wk =   0.0005267
        k(  228) = (   0.2514157   0.0628539  -0.0628539), wk =   0.0005267
        k(  229) = (   0.2671292   0.0785674  -0.0785674), wk =   0.0005267
        k(  230) = (   0.2828427   0.0942809  -0.0942809), wk =   0.0005267
        k(  231) = (   0.2985562   0.1099944  -0.1099944), wk =   0.0005267
        k(  232) = (   0.3142697   0.1257079  -0.1257079), wk =   0.0005267
        k(  233) = (   0.3299832   0.1414214  -0.1414214), wk =   0.0005267
        k(  234) = (   0.3456966   0.1571348  -0.1571348), wk =   0.0005267
        k(  235) = (   0.3614101   0.1728483  -0.1728483), wk =   0.0005267
        k(  236) = (   0.3771236   0.1885618  -0.1885618), wk =   0.0005267
        k(  237) = (   0.3928371   0.2042753  -0.2042753), wk =   0.0005267
        k(  238) = (   0.4085506   0.2199888  -0.2199888), wk =   0.0005267
        k(  239) = (   0.4242641   0.2357023  -0.2357023), wk =   0.0005267
        k(  240) = (   0.4399776   0.2514157  -0.2514157), wk =   0.0005267
        k(  241) = (  -0.2514157  -0.4399776   0.4399776), wk =   0.0005267
        k(  242) = (  -0.2357023  -0.4242641   0.4242641), wk =   0.0005267
        k(  243) = (  -0.2199888  -0.4085506   0.4085506), wk =   0.0005267
        k(  244) = (  -0.2042753  -0.3928371   0.3928371), wk =   0.0005267
        k(  245) = (  -0.1885618  -0.3771236   0.3771236), wk =   0.0005267
        k(  246) = (  -0.1728483  -0.3614101   0.3614101), wk =   0.0005267
        k(  247) = (  -0.1571348  -0.3456966   0.3456966), wk =   0.0005267
        k(  248) = (  -0.1414214  -0.3299832   0.3299832), wk =   0.0005267
        k(  249) = (  -0.1257079  -0.3142697   0.3142697), wk =   0.0005267
        k(  250) = (  -0.1099944  -0.2985562   0.2985562), wk =   0.0005267
        k(  251) = (  -0.0942809  -0.2828427   0.2828427), wk =   0.0005267
        k(  252) = (  -0.0785674  -0.2671292   0.2671292), wk =   0.0005267
        k(  253) = (  -0.0628539  -0.2514157   0.2514157), wk =   0.0005267
        k(  254) = (  -0.0471405  -0.2357023   0.2357023), wk =   0.0005267
        k(  255) = (  -0.0314270  -0.2199888   0.2199888), wk =   0.0005267
        k(  256) = (  -0.0157135  -0.2042753   0.2042753), wk =   0.0005267
        k(  257) = (   0.0000000  -0.1885618   0.1885618), wk =   0.0002634
        k(  258) = (   0.2199888   0.0000000   0.0000000), wk =   0.0001317
        k(  259) = (   0.2357023   0.0157135  -0.0157135), wk =   0.0005267
        k(  260) = (   0.2514157   0.0314270  -0.0314270), wk =   0.0005267
        k(  261) = (   0.2671292   0.0471405  -0.0471405), wk =   0.0005267
        k(  262) = (   0.2828427   0.0628539  -0.0628539), wk =   0.0005267
        k(  263) = (   0.2985562   0.0785674  -0.0785674), wk =   0.0005267
        k(  264) = (   0.3142697   0.0942809  -0.0942809), wk =   0.0005267
        k(  265) = (   0.3299832   0.1099944  -0.1099944), wk =   0.0005267
        k(  266) = (   0.3456966   0.1257079  -0.1257079), wk =   0.0005267
        k(  267) = (   0.3614101   0.1414214  -0.1414214), wk =   0.0005267
        k(  268) = (   0.3771236   0.1571348  -0.1571348), wk =   0.0005267
        k(  269) = (   0.3928371   0.1728483  -0.1728483), wk =   0.0005267
        k(  270) = (   0.4085506   0.1885618  -0.1885618), wk =   0.0005267
        k(  271) = (   0.4242641   0.2042753  -0.2042753), wk =   0.0005267
        k(  272) = (   0.4399776   0.2199888  -0.2199888), wk =   0.0005267
        k(  273) = (   0.4556910   0.2357023  -0.2357023), wk =   0.0005267
        k(  274) = (  -0.2357023  -0.4556910   0.4556910), wk =   0.0005267
        k(  275) = (  -0.2199888  -0.4399776   0.4399776), wk =   0.0005267
        k(  276) = (  -0.2042753  -0.4242641   0.4242641), wk =   0.0005267
        k(  277) = (  -0.1885618  -0.4085506   0.4085506), wk =   0.0005267
        k(  278) = (  -0.1728483  -0.3928371   0.3928371), wk =   0.0005267
        k(  279) = (  -0.1571348  -0.3771236   0.3771236), wk =   0.0005267
        k(  280) = (  -0.1414214  -0.3614101   0.3614101), wk =   0.0005267
        k(  281) = (  -0.1257079  -0.3456966   0.3456966), wk =   0.0005267
        k(  282) = (  -0.1099944  -0.3299832   0.3299832), wk =   0.0005267
        k(  283) = (  -0.0942809  -0.3142697   0.3142697), wk =   0.0005267
        k(  284) = (  -0.0785674  -0.2985562   0.2985562), wk =   0.0005267
        k(  285) = (  -0.0628539  -0.2828427   0.2828427), wk =   0.0005267
        k(  286) = (  -0.0471405  -0.2671292   0.2671292), wk =   0.0005267
        k(  287) = (  -0.0314270  -0.2514157   0.2514157), wk =   0.0005267
        k(  288) = (  -0.0157135  -0.2357023   0.2357023), wk =   0.0005267
        k(  289) = (   0.0000000  -0.2199888   0.2199888), wk =   0.0002634
        k(  290) = (   0.2514157   0.0000000   0.0000000), wk =   0.0001317
        k(  291) = (   0.2671292   0.0157135  -0.0157135), wk =   0.0005267
        k(  292) = (   0.2828427   0.0314270  -0.0314270), wk =   0.0005267
        k(  293) = (   0.2985562   0.0471405  -0.0471405), wk =   0.0005267
        k(  294) = (   0.3142697   0.0628539  -0.0628539), wk =   0.0005267
        k(  295) = (   0.3299832   0.0785674  -0.0785674), wk =   0.0005267
        k(  296) = (   0.3456966   0.0942809  -0.0942809), wk =   0.0005267
        k(  297) = (   0.3614101   0.1099944  -0.1099944), wk =   0.0005267
        k(  298) = (   0.3771236   0.1257079  -0.1257079), wk =   0.0005267
        k(  299) = (   0.3928371   0.1414214  -0.1414214), wk =   0.0005267
        k(  300) = (   0.4085506   0.1571348  -0.1571348), wk =   0.0005267
        k(  301) = (   0.4242641   0.1728483  -0.1728483), wk =   0.0005267
        k(  302) = (   0.4399776   0.1885618  -0.1885618), wk =   0.0005267
        k(  303) = (   0.4556910   0.2042753  -0.2042753), wk =   0.0005267
        k(  304) = (   0.4714045   0.2199888  -0.2199888), wk =   0.0005267
        k(  305) = (  -0.2199888  -0.4714045   0.4714045), wk =   0.0005267
        k(  306) = (  -0.2042753  -0.4556910   0.4556910), wk =   0.0005267
        k(  307) = (  -0.1885618  -0.4399776   0.4399776), wk =   0.0005267
        k(  308) = (  -0.1728483  -0.4242641   0.4242641), wk =   0.0005267
        k(  309) = (  -0.1571348  -0.4085506   0.4085506), wk =   0.0005267
        k(  310) = (  -0.1414214  -0.3928371   0.3928371), wk =   0.0005267
        k(  311) = (  -0.1257079  -0.3771236   0.3771236), wk =   0.0005267
        k(  312) = (  -0.1099944  -0.3614101   0.3614101), wk =   0.0005267
        k(  313) = (  -0.0942809  -0.3456966   0.3456966), wk =   0.0005267
        k(  314) = (  -0.0785674  -0.3299832   0.3299832), wk =   0.0005267
        k(  315) = (  -0.0628539  -0.3142697   0.3142697), wk =   0.0005267
        k(  316) = (  -0.0471405  -0.2985562   0.2985562), wk =   0.0005267
        k(  317) = (  -0.0314270  -0.2828427   0.2828427), wk =   0.0005267
        k(  318) = (  -0.0157135  -0.2671292   0.2671292), wk =   0.0005267
        k(  319) = (  -0.0000000  -0.2514157   0.2514157), wk =   0.0002634
        k(  320) = (   0.2828427   0.0000000   0.0000000), wk =   0.0001317
        k(  321) = (   0.2985562   0.0157135  -0.0157135), wk =   0.0005267
        k(  322) = (   0.3142697   0.0314270  -0.0314270), wk =   0.0005267
        k(  323) = (   0.3299832   0.0471405  -0.0471405), wk =   0.0005267
        k(  324) = (   0.3456966   0.0628539  -0.0628539), wk =   0.0005267
        k(  325) = (   0.3614101   0.0785674  -0.0785674), wk =   0.0005267
        k(  326) = (   0.3771236   0.0942809  -0.0942809), wk =   0.0005267
        k(  327) = (   0.3928371   0.1099944  -0.1099944), wk =   0.0005267
        k(  328) = (   0.4085506   0.1257079  -0.1257079), wk =   0.0005267
        k(  329) = (   0.4242641   0.1414214  -0.1414214), wk =   0.0005267
        k(  330) = (   0.4399776   0.1571348  -0.1571348), wk =   0.0005267
        k(  331) = (   0.4556910   0.1728483  -0.1728483), wk =   0.0005267
        k(  332) = (   0.4714045   0.1885618  -0.1885618), wk =   0.0005267
        k(  333) = (   0.4871180   0.2042753  -0.2042753), wk =   0.0005267
        k(  334) = (  -0.2042753  -0.4871180   0.4871180), wk =   0.0005267
        k(  335) = (  -0.1885618  -0.4714045   0.4714045), wk =   0.0005267
        k(  336) = (  -0.1728483  -0.4556910   0.4556910), wk =   0.0005267
        k(  337) = (  -0.1571348  -0.4399776   0.4399776), wk =   0.0005267
        k(  338) = (  -0.1414214  -0.4242641   0.4242641), wk =   0.0005267
        k(  339) = (  -0.1257079  -0.4085506   0.4085506), wk =   0.0005267
        k(  340) = (  -0.1099944  -0.3928371   0.3928371), wk =   0.0005267
        k(  341) = (  -0.0942809  -0.3771236   0.3771236), wk =   0.0005267
        k(  342) = (  -0.0785674  -0.3614101   0.3614101), wk =   0.0005267
        k(  343) = (  -0.0628539  -0.3456966   0.3456966), wk =   0.0005267
        k(  344) = (  -0.0471405  -0.3299832   0.3299832), wk =   0.0005267
        k(  345) = (  -0.0314270  -0.3142697   0.3142697), wk =   0.0005267
        k(  346) = (  -0.0157135  -0.2985562   0.2985562), wk =   0.0005267
        k(  347) = (   0.0000000  -0.2828427   0.2828427), wk =   0.0002634
        k(  348) = (   0.3142697   0.0000000   0.0000000), wk =   0.0001317
        k(  349) = (   0.3299832   0.0157135  -0.0157135), wk =   0.0005267
        k(  350) = (   0.3456966   0.0314270  -0.0314270), wk =   0.0005267
        k(  351) = (   0.3614101   0.0471405  -0.0471405), wk =   0.0005267
        k(  352) = (   0.3771236   0.0628539  -0.0628539), wk =   0.0005267
        k(  353) = (   0.3928371   0.0785674  -0.0785674), wk =   0.0005267
        k(  354) = (   0.4085506   0.0942809  -0.0942809), wk =   0.0005267
        k(  355) = (   0.4242641   0.1099944  -0.1099944), wk =   0.0005267
        k(  356) = (   0.4399776   0.1257079  -0.1257079), wk =   0.0005267
        k(  357) = (   0.4556910   0.1414214  -0.1414214), wk =   0.0005267
        k(  358) = (   0.4714045   0.1571348  -0.1571348), wk =   0.0005267
        k(  359) = (   0.4871180   0.1728483  -0.1728483), wk =   0.0005267
        k(  360) = (   0.5028315   0.1885618  -0.1885618), wk =   0.0005267
        k(  361) = (  -0.1885618  -0.5028315   0.5028315), wk =   0.0005267
        k(  362) = (  -0.1728483  -0.4871180   0.4871180), wk =   0.0005267
        k(  363) = (  -0.1571348  -0.4714045   0.4714045), wk =   0.0005267
        k(  364) = (  -0.1414214  -0.4556910   0.4556910), wk =   0.0005267
        k(  365) = (  -0.1257079  -0.4399776   0.4399776), wk =   0.0005267
        k(  366) = (  -0.1099944  -0.4242641   0.4242641), wk =   0.0005267
        k(  367) = (  -0.0942809  -0.4085506   0.4085506), wk =   0.0005267
        k(  368) = (  -0.0785674  -0.3928371   0.3928371), wk =   0.0005267
        k(  369) = (  -0.0628539  -0.3771236   0.3771236), wk =   0.0005267
        k(  370) = (  -0.0471405  -0.3614101   0.3614101), wk =   0.0005267
        k(  371) = (  -0.0314270  -0.3456966   0.3456966), wk =   0.0005267
        k(  372) = (  -0.0157135  -0.3299832   0.3299832), wk =   0.0005267
        k(  373) = (   0.0000000  -0.3142697   0.3142697), wk =   0.0002634
        k(  374) = (   0.3456966   0.0000000   0.0000000), wk =   0.0001317
        k(  375) = (   0.3614101   0.0157135  -0.0157135), wk =   0.0005267
        k(  376) = (   0.3771236   0.0314270  -0.0314270), wk =   0.0005267
        k(  377) = (   0.3928371   0.0471405  -0.0471405), wk =   0.0005267
        k(  378) = (   0.4085506   0.0628539  -0.0628539), wk =   0.0005267
        k(  379) = (   0.4242641   0.0785674  -0.0785674), wk =   0.0005267
        k(  380) = (   0.4399776   0.0942809  -0.0942809), wk =   0.0005267
        k(  381) = (   0.4556910   0.1099944  -0.1099944), wk =   0.0005267
        k(  382) = (   0.4714045   0.1257079  -0.1257079), wk =   0.0005267
        k(  383) = (   0.4871180   0.1414214  -0.1414214), wk =   0.0005267
        k(  384) = (   0.5028315   0.1571348  -0.1571348), wk =   0.0005267
        k(  385) = (   0.5185450   0.1728483  -0.1728483), wk =   0.0005267
        k(  386) = (  -0.1728483  -0.5185450   0.5185450), wk =   0.0005267
        k(  387) = (  -0.1571348  -0.5028315   0.5028315), wk =   0.0005267
        k(  388) = (  -0.1414214  -0.4871180   0.4871180), wk =   0.0005267
        k(  389) = (  -0.1257079  -0.4714045   0.4714045), wk =   0.0005267
        k(  390) = (  -0.1099944  -0.4556910   0.4556910), wk =   0.0005267
        k(  391) = (  -0.0942809  -0.4399776   0.4399776), wk =   0.0005267
        k(  392) = (  -0.0785674  -0.4242641   0.4242641), wk =   0.0005267
        k(  393) = (  -0.0628539  -0.4085506   0.4085506), wk =   0.0005267
        k(  394) = (  -0.0471405  -0.3928371   0.3928371), wk =   0.0005267
        k(  395) = (  -0.0314270  -0.3771236   0.3771236), wk =   0.0005267
        k(  396) = (  -0.0157135  -0.3614101   0.3614101), wk =   0.0005267
        k(  397) = (  -0.0000000  -0.3456966   0.3456966), wk =   0.0002634
        k(  398) = (   0.3771236   0.0000000   0.0000000), wk =   0.0001317
        k(  399) = (   0.3928371   0.0157135  -0.0157135), wk =   0.0005267
        k(  400) = (   0.4085506   0.0314270  -0.0314270), wk =   0.0005267
        k(  401) = (   0.4242641   0.0471405  -0.0471405), wk =   0.0005267
        k(  402) = (   0.4399776   0.0628539  -0.0628539), wk =   0.0005267
        k(  403) = (   0.4556910   0.0785674  -0.0785674), wk =   0.0005267
        k(  404) = (   0.4714045   0.0942809  -0.0942809), wk =   0.0005267
        k(  405) = (   0.4871180   0.1099944  -0.1099944), wk =   0.0005267
        k(  406) = (   0.5028315   0.1257079  -0.1257079), wk =   0.0005267
        k(  407) = (   0.5185450   0.1414214  -0.1414214), wk =   0.0005267
        k(  408) = (   0.5342585   0.1571348  -0.1571348), wk =   0.0005267
        k(  409) = (  -0.1571348  -0.5342585   0.5342585), wk =   0.0005267
        k(  410) = (  -0.1414214  -0.5185450   0.5185450), wk =   0.0005267
        k(  411) = (  -0.1257079  -0.5028315   0.5028315), wk =   0.0005267
        k(  412) = (  -0.1099944  -0.4871180   0.4871180), wk =   0.0005267
        k(  413) = (  -0.0942809  -0.4714045   0.4714045), wk =   0.0005267
        k(  414) = (  -0.0785674  -0.4556910   0.4556910), wk =   0.0005267
        k(  415) = (  -0.0628539  -0.4399776   0.4399776), wk =   0.0005267
        k(  416) = (  -0.0471405  -0.4242641   0.4242641), wk =   0.0005267
        k(  417) = (  -0.0314270  -0.4085506   0.4085506), wk =   0.0005267
        k(  418) = (  -0.0157135  -0.3928371   0.3928371), wk =   0.0005267
        k(  419) = (  -0.0000000  -0.3771236   0.3771236), wk =   0.0002634
        k(  420) = (   0.4085506   0.0000000   0.0000000), wk =   0.0001317
        k(  421) = (   0.4242641   0.0157135  -0.0157135), wk =   0.0005267
        k(  422) = (   0.4399776   0.0314270  -0.0314270), wk =   0.0005267
        k(  423) = (   0.4556910   0.0471405  -0.0471405), wk =   0.0005267
        k(  424) = (   0.4714045   0.0628539  -0.0628539), wk =   0.0005267
        k(  425) = (   0.4871180   0.0785674  -0.0785674), wk =   0.0005267
        k(  426) = (   0.5028315   0.0942809  -0.0942809), wk =   0.0005267
        k(  427) = (   0.5185450   0.1099944  -0.1099944), wk =   0.0005267
        k(  428) = (   0.5342585   0.1257079  -0.1257079), wk =   0.0005267
        k(  429) = (   0.5499719   0.1414214  -0.1414214), wk =   0.0005267
        k(  430) = (  -0.1414214  -0.5499719   0.5499719), wk =   0.0005267
        k(  431) = (  -0.1257079  -0.5342585   0.5342585), wk =   0.0005267
        k(  432) = (  -0.1099944  -0.5185450   0.5185450), wk =   0.0005267
        k(  433) = (  -0.0942809  -0.5028315   0.5028315), wk =   0.0005267
        k(  434) = (  -0.0785674  -0.4871180   0.4871180), wk =   0.0005267
        k(  435) = (  -0.0628539  -0.4714045   0.4714045), wk =   0.0005267
        k(  436) = (  -0.0471405  -0.4556910   0.4556910), wk =   0.0005267
        k(  437) = (  -0.0314270  -0.4399776   0.4399776), wk =   0.0005267
        k(  438) = (  -0.0157135  -0.4242641   0.4242641), wk =   0.0005267
        k(  439) = (   0.0000000  -0.4085506   0.4085506), wk =   0.0002634
        k(  440) = (   0.4399776   0.0000000   0.0000000), wk =   0.0001317
        k(  441) = (   0.4556910   0.0157135  -0.0157135), wk =   0.0005267
        k(  442) = (   0.4714045   0.0314270  -0.0314270), wk =   0.0005267
        k(  443) = (   0.4871180   0.0471405  -0.0471405), wk =   0.0005267
        k(  444) = (   0.5028315   0.0628539  -0.0628539), wk =   0.0005267
        k(  445) = (   0.5185450   0.0785674  -0.0785674), wk =   0.0005267
        k(  446) = (   0.5342585   0.0942809  -0.0942809), wk =   0.0005267
        k(  447) = (   0.5499719   0.1099944  -0.1099944), wk =   0.0005267
        k(  448) = (   0.5656854   0.1257079  -0.1257079), wk =   0.0005267
        k(  449) = (  -0.1257079  -0.5656854   0.5656854), wk =   0.0005267
        k(  450) = (  -0.1099944  -0.5499719   0.5499719), wk =   0.0005267
        k(  451) = (  -0.0942809  -0.5342585   0.5342585), wk =   0.0005267
        k(  452) = (  -0.0785674  -0.5185450   0.5185450), wk =   0.0005267
        k(  453) = (  -0.0628539  -0.5028315   0.5028315), wk =   0.0005267
        k(  454) = (  -0.0471405  -0.4871180   0.4871180), wk =   0.0005267
        k(  455) = (  -0.0314270  -0.4714045   0.4714045), wk =   0.0005267
        k(  456) = (  -0.0157135  -0.4556910   0.4556910), wk =   0.0005267
        k(  457) = (   0.0000000  -0.4399776   0.4399776), wk =   0.0002634
        k(  458) = (   0.4714045   0.0000000   0.0000000), wk =   0.0001317
        k(  459) = (   0.4871180   0.0157135  -0.0157135), wk =   0.0005267
        k(  460) = (   0.5028315   0.0314270  -0.0314270), wk =   0.0005267
        k(  461) = (   0.5185450   0.0471405  -0.0471405), wk =   0.0005267
        k(  462) = (   0.5342585   0.0628539  -0.0628539), wk =   0.0005267
        k(  463) = (   0.5499719   0.0785674  -0.0785674), wk =   0.0005267
        k(  464) = (   0.5656854   0.0942809  -0.0942809), wk =   0.0005267
        k(  465) = (   0.5813989   0.1099944  -0.1099944), wk =   0.0005267
        k(  466) = (  -0.1099944  -0.5813989   0.5813989), wk =   0.0005267
        k(  467) = (  -0.0942809  -0.5656854   0.5656854), wk =   0.0005267
        k(  468) = (  -0.0785674  -0.5499719   0.5499719), wk =   0.0005267
        k(  469) = (  -0.0628539  -0.5342585   0.5342585), wk =   0.0005267
        k(  470) = (  -0.0471405  -0.5185450   0.5185450), wk =   0.0005267
        k(  471) = (  -0.0314270  -0.5028315   0.5028315), wk =   0.0005267
        k(  472) = (  -0.0157135  -0.4871180   0.4871180), wk =   0.0005267
        k(  473) = (  -0.0000000  -0.4714045   0.4714045), wk =   0.0002634
        k(  474) = (   0.5028315   0.0000000   0.0000000), wk =   0.0001317
        k(  475) = (   0.5185450   0.0157135  -0.0157135), wk =   0.0005267
        k(  476) = (   0.5342585   0.0314270  -0.0314270), wk =   0.0005267
        k(  477) = (   0.5499719   0.0471405  -0.0471405), wk =   0.0005267
        k(  478) = (   0.5656854   0.0628539  -0.0628539), wk =   0.0005267
        k(  479) = (   0.5813989   0.0785674  -0.0785674), wk =   0.0005267
        k(  480) = (   0.5971124   0.0942809  -0.0942809), wk =   0.0005267
        k(  481) = (  -0.0942809  -0.5971124   0.5971124), wk =   0.0005267
        k(  482) = (  -0.0785674  -0.5813989   0.5813989), wk =   0.0005267
        k(  483) = (  -0.0628539  -0.5656854   0.5656854), wk =   0.0005267
        k(  484) = (  -0.0471405  -0.5499719   0.5499719), wk =   0.0005267
        k(  485) = (  -0.0314270  -0.5342585   0.5342585), wk =   0.0005267
        k(  486) = (  -0.0157135  -0.5185450   0.5185450), wk =   0.0005267
        k(  487) = (   0.0000000  -0.5028315   0.5028315), wk =   0.0002634
        k(  488) = (   0.5342585   0.0000000   0.0000000), wk =   0.0001317
        k(  489) = (   0.5499719   0.0157135  -0.0157135), wk =   0.0005267
        k(  490) = (   0.5656854   0.0314270  -0.0314270), wk =   0.0005267
        k(  491) = (   0.5813989   0.0471405  -0.0471405), wk =   0.0005267
        k(  492) = (   0.5971124   0.0628539  -0.0628539), wk =   0.0005267
        k(  493) = (   0.6128259   0.0785674  -0.0785674), wk =   0.0005267
        k(  494) = (  -0.0785674  -0.6128259   0.6128259), wk =   0.0005267
        k(  495) = (  -0.0628539  -0.5971124   0.5971124), wk =   0.0005267
        k(  496) = (  -0.0471405  -0.5813989   0.5813989), wk =   0.0005267
        k(  497) = (  -0.0314270  -0.5656854   0.5656854), wk =   0.0005267
        k(  498) = (  -0.0157135  -0.5499719   0.5499719), wk =   0.0005267
        k(  499) = (   0.0000000  -0.5342585   0.5342585), wk =   0.0002634
        k(  500) = (   0.5656854   0.0000000   0.0000000), wk =   0.0001317
        k(  501) = (   0.5813989   0.0157135  -0.0157135), wk =   0.0005267
        k(  502) = (   0.5971124   0.0314270  -0.0314270), wk =   0.0005267
        k(  503) = (   0.6128259   0.0471405  -0.0471405), wk =   0.0005267
        k(  504) = (   0.6285394   0.0628539  -0.0628539), wk =   0.0005267
        k(  505) = (  -0.0628539  -0.6285394   0.6285394), wk =   0.0005267
        k(  506) = (  -0.0471405  -0.6128259   0.6128259), wk =   0.0005267
        k(  507) = (  -0.0314270  -0.5971124   0.5971124), wk =   0.0005267
        k(  508) = (  -0.0157135  -0.5813989   0.5813989), wk =   0.0005267
        k(  509) = (   0.0000000  -0.5656854   0.5656854), wk =   0.0002634
        k(  510) = (   0.5971124   0.0000000   0.0000000), wk =   0.0001317
        k(  511) = (   0.6128259   0.0157135  -0.0157135), wk =   0.0005267
        k(  512) = (   0.6285394   0.0314270  -0.0314270), wk =   0.0005267
        k(  513) = (   0.6442528   0.0471405  -0.0471405), wk =   0.0005267
        k(  514) = (  -0.0471405  -0.6442528   0.6442528), wk =   0.0005267
        k(  515) = (  -0.0314270  -0.6285394   0.6285394), wk =   0.0005267
        k(  516) = (  -0.0157135  -0.6128259   0.6128259), wk =   0.0005267
        k(  517) = (  -0.0000000  -0.5971124   0.5971124), wk =   0.0002634
        k(  518) = (   0.6285394   0.0000000   0.0000000), wk =   0.0001317
        k(  519) = (   0.6442528   0.0157135  -0.0157135), wk =   0.0005267
        k(  520) = (   0.6599663   0.0314270  -0.0314270), wk =   0.0005267
        k(  521) = (  -0.0314270  -0.6599663   0.6599663), wk =   0.0005267
        k(  522) = (  -0.0157135  -0.6442528   0.6442528), wk =   0.0005267
        k(  523) = (   0.0000000  -0.6285394   0.6285394), wk =   0.0002634
        k(  524) = (   0.6599663   0.0000000   0.0000000), wk =   0.0001317
        k(  525) = (   0.6756798   0.0157135  -0.0157135), wk =   0.0005267
        k(  526) = (  -0.0157135  -0.6756798   0.6756798), wk =   0.0005267
        k(  527) = (   0.0000000  -0.6599663   0.6599663), wk =   0.0002634
        k(  528) = (   0.6913933   0.0000000   0.0000000), wk =   0.0001317
        k(  529) = (  -0.0000000  -0.6913933   0.6913933), wk =   0.0002634
        k(  530) = (   0.0628539   0.0314270   0.0000000), wk =   0.0005267
        k(  531) = (   0.0785674   0.0471405  -0.0157135), wk =   0.0010535
        k(  532) = (   0.0942809   0.0628539  -0.0314270), wk =   0.0010535
        k(  533) = (   0.1099944   0.0785674  -0.0471405), wk =   0.0010535
        k(  534) = (   0.1257079   0.0942809  -0.0628539), wk =   0.0010535
        k(  535) = (   0.1414214   0.1099944  -0.0785674), wk =   0.0010535
        k(  536) = (   0.1571348   0.1257079  -0.0942809), wk =   0.0010535
        k(  537) = (   0.1728483   0.1414214  -0.1099944), wk =   0.0010535
        k(  538) = (   0.1885618   0.1571348  -0.1257079), wk =   0.0010535
        k(  539) = (   0.2042753   0.1728483  -0.1414214), wk =   0.0010535
        k(  540) = (   0.2199888   0.1885618  -0.1571348), wk =   0.0010535
        k(  541) = (   0.2357023   0.2042753  -0.1728483), wk =   0.0010535
        k(  542) = (   0.2514157   0.2199888  -0.1885618), wk =   0.0010535
        k(  543) = (   0.2671292   0.2357023  -0.2042753), wk =   0.0010535
        k(  544) = (   0.2828427   0.2514157  -0.2199888), wk =   0.0010535
        k(  545) = (   0.2985562   0.2671292  -0.2357023), wk =   0.0010535
        k(  546) = (   0.3142697   0.2828427  -0.2514157), wk =   0.0010535
        k(  547) = (   0.3299832   0.2985562  -0.2671292), wk =   0.0010535
        k(  548) = (   0.3456966   0.3142697  -0.2828427), wk =   0.0010535
        k(  549) = (   0.3614101   0.3299832  -0.2985562), wk =   0.0010535
        k(  550) = (  -0.3299832  -0.3614101   0.3928371), wk =   0.0010535
        k(  551) = (   0.0942809   0.0314270   0.0000000), wk =   0.0005267
        k(  552) = (   0.1099944   0.0471405  -0.0157135), wk =   0.0010535
        k(  553) = (   0.1257079   0.0628539  -0.0314270), wk =   0.0010535
        k(  554) = (   0.1414214   0.0785674  -0.0471405), wk =   0.0010535
        k(  555) = (   0.1571348   0.0942809  -0.0628539), wk =   0.0010535
        k(  556) = (   0.1728483   0.1099944  -0.0785674), wk =   0.0010535
        k(  557) = (   0.1885618   0.1257079  -0.0942809), wk =   0.0010535
        k(  558) = (   0.2042753   0.1414214  -0.1099944), wk =   0.0010535
        k(  559) = (   0.2199888   0.1571348  -0.1257079), wk =   0.0010535
        k(  560) = (   0.2357023   0.1728483  -0.1414214), wk =   0.0010535
        k(  561) = (   0.2514157   0.1885618  -0.1571348), wk =   0.0010535
        k(  562) = (   0.2671292   0.2042753  -0.1728483), wk =   0.0010535
        k(  563) = (   0.2828427   0.2199888  -0.1885618), wk =   0.0010535
        k(  564) = (   0.2985562   0.2357023  -0.2042753), wk =   0.0010535
        k(  565) = (   0.3142697   0.2514157  -0.2199888), wk =   0.0010535
        k(  566) = (   0.3299832   0.2671292  -0.2357023), wk =   0.0010535
        k(  567) = (   0.3456966   0.2828427  -0.2514157), wk =   0.0010535
        k(  568) = (   0.3614101   0.2985562  -0.2671292), wk =   0.0010535
        k(  569) = (   0.3771236   0.3142697  -0.2828427), wk =   0.0010535
        k(  570) = (  -0.3142697  -0.3771236   0.4085506), wk =   0.0010535
        k(  571) = (  -0.2985562  -0.3614101   0.3928371), wk =   0.0010535
        k(  572) = (  -0.2828427  -0.3456966   0.3771236), wk =   0.0010535
        k(  573) = (  -0.2671292  -0.3299832   0.3614101), wk =   0.0010535
        k(  574) = (  -0.2514157  -0.3142697   0.3456966), wk =   0.0010535
        k(  575) = (  -0.2357023  -0.2985562   0.3299832), wk =   0.0010535
        k(  576) = (  -0.2199888  -0.2828427   0.3142697), wk =   0.0010535
        k(  577) = (  -0.2042753  -0.2671292   0.2985562), wk =   0.0010535
        k(  578) = (  -0.1885618  -0.2514157   0.2828427), wk =   0.0010535
        k(  579) = (  -0.1728483  -0.2357023   0.2671292), wk =   0.0010535
        k(  580) = (  -0.1571348  -0.2199888   0.2514157), wk =   0.0010535
        k(  581) = (  -0.1414214  -0.2042753   0.2357023), wk =   0.0010535
        k(  582) = (  -0.1257079  -0.1885618   0.2199888), wk =   0.0010535
        k(  583) = (  -0.1099944  -0.1728483   0.2042753), wk =   0.0010535
        k(  584) = (  -0.0942809  -0.1571348   0.1885618), wk =   0.0010535
        k(  585) = (  -0.0785674  -0.1414214   0.1728483), wk =   0.0010535
        k(  586) = (  -0.0628539  -0.1257079   0.1571348), wk =   0.0010535
        k(  587) = (  -0.0471405  -0.1099944   0.1414214), wk =   0.0010535
        k(  588) = (  -0.0314270  -0.0942809   0.1257079), wk =   0.0010535
        k(  589) = (  -0.0157135  -0.0785674   0.1099944), wk =   0.0010535
        k(  590) = (   0.0000000  -0.0628539   0.0942809), wk =   0.0005267
        k(  591) = (   0.1257079   0.0314270   0.0000000), wk =   0.0005267
        k(  592) = (   0.1414214   0.0471405  -0.0157135), wk =   0.0010535
        k(  593) = (   0.1571348   0.0628539  -0.0314270), wk =   0.0010535
        k(  594) = (   0.1728483   0.0785674  -0.0471405), wk =   0.0010535
        k(  595) = (   0.1885618   0.0942809  -0.0628539), wk =   0.0010535
        k(  596) = (   0.2042753   0.1099944  -0.0785674), wk =   0.0010535
        k(  597) = (   0.2199888   0.1257079  -0.0942809), wk =   0.0010535
        k(  598) = (   0.2357023   0.1414214  -0.1099944), wk =   0.0010535
        k(  599) = (   0.2514157   0.1571348  -0.1257079), wk =   0.0010535
        k(  600) = (   0.2671292   0.1728483  -0.1414214), wk =   0.0010535
        k(  601) = (   0.2828427   0.1885618  -0.1571348), wk =   0.0010535
        k(  602) = (   0.2985562   0.2042753  -0.1728483), wk =   0.0010535
        k(  603) = (   0.3142697   0.2199888  -0.1885618), wk =   0.0010535
        k(  604) = (   0.3299832   0.2357023  -0.2042753), wk =   0.0010535
        k(  605) = (   0.3456966   0.2514157  -0.2199888), wk =   0.0010535
        k(  606) = (   0.3614101   0.2671292  -0.2357023), wk =   0.0010535
        k(  607) = (   0.3771236   0.2828427  -0.2514157), wk =   0.0010535
        k(  608) = (   0.3928371   0.2985562  -0.2671292), wk =   0.0010535
        k(  609) = (  -0.2985562  -0.3928371   0.4242641), wk =   0.0010535
        k(  610) = (  -0.2828427  -0.3771236   0.4085506), wk =   0.0010535
        k(  611) = (  -0.2671292  -0.3614101   0.3928371), wk =   0.0010535
        k(  612) = (  -0.2514157  -0.3456966   0.3771236), wk =   0.0010535
        k(  613) = (  -0.2357023  -0.3299832   0.3614101), wk =   0.0010535
        k(  614) = (  -0.2199888  -0.3142697   0.3456966), wk =   0.0010535
        k(  615) = (  -0.2042753  -0.2985562   0.3299832), wk =   0.0010535
        k(  616) = (  -0.1885618  -0.2828427   0.3142697), wk =   0.0010535
        k(  617) = (  -0.1728483  -0.2671292   0.2985562), wk =   0.0010535
        k(  618) = (  -0.1571348  -0.2514157   0.2828427), wk =   0.0010535
        k(  619) = (  -0.1414214  -0.2357023   0.2671292), wk =   0.0010535
        k(  620) = (  -0.1257079  -0.2199888   0.2514157), wk =   0.0010535
        k(  621) = (  -0.1099944  -0.2042753   0.2357023), wk =   0.0010535
        k(  622) = (  -0.0942809  -0.1885618   0.2199888), wk =   0.0010535
        k(  623) = (  -0.0785674  -0.1728483   0.2042753), wk =   0.0010535
        k(  624) = (  -0.0628539  -0.1571348   0.1885618), wk =   0.0010535
        k(  625) = (  -0.0471405  -0.1414214   0.1728483), wk =   0.0010535
        k(  626) = (  -0.0314270  -0.1257079   0.1571348), wk =   0.0010535
        k(  627) = (  -0.0157135  -0.1099944   0.1414214), wk =   0.0010535
        k(  628) = (   0.0000000  -0.0942809   0.1257079), wk =   0.0005267
        k(  629) = (   0.1571348   0.0314270   0.0000000), wk =   0.0005267
        k(  630) = (   0.1728483   0.0471405  -0.0157135), wk =   0.0010535
        k(  631) = (   0.1885618   0.0628539  -0.0314270), wk =   0.0010535
        k(  632) = (   0.2042753   0.0785674  -0.0471405), wk =   0.0010535
        k(  633) = (   0.2199888   0.0942809  -0.0628539), wk =   0.0010535
        k(  634) = (   0.2357023   0.1099944  -0.0785674), wk =   0.0010535
        k(  635) = (   0.2514157   0.1257079  -0.0942809), wk =   0.0010535
        k(  636) = (   0.2671292   0.1414214  -0.1099944), wk =   0.0010535
        k(  637) = (   0.2828427   0.1571348  -0.1257079), wk =   0.0010535
        k(  638) = (   0.2985562   0.1728483  -0.1414214), wk =   0.0010535
        k(  639) = (   0.3142697   0.1885618  -0.1571348), wk =   0.0010535
        k(  640) = (   0.3299832   0.2042753  -0.1728483), wk =   0.0010535
        k(  641) = (   0.3456966   0.2199888  -0.1885618), wk =   0.0010535
        k(  642) = (   0.3614101   0.2357023  -0.2042753), wk =   0.0010535
        k(  643) = (   0.3771236   0.2514157  -0.2199888), wk =   0.0010535
        k(  644) = (   0.3928371   0.2671292  -0.2357023), wk =   0.0010535
        k(  645) = (   0.4085506   0.2828427  -0.2514157), wk =   0.0010535
        k(  646) = (  -0.2828427  -0.4085506   0.4399776), wk =   0.0010535
        k(  647) = (  -0.2671292  -0.3928371   0.4242641), wk =   0.0010535
        k(  648) = (  -0.2514157  -0.3771236   0.4085506), wk =   0.0010535
        k(  649) = (  -0.2357023  -0.3614101   0.3928371), wk =   0.0010535
        k(  650) = (  -0.2199888  -0.3456966   0.3771236), wk =   0.0010535
        k(  651) = (  -0.2042753  -0.3299832   0.3614101), wk =   0.0010535
        k(  652) = (  -0.1885618  -0.3142697   0.3456966), wk =   0.0010535
        k(  653) = (  -0.1728483  -0.2985562   0.3299832), wk =   0.0010535
        k(  654) = (  -0.1571348  -0.2828427   0.3142697), wk =   0.0010535
        k(  655) = (  -0.1414214  -0.2671292   0.2985562), wk =   0.0010535
        k(  656) = (  -0.1257079  -0.2514157   0.2828427), wk =   0.0010535
        k(  657) = (  -0.1099944  -0.2357023   0.2671292), wk =   0.0010535
        k(  658) = (  -0.0942809  -0.2199888   0.2514157), wk =   0.0010535
        k(  659) = (  -0.0785674  -0.2042753   0.2357023), wk =   0.0010535
        k(  660) = (  -0.0628539  -0.1885618   0.2199888), wk =   0.0010535
        k(  661) = (  -0.0471405  -0.1728483   0.2042753), wk =   0.0010535
        k(  662) = (  -0.0314270  -0.1571348   0.1885618), wk =   0.0010535
        k(  663) = (  -0.0157135  -0.1414214   0.1728483), wk =   0.0010535
        k(  664) = (  -0.0000000  -0.1257079   0.1571348), wk =   0.0005267
        k(  665) = (   0.1885618   0.0314270   0.0000000), wk =   0.0005267
        k(  666) = (   0.2042753   0.0471405  -0.0157135), wk =   0.0010535
        k(  667) = (   0.2199888   0.0628539  -0.0314270), wk =   0.0010535
        k(  668) = (   0.2357023   0.0785674  -0.0471405), wk =   0.0010535
        k(  669) = (   0.2514157   0.0942809  -0.0628539), wk =   0.0010535
        k(  670) = (   0.2671292   0.1099944  -0.0785674), wk =   0.0010535
        k(  671) = (   0.2828427   0.1257079  -0.0942809), wk =   0.0010535
        k(  672) = (   0.2985562   0.1414214  -0.1099944), wk =   0.0010535
        k(  673) = (   0.3142697   0.1571348  -0.1257079), wk =   0.0010535
        k(  674) = (   0.3299832   0.1728483  -0.1414214), wk =   0.0010535
        k(  675) = (   0.3456966   0.1885618  -0.1571348), wk =   0.0010535
        k(  676) = (   0.3614101   0.2042753  -0.1728483), wk =   0.0010535
        k(  677) = (   0.3771236   0.2199888  -0.1885618), wk =   0.0010535
        k(  678) = (   0.3928371   0.2357023  -0.2042753), wk =   0.0010535
        k(  679) = (   0.4085506   0.2514157  -0.2199888), wk =   0.0010535
        k(  680) = (   0.4242641   0.2671292  -0.2357023), wk =   0.0010535
        k(  681) = (  -0.2671292  -0.4242641   0.4556910), wk =   0.0010535
        k(  682) = (  -0.2514157  -0.4085506   0.4399776), wk =   0.0010535
        k(  683) = (  -0.2357023  -0.3928371   0.4242641), wk =   0.0010535
        k(  684) = (  -0.2199888  -0.3771236   0.4085506), wk =   0.0010535
        k(  685) = (  -0.2042753  -0.3614101   0.3928371), wk =   0.0010535
        k(  686) = (  -0.1885618  -0.3456966   0.3771236), wk =   0.0010535
        k(  687) = (  -0.1728483  -0.3299832   0.3614101), wk =   0.0010535
        k(  688) = (  -0.1571348  -0.3142697   0.3456966), wk =   0.0010535
        k(  689) = (  -0.1414214  -0.2985562   0.3299832), wk =   0.0010535
        k(  690) = (  -0.1257079  -0.2828427   0.3142697), wk =   0.0010535
        k(  691) = (  -0.1099944  -0.2671292   0.2985562), wk =   0.0010535
        k(  692) = (  -0.0942809  -0.2514157   0.2828427), wk =   0.0010535
        k(  693) = (  -0.0785674  -0.2357023   0.2671292), wk =   0.0010535
        k(  694) = (  -0.0628539  -0.2199888   0.2514157), wk =   0.0010535
        k(  695) = (  -0.0471405  -0.2042753   0.2357023), wk =   0.0010535
        k(  696) = (  -0.0314270  -0.1885618   0.2199888), wk =   0.0010535
        k(  697) = (  -0.0157135  -0.1728483   0.2042753), wk =   0.0010535
        k(  698) = (  -0.0000000  -0.1571348   0.1885618), wk =   0.0005267
        k(  699) = (   0.2199888   0.0314270   0.0000000), wk =   0.0005267
        k(  700) = (   0.2357023   0.0471405  -0.0157135), wk =   0.0010535
        k(  701) = (   0.2514157   0.0628539  -0.0314270), wk =   0.0010535
        k(  702) = (   0.2671292   0.0785674  -0.0471405), wk =   0.0010535
        k(  703) = (   0.2828427   0.0942809  -0.0628539), wk =   0.0010535
        k(  704) = (   0.2985562   0.1099944  -0.0785674), wk =   0.0010535
        k(  705) = (   0.3142697   0.1257079  -0.0942809), wk =   0.0010535
        k(  706) = (   0.3299832   0.1414214  -0.1099944), wk =   0.0010535
        k(  707) = (   0.3456966   0.1571348  -0.1257079), wk =   0.0010535
        k(  708) = (   0.3614101   0.1728483  -0.1414214), wk =   0.0010535
        k(  709) = (   0.3771236   0.1885618  -0.1571348), wk =   0.0010535
        k(  710) = (   0.3928371   0.2042753  -0.1728483), wk =   0.0010535
        k(  711) = (   0.4085506   0.2199888  -0.1885618), wk =   0.0010535
        k(  712) = (   0.4242641   0.2357023  -0.2042753), wk =   0.0010535
        k(  713) = (   0.4399776   0.2514157  -0.2199888), wk =   0.0010535
        k(  714) = (  -0.2514157  -0.4399776   0.4714045), wk =   0.0010535
        k(  715) = (  -0.2357023  -0.4242641   0.4556910), wk =   0.0010535
        k(  716) = (  -0.2199888  -0.4085506   0.4399776), wk =   0.0010535
        k(  717) = (  -0.2042753  -0.3928371   0.4242641), wk =   0.0010535
        k(  718) = (  -0.1885618  -0.3771236   0.4085506), wk =   0.0010535
        k(  719) = (  -0.1728483  -0.3614101   0.3928371), wk =   0.0010535
        k(  720) = (  -0.1571348  -0.3456966   0.3771236), wk =   0.0010535
        k(  721) = (  -0.1414214  -0.3299832   0.3614101), wk =   0.0010535
        k(  722) = (  -0.1257079  -0.3142697   0.3456966), wk =   0.0010535
        k(  723) = (  -0.1099944  -0.2985562   0.3299832), wk =   0.0010535
        k(  724) = (  -0.0942809  -0.2828427   0.3142697), wk =   0.0010535
        k(  725) = (  -0.0785674  -0.2671292   0.2985562), wk =   0.0010535
        k(  726) = (  -0.0628539  -0.2514157   0.2828427), wk =   0.0010535
        k(  727) = (  -0.0471405  -0.2357023   0.2671292), wk =   0.0010535
        k(  728) = (  -0.0314270  -0.2199888   0.2514157), wk =   0.0010535
        k(  729) = (  -0.0157135  -0.2042753   0.2357023), wk =   0.0010535
        k(  730) = (   0.0000000  -0.1885618   0.2199888), wk =   0.0005267
        k(  731) = (   0.2514157   0.0314270  -0.0000000), wk =   0.0005267
        k(  732) = (   0.2671292   0.0471405  -0.0157135), wk =   0.0010535
        k(  733) = (   0.2828427   0.0628539  -0.0314270), wk =   0.0010535
        k(  734) = (   0.2985562   0.0785674  -0.0471405), wk =   0.0010535
        k(  735) = (   0.3142697   0.0942809  -0.0628539), wk =   0.0010535
        k(  736) = (   0.3299832   0.1099944  -0.0785674), wk =   0.0010535
        k(  737) = (   0.3456966   0.1257079  -0.0942809), wk =   0.0010535
        k(  738) = (   0.3614101   0.1414214  -0.1099944), wk =   0.0010535
        k(  739) = (   0.3771236   0.1571348  -0.1257079), wk =   0.0010535
        k(  740) = (   0.3928371   0.1728483  -0.1414214), wk =   0.0010535
        k(  741) = (   0.4085506   0.1885618  -0.1571348), wk =   0.0010535
        k(  742) = (   0.4242641   0.2042753  -0.1728483), wk =   0.0010535
        k(  743) = (   0.4399776   0.2199888  -0.1885618), wk =   0.0010535
        k(  744) = (   0.4556910   0.2357023  -0.2042753), wk =   0.0010535
        k(  745) = (  -0.2357023  -0.4556910   0.4871180), wk =   0.0010535
        k(  746) = (  -0.2199888  -0.4399776   0.4714045), wk =   0.0010535
        k(  747) = (  -0.2042753  -0.4242641   0.4556910), wk =   0.0010535
        k(  748) = (  -0.1885618  -0.4085506   0.4399776), wk =   0.0010535
        k(  749) = (  -0.1728483  -0.3928371   0.4242641), wk =   0.0010535
        k(  750) = (  -0.1571348  -0.3771236   0.4085506), wk =   0.0010535
        k(  751) = (  -0.1414214  -0.3614101   0.3928371), wk =   0.0010535
        k(  752) = (  -0.1257079  -0.3456966   0.3771236), wk =   0.0010535
        k(  753) = (  -0.1099944  -0.3299832   0.3614101), wk =   0.0010535
        k(  754) = (  -0.0942809  -0.3142697   0.3456966), wk =   0.0010535
        k(  755) = (  -0.0785674  -0.2985562   0.3299832), wk =   0.0010535
        k(  756) = (  -0.0628539  -0.2828427   0.3142697), wk =   0.0010535
        k(  757) = (  -0.0471405  -0.2671292   0.2985562), wk =   0.0010535
        k(  758) = (  -0.0314270  -0.2514157   0.2828427), wk =   0.0010535
        k(  759) = (  -0.0157135  -0.2357023   0.2671292), wk =   0.0010535
        k(  760) = (   0.0000000  -0.2199888   0.2514157), wk =   0.0005267
        k(  761) = (   0.2828427   0.0314270   0.0000000), wk =   0.0005267
        k(  762) = (   0.2985562   0.0471405  -0.0157135), wk =   0.0010535
        k(  763) = (   0.3142697   0.0628539  -0.0314270), wk =   0.0010535
        k(  764) = (   0.3299832   0.0785674  -0.0471405), wk =   0.0010535
        k(  765) = (   0.3456966   0.0942809  -0.0628539), wk =   0.0010535
        k(  766) = (   0.3614101   0.1099944  -0.0785674), wk =   0.0010535
        k(  767) = (   0.3771236   0.1257079  -0.0942809), wk =   0.0010535
        k(  768) = (   0.3928371   0.1414214  -0.1099944), wk =   0.0010535
        k(  769) = (   0.4085506   0.1571348  -0.1257079), wk =   0.0010535
        k(  770) = (   0.4242641   0.1728483  -0.1414214), wk =   0.0010535
        k(  771) = (   0.4399776   0.1885618  -0.1571348), wk =   0.0010535
        k(  772) = (   0.4556910   0.2042753  -0.1728483), wk =   0.0010535
        k(  773) = (   0.4714045   0.2199888  -0.1885618), wk =   0.0010535
        k(  774) = (  -0.2199888  -0.4714045   0.5028315), wk =   0.0010535
        k(  775) = (  -0.2042753  -0.4556910   0.4871180), wk =   0.0010535
        k(  776) = (  -0.1885618  -0.4399776   0.4714045), wk =   0.0010535
        k(  777) = (  -0.1728483  -0.4242641   0.4556910), wk =   0.0010535
        k(  778) = (  -0.1571348  -0.4085506   0.4399776), wk =   0.0010535
        k(  779) = (  -0.1414214  -0.3928371   0.4242641), wk =   0.0010535
        k(  780) = (  -0.1257079  -0.3771236   0.4085506), wk =   0.0010535
        k(  781) = (  -0.1099944  -0.3614101   0.3928371), wk =   0.0010535
        k(  782) = (  -0.0942809  -0.3456966   0.3771236), wk =   0.0010535
        k(  783) = (  -0.0785674  -0.3299832   0.3614101), wk =   0.0010535
        k(  784) = (  -0.0628539  -0.3142697   0.3456966), wk =   0.0010535
        k(  785) = (  -0.0471405  -0.2985562   0.3299832), wk =   0.0010535
        k(  786) = (  -0.0314270  -0.2828427   0.3142697), wk =   0.0010535
        k(  787) = (  -0.0157135  -0.2671292   0.2985562), wk =   0.0010535
        k(  788) = (   0.0000000  -0.2514157   0.2828427), wk =   0.0005267
        k(  789) = (   0.3142697   0.0314270  -0.0000000), wk =   0.0005267
        k(  790) = (   0.3299832   0.0471405  -0.0157135), wk =   0.0010535
        k(  791) = (   0.3456966   0.0628539  -0.0314270), wk =   0.0010535
        k(  792) = (   0.3614101   0.0785674  -0.0471405), wk =   0.0010535
        k(  793) = (   0.3771236   0.0942809  -0.0628539), wk =   0.0010535
        k(  794) = (   0.3928371   0.1099944  -0.0785674), wk =   0.0010535
        k(  795) = (   0.4085506   0.1257079  -0.0942809), wk =   0.0010535
        k(  796) = (   0.4242641   0.1414214  -0.1099944), wk =   0.0010535
        k(  797) = (   0.4399776   0.1571348  -0.1257079), wk =   0.0010535
        k(  798) = (   0.4556910   0.1728483  -0.1414214), wk =   0.0010535
        k(  799) = (   0.4714045   0.1885618  -0.1571348), wk =   0.0010535
        k(  800) = (   0.4871180   0.2042753  -0.1728483), wk =   0.0010535
        k(  801) = (  -0.2042753  -0.4871180   0.5185450), wk =   0.0010535
        k(  802) = (  -0.1885618  -0.4714045   0.5028315), wk =   0.0010535
        k(  803) = (  -0.1728483  -0.4556910   0.4871180), wk =   0.0010535
        k(  804) = (  -0.1571348  -0.4399776   0.4714045), wk =   0.0010535
        k(  805) = (  -0.1414214  -0.4242641   0.4556910), wk =   0.0010535
        k(  806) = (  -0.1257079  -0.4085506   0.4399776), wk =   0.0010535
        k(  807) = (  -0.1099944  -0.3928371   0.4242641), wk =   0.0010535
        k(  808) = (  -0.0942809  -0.3771236   0.4085506), wk =   0.0010535
        k(  809) = (  -0.0785674  -0.3614101   0.3928371), wk =   0.0010535
        k(  810) = (  -0.0628539  -0.3456966   0.3771236), wk =   0.0010535
        k(  811) = (  -0.0471405  -0.3299832   0.3614101), wk =   0.0010535
        k(  812) = (  -0.0314270  -0.3142697   0.3456966), wk =   0.0010535
        k(  813) = (  -0.0157135  -0.2985562   0.3299832), wk =   0.0010535
        k(  814) = (   0.0000000  -0.2828427   0.3142697), wk =   0.0005267
        k(  815) = (   0.3456966   0.0314270   0.0000000), wk =   0.0005267
        k(  816) = (   0.3614101   0.0471405  -0.0157135), wk =   0.0010535
        k(  817) = (   0.3771236   0.0628539  -0.0314270), wk =   0.0010535
        k(  818) = (   0.3928371   0.0785674  -0.0471405), wk =   0.0010535
        k(  819) = (   0.4085506   0.0942809  -0.0628539), wk =   0.0010535
        k(  820) = (   0.4242641   0.1099944  -0.0785674), wk =   0.0010535
        k(  821) = (   0.4399776   0.1257079  -0.0942809), wk =   0.0010535
        k(  822) = (   0.4556910   0.1414214  -0.1099944), wk =   0.0010535
        k(  823) = (   0.4714045   0.1571348  -0.1257079), wk =   0.0010535
        k(  824) = (   0.4871180   0.1728483  -0.1414214), wk =   0.0010535
        k(  825) = (   0.5028315   0.1885618  -0.1571348), wk =   0.0010535
        k(  826) = (  -0.1885618  -0.5028315   0.5342585), wk =   0.0010535
        k(  827) = (  -0.1728483  -0.4871180   0.5185450), wk =   0.0010535
        k(  828) = (  -0.1571348  -0.4714045   0.5028315), wk =   0.0010535
        k(  829) = (  -0.1414214  -0.4556910   0.4871180), wk =   0.0010535
        k(  830) = (  -0.1257079  -0.4399776   0.4714045), wk =   0.0010535
        k(  831) = (  -0.1099944  -0.4242641   0.4556910), wk =   0.0010535
        k(  832) = (  -0.0942809  -0.4085506   0.4399776), wk =   0.0010535
        k(  833) = (  -0.0785674  -0.3928371   0.4242641), wk =   0.0010535
        k(  834) = (  -0.0628539  -0.3771236   0.4085506), wk =   0.0010535
        k(  835) = (  -0.0471405  -0.3614101   0.3928371), wk =   0.0010535
        k(  836) = (  -0.0314270  -0.3456966   0.3771236), wk =   0.0010535
        k(  837) = (  -0.0157135  -0.3299832   0.3614101), wk =   0.0010535
        k(  838) = (   0.0000000  -0.3142697   0.3456966), wk =   0.0005267
        k(  839) = (   0.3771236   0.0314270   0.0000000), wk =   0.0005267
        k(  840) = (   0.3928371   0.0471405  -0.0157135), wk =   0.0010535
        k(  841) = (   0.4085506   0.0628539  -0.0314270), wk =   0.0010535
        k(  842) = (   0.4242641   0.0785674  -0.0471405), wk =   0.0010535
        k(  843) = (   0.4399776   0.0942809  -0.0628539), wk =   0.0010535
        k(  844) = (   0.4556910   0.1099944  -0.0785674), wk =   0.0010535
        k(  845) = (   0.4714045   0.1257079  -0.0942809), wk =   0.0010535
        k(  846) = (   0.4871180   0.1414214  -0.1099944), wk =   0.0010535
        k(  847) = (   0.5028315   0.1571348  -0.1257079), wk =   0.0010535
        k(  848) = (   0.5185450   0.1728483  -0.1414214), wk =   0.0010535
        k(  849) = (  -0.1728483  -0.5185450   0.5499719), wk =   0.0010535
        k(  850) = (  -0.1571348  -0.5028315   0.5342585), wk =   0.0010535
        k(  851) = (  -0.1414214  -0.4871180   0.5185450), wk =   0.0010535
        k(  852) = (  -0.1257079  -0.4714045   0.5028315), wk =   0.0010535
        k(  853) = (  -0.1099944  -0.4556910   0.4871180), wk =   0.0010535
        k(  854) = (  -0.0942809  -0.4399776   0.4714045), wk =   0.0010535
        k(  855) = (  -0.0785674  -0.4242641   0.4556910), wk =   0.0010535
        k(  856) = (  -0.0628539  -0.4085506   0.4399776), wk =   0.0010535
        k(  857) = (  -0.0471405  -0.3928371   0.4242641), wk =   0.0010535
        k(  858) = (  -0.0314270  -0.3771236   0.4085506), wk =   0.0010535
        k(  859) = (  -0.0157135  -0.3614101   0.3928371), wk =   0.0010535
        k(  860) = (  -0.0000000  -0.3456966   0.3771236), wk =   0.0005267
        k(  861) = (   0.4085506   0.0314270  -0.0000000), wk =   0.0005267
        k(  862) = (   0.4242641   0.0471405  -0.0157135), wk =   0.0010535
        k(  863) = (   0.4399776   0.0628539  -0.0314270), wk =   0.0010535
        k(  864) = (   0.4556910   0.0785674  -0.0471405), wk =   0.0010535
        k(  865) = (   0.4714045   0.0942809  -0.0628539), wk =   0.0010535
        k(  866) = (   0.4871180   0.1099944  -0.0785674), wk =   0.0010535
        k(  867) = (   0.5028315   0.1257079  -0.0942809), wk =   0.0010535
        k(  868) = (   0.5185450   0.1414214  -0.1099944), wk =   0.0010535
        k(  869) = (   0.5342585   0.1571348  -0.1257079), wk =   0.0010535
[...]

   -12.4202 -12.4197 -12.2839 -12.2761 -12.2173 -12.2098 -12.1849 -12.1782
   -12.0469 -12.0464   0.2045   0.3860   5.9281   5.9916  10.7675  10.7946
    13.5297  13.7266

     occupation numbers 
     1.0000   1.0000   1.0000   1.0000   1.0000   1.0000   1.0000   1.0000
     1.0000   1.0000   1.0000   1.0000   1.0000   1.0000   0.0000   0.0000
     0.0000   0.0000

          k = 0.0000-0.4400 0.6914 ( 23829 PWs)   bands (ev):

   -12.4213 -12.4197 -12.2813 -12.2740 -12.2159 -12.2126 -12.1866 -12.1800
   -12.0469 -12.0453   0.2407   0.3518   5.8814   5.9975  10.7823  11.0190
    13.4684  13.5019

     occupation numbers 
     1.0000   1.0000   1.0000   1.0000   1.0000   1.0000   1.0000   1.0000
     1.0000   1.0000   1.0000   1.0000   1.0000   1.0000   0.0000   0.0000
     0.0000   0.0000

          k =-0.1414-0.4243 0.7071 ( 23797 PWs)   bands (ev):

   -12.4211 -12.4153 -12.3066 -12.2464 -12.2379 -12.2159 -12.1830 -12.1602
   -12.0514 -12.0464  -0.4371   1.0916   5.7566   6.4150  10.6024  11.2256
    12.7751  14.0633

     occupation numbers 
     1.0000   1.0000   1.0000   1.0000   1.0000   1.0000   1.0000   1.0000
     1.0000   1.0000   1.0000   1.0000   1.0000   1.0000   0.0000   0.0000
     0.0000   0.0000

          k =-0.1257-0.4086 0.6914 ( 23811 PWs)   bands (ev):

   -12.4222 -12.4161 -12.3019 -12.2432 -12.2400 -12.2134 -12.1879 -12.1637
   -12.0506 -12.0450  -0.3419   0.9810   5.7233   6.3569  10.6590  11.3641
    12.7751  13.9071

     occupation numbers 
     1.0000   1.0000   1.0000   1.0000   1.0000   1.0000   1.0000   1.0000
     1.0000   1.0000   1.0000   1.0000   1.0000   1.0000   0.0000   0.0000
     0.0000   0.0000

          k =-0.1100-0.3928 0.6757 ( 23826 PWs)   bands (ev):

   -12.4232 -12.4166 -12.2980 -12.2432 -12.2384 -12.2119 -12.1922 -12.1666
   -12.0500 -12.0439  -0.2565   0.8840   5.6994   6.3110  10.6907  11.5026
    12.8038  13.7214

     occupation numbers 
     1.0000   1.0000   1.0000   1.0000   1.0000   1.0000   1.0000   1.0000
     1.0000   1.0000   1.0000   1.0000   1.0000   1.0000   0.0000   0.0000
     0.0000   0.0000

          k =-0.0943-0.3771 0.6600 ( 23820 PWs)   bands (ev):

   -12.4238 -12.4170 -12.2951 -12.2446 -12.2353 -12.2116 -12.1951 -12.1686
   -12.0496 -12.0431  -0.1894   0.8090   5.6840   6.2791  10.7073  11.6132
    12.8627  13.5365

     occupation numbers 
     1.0000   1.0000   1.0000   1.0000   1.0000   1.0000   1.0000   1.0000
     1.0000   1.0000   1.0000   1.0000   1.0000   1.0000   0.0000   0.0000
     0.0000   0.0000

          k =-0.0786-0.3614 0.6443 ( 23839 PWs)   bands (ev):

   -12.4241 -12.4171 -12.2936 -12.2454 -12.2332 -12.2120 -12.1964 -12.1697
   -12.0495 -12.0427  -0.1513   0.7670   5.6765   6.2627  10.7144  11.6741
    12.9284  13.4011

     occupation numbers 
     1.0000   1.0000   1.0000   1.0000   1.0000   1.0000   1.0000   1.0000
     1.0000   1.0000   1.0000   1.0000   1.0000   1.0000   0.0000   0.0000
     0.0000   0.0000

          k =-0.1100-0.4243 0.7071 ( 23819 PWs)   bands (ev):

   -12.4217 -12.4169 -12.3005 -12.2467 -12.2396 -12.2087 -12.1899 -12.1647
   -12.0498 -12.0455  -0.2814   0.9120   5.7636   6.2790  10.7275  11.1771
    12.8484  13.9680

     occupation numbers 
     1.0000   1.0000   1.0000   1.0000   1.0000   1.0000   1.0000   1.0000
     1.0000   1.0000   1.0000   1.0000   1.0000   1.0000   0.0000   0.0000
     0.0000   0.0000

          k =-0.0943-0.4086 0.6914 ( 23833 PWs)   bands (ev):

   -12.4225 -12.4176 -12.2957 -12.2489 -12.2361 -12.2066 -12.1946 -12.1684
   -12.0490 -12.0444  -0.1891   0.8096   5.7413   6.2250  10.7907  11.3176
    12.8419  13.7686

     occupation numbers 
     1.0000   1.0000   1.0000   1.0000   1.0000   1.0000   1.0000   1.0000
     1.0000   1.0000   1.0000   1.0000   1.0000   1.0000   0.0000   0.0000
     0.0000   0.0000

          k =-0.0786-0.3928 0.6757 ( 23830 PWs)   bands (ev):

   -12.4233 -12.4181 -12.2919 -12.2505 -12.2329 -12.2060 -12.1979 -12.1712
   -12.0485 -12.0435  -0.1116   0.7252   5.7239   6.1880  10.8211  11.4640
    12.8596  13.5630

     occupation numbers 
     1.0000   1.0000   1.0000   1.0000   1.0000   1.0000   1.0000   1.0000
     1.0000   1.0000   1.0000   1.0000   1.0000   1.0000   0.0000   0.0000
     0.0000   0.0000

          k =-0.0629-0.3771 0.6600 ( 23835 PWs)   bands (ev):

   -12.4238 -12.4183 -12.2895 -12.2511 -12.2305 -12.2071 -12.1992 -12.1729
   -12.0483 -12.0429  -0.0617   0.6716   5.7103   6.1704  10.8336  11.5804
    12.8978  13.3860

     occupation numbers 
     1.0000   1.0000   1.0000   1.0000   1.0000   1.0000   1.0000   1.0000
     1.0000   1.0000   1.0000   1.0000   1.0000   1.0000   0.0000   0.0000
     0.0000   0.0000

          k =-0.0471-0.3614 0.6443 ( 23843 PWs)   bands (ev):

   -12.4240 -12.4183 -12.2890 -12.2506 -12.2301 -12.2078 -12.1997 -12.1732
   -12.0483 -12.0427  -0.0532   0.6627   5.7002   6.1731  10.8340  11.6402
    12.9167  13.3035

     occupation numbers 
     1.0000   1.0000   1.0000   1.0000   1.0000   1.0000   1.0000   1.0000
     1.0000   1.0000   1.0000   1.0000   1.0000   1.0000   0.0000   0.0000
     0.0000   0.0000

          k =-0.0314-0.3457 0.6285 ( 23843 PWs)   bands (ev):

   -12.4239 -12.4181 -12.2903 -12.2489 -12.2320 -12.2073 -12.1997 -12.1722
   -12.0485 -12.0428  -0.0890   0.7013   5.6946   6.1954  10.8224  11.6322
    12.8692  13.3746

     occupation numbers 
     1.0000   1.0000   1.0000   1.0000   1.0000   1.0000   1.0000   1.0000
     1.0000   1.0000   1.0000   1.0000   1.0000   1.0000   0.0000   0.0000
     0.0000   0.0000

          k =-0.0157-0.3300 0.6128 ( 23831 PWs)   bands (ev):

   -12.4236 -12.4176 -12.2931 -12.2464 -12.2353 -12.2080 -12.1974 -12.1701
   -12.0489 -12.0433  -0.1577   0.7760   5.6953   6.2353  10.7948  11.5652
    12.8102  13.5371

     occupation numbers 
     1.0000   1.0000   1.0000   1.0000   1.0000   1.0000   1.0000   1.0000
     1.0000   1.0000   1.0000   1.0000   1.0000   1.0000   0.0000   0.0000
     0.0000   0.0000

          k = 0.0000-0.3143 0.5971 ( 23837 PWs)   bands (ev):

   -12.4230 -12.4170 -12.2971 -12.2434 -12.2391 -12.2103 -12.1931 -12.1672
   -12.0496 -12.0440  -0.2452   0.8725   5.7043   6.2901  10.7435  11.4652
    12.7781  13.7269

     occupation numbers 
     1.0000   1.0000   1.0000   1.0000   1.0000   1.0000   1.0000   1.0000
     1.0000   1.0000   1.0000   1.0000   1.0000   1.0000   0.0000   0.0000
     0.0000   0.0000

          k =-0.0786-0.4243 0.7071 ( 23828 PWs)   bands (ev):

   -12.4219 -12.4183 -12.2939 -12.2553 -12.2326 -12.2017 -12.1970 -12.1698
   -12.0483 -12.0450  -0.1209   0.7338   5.7873   6.1572  10.8313  11.1315
    12.9559  13.8160

     occupation numbers 
     1.0000   1.0000   1.0000   1.0000   1.0000   1.0000   1.0000   1.0000
     1.0000   1.0000   1.0000   1.0000   1.0000   1.0000   0.0000   0.0000
     0.0000   0.0000

          k =-0.0629-0.4086 0.6914 ( 23838 PWs)   bands (ev):

   -12.4225 -12.4190 -12.2890 -12.2572 -12.2294 -12.2020 -12.1991 -12.1736
   -12.0476 -12.0442  -0.0332   0.6405   5.7749   6.1090  10.8965  11.2759
    12.9420  13.5960

     occupation numbers 
     1.0000   1.0000   1.0000   1.0000   1.0000   1.0000   1.0000   1.0000
     1.0000   1.0000   1.0000   1.0000   1.0000   1.0000   0.0000   0.0000
     0.0000   0.0000

          k =-0.0471-0.3928 0.6757 ( 23843 PWs)   bands (ev):

   -12.4231 -12.4192 -12.2857 -12.2579 -12.2268 -12.2058 -12.1982 -12.1760
   -12.0473 -12.0435   0.0300   0.5744   5.7590   6.0866  10.9178  11.4339
    12.9460  13.3922

     occupation numbers 
     1.0000   1.0000   1.0000   1.0000   1.0000   1.0000   1.0000   1.0000
     1.0000   1.0000   1.0000   1.0000   1.0000   1.0000   0.0000   0.0000
     0.0000   0.0000

          k =-0.0314-0.3771 0.6600 ( 23837 PWs)   bands (ev):

   -12.4236 -12.4192 -12.2847 -12.2568 -12.2260 -12.2075 -12.1988 -12.1766
   -12.0473 -12.0430   0.0469   0.5573   5.7390   6.0919  10.9182  11.5581
    12.9525  13.2504

     occupation numbers 
     1.0000   1.0000   1.0000   1.0000   1.0000   1.0000   1.0000   1.0000
     1.0000   1.0000   1.0000   1.0000   1.0000   1.0000   0.0000   0.0000
     0.0000   0.0000

          k =-0.0157-0.3614 0.6443 ( 23843 PWs)   bands (ev):

   -12.4238 -12.4189 -12.2860 -12.2541 -12.2279 -12.2060 -12.2010 -12.1755
   -12.0476 -12.0428   0.0090   0.5975   5.7184   6.1217  10.9014  11.6202
    12.9107  13.2478

     occupation numbers 
     1.0000   1.0000   1.0000   1.0000   1.0000   1.0000   1.0000   1.0000
     1.0000   1.0000   1.0000   1.0000   1.0000   1.0000   0.0000   0.0000
     0.0000   0.0000

          k =-0.0000-0.3457 0.6285 ( 23835 PWs)   bands (ev):

   -12.4238 -12.4184 -12.2890 -12.2504 -12.2314 -12.2043 -12.2022 -12.1732
   -12.0481 -12.0429  -0.0657   0.6769   5.7025   6.1710  10.8629  11.6153
    12.8469  13.3660

     occupation numbers 
     1.0000   1.0000   1.0000   1.0000   1.0000   1.0000   1.0000   1.0000
     1.0000   1.0000   1.0000   1.0000   1.0000   1.0000   0.0000   0.0000
     0.0000   0.0000

          k =-0.0471-0.4243 0.7071 ( 23843 PWs)   bands (ev):

   -12.4217 -12.4195 -12.2869 -12.2636 -12.2256 -12.2041 -12.1947 -12.1754
   -12.0470 -12.0450   0.0437   0.5575   5.8281   6.0506  10.9152  11.0861
    13.0954  13.6347

     occupation numbers 
     1.0000   1.0000   1.0000   1.0000   1.0000   1.0000   1.0000   1.0000
     1.0000   1.0000   1.0000   1.0000   1.0000   1.0000   0.0000   0.0000
     0.0000   0.0000

          k =-0.0314-0.4086 0.6914 ( 23843 PWs)   bands (ev):

   -12.4223 -12.4201 -12.2822 -12.2650 -12.2227 -12.2083 -12.1932 -12.1790
   -12.0465 -12.0443   0.1227   0.4767   5.8206   6.0135  10.9699  11.2422
    13.0739  13.4130

     occupation numbers 
     1.0000   1.0000   1.0000   1.0000   1.0000   1.0000   1.0000   1.0000
     1.0000   1.0000   1.0000   1.0000   1.0000   1.0000   0.0000   0.0000
     0.0000   0.0000

          k =-0.0157-0.3928 0.6757 ( 23837 PWs)   bands (ev):

   -12.4229 -12.4200 -12.2807 -12.2635 -12.2216 -12.2105 -12.1942 -12.1799
   -12.0465 -12.0436   0.1471   0.4527   5.7914   6.0208  10.9705  11.4164
    13.0575  13.2339

     occupation numbers 
     1.0000   1.0000   1.0000   1.0000   1.0000   1.0000   1.0000   1.0000
     1.0000   1.0000   1.0000   1.0000   1.0000   1.0000   0.0000   0.0000
     0.0000   0.0000

          k =-0.0000-0.3771 0.6600 ( 23842 PWs)   bands (ev):

   -12.4235 -12.4196 -12.2825 -12.2593 -12.2239 -12.2090 -12.1974 -12.1783
   -12.0469 -12.0431   0.0963   0.5060   5.7527   6.0614  10.9484  11.5499
    12.9927  13.1812

     occupation numbers 
     1.0000   1.0000   1.0000   1.0000   1.0000   1.0000   1.0000   1.0000
     1.0000   1.0000   1.0000   1.0000   1.0000   1.0000   0.0000   0.0000
     0.0000   0.0000

          k =-0.0157-0.4243 0.7071 ( 23844 PWs)   bands (ev):

   -12.4213 -12.4206 -12.2795 -12.2717 -12.2184 -12.2113 -12.1880 -12.1815
   -12.0460 -12.0453   0.2120   0.3834   5.8856   5.9599  10.9825  11.0379
    13.2612  13.4448

     occupation numbers 
     1.0000   1.0000   1.0000   1.0000   1.0000   1.0000   1.0000   1.0000
     1.0000   1.0000   1.0000   1.0000   1.0000   1.0000   0.0000   0.0000
     0.0000   0.0000

          k = 0.0000-0.4086 0.6914 ( 23847 PWs)   bands (ev):

   -12.4221 -12.4206 -12.2776 -12.2700 -12.2175 -12.2134 -12.1892 -12.1827
   -12.0460 -12.0445   0.2364   0.3604   5.8534   5.9640  10.9979  11.2275
    13.2150  13.2537

     occupation numbers 
     1.0000   1.0000   1.0000   1.0000   1.0000   1.0000   1.0000   1.0000
     1.0000   1.0000   1.0000   1.0000   1.0000   1.0000   0.0000   0.0000
     0.0000   0.0000

          k =-0.0786-0.3928 0.7071 ( 23846 PWs)   bands (ev):

   -12.4230 -12.4185 -12.2906 -12.2520 -12.2325 -12.2034 -12.1995 -12.1722
   -12.0480 -12.0438  -0.0938   0.7066   5.7376   6.1586  10.8969  11.3987
    12.8406  13.5630

     occupation numbers 
     1.0000   1.0000   1.0000   1.0000   1.0000   1.0000   1.0000   1.0000
     1.0000   1.0000   1.0000   1.0000   1.0000   1.0000   0.0000   0.0000
     0.0000   0.0000

          k =-0.0629-0.3771 0.6914 ( 23846 PWs)   bands (ev):

   -12.4234 -12.4191 -12.2866 -12.2547 -12.2292 -12.2043 -12.2005 -12.1752
   -12.0474 -12.0433  -0.0121   0.6198   5.7393   6.1094  10.9561  11.4875
    12.8643  13.3719

     occupation numbers 
     1.0000   1.0000   1.0000   1.0000   1.0000   1.0000   1.0000   1.0000
     1.0000   1.0000   1.0000   1.0000   1.0000   1.0000   0.0000   0.0000
     0.0000   0.0000

          k =-0.0471-0.3614 0.6757 ( 23845 PWs)   bands (ev):

   -12.4235 -12.4194 -12.2843 -12.2563 -12.2268 -12.2071 -12.1990 -12.1770
   -12.0471 -12.0431   0.0391   0.5660   5.7419   6.0827  10.9809  11.5462
    12.9031  13.2381

     occupation numbers 
     1.0000   1.0000   1.0000   1.0000   1.0000   1.0000   1.0000   1.0000
     1.0000   1.0000   1.0000   1.0000   1.0000   1.0000   0.0000   0.0000
     0.0000   0.0000

          k =-0.0471-0.3928 0.7071 ( 23842 PWs)   bands (ev):

   -12.4227 -12.4199 -12.2836 -12.2604 -12.2259 -12.2061 -12.1966 -12.1777
   -12.0466 -12.0440   0.0611   0.5422   5.7882   6.0418  11.0318  11.3264
    12.9350  13.3859

     occupation numbers 
     1.0000   1.0000   1.0000   1.0000   1.0000   1.0000   1.0000   1.0000
     1.0000   1.0000   1.0000   1.0000   1.0000   1.0000   0.0000   0.0000
     0.0000   0.0000

          k =-0.0314-0.3771 0.6914 ( 23845 PWs)   bands (ev):

   -12.4228 -12.4204 -12.2799 -12.2625 -12.2231 -12.2097 -12.1947 -12.1806
   -12.0461 -12.0437   0.1319   0.4696   5.7965   6.0025  11.0907  11.4077
    12.9472  13.2124

     occupation numbers 
     1.0000   1.0000   1.0000   1.0000   1.0000   1.0000   1.0000   1.0000
     1.0000   1.0000   1.0000   1.0000   1.0000   1.0000   0.0000   0.0000
     0.0000   0.0000

          k =-0.0157-0.3614 0.6757 ( 23838 PWs)   bands (ev):

   -12.4231 -12.4204 -12.2793 -12.2620 -12.2228 -12.2105 -12.1950 -12.1809
   -12.0461 -12.0435   0.1401   0.4616   5.7866   6.0050  11.0901  11.4763
    12.9463  13.1383

     occupation numbers 
     1.0000   1.0000   1.0000   1.0000   1.0000   1.0000   1.0000   1.0000
     1.0000   1.0000   1.0000   1.0000   1.0000   1.0000   0.0000   0.0000
     0.0000   0.0000

          k = 0.0000-0.3457 0.6600 ( 23844 PWs)   bands (ev):

   -12.4233 -12.4199 -12.2821 -12.2588 -12.2254 -12.2079 -12.1976 -12.1787
   -12.0465 -12.0433   0.0787   0.5250   5.7628   6.0455  11.0458  11.4999
    12.8979  13.2154

     occupation numbers 
     1.0000   1.0000   1.0000   1.0000   1.0000   1.0000   1.0000   1.0000
     1.0000   1.0000   1.0000   1.0000   1.0000   1.0000   0.0000   0.0000
     0.0000   0.0000

          k =-0.0157-0.3928 0.7071 ( 23848 PWs)   bands (ev):

   -12.4220 -12.4211 -12.2763 -12.2685 -12.2193 -12.2127 -12.1900 -12.1837
   -12.0454 -12.0445   0.2191   0.3796   5.8560   5.9407  11.1470  11.2440
    13.0611  13.2143

     occupation numbers 
     1.0000   1.0000   1.0000   1.0000   1.0000   1.0000   1.0000   1.0000
     1.0000   1.0000   1.0000   1.0000   1.0000   1.0000   0.0000   0.0000
     0.0000   0.0000

          k =-0.0000-0.3771 0.6914 ( 23838 PWs)   bands (ev):

   -12.4224 -12.4211 -12.2752 -12.2675 -12.2189 -12.2139 -12.1907 -12.1843
   -12.0454 -12.0441   0.2314   0.3680   5.8396   5.9428  11.1577  11.3599
    13.0351  13.0973

     occupation numbers 
     1.0000   1.0000   1.0000   1.0000   1.0000   1.0000   1.0000   1.0000
     1.0000   1.0000   1.0000   1.0000   1.0000   1.0000   0.0000   0.0000
     0.0000   0.0000

          k =-0.0157-0.3614 0.7071 ( 23840 PWs)   bands (ev):

   -12.4224 -12.4213 -12.2748 -12.2670 -12.2195 -12.2137 -12.1910 -12.1846
   -12.0452 -12.0441   0.2256   0.3744   5.8405   5.9349  11.2150  11.3669
    12.9760  13.0827

     occupation numbers 
     1.0000   1.0000   1.0000   1.0000   1.0000   1.0000   1.0000   1.0000
     1.0000   1.0000   1.0000   1.0000   1.0000   1.0000   0.0000   0.0000
     0.0000   0.0000

     the Fermi energy is     8.3004 ev

!    total energy              =    -233.44840887 Ry
     Harris-Foulkes estimate   =    -233.44840906 Ry
     estimated scf accuracy    <       0.00000048 Ry

     The total energy is the sum of the following terms:

     one-electron contribution =     -95.31657179 Ry
     hartree contribution      =      58.35647210 Ry
     xc contribution           =     -28.70696758 Ry
     ewald contribution        =    -167.78134157 Ry
     smearing contrib. (-TS)   =      -0.00000004 Ry

     convergence has been achieved in   5 iterations

     Writing output data file Sn.save

 %%%%%%%%%%%%%%%%%%%%%%%%%%%%%%%%%%%%%%%%%%%%%%%%%%%%%%%%%%%%%%%%%%%%%%%%%%%%%%
     Error in routine davcio (10):
     error while writing from file "/home/rathnayake/Run_files/ONCV_PBE_FR1.1^Calc=QE^Struct=bulk^Specie=Sn-^KE=200^K=45^R=800^a=6.66^PP=Sn_ONCV_PBE_FR-1.1.upf-^type=scf/./Sn.wfc1"
 %%%%%%%%%%%%%%%%%%%%%%%%%%%%%%%%%%%%%%%%%%%%%%%%%%%%%%%%%%%%%%%%%%%%%%%%%%%%%%

     stopping ...

 %%%%%%%%%%%%%%%%%%%%%%%%%%%%%%%%%%%%%%%%%%%%%%%%%%%%%%%%%%%%%%%%%%%%%%%%%%%%%%
     Error in routine davcio (10):
     error while writing from file "/home/rathnayake/Run_files/ONCV_PBE_FR1.1^Calc=QE^Struct=bulk^Specie=Sn-^KE=200^K=45^R=800^a=6.66^PP=Sn_ONCV_PBE_FR-1.1.upf-^type=scf/./Sn.wfc10"
 %%%%%%%%%%%%%%%%%%%%%%%%%%%%%%%%%%%%%%%%%%%%%%%%%%%%%%%%%%%%%%%%%%%%%%%%%%%%%%

     stopping ...

 %%%%%%%%%%%%%%%%%%%%%%%%%%%%%%%%%%%%%%%%%%%%%%%%%%%%%%%%%%%%%%%%%%%%%%%%%%%%%%
     Error in routine davcio (10):
     error while writing from file "/home/rathnayake/Run_files/ONCV_PBE_FR1.1^Calc=QE^Struct=bulk^Specie=Sn-^KE=200^K=45^R=800^a=6.66^PP=Sn_ONCV_PBE_FR-1.1.upf-^type=scf/./Sn.wfc6"
 %%%%%%%%%%%%%%%%%%%%%%%%%%%%%%%%%%%%%%%%%%%%%%%%%%%%%%%%%%%%%%%%%%%%%%%%%%%%%%


 %%%%%%%%%%%%%%%%%%%%%%%%%%%%%%%%%%%%%%%%%%%%%%%%%%%%%%%%%%%%%%%%%%%%%%%%%%%%%%
     Error in routine davcio (10):
     error while writing from file "/home/rathnayake/Run_files/ONCV_PBE_FR1.1^Calc=QE^Struct=bulk^Specie=Sn-^KE=200^K=45^R=800^a=6.66^PP=Sn_ONCV_PBE_FR-1.1.upf-^type=scf/./Sn.wfc4"
 %%%%%%%%%%%%%%%%%%%%%%%%%%%%%%%%%%%%%%%%%%%%%%%%%%%%%%%%%%%%%%%%%%%%%%%%%%%%%%

     stopping ...
     stopping ...

 %%%%%%%%%%%%%%%%%%%%%%%%%%%%%%%%%%%%%%%%%%%%%%%%%%%%%%%%%%%%%%%%%%%%%%%%%%%%%%
     Error in routine davcio (10):

 %%%%%%%%%%%%%%%%%%%%%%%%%%%%%%%%%%%%%%%%%%%%%%%%%%%%%%%%%%%%%%%%%%%%%%%%%%%%%%
     Error in routine davcio (10):
     error while writing from file "/home/rathnayake/Run_files/ONCV_PBE_FR1.1^Calc=QE^Struct=bulk^Specie=Sn-^KE=200^K=45^R=800^a=6.66^PP=Sn_ONCV_PBE_FR-1.1.upf-^type=scf/./Sn.wfc16"
 %%%%%%%%%%%%%%%%%%%%%%%%%%%%%%%%%%%%%%%%%%%%%%%%%%%%%%%%%%%%%%%%%%%%%%%%%%%%%%

     stopping ...
     error while writing from file "/home/rathnayake/Run_files/ONCV_PBE_FR1.1^Calc=QE^Struct=bulk^Specie=Sn-^KE=200^K=45^R=800^a=6.66^PP=Sn_ONCV_PBE_FR-1.1.upf-^type=scf/./Sn.wfc7"
 %%%%%%%%%%%%%%%%%%%%%%%%%%%%%%%%%%%%%%%%%%%%%%%%%%%%%%%%%%%%%%%%%%%%%%%%%%%%%%

     stopping ...

 %%%%%%%%%%%%%%%%%%%%%%%%%%%%%%%%%%%%%%%%%%%%%%%%%%%%%%%%%%%%%%%%%%%%%%%%%%%%%%
     Error in routine davcio (10):
     error while writing from file "/home/rathnayake/Run_files/ONCV_PBE_FR1.1^Calc=QE^Struct=bulk^Specie=Sn-^KE=200^K=45^R=800^a=6.66^PP=Sn_ONCV_PBE_FR-1.1.upf-^type=scf/./Sn.wfc9"
 %%%%%%%%%%%%%%%%%%%%%%%%%%%%%%%%%%%%%%%%%%%%%%%%%%%%%%%%%%%%%%%%%%%%%%%%%%%%%%

     stopping ...

 %%%%%%%%%%%%%%%%%%%%%%%%%%%%%%%%%%%%%%%%%%%%%%%%%%%%%%%%%%%%%%%%%%%%%%%%%%%%%%
     Error in routine davcio (10):
     error while writing from file "/home/rathnayake/Run_files/ONCV_PBE_FR1.1^Calc=QE^Struct=bulk^Specie=Sn-^KE=200^K=45^R=800^a=6.66^PP=Sn_ONCV_PBE_FR-1.1.upf-^type=scf/./Sn.wfc12"
 %%%%%%%%%%%%%%%%%%%%%%%%%%%%%%%%%%%%%%%%%%%%%%%%%%%%%%%%%%%%%%%%%%%%%%%%%%%%%%

     stopping ...
--------------------------------------------------------------------------
MPI_ABORT was invoked on rank 0 in communicator MPI_COMM_WORLD 
with errorcode 1.

NOTE: invoking MPI_ABORT causes Open MPI to kill all MPI processes.
You may or may not see output from other process