
     Program PWSCF v.5.4.0 starts on 28Feb2020 at  0:10:41 

     This program is part of the open-source Quantum ESPRESSO suite
     for quantum simulation of materials; please cite
         "P. Giannozzi et al., J. Phys.:Condens. Matter 21 395502 (2009);
          URL http://www.quantum-espresso.org", 
     in publications or presentations arising from this work. More details at
     http://www.quantum-espresso.org/quote

     Parallel version (MPI & OpenMP), running on      16 processor cores
     Number of MPI processes:                16
     Threads/MPI process:                     1
     R & G space division:  proc/nbgrp/npool/nimage =      16
     Waiting for input...
     Reading input from standard input
Warning: card &IONS ignored
Warning: card / ignored
Warning: card &CELL ignored
Warning: card / ignored

     Current dimensions of program PWSCF are:
     Max number of different atomic species (ntypx) = 10
     Max number of k-points (npk) =  40000
     Max angular momentum in pseudopotentials (lmaxx) =  3

     Subspace diagonalization in iterative solution of the eigenvalue problem:
     a serial algorithm will be used

 
     Parallelization info
     --------------------
     sticks:   dense  smooth     PW     G-vecs:    dense   smooth      PW
     Min         272     272     74                11887    11887    1706
     Max         273     273     75                11890    11890    1709
     Sum        4357    4357   1189               190217   190217   27317
 

     Title: 
     Sn                                                                         


     bravais-lattice index     =            0
     lattice parameter (alat)  =       8.8993  a.u.
     unit-cell volume          =     498.3785 (a.u.)^3
     number of atoms/cell      =            2
     number of atomic types    =            1
     number of electrons       =        28.00
     number of Kohn-Sham states=           18
     kinetic-energy cutoff     =     200.0000  Ry
     charge density cutoff     =     800.0000  Ry
     convergence threshold     =      1.0E-06
     mixing beta               =       0.7000
     number of iterations used =            8  plain     mixing
     Exchange-correlation      = PBE ( 1  4  3  4 0 0)

     celldm(1)=   8.899346  celldm(2)=   0.000000  celldm(3)=   0.000000
     celldm(4)=   0.000000  celldm(5)=   0.000000  celldm(6)=   0.000000

     crystal axes: (cart. coord. in units of alat)
               a(1) = (   0.000000   0.707107   0.707107 )  
               a(2) = (   0.707107   0.000000   0.707107 )  
               a(3) = (   0.707107   0.707107   0.000000 )  

     reciprocal axes: (cart. coord. in units 2 pi/alat)
               b(1) = ( -0.707107  0.707107  0.707107 )  
               b(2) = (  0.707107 -0.707107  0.707107 )  
               b(3) = (  0.707107  0.707107 -0.707107 )  


     PseudoPot. # 1 for Sn read from file:
     ../PseudopotentialDatabase/Sn_ONCV_PBE_FR-1.1.upf
     MD5 check sum: 6dd2180f739ea5ae1610ead5e1628a0e
     Pseudo is Norm-conserving, Zval = 14.0
     Generated using ONCVPSP code by D. R. Hamann
     Using radial grid of  602 points,  6 beta functions with: 
                l(1) =   0
                l(2) =   0
                l(3) =   1
                l(4) =   1
                l(5) =   2
                l(6) =   2

     atomic species   valence    mass     pseudopotential
        Sn            14.00   118.71000     Sn( 1.00)

     24 Sym. Ops. (no inversion) found
          (note: 24 additional sym.ops. were found but ignored
           their fractional translations are incommensurate with FFT grid)

                                    s                        frac. trans.

      isym =  1     identity                                     

 cryst.   s( 1) = (     1          0          0      )
                  (     0          1          0      )
                  (     0          0          1      )

 cart.    s( 1) = (  1.0000000  0.0000000  0.0000000 )
                  (  0.0000000  1.0000000  0.0000000 )
                  (  0.0000000  0.0000000  1.0000000 )


      isym =  2     180 deg rotation - cart. axis [0,0,1]        

 cryst.   s( 2) = (     0          1         -1      )
                  (     1          0         -1      )
                  (     0          0         -1      )

 cart.    s( 2) = ( -1.0000000  0.0000000  0.0000000 )
                  (  0.0000000 -1.0000000  0.0000000 )
                  (  0.0000000  0.0000000  1.0000000 )


      isym =  3     180 deg rotation - cart. axis [0,1,0]        

 cryst.   s( 3) = (     0         -1          1      )
                  (     0         -1          0      )
                  (     1         -1          0      )

 cart.    s( 3) = ( -1.0000000  0.0000000  0.0000000 )
                  (  0.0000000  1.0000000  0.0000000 )
                  (  0.0000000  0.0000000 -1.0000000 )


      isym =  4     180 deg rotation - cart. axis [1,0,0]        

 cryst.   s( 4) = (    -1          0          0      )
                  (    -1          0          1      )
                  (    -1          1          0      )

 cart.    s( 4) = (  1.0000000  0.0000000  0.0000000 )
                  (  0.0000000 -1.0000000  0.0000000 )
                  (  0.0000000  0.0000000 -1.0000000 )


      isym =  5     120 deg rotation - cart. axis [-1,-1,-1]     

 cryst.   s( 5) = (     0          0          1      )
                  (     1          0          0      )
                  (     0          1          0      )

 cart.    s( 5) = (  0.0000000  1.0000000  0.0000000 )
                  (  0.0000000  0.0000000  1.0000000 )
                  (  1.0000000  0.0000000  0.0000000 )


      isym =  6     120 deg rotation - cart. axis [-1,1,1]       

 cryst.   s( 6) = (     1         -1          0      )
                  (     0         -1          1      )
                  (     0         -1          0      )

 cart.    s( 6) = (  0.0000000 -1.0000000  0.0000000 )
                  (  0.0000000  0.0000000  1.0000000 )
                  ( -1.0000000  0.0000000  0.0000000 )


      isym =  7     120 deg rotation - cart. axis [1,1,-1]       

 cryst.   s( 7) = (    -1          1          0      )
                  (    -1          0          0      )
                  (    -1          0          1      )

 cart.    s( 7) = (  0.0000000  1.0000000  0.0000000 )
                  (  0.0000000  0.0000000 -1.0000000 )
                  ( -1.0000000  0.0000000  0.0000000 )


      isym =  8     120 deg rotation - cart. axis [1,-1,1]       

 cryst.   s( 8) = (     0          0         -1      )
                  (     0          1         -1      )
                  (     1          0         -1      )

 cart.    s( 8) = (  0.0000000 -1.0000000  0.0000000 )
                  (  0.0000000  0.0000000 -1.0000000 )
                  (  1.0000000  0.0000000  0.0000000 )


      isym =  9     120 deg rotation - cart. axis [1,1,1]        

 cryst.   s( 9) = (     0          1          0      )
                  (     0          0          1      )
                  (     1          0          0      )

 cart.    s( 9) = (  0.0000000  0.0000000  1.0000000 )
                  (  1.0000000  0.0000000  0.0000000 )
                  (  0.0000000  1.0000000  0.0000000 )


      isym = 10     120 deg rotation - cart. axis [-1,1,-1]      

 cryst.   s(10) = (    -1          0          1      )
                  (    -1          1          0      )
                  (    -1          0          0      )

 cart.    s(10) = (  0.0000000  0.0000000  1.0000000 )
                  ( -1.0000000  0.0000000  0.0000000 )
                  (  0.0000000 -1.0000000  0.0000000 )


      isym = 11     120 deg rotation - cart. axis [1,-1,-1]      

 cryst.   s(11) = (     1          0         -1      )
                  (     0          0         -1      )
                  (     0          1         -1      )

 cart.    s(11) = (  0.0000000  0.0000000 -1.0000000 )
                  ( -1.0000000  0.0000000  0.0000000 )
                  (  0.0000000  1.0000000  0.0000000 )


      isym = 12     120 deg rotation - cart. axis [-1,-1,1]      

 cryst.   s(12) = (     0         -1          0      )
                  (     1         -1          0      )
                  (     0         -1          1      )

 cart.    s(12) = (  0.0000000  0.0000000 -1.0000000 )
                  (  1.0000000  0.0000000  0.0000000 )
                  (  0.0000000 -1.0000000  0.0000000 )


      isym = 13     inv. 180 deg rotation - cart. axis [1,1,0]   

 cryst.   s(13) = (     1          0         -1      )
                  (     0          1         -1      )
                  (     0          0         -1      )

 cart.    s(13) = (  0.0000000 -1.0000000  0.0000000 )
                  ( -1.0000000  0.0000000  0.0000000 )
                  (  0.0000000  0.0000000  1.0000000 )


      isym = 14     inv. 180 deg rotation - cart. axis [1,-1,0]  

 cryst.   s(14) = (     0          1          0      )
                  (     1          0          0      )
                  (     0          0          1      )

 cart.    s(14) = (  0.0000000  1.0000000  0.0000000 )
                  (  1.0000000  0.0000000  0.0000000 )
                  (  0.0000000  0.0000000  1.0000000 )


      isym = 15     inv.  90 deg rotation - cart. axis [0,0,-1]  

 cryst.   s(15) = (     0         -1          0      )
                  (     0         -1          1      )
                  (     1         -1          0      )

 cart.    s(15) = (  0.0000000 -1.0000000  0.0000000 )
                  (  1.0000000  0.0000000  0.0000000 )
                  (  0.0000000  0.0000000 -1.0000000 )


      isym = 16     inv.  90 deg rotation - cart. axis [0,0,1]   

 cryst.   s(16) = (    -1          0          1      )
                  (    -1          0          0      )
                  (    -1          1          0      )

 cart.    s(16) = (  0.0000000  1.0000000  0.0000000 )
                  ( -1.0000000  0.0000000  0.0000000 )
                  (  0.0000000  0.0000000 -1.0000000 )


      isym = 17     inv. 180 deg rotation - cart. axis [1,0,1]   

 cryst.   s(17) = (     1         -1          0      )
                  (     0         -1          0      )
                  (     0         -1          1      )

 cart.    s(17) = (  0.0000000  0.0000000 -1.0000000 )
                  (  0.0000000  1.0000000  0.0000000 )
                  ( -1.0000000  0.0000000  0.0000000 )


      isym = 18     inv. 180 deg rotation - cart. axis [-1,0,1]  

 cryst.   s(18) = (     0          0          1      )
                  (     0          1          0      )
                  (     1          0          0      )

 cart.    s(18) = (  0.0000000  0.0000000  1.0000000 )
                  (  0.0000000  1.0000000  0.0000000 )
                  (  1.0000000  0.0000000  0.0000000 )


      isym = 19     inv.  90 deg rotation - cart. axis [0,1,0]   

 cryst.   s(19) = (     0          0         -1      )
                  (     1          0         -1      )
                  (     0          1         -1      )

 cart.    s(19) = (  0.0000000  0.0000000 -1.0000000 )
                  (  0.0000000 -1.0000000  0.0000000 )
                  (  1.0000000  0.0000000  0.0000000 )


      isym = 20     inv.  90 deg rotation - cart. axis [0,-1,0]  

 cryst.   s(20) = (    -1          1          0      )
                  (    -1          0          1      )
                  (    -1          0          0      )

 cart.    s(20) = (  0.0000000  0.0000000  1.0000000 )
                  (  0.0000000 -1.0000000  0.0000000 )
                  ( -1.0000000  0.0000000  0.0000000 )


      isym = 21     inv. 180 deg rotation - cart. axis [0,1,1]   

 cryst.   s(21) = (    -1          0          0      )
                  (    -1          1          0      )
                  (    -1          0          1      )

 cart.    s(21) = (  1.0000000  0.0000000  0.0000000 )
                  (  0.0000000  0.0000000 -1.0000000 )
                  (  0.0000000 -1.0000000  0.0000000 )


      isym = 22     inv. 180 deg rotation - cart. axis [0,1,-1]  

 cryst.   s(22) = (     1          0          0      )
                  (     0          0          1      )
                  (     0          1          0      )

 cart.    s(22) = (  1.0000000  0.0000000  0.0000000 )
                  (  0.0000000  0.0000000  1.0000000 )
                  (  0.0000000  1.0000000  0.0000000 )


      isym = 23     inv.  90 deg rotation - cart. axis [-1,0,0]  

 cryst.   s(23) = (     0          1         -1      )
                  (     0          0         -1      )
                  (     1          0         -1      )

 cart.    s(23) = ( -1.0000000  0.0000000  0.0000000 )
                  (  0.0000000  0.0000000 -1.0000000 )
                  (  0.0000000  1.0000000  0.0000000 )


      isym = 24     inv.  90 deg rotation - cart. axis [1,0,0]   

 cryst.   s(24) = (     0         -1          1      )
                  (     1         -1          0      )
                  (     0         -1          0      )

 cart.    s(24) = ( -1.0000000  0.0000000  0.0000000 )
                  (  0.0000000  0.0000000  1.0000000 )
                  (  0.0000000 -1.0000000  0.0000000 )


   Cartesian axes

     site n.     atom                  positions (alat units)
         1           Sn  tau(   1) = (   0.0000000   0.0000000   0.0000000  )
         2           Sn  tau(   2) = (   0.3535534   0.3535534   0.3535534  )

   Crystallographic axes

     site n.     atom                  positions (cryst. coord.)
         1           Sn  tau(   1) = (  0.0000000  0.0000000  0.0000000  )
         2           Sn  tau(   2) = (  0.2500000  0.2500000  0.2500000  )

     number of k points=    47  gaussian smearing, width (Ry)=  0.0001
                       cart. coord. in units 2pi/alat
        k(    1) = (   0.0000000   0.0000000   0.0000000), wk =   0.0020000
        k(    2) = (   0.0707107   0.0707107  -0.0707107), wk =   0.0160000
        k(    3) = (   0.1414214   0.1414214  -0.1414214), wk =   0.0160000
        k(    4) = (   0.2121320   0.2121320  -0.2121320), wk =   0.0160000
        k(    5) = (   0.2828427   0.2828427  -0.2828427), wk =   0.0160000
        k(    6) = (  -0.3535534  -0.3535534   0.3535534), wk =   0.0080000
        k(    7) = (   0.1414214   0.0000000   0.0000000), wk =   0.0120000
        k(    8) = (   0.2121320   0.0707107  -0.0707107), wk =   0.0480000
        k(    9) = (   0.2828427   0.1414214  -0.1414214), wk =   0.0480000
        k(   10) = (   0.3535534   0.2121320  -0.2121320), wk =   0.0480000
        k(   11) = (  -0.2828427  -0.4242641   0.4242641), wk =   0.0480000
        k(   12) = (  -0.2121320  -0.3535534   0.3535534), wk =   0.0480000
        k(   13) = (  -0.1414214  -0.2828427   0.2828427), wk =   0.0480000
        k(   14) = (  -0.0707107  -0.2121320   0.2121320), wk =   0.0480000
        k(   15) = (   0.0000000  -0.1414214   0.1414214), wk =   0.0240000
        k(   16) = (   0.2828427   0.0000000   0.0000000), wk =   0.0120000
        k(   17) = (   0.3535534   0.0707107  -0.0707107), wk =   0.0480000
        k(   18) = (   0.4242641   0.1414214  -0.1414214), wk =   0.0480000
        k(   19) = (  -0.2121320  -0.4949747   0.4949747), wk =   0.0480000
        k(   20) = (  -0.1414214  -0.4242641   0.4242641), wk =   0.0480000
        k(   21) = (  -0.0707107  -0.3535534   0.3535534), wk =   0.0480000
        k(   22) = (   0.0000000  -0.2828427   0.2828427), wk =   0.0240000
        k(   23) = (   0.4242641   0.0000000   0.0000000), wk =   0.0120000
        k(   24) = (   0.4949747   0.0707107  -0.0707107), wk =   0.0480000
        k(   25) = (  -0.1414214  -0.5656854   0.5656854), wk =   0.0480000
        k(   26) = (  -0.0707107  -0.4949747   0.4949747), wk =   0.0480000
        k(   27) = (  -0.0000000  -0.4242641   0.4242641), wk =   0.0240000
        k(   28) = (   0.5656854   0.0000000   0.0000000), wk =   0.0120000
        k(   29) = (  -0.0707107  -0.6363961   0.6363961), wk =   0.0480000
        k(   30) = (   0.0000000  -0.5656854   0.5656854), wk =   0.0240000
        k(   31) = (  -0.7071068   0.0000000   0.0000000), wk =   0.0060000
        k(   32) = (   0.2828427   0.1414214   0.0000000), wk =   0.0480000
        k(   33) = (   0.3535534   0.2121320  -0.0707107), wk =   0.0960000
        k(   34) = (  -0.2828427  -0.4242641   0.5656854), wk =   0.0960000
        k(   35) = (  -0.2121320  -0.3535534   0.4949747), wk =   0.0480000
        k(   36) = (   0.4242641   0.1414214  -0.0000000), wk =   0.0480000
        k(   37) = (  -0.2121320  -0.4949747   0.6363961), wk =   0.0960000
        k(   38) = (  -0.1414214  -0.4242641   0.5656854), wk =   0.0960000
        k(   39) = (  -0.0707107  -0.3535534   0.4949747), wk =   0.0960000
        k(   40) = (   0.0000000  -0.2828427   0.4242641), wk =   0.0480000
        k(   41) = (  -0.1414214  -0.5656854   0.7071068), wk =   0.0480000
        k(   42) = (  -0.0707107  -0.4949747   0.6363961), wk =   0.0960000
        k(   43) = (  -0.0000000  -0.4242641   0.5656854), wk =   0.0480000
        k(   44) = (  -0.7071068   0.1414214   0.0000000), wk =   0.0240000
        k(   45) = (  -0.1414214  -0.4242641   0.7071068), wk =   0.0480000
        k(   46) = (  -0.0707107  -0.3535534   0.6363961), wk =   0.0480000
        k(   47) = (  -0.7071068   0.2828427   0.0000000), wk =   0.0240000

                       cryst. coord.
        k(    1) = (   0.0000000   0.0000000   0.0000000), wk =   0.0020000
        k(    2) = (   0.0000000   0.0000000   0.1000000), wk =   0.0160000
        k(    3) = (   0.0000000   0.0000000   0.2000000), wk =   0.0160000
        k(    4) = (   0.0000000   0.0000000   0.3000000), wk =   0.0160000
        k(    5) = (   0.0000000   0.0000000   0.4000000), wk =   0.0160000
        k(    6) = (   0.0000000   0.0000000  -0.5000000), wk =   0.0080000
        k(    7) = (   0.0000000   0.1000000   0.1000000), wk =   0.0120000
        k(    8) = (   0.0000000   0.1000000   0.2000000), wk =   0.0480000
        k(    9) = (   0.0000000   0.1000000   0.3000000), wk =   0.0480000
        k(   10) = (   0.0000000   0.1000000   0.4000000), wk =   0.0480000
        k(   11) = (   0.0000000   0.1000000  -0.5000000), wk =   0.0480000
        k(   12) = (   0.0000000   0.1000000  -0.4000000), wk =   0.0480000
        k(   13) = (   0.0000000   0.1000000  -0.3000000), wk =   0.0480000
        k(   14) = (   0.0000000   0.1000000  -0.2000000), wk =   0.0480000
        k(   15) = (   0.0000000   0.1000000  -0.1000000), wk =   0.0240000
        k(   16) = (   0.0000000   0.2000000   0.2000000), wk =   0.0120000
        k(   17) = (   0.0000000   0.2000000   0.3000000), wk =   0.0480000
        k(   18) = (   0.0000000   0.2000000   0.4000000), wk =   0.0480000
        k(   19) = (   0.0000000   0.2000000  -0.5000000), wk =   0.0480000
        k(   20) = (   0.0000000   0.2000000  -0.4000000), wk =   0.0480000
        k(   21) = (   0.0000000   0.2000000  -0.3000000), wk =   0.0480000
        k(   22) = (   0.0000000   0.2000000  -0.2000000), wk =   0.0240000
        k(   23) = (   0.0000000   0.3000000   0.3000000), wk =   0.0120000
        k(   24) = (   0.0000000   0.3000000   0.4000000), wk =   0.0480000
        k(   25) = (   0.0000000   0.3000000  -0.5000000), wk =   0.0480000
        k(   26) = (   0.0000000   0.3000000  -0.4000000), wk =   0.0480000
        k(   27) = (   0.0000000   0.3000000  -0.3000000), wk =   0.0240000
        k(   28) = (   0.0000000   0.4000000   0.4000000), wk =   0.0120000
        k(   29) = (   0.0000000   0.4000000  -0.5000000), wk =   0.0480000
        k(   30) = (   0.0000000   0.4000000  -0.4000000), wk =   0.0240000
        k(   31) = (   0.0000000  -0.5000000  -0.5000000), wk =   0.0060000
        k(   32) = (   0.1000000   0.2000000   0.3000000), wk =   0.0480000
        k(   33) = (   0.1000000   0.2000000   0.4000000), wk =   0.0960000
        k(   34) = (   0.1000000   0.2000000  -0.5000000), wk =   0.0960000
        k(   35) = (   0.1000000   0.2000000  -0.4000000), wk =   0.0480000
        k(   36) = (   0.1000000   0.3000000   0.4000000), wk =   0.0480000
        k(   37) = (   0.1000000   0.3000000  -0.5000000), wk =   0.0960000
        k(   38) = (   0.1000000   0.3000000  -0.4000000), wk =   0.0960000
        k(   39) = (   0.1000000   0.3000000  -0.3000000), wk =   0.0960000
        k(   40) = (   0.1000000   0.3000000  -0.2000000), wk =   0.0480000
        k(   41) = (   0.1000000   0.4000000  -0.5000000), wk =   0.0480000
        k(   42) = (   0.1000000   0.4000000  -0.4000000), wk =   0.0960000
        k(   43) = (   0.1000000   0.4000000  -0.3000000), wk =   0.0480000
        k(   44) = (   0.1000000  -0.5000000  -0.4000000), wk =   0.0240000
        k(   45) = (   0.2000000   0.4000000  -0.4000000), wk =   0.0480000
        k(   46) = (   0.2000000   0.4000000  -0.3000000), wk =   0.0480000
        k(   47) = (   0.2000000  -0.5000000  -0.3000000), wk =   0.0240000

     Dense  grid:   190217 G-vectors     FFT dimensions: (  81,  81,  81)

     Largest allocated arrays     est. size (Mb)     dimensions
        Kohn-Sham Wavefunctions         0.41 Mb     (    1501,   18)
        NL pseudopotentials             0.82 Mb     (    1501,   36)
        Each V/rho on FFT grid          0.60 Mb     (   39366)
        Each G-vector array             0.09 Mb     (   11889)
        G-vector shells                 0.01 Mb     (    1044)
     Largest temporary arrays     est. size (Mb)     dimensions
        Auxiliary wavefunctions         1.65 Mb     (    1501,   72)
        Each subspace H/S matrix        0.08 Mb     (      72,   72)
        Each <psi_i|beta_j> matrix      0.01 Mb     (      36,   18)
        Arrays for rho mixing           4.81 Mb     (   39366,    8)

     Initial potential from superposition of free atoms

     starting charge   27.82601, renormalised to   28.00000
     Starting wfc are random

     total cpu time spent up to now is        4.2 secs

     Self-consistent Calculation

     iteration #  1     ecut=   200.00 Ry     beta=0.70
     Davidson diagonalization with overlap
     ethr =  1.00E-02,  avg # of iterations =  7.0

     total cpu time spent up to now is       31.6 secs

     total energy              =    -233.14084891 Ry
     Harris-Foulkes estimate   =    -234.57534681 Ry
     estimated scf accuracy    <       2.29019788 Ry

     iteration #  2     ecut=   200.00 Ry     beta=0.70
     Davidson diagonalization with overlap
     ethr =  8.18E-03,  avg # of iterations =  2.0

     total cpu time spent up to now is       42.7 secs

     total energy              =    -233.44564439 Ry
     Harris-Foulkes estimate   =    -233.46958905 Ry
     estimated scf accuracy    <       0.06194302 Ry

     iteration #  3     ecut=   200.00 Ry     beta=0.70
     Davidson diagonalization with overlap
     ethr =  2.21E-04,  avg # of iterations =  2.2

     total cpu time spent up to now is       52.7 secs

     total energy              =    -233.44850732 Ry
     Harris-Foulkes estimate   =    -233.44934746 Ry
     estimated scf accuracy    <       0.00285039 Ry

     iteration #  4     ecut=   200.00 Ry     beta=0.70
     Davidson diagonalization with overlap
     ethr =  1.02E-05,  avg # of iterations =  2.1

     total cpu time spent up to now is       62.2 secs

     total energy              =    -233.44865616 Ry
     Harris-Foulkes estimate   =    -233.44865400 Ry
     estimated scf accuracy    <       0.00002781 Ry

     iteration #  5     ecut=   200.00 Ry     beta=0.70
     Davidson diagonalization with overlap
     ethr =  9.93E-08,  avg # of iterations =  2.6

     total cpu time spent up to now is       72.5 secs

     End of self-consistent calculation

          k = 0.0000 0.0000 0.0000 ( 23589 PWs)   bands (ev):

   -12.3744 -12.3744 -12.3744 -12.3226 -12.3226 -12.1104 -12.1104 -12.1104
   -12.1005 -12.1005  -2.4003   5.2260   8.6181   8.6181   8.6181  10.8761
    10.8761  10.8761

     occupation numbers 
     1.0000   1.0000   1.0000   1.0000   1.0000   1.0000   1.0000   1.0000
     1.0000   1.0000   1.0000   1.0000   0.0000   0.0000   0.0000   0.0000
     0.0000   0.0000

          k = 0.0707 0.0707-0.0707 ( 23745 PWs)   bands (ev):

   -12.3792 -12.3792 -12.3727 -12.3158 -12.3158 -12.1205 -12.1205 -12.1127
   -12.0917 -12.0917  -2.3156   4.8240   8.4498   8.4498   8.5406  11.0936
    11.0936  11.1036

     occupation numbers 
     1.0000   1.0000   1.0000   1.0000   1.0000   1.0000   1.0000   1.0000
     1.0000   1.0000   1.0000   1.0000   0.0000   0.0000   0.0000   0.0000
     0.0000   0.0000

          k = 0.1414 0.1414-0.1414 ( 23760 PWs)   bands (ev):

   -12.3878 -12.3878 -12.3680 -12.3022 -12.3022 -12.1331 -12.1331 -12.1190
   -12.0821 -12.0821  -2.0687   3.9083   8.1096   8.1096   8.2718  11.5331
    11.5331  11.8866

     occupation numbers 
     1.0000   1.0000   1.0000   1.0000   1.0000   1.0000   1.0000   1.0000
     1.0000   1.0000   1.0000   1.0000   1.0000   1.0000   1.0000   0.0000
     0.0000   0.0000

          k = 0.2121 0.2121-0.2121 ( 23760 PWs)   bands (ev):

   -12.3947 -12.3947 -12.3621 -12.2899 -12.2899 -12.1425 -12.1425 -12.1269
   -12.0757 -12.0757  -1.6893   2.8817   7.7931   7.7931   7.9689  11.8948
    11.8948  13.0731

     occupation numbers 
     1.0000   1.0000   1.0000   1.0000   1.0000   1.0000   1.0000   1.0000
     1.0000   1.0000   1.0000   1.0000   1.0000   1.0000   1.0000   0.0000
     0.0000   0.0000

          k = 0.2828 0.2828-0.2828 ( 23750 PWs)   bands (ev):

   -12.3986 -12.3986 -12.3570 -12.2825 -12.2825 -12.1475 -12.1475 -12.1336
   -12.0724 -12.0724  -1.2681   2.0217   7.5835   7.5835   7.7619  12.0675
    12.0675  14.3198

     occupation numbers 
     1.0000   1.0000   1.0000   1.0000   1.0000   1.0000   1.0000   1.0000
     1.0000   1.0000   1.0000   1.0000   1.0000   1.0000   1.0000   0.0000
     0.0000   0.0000

          k =-0.3536-0.3536 0.3536 ( 23756 PWs)   bands (ev):

   -12.3998 -12.3998 -12.3551 -12.2802 -12.2802 -12.1488 -12.1488 -12.1362
   -12.0714 -12.0714  -1.0510   1.6515   7.5110   7.5110   7.6904  12.1091
    12.1091  14.5172

     occupation numbers 
     1.0000   1.0000   1.0000   1.0000   1.0000   1.0000   1.0000   1.0000
     1.0000   1.0000   1.0000   1.0000   1.0000   1.0000   1.0000   0.0000
     0.0000   0.0000

          k = 0.1414 0.0000 0.0000 ( 23749 PWs)   bands (ev):

   -12.3784 -12.3784 -12.3771 -12.3170 -12.3091 -12.1367 -12.1058 -12.1048
   -12.1048 -12.0872  -2.2869   4.7190   8.1825   8.1825   9.0617  10.4974
    11.4527  11.4527

     occupation numbers 
     1.0000   1.0000   1.0000   1.0000   1.0000   1.0000   1.0000   1.0000
     1.0000   1.0000   1.0000   1.0000   1.0000   1.0000   0.0000   0.0000
     0.0000   0.0000

          k = 0.2121 0.0707-0.0707 ( 23772 PWs)   bands (ev):

   -12.3884 -12.3848 -12.3717 -12.3073 -12.2945 -12.1534 -12.1197 -12.1063
   -12.0921 -12.0795  -2.0923   4.0291   7.7472   7.8230   9.2055  10.5614
    11.9675  12.0704

     occupation numbers 
     1.0000   1.0000   1.0000   1.0000   1.0000   1.0000   1.0000   1.0000
     1.0000   1.0000   1.0000   1.0000   1.0000   1.0000   0.0000   0.0000
     0.0000   0.0000

          k = 0.2828 0.1414-0.1414 ( 23792 PWs)   bands (ev):

   -12.3985 -12.3923 -12.3621 -12.2944 -12.2806 -12.1652 -12.1326 -12.1170
   -12.0821 -12.0704  -1.7515   3.0896   7.2552   7.5291   9.0379  11.1106
    12.3576  12.8157

     occupation numbers 
     1.0000   1.0000   1.0000   1.0000   1.0000   1.0000   1.0000   1.0000
     1.0000   1.0000   1.0000   1.0000   1.0000   1.0000   0.0000   0.0000
     0.0000   0.0000

          k = 0.3536 0.2121-0.2121 ( 23791 PWs)   bands (ev):

   -12.4053 -12.3979 -12.3518 -12.2833 -12.2731 -12.1685 -12.1437 -12.1302
   -12.0747 -12.0642  -1.3255   2.1923   6.8707   7.3659   8.8197  11.6215
    12.4889  13.6575

     occupation numbers 
     1.0000   1.0000   1.0000   1.0000   1.0000   1.0000   1.0000   1.0000
     1.0000   1.0000   1.0000   1.0000   1.0000   1.0000   0.0000   0.0000
     0.0000   0.0000

          k =-0.2828-0.4243 0.4243 ( 23800 PWs)   bands (ev):

   -12.4081 -12.4013 -12.3448 -12.2754 -12.2737 -12.1622 -12.1528 -12.1411
   -12.0696 -12.0623  -0.9989   1.6337   6.6503   7.3549   8.6757  11.8934
    12.4208  14.3973

     occupation numbers 
     1.0000   1.0000   1.0000   1.0000   1.0000   1.0000   1.0000   1.0000
     1.0000   1.0000   1.0000   1.0000   1.0000   1.0000   0.0000   0.0000
     0.0000   0.0000

          k =-0.2121-0.3536 0.3536 ( 23801 PWs)   bands (ev):

   -12.4067 -12.4023 -12.3446 -12.2797 -12.2721 -12.1588 -12.1492 -12.1462
   -12.0670 -12.0650  -1.0784   1.7616   6.6127   7.4948   8.6421  12.0373
    12.2426  14.3134

     occupation numbers 
     1.0000   1.0000   1.0000   1.0000   1.0000   1.0000   1.0000   1.0000
     1.0000   1.0000   1.0000   1.0000   1.0000   1.0000   0.0000   0.0000
     0.0000   0.0000

          k =-0.1414-0.2828 0.2828 ( 23768 PWs)   bands (ev):

   -12.4012 -12.4004 -12.3515 -12.2883 -12.2759 -12.1586 -12.1461 -12.1315
   -12.0724 -12.0675  -1.4723   2.4748   6.7728   7.7647   8.7115  11.9543
    12.0227  13.3674

     occupation numbers 
     1.0000   1.0000   1.0000   1.0000   1.0000   1.0000   1.0000   1.0000
     1.0000   1.0000   1.0000   1.0000   1.0000   1.0000   0.0000   0.0000
     0.0000   0.0000

          k =-0.0707-0.2121 0.2121 ( 23801 PWs)   bands (ev):

   -12.3951 -12.3924 -12.3616 -12.2989 -12.2876 -12.1504 -12.1397 -12.1143
   -12.0841 -12.0718  -1.8811   3.4095   7.1485   8.1117   8.8184  11.5414
    11.5871  12.6021

     occupation numbers 
     1.0000   1.0000   1.0000   1.0000   1.0000   1.0000   1.0000   1.0000
     1.0000   1.0000   1.0000   1.0000   1.0000   1.0000   0.0000   0.0000
     0.0000   0.0000

          k = 0.0000-0.1414 0.1414 ( 23766 PWs)   bands (ev):

   -12.3869 -12.3827 -12.3703 -12.3101 -12.3033 -12.1365 -12.1290 -12.1006
   -12.0990 -12.0800  -2.1761   4.2915   7.7455   8.4114   8.7864  11.0994
    11.1524  11.9331

     occupation numbers 
     1.0000   1.0000   1.0000   1.0000   1.0000   1.0000   1.0000   1.0000
     1.0000   1.0000   1.0000   1.0000   1.0000   0.1667   0.0000   0.0000
     0.0000   0.0000

          k = 0.2828 0.0000 0.0000 ( 23780 PWs)   bands (ev):

   -12.3883 -12.3883 -12.3767 -12.3009 -12.2779 -12.1769 -12.1213 -12.0908
   -12.0908 -12.0844  -1.9497   3.6634   7.4562   7.4562   9.7901   9.9149
    12.5873  12.5873

     occupation numbers 
     1.0000   1.0000   1.0000   1.0000   1.0000   1.0000   1.0000   1.0000
     1.0000   1.0000   1.0000   1.0000   1.0000   1.0000   0.0000   0.0000
     0.0000   0.0000

          k = 0.3536 0.0707-0.0707 ( 23785 PWs)   bands (ev):

   -12.3991 -12.3946 -12.3661 -12.2885 -12.2607 -12.1956 -12.1342 -12.1021
   -12.0812 -12.0721  -1.6527   2.9588   6.9850   7.1603   9.7970  10.1501
    13.0474  13.1026

     occupation numbers 
     1.0000   1.0000   1.0000   1.0000   1.0000   1.0000   1.0000   1.0000
     1.0000   1.0000   1.0000   1.0000   1.0000   1.0000   0.0000   0.0000
     0.0000   0.0000

          k = 0.4243 0.1414-0.1414 ( 23822 PWs)   bands (ev):

   -12.4105 -12.4005 -12.3487 -12.2750 -12.2503 -12.2045 -12.1489 -12.1222
   -12.0723 -12.0590  -1.2405   2.1614   6.4452   7.0028   9.6261  10.9067
    13.1628  13.3088

     occupation numbers 
     1.0000   1.0000   1.0000   1.0000   1.0000   1.0000   1.0000   1.0000
     1.0000   1.0000   1.0000   1.0000   1.0000   1.0000   0.0000   0.0000
     0.0000   0.0000

          k =-0.2121-0.4950 0.4950 ( 23806 PWs)   bands (ev):

   -12.4179 -12.4047 -12.3327 -12.2629 -12.2520 -12.1999 -12.1632 -12.1406
   -12.0655 -12.0511  -0.8401   1.5259   6.0494   7.0073   9.4744  11.6465
    13.2120  13.4947

     occupation numbers 
     1.0000   1.0000   1.0000   1.0000   1.0000   1.0000   1.0000   1.0000
     1.0000   1.0000   1.0000   1.0000   1.0000   1.0000   0.0000   0.0000
     0.0000   0.0000

          k =-0.1414-0.4243 0.4243 ( 23834 PWs)   bands (ev):

   -12.4195 -12.4067 -12.3253 -12.2637 -12.2550 -12.1837 -12.1743 -12.1504
   -12.0616 -12.0502  -0.7729   1.4300   5.8781   7.1718   9.3991  12.0469
    12.9241  13.8835

     occupation numbers 
     1.0000   1.0000   1.0000   1.0000   1.0000   1.0000   1.0000   1.0000
     1.0000   1.0000   1.0000   1.0000   1.0000   1.0000   0.0000   0.0000
     0.0000   0.0000

          k =-0.0707-0.3536 0.3536 ( 23792 PWs)   bands (ev):

   -12.4146 -12.4060 -12.3306 -12.2786 -12.2568 -12.1763 -12.1619 -12.1488
   -12.0611 -12.0570  -1.1203   1.9532   5.9763   7.4692   9.3690  12.2193
    12.4900  13.2115

     occupation numbers 
     1.0000   1.0000   1.0000   1.0000   1.0000   1.0000   1.0000   1.0000
     1.0000   1.0000   1.0000   1.0000   1.0000   1.0000   0.0000   0.0000
     0.0000   0.0000

          k = 0.0000-0.2828 0.2828 ( 23782 PWs)   bands (ev):

   -12.4043 -12.4020 -12.3459 -12.2903 -12.2699 -12.1666 -12.1499 -12.1299
   -12.0704 -12.0645  -1.5470   2.7027   6.3915   7.8313   9.2437  11.8962
    11.9585  12.8299

     occupation numbers 
     1.0000   1.0000   1.0000   1.0000   1.0000   1.0000   1.0000   1.0000
     1.0000   1.0000   1.0000   1.0000   1.0000   1.0000   0.0000   0.0000
     0.0000   0.0000

          k = 0.4243 0.0000 0.0000 ( 23784 PWs)   bands (ev):

   -12.3995 -12.3995 -12.3660 -12.2760 -12.2385 -12.2225 -12.1455 -12.0962
   -12.0745 -12.0745  -1.3981   2.4864   6.8477   6.8477   9.5135  10.0474
    13.8255  13.8255

     occupation numbers 
     1.0000   1.0000   1.0000   1.0000   1.0000   1.0000   1.0000   1.0000
     1.0000   1.0000   1.0000   1.0000   1.0000   1.0000   0.0000   0.0000
     0.0000   0.0000

          k = 0.4950 0.0707-0.0707 ( 23802 PWs)   bands (ev):

   -12.4089 -12.4044 -12.3498 -12.2610 -12.2408 -12.2211 -12.1607 -12.1156
   -12.0671 -12.0614  -1.0113   1.8460   6.4281   6.6697   9.6302  10.1534
    13.8575  14.2351

     occupation numbers 
     1.0000   1.0000   1.0000   1.0000   1.0000   1.0000   1.0000   1.0000
     1.0000   1.0000   1.0000   1.0000   1.0000   1.0000   0.0000   0.0000
     0.0000   0.0000

          k =-0.1414-0.5657 0.5657 ( 23820 PWs)   bands (ev):

   -12.4197 -12.4080 -12.3273 -12.2462 -12.2457 -12.2153 -12.1773 -12.1399
   -12.0613 -12.0487  -0.5709   1.2359   5.9126   6.6564   9.6330  11.0007
    13.6150  14.2064

     occupation numbers 
     1.0000   1.0000   1.0000   1.0000   1.0000   1.0000   1.0000   1.0000
     1.0000   1.0000   1.0000   1.0000   1.0000   1.0000   0.0000   0.0000
     0.0000   0.0000

          k =-0.0707-0.4950 0.4950 ( 23819 PWs)   bands (ev):

   -12.4256 -12.4099 -12.3141 -12.2351 -12.2348 -12.2245 -12.1912 -12.1533
   -12.0580 -12.0425  -0.3754   0.9980   5.5845   6.8094   9.6222  12.0856
    13.4462  13.8302

     occupation numbers 
     1.0000   1.0000   1.0000   1.0000   1.0000   1.0000   1.0000   1.0000
     1.0000   1.0000   1.0000   1.0000   1.0000   1.0000   0.0000   0.0000
     0.0000   0.0000

          k =-0.0000-0.4243 0.4243 ( 23824 PWs)   bands (ev):

   -12.4239 -12.4093 -12.3157 -12.2577 -12.2392 -12.1960 -12.1907 -12.1543
   -12.0579 -12.0453  -0.6876   1.3819   5.5807   7.1030   9.6095  12.7186
    13.0429  13.2085

     occupation numbers 
     1.0000   1.0000   1.0000   1.0000   1.0000   1.0000   1.0000   1.0000
     1.0000   1.0000   1.0000   1.0000   1.0000   1.0000   0.0000   0.0000
     0.0000   0.0000

          k = 0.5657 0.0000 0.0000 ( 23864 PWs)   bands (ev):

   -12.4079 -12.4079 -12.3435 -12.2684 -12.2447 -12.1962 -12.1761 -12.1209
   -12.0620 -12.0620  -0.6487   1.3339   6.4602   6.4602   9.3720   9.7965
    14.9324  14.9327

     occupation numbers 
     1.0000   1.0000   1.0000   1.0000   1.0000   1.0000   1.0000   1.0000
     1.0000   1.0000   1.0000   1.0000   1.0000   1.0000   0.0000   0.0000
     0.0000   0.0000

          k =-0.0707-0.6364 0.6364 ( 23830 PWs)   bands (ev):

   -12.4148 -12.4102 -12.3225 -12.2835 -12.2281 -12.1932 -12.1814 -12.1431
   -12.0584 -12.0536  -0.1935   0.7813   6.1388   6.4136   9.5221   9.9881
    14.7558  15.0838

     occupation numbers 
     1.0000   1.0000   1.0000   1.0000   1.0000   1.0000   1.0000   1.0000
     1.0000   1.0000   1.0000   1.0000   1.0000   1.0000   0.0000   0.0000
     0.0000   0.0000

          k = 0.0000-0.5657 0.5657 ( 23800 PWs)   bands (ev):

   -12.4231 -12.4110 -12.3097 -12.2691 -12.2179 -12.2054 -12.1948 -12.1559
   -12.0570 -12.0446   0.0263   0.5534   5.7277   6.5367   9.5727  11.0120
    14.1616  14.6490

     occupation numbers 
     1.0000   1.0000   1.0000   1.0000   1.0000   1.0000   1.0000   1.0000
     1.0000   1.0000   1.0000   1.0000   1.0000   1.0000   0.0000   0.0000
     0.0000   0.0000

          k =-0.7071 0.0000 0.0000 ( 23868 PWs)   bands (ev):

   -12.4110 -12.4110 -12.3102 -12.3100 -12.2106 -12.2099 -12.1557 -12.1555
   -12.0574 -12.0574   0.2734   0.2737   6.3280   6.3280   9.4898   9.4899
    15.4501  15.4502

     occupation numbers 
     1.0000   1.0000   1.0000   1.0000   1.0000   1.0000   1.0000   1.0000
     1.0000   1.0000   1.0000   1.0000   1.0000   1.0000   0.0000   0.0000
     0.0000   0.0000

          k = 0.2828 0.1414 0.0000 ( 23807 PWs)   bands (ev):

   -12.3955 -12.3932 -12.3642 -12.2976 -12.2784 -12.1714 -12.1298 -12.1088
   -12.0847 -12.0722  -1.8476   3.3723   7.0421   7.6975   9.4915  10.5736
    12.3709  12.6727

     occupation numbers 
     1.0000   1.0000   1.0000   1.0000   1.0000   1.0000   1.0000   1.0000
     1.0000   1.0000   1.0000   1.0000   1.0000   1.0000   0.0000   0.0000
     0.0000   0.0000

          k = 0.3536 0.2121-0.0707 ( 23793 PWs)   bands (ev):

   -12.4055 -12.4008 -12.3494 -12.2858 -12.2641 -12.1834 -12.1413 -12.1273
   -12.0718 -12.0639  -1.4691   2.5506   6.4971   7.4355   9.5019  11.1075
    12.7526  12.9899

     occupation numbers 
     1.0000   1.0000   1.0000   1.0000   1.0000   1.0000   1.0000   1.0000
     1.0000   1.0000   1.0000   1.0000   1.0000   1.0000   0.0000   0.0000
     0.0000   0.0000

          k =-0.2828-0.4243 0.5657 ( 23800 PWs)   bands (ev):

   -12.4136 -12.4047 -12.3355 -12.2746 -12.2582 -12.1855 -12.1531 -12.1448
   -12.0651 -12.0563  -1.0415   1.7989   6.1822   7.2078   9.4055  11.6371
    12.8309  13.5855

     occupation numbers 
     1.0000   1.0000   1.0000   1.0000   1.0000   1.0000   1.0000   1.0000
     1.0000   1.0000   1.0000   1.0000   1.0000   1.0000   0.0000   0.0000
     0.0000   0.0000

          k =-0.2121-0.3536 0.4950 ( 23818 PWs)   bands (ev):

   -12.4166 -12.4059 -12.3298 -12.2673 -12.2599 -12.1810 -12.1642 -12.1492
   -12.0633 -12.0532  -0.8144   1.4543   6.0810   7.1223   9.3609  11.7879
    12.8771  14.0618

     occupation numbers 
     1.0000   1.0000   1.0000   1.0000   1.0000   1.0000   1.0000   1.0000
     1.0000   1.0000   1.0000   1.0000   1.0000   1.0000   0.0000   0.0000
     0.0000   0.0000

          k = 0.4243 0.1414-0.0000 ( 23798 PWs)   bands (ev):

   -12.4047 -12.4043 -12.3527 -12.2755 -12.2431 -12.2145 -12.1475 -12.1162
   -12.0685 -12.0653  -1.3128   2.3218   6.4871   6.9499  10.0785  10.1513
    13.1156  13.7095

     occupation numbers 
     1.0000   1.0000   1.0000   1.0000   1.0000   1.0000   1.0000   1.0000
     1.0000   1.0000   1.0000   1.0000   1.0000   1.0000   0.0000   0.0000
     0.0000   0.0000

          k =-0.2121-0.4950 0.6364 ( 23814 PWs)   bands (ev):

   -12.4161 -12.4086 -12.3316 -12.2618 -12.2338 -12.2223 -12.1632 -12.1389
   -12.0611 -12.0532  -0.8796   1.6429   6.0332   6.7496  10.0069  10.9571
    12.9721  13.9979

     occupation numbers 
     1.0000   1.0000   1.0000   1.0000   1.0000   1.0000   1.0000   1.0000
     1.0000   1.0000   1.0000   1.0000   1.0000   1.0000   0.0000   0.0000
     0.0000   0.0000

          k =-0.1414-0.4243 0.5657 ( 23817 PWs)   bands (ev):

   -12.4229 -12.4108 -12.3157 -12.2512 -12.2359 -12.2169 -12.1788 -12.1540
   -12.0576 -12.0456  -0.5342   1.1778   5.7401   6.7137   9.9529  11.7414
    13.1527  13.7479

     occupation numbers 
     1.0000   1.0000   1.0000   1.0000   1.0000   1.0000   1.0000   1.0000
     1.0000   1.0000   1.0000   1.0000   1.0000   1.0000   0.0000   0.0000
     0.0000   0.0000

          k =-0.0707-0.3536 0.4950 ( 23829 PWs)   bands (ev):

   -12.4226 -12.4109 -12.3149 -12.2580 -12.2378 -12.2074 -12.1787 -12.1562
   -12.0568 -12.0465  -0.6470   1.3236   5.6840   6.8686   9.9419  11.9358
    13.0650  13.6040

     occupation numbers 
     1.0000   1.0000   1.0000   1.0000   1.0000   1.0000   1.0000   1.0000
     1.0000   1.0000   1.0000   1.0000   1.0000   1.0000   0.0000   0.0000
     0.0000   0.0000

          k = 0.0000-0.2828 0.4243 ( 23804 PWs)   bands (ev):

   -12.4153 -12.4082 -12.3290 -12.2739 -12.2469 -12.1985 -12.1544 -12.1499
   -12.0592 -12.0559  -1.0664   1.9073   5.9263   7.1577   9.8601  11.5130
    12.7687  13.3961

     occupation numbers 
     1.0000   1.0000   1.0000   1.0000   1.0000   1.0000   1.0000   1.0000
     1.0000   1.0000   1.0000   1.0000   1.0000   1.0000   0.0000   0.0000
     0.0000   0.0000

          k =-0.1414-0.5657 0.7071 ( 23817 PWs)   bands (ev):

   -12.4128 -12.4120 -12.3306 -12.2584 -12.2453 -12.2042 -12.1771 -12.1356
   -12.0568 -12.0566  -0.5925   1.2705   6.1800   6.4158   9.9515  10.1261
    13.8140  14.7502

     occupation numbers 
     1.0000   1.0000   1.0000   1.0000   1.0000   1.0000   1.0000   1.0000
     1.0000   1.0000   1.0000   1.0000   1.0000   1.0000   0.0000   0.0000
     0.0000   0.0000

          k =-0.0707-0.4950 0.6364 ( 23811 PWs)   bands (ev):

   -12.4220 -12.4141 -12.3072 -12.2615 -12.2305 -12.2006 -12.1944 -12.1587
   -12.0539 -12.0459  -0.1651   0.7694   5.8047   6.3556  10.0375  11.0146
    13.5586  14.3320

     occupation numbers 
     1.0000   1.0000   1.0000   1.0000   1.0000   1.0000   1.0000   1.0000
     1.0000   1.0000   1.0000   1.0000   1.0000   1.0000   0.0000   0.0000
     0.0000   0.0000

          k =-0.0000-0.4243 0.5657 ( 23831 PWs)   bands (ev):

   -12.4261 -12.4138 -12.3031 -12.2380 -12.2329 -12.2170 -12.2001 -12.1621
   -12.0538 -12.0418  -0.2189   0.8345   5.5714   6.5389  10.0671  12.0563
    13.2391  13.5712

     occupation numbers 
     1.0000   1.0000   1.0000   1.0000   1.0000   1.0000   1.0000   1.0000
     1.0000   1.0000   1.0000   1.0000   1.0000   1.0000   0.0000   0.0000
     0.0000   0.0000

          k =-0.7071 0.1414 0.0000 ( 23836 PWs)   bands (ev):

   -12.4154 -12.4154 -12.2984 -12.2982 -12.2115 -12.2108 -12.1668 -12.1667
   -12.0526 -12.0526   0.2822   0.2826   6.1535   6.1535   9.9758   9.9759
    14.6931  14.6931

     occupation numbers 
     1.0000   1.0000   1.0000   1.0000   1.0000   1.0000   1.0000   1.0000
     1.0000   1.0000   1.0000   1.0000   1.0000   1.0000   0.0000   0.0000
     0.0000   0.0000

          k =-0.1414-0.4243 0.7071 ( 23797 PWs)   bands (ev):

   -12.4216 -12.4158 -12.3071 -12.2469 -12.2384 -12.2163 -12.1835 -12.1607
   -12.0519 -12.0469  -0.4375   1.0912   5.7562   6.4146  10.6020  11.2253
    12.7746  14.0629

     occupation numbers 
     1.0000   1.0000   1.0000   1.0000   1.0000   1.0000   1.0000   1.0000
     1.0000   1.0000   1.0000   1.0000   1.0000   1.0000   0.0000   0.0000
     0.0000   0.0000

          k =-0.0707-0.3536 0.6364 ( 23838 PWs)   bands (ev):

   -12.4247 -12.4177 -12.2940 -12.2460 -12.2334 -12.2126 -12.1971 -12.1703
   -12.0500 -12.0431  -0.1467   0.7611   5.6753   6.2603  10.7149  11.6816
    12.9403  13.3793

     occupation numbers 
     1.0000   1.0000   1.0000   1.0000   1.0000   1.0000   1.0000   1.0000
     1.0000   1.0000   1.0000   1.0000   1.0000   1.0000   0.0000   0.0000
     0.0000   0.0000

          k =-0.7071 0.2828 0.0000 ( 23842 PWs)   bands (ev):

   -12.4215 -12.4215 -12.2763 -12.2760 -12.2157 -12.2150 -12.1853 -12.1851
   -12.0461 -12.0461   0.2967   0.2971   5.9204   5.9204  11.0109  11.0110
    13.3510  13.3511

     occupation numbers 
     1.0000   1.0000   1.0000   1.0000   1.0000   1.0000   1.0000   1.0000
     1.0000   1.0000   1.0000   1.0000   1.0000   1.0000   0.0000   0.0000
     0.0000   0.0000

     the Fermi energy is     8.4105 ev

!    total energy              =    -233.44866044 Ry
     Harris-Foulkes estimate   =    -233.44866065 Ry
     estimated scf accuracy    <       0.00000050 Ry

     The total energy is the sum of the following terms:

     one-electron contribution =     -95.31604814 Ry
     hartree contribution      =      58.35561971 Ry
     xc contribution           =     -28.70689002 Ry
     ewald contribution        =    -167.78134157 Ry
     smearing contrib. (-TS)   =      -0.00000042 Ry

     convergence has been achieved in   5 iterations

     Writing output data file Sn.save
 
     init_run     :      3.79s CPU      4.08s WALL (       1 calls)
     electrons    :     64.50s CPU     68.44s WALL (       1 calls)

     Called by init_run:
     wfcinit      :      3.20s CPU      3.37s WALL (       1 calls)
     potinit      :      0.08s CPU      0.12s WALL (       1 calls)

     Called by electrons:
     c_bands      :     56.26s CPU     59.50s WALL (       5 calls)
     sum_band     :      7.85s CPU      8.35s WALL (       5 calls)
     v_of_rho     :      0.35s CPU      0.54s WALL (       6 calls)
     v_h          :      0.03s CPU      0.08s WALL (       6 calls)
     v_xc         :      0.32s CPU      0.46s WALL (       6 calls)
     mix_rho      :      0.03s CPU      0.05s WALL (       5 calls)

     Called by c_bands:
     init_us_2    :      0.57s CPU      0.66s WALL (     517 calls)
     cegterg      :     54.09s CPU     57.21s WALL (     235 calls)

     Called by sum_band:

     Called by *egterg:
     h_psi        :     50.20s CPU     52.89s WALL (    1025 calls)
     g_psi        :      0.22s CPU      0.22s WALL (     743 calls)
     cdiaghg      :      1.02s CPU      1.03s WALL (     978 calls)
     cegterg:over :      2.35s CPU      2.36s WALL (     743 calls)
     cegterg:upda :      1.20s CPU      1.21s WALL (     743 calls)
     cegterg:last :      0.79s CPU      0.79s WALL (     321 calls)

     Called by h_psi:
     h_psi:vloc   :     47.35s CPU     49.96s WALL (    1025 calls)
     h_psi:vnl    :      2.60s CPU      2.67s WALL (    1025 calls)
     add_vuspsi   :      0.98s CPU      0.99s WALL (    1025 calls)

     General routines
     calbec       :      1.61s CPU      1.67s WALL (    1025 calls)
     fft          :      0.25s CPU      0.47s WALL (      65 calls)
     fftw         :     47.89s CPU     50.60s WALL (   33744 calls)
     davcio       :      0.02s CPU      0.20s WALL (      47 calls)
 
     Parallel routines
     fft_scatter  :     18.53s CPU     20.19s WALL (   33809 calls)
 
     PWSCF        :  1m 8.57s CPU     1m13.17s WALL

 
   This run was terminated on:   0:11:54  28Feb2020            

=------------------------------------------------------------------------------=
   JOB DONE.
=------------------------------------------------------------------------------=
