
     Program PWSCF v.5.4.0 starts on 21Feb2020 at  0:52:48 

     This program is part of the open-source Quantum ESPRESSO suite
     for quantum simulation of materials; please cite
         "P. Giannozzi et al., J. Phys.:Condens. Matter 21 395502 (2009);
          URL http://www.quantum-espresso.org", 
     in publications or presentations arising from this work. More details at
     http://www.quantum-espresso.org/quote

     Parallel version (MPI & OpenMP), running on      16 processor cores
     Number of MPI processes:                16
     Threads/MPI process:                     1
     R & G space division:  proc/nbgrp/npool/nimage =      16
     Waiting for input...
     Reading input from standard input
Warning: card &IONS ignored
Warning: card / ignored
Warning: card &CELL ignored
Warning: card / ignored

     Current dimensions of program PWSCF are:
     Max number of different atomic species (ntypx) = 10
     Max number of k-points (npk) =  40000
     Max angular momentum in pseudopotentials (lmaxx) =  3

     Subspace diagonalization in iterative solution of the eigenvalue problem:
     a serial algorithm will be used

 
     Parallelization info
     --------------------
     sticks:   dense  smooth     PW     G-vecs:    dense   smooth      PW
     Min         109     109     31                 3006     3006     473
     Max         111     111     32                 3009     3009     477
     Sum        1759    1759    511                48119    48119    7583
 

     Title: 
     Sn                                                                         


     bravais-lattice index     =            0
     lattice parameter (alat)  =       8.8993  a.u.
     unit-cell volume          =     498.3785 (a.u.)^3
     number of atoms/cell      =            2
     number of atomic types    =            1
     number of electrons       =        28.00
     number of Kohn-Sham states=           18
     kinetic-energy cutoff     =      80.0000  Ry
     charge density cutoff     =     320.0000  Ry
     convergence threshold     =      1.0E-06
     mixing beta               =       0.7000
     number of iterations used =            8  plain     mixing
     Exchange-correlation      = PBE ( 1  4  3  4 0 0)

     celldm(1)=   8.899346  celldm(2)=   0.000000  celldm(3)=   0.000000
     celldm(4)=   0.000000  celldm(5)=   0.000000  celldm(6)=   0.000000

     crystal axes: (cart. coord. in units of alat)
               a(1) = (   0.000000   0.707107   0.707107 )  
               a(2) = (   0.707107   0.000000   0.707107 )  
               a(3) = (   0.707107   0.707107   0.000000 )  

     reciprocal axes: (cart. coord. in units 2 pi/alat)
               b(1) = ( -0.707107  0.707107  0.707107 )  
               b(2) = (  0.707107 -0.707107  0.707107 )  
               b(3) = (  0.707107  0.707107 -0.707107 )  


     PseudoPot. # 1 for Sn read from file:
     ../PseudopotentialDatabase/Sn_ONCV_PBE-1.0.upf
     MD5 check sum: 4ecdb67ea6112684f1b2ae1cab9d4ca6
     Pseudo is Norm-conserving, Zval = 14.0
     Generated using ONCVPSP code by D. R. Hamann
     Using radial grid of  602 points,  6 beta functions with: 
                l(1) =   0
                l(2) =   0
                l(3) =   1
                l(4) =   1
                l(5) =   2
                l(6) =   2

     atomic species   valence    mass     pseudopotential
        Sn            14.00   118.71000     Sn( 1.00)

     24 Sym. Ops. (no inversion) found
          (note: 24 additional sym.ops. were found but ignored
           their fractional translations are incommensurate with FFT grid)

                                    s                        frac. trans.

      isym =  1     identity                                     

 cryst.   s( 1) = (     1          0          0      )
                  (     0          1          0      )
                  (     0          0          1      )

 cart.    s( 1) = (  1.0000000  0.0000000  0.0000000 )
                  (  0.0000000  1.0000000  0.0000000 )
                  (  0.0000000  0.0000000  1.0000000 )


      isym =  2     180 deg rotation - cart. axis [0,0,1]        

 cryst.   s( 2) = (     0          1         -1      )
                  (     1          0         -1      )
                  (     0          0         -1      )

 cart.    s( 2) = ( -1.0000000  0.0000000  0.0000000 )
                  (  0.0000000 -1.0000000  0.0000000 )
                  (  0.0000000  0.0000000  1.0000000 )


      isym =  3     180 deg rotation - cart. axis [0,1,0]        

 cryst.   s( 3) = (     0         -1          1      )
                  (     0         -1          0      )
                  (     1         -1          0      )

 cart.    s( 3) = ( -1.0000000  0.0000000  0.0000000 )
                  (  0.0000000  1.0000000  0.0000000 )
                  (  0.0000000  0.0000000 -1.0000000 )


      isym =  4     180 deg rotation - cart. axis [1,0,0]        

 cryst.   s( 4) = (    -1          0          0      )
                  (    -1          0          1      )
                  (    -1          1          0      )

 cart.    s( 4) = (  1.0000000  0.0000000  0.0000000 )
                  (  0.0000000 -1.0000000  0.0000000 )
                  (  0.0000000  0.0000000 -1.0000000 )


      isym =  5     120 deg rotation - cart. axis [-1,-1,-1]     

 cryst.   s( 5) = (     0          0          1      )
                  (     1          0          0      )
                  (     0          1          0      )

 cart.    s( 5) = (  0.0000000  1.0000000  0.0000000 )
                  (  0.0000000  0.0000000  1.0000000 )
                  (  1.0000000  0.0000000  0.0000000 )


      isym =  6     120 deg rotation - cart. axis [-1,1,1]       

 cryst.   s( 6) = (     1         -1          0      )
                  (     0         -1          1      )
                  (     0         -1          0      )

 cart.    s( 6) = (  0.0000000 -1.0000000  0.0000000 )
                  (  0.0000000  0.0000000  1.0000000 )
                  ( -1.0000000  0.0000000  0.0000000 )


      isym =  7     120 deg rotation - cart. axis [1,1,-1]       

 cryst.   s( 7) = (    -1          1          0      )
                  (    -1          0          0      )
                  (    -1          0          1      )

 cart.    s( 7) = (  0.0000000  1.0000000  0.0000000 )
                  (  0.0000000  0.0000000 -1.0000000 )
                  ( -1.0000000  0.0000000  0.0000000 )


      isym =  8     120 deg rotation - cart. axis [1,-1,1]       

 cryst.   s( 8) = (     0          0         -1      )
                  (     0          1         -1      )
                  (     1          0         -1      )

 cart.    s( 8) = (  0.0000000 -1.0000000  0.0000000 )
                  (  0.0000000  0.0000000 -1.0000000 )
                  (  1.0000000  0.0000000  0.0000000 )


      isym =  9     120 deg rotation - cart. axis [1,1,1]        

 cryst.   s( 9) = (     0          1          0      )
                  (     0          0          1      )
                  (     1          0          0      )

 cart.    s( 9) = (  0.0000000  0.0000000  1.0000000 )
                  (  1.0000000  0.0000000  0.0000000 )
                  (  0.0000000  1.0000000  0.0000000 )


      isym = 10     120 deg rotation - cart. axis [-1,1,-1]      

 cryst.   s(10) = (    -1          0          1      )
                  (    -1          1          0      )
                  (    -1          0          0      )

 cart.    s(10) = (  0.0000000  0.0000000  1.0000000 )
                  ( -1.0000000  0.0000000  0.0000000 )
                  (  0.0000000 -1.0000000  0.0000000 )


      isym = 11     120 deg rotation - cart. axis [1,-1,-1]      

 cryst.   s(11) = (     1          0         -1      )
                  (     0          0         -1      )
                  (     0          1         -1      )

 cart.    s(11) = (  0.0000000  0.0000000 -1.0000000 )
                  ( -1.0000000  0.0000000  0.0000000 )
                  (  0.0000000  1.0000000  0.0000000 )


      isym = 12     120 deg rotation - cart. axis [-1,-1,1]      

 cryst.   s(12) = (     0         -1          0      )
                  (     1         -1          0      )
                  (     0         -1          1      )

 cart.    s(12) = (  0.0000000  0.0000000 -1.0000000 )
                  (  1.0000000  0.0000000  0.0000000 )
                  (  0.0000000 -1.0000000  0.0000000 )


      isym = 13     inv. 180 deg rotation - cart. axis [1,1,0]   

 cryst.   s(13) = (     1          0         -1      )
                  (     0          1         -1      )
                  (     0          0         -1      )

 cart.    s(13) = (  0.0000000 -1.0000000  0.0000000 )
                  ( -1.0000000  0.0000000  0.0000000 )
                  (  0.0000000  0.0000000  1.0000000 )


      isym = 14     inv. 180 deg rotation - cart. axis [1,-1,0]  

 cryst.   s(14) = (     0          1          0      )
                  (     1          0          0      )
                  (     0          0          1      )

 cart.    s(14) = (  0.0000000  1.0000000  0.0000000 )
                  (  1.0000000  0.0000000  0.0000000 )
                  (  0.0000000  0.0000000  1.0000000 )


      isym = 15     inv.  90 deg rotation - cart. axis [0,0,-1]  

 cryst.   s(15) = (     0         -1          0      )
                  (     0         -1          1      )
                  (     1         -1          0      )

 cart.    s(15) = (  0.0000000 -1.0000000  0.0000000 )
                  (  1.0000000  0.0000000  0.0000000 )
                  (  0.0000000  0.0000000 -1.0000000 )


      isym = 16     inv.  90 deg rotation - cart. axis [0,0,1]   

 cryst.   s(16) = (    -1          0          1      )
                  (    -1          0          0      )
                  (    -1          1          0      )

 cart.    s(16) = (  0.0000000  1.0000000  0.0000000 )
                  ( -1.0000000  0.0000000  0.0000000 )
                  (  0.0000000  0.0000000 -1.0000000 )


      isym = 17     inv. 180 deg rotation - cart. axis [1,0,1]   

 cryst.   s(17) = (     1         -1          0      )
                  (     0         -1          0      )
                  (     0         -1          1      )

 cart.    s(17) = (  0.0000000  0.0000000 -1.0000000 )
                  (  0.0000000  1.0000000  0.0000000 )
                  ( -1.0000000  0.0000000  0.0000000 )


      isym = 18     inv. 180 deg rotation - cart. axis [-1,0,1]  

 cryst.   s(18) = (     0          0          1      )
                  (     0          1          0      )
                  (     1          0          0      )

 cart.    s(18) = (  0.0000000  0.0000000  1.0000000 )
                  (  0.0000000  1.0000000  0.0000000 )
                  (  1.0000000  0.0000000  0.0000000 )


      isym = 19     inv.  90 deg rotation - cart. axis [0,1,0]   

 cryst.   s(19) = (     0          0         -1      )
                  (     1          0         -1      )
                  (     0          1         -1      )

 cart.    s(19) = (  0.0000000  0.0000000 -1.0000000 )
                  (  0.0000000 -1.0000000  0.0000000 )
                  (  1.0000000  0.0000000  0.0000000 )


      isym = 20     inv.  90 deg rotation - cart. axis [0,-1,0]  

 cryst.   s(20) = (    -1          1          0      )
                  (    -1          0          1      )
                  (    -1          0          0      )

 cart.    s(20) = (  0.0000000  0.0000000  1.0000000 )
                  (  0.0000000 -1.0000000  0.0000000 )
                  ( -1.0000000  0.0000000  0.0000000 )


      isym = 21     inv. 180 deg rotation - cart. axis [0,1,1]   

 cryst.   s(21) = (    -1          0          0      )
                  (    -1          1          0      )
                  (    -1          0          1      )

 cart.    s(21) = (  1.0000000  0.0000000  0.0000000 )
                  (  0.0000000  0.0000000 -1.0000000 )
                  (  0.0000000 -1.0000000  0.0000000 )


      isym = 22     inv. 180 deg rotation - cart. axis [0,1,-1]  

 cryst.   s(22) = (     1          0          0      )
                  (     0          0          1      )
                  (     0          1          0      )

 cart.    s(22) = (  1.0000000  0.0000000  0.0000000 )
                  (  0.0000000  0.0000000  1.0000000 )
                  (  0.0000000  1.0000000  0.0000000 )


      isym = 23     inv.  90 deg rotation - cart. axis [-1,0,0]  

 cryst.   s(23) = (     0          1         -1      )
                  (     0          0         -1      )
                  (     1          0         -1      )

 cart.    s(23) = ( -1.0000000  0.0000000  0.0000000 )
                  (  0.0000000  0.0000000 -1.0000000 )
                  (  0.0000000  1.0000000  0.0000000 )


      isym = 24     inv.  90 deg rotation - cart. axis [1,0,0]   

 cryst.   s(24) = (     0         -1          1      )
                  (     1         -1          0      )
                  (     0         -1          0      )

 cart.    s(24) = ( -1.0000000  0.0000000  0.0000000 )
                  (  0.0000000  0.0000000  1.0000000 )
                  (  0.0000000 -1.0000000  0.0000000 )


   Cartesian axes

     site n.     atom                  positions (alat units)
         1           Sn  tau(   1) = (   0.0000000   0.0000000   0.0000000  )
         2           Sn  tau(   2) = (   0.3535534   0.3535534   0.3535534  )

   Crystallographic axes

     site n.     atom                  positions (cryst. coord.)
         1           Sn  tau(   1) = (  0.0000000  0.0000000  0.0000000  )
         2           Sn  tau(   2) = (  0.2500000  0.2500000  0.2500000  )

     number of k points=   455  gaussian smearing, width (Ry)=  0.0100
                       cart. coord. in units 2pi/alat
        k(    1) = (   0.0000000   0.0000000   0.0000000), wk =   0.0001280
        k(    2) = (   0.0282843   0.0282843  -0.0282843), wk =   0.0010240
        k(    3) = (   0.0565685   0.0565685  -0.0565685), wk =   0.0010240
        k(    4) = (   0.0848528   0.0848528  -0.0848528), wk =   0.0010240
        k(    5) = (   0.1131371   0.1131371  -0.1131371), wk =   0.0010240
        k(    6) = (   0.1414214   0.1414214  -0.1414214), wk =   0.0010240
        k(    7) = (   0.1697056   0.1697056  -0.1697056), wk =   0.0010240
        k(    8) = (   0.1979899   0.1979899  -0.1979899), wk =   0.0010240
        k(    9) = (   0.2262742   0.2262742  -0.2262742), wk =   0.0010240
        k(   10) = (   0.2545584   0.2545584  -0.2545584), wk =   0.0010240
        k(   11) = (   0.2828427   0.2828427  -0.2828427), wk =   0.0010240
        k(   12) = (   0.3111270   0.3111270  -0.3111270), wk =   0.0010240
        k(   13) = (   0.3394113   0.3394113  -0.3394113), wk =   0.0010240
        k(   14) = (   0.0565685   0.0000000   0.0000000), wk =   0.0007680
        k(   15) = (   0.0848528   0.0282843  -0.0282843), wk =   0.0030720
        k(   16) = (   0.1131371   0.0565685  -0.0565685), wk =   0.0030720
        k(   17) = (   0.1414214   0.0848528  -0.0848528), wk =   0.0030720
        k(   18) = (   0.1697056   0.1131371  -0.1131371), wk =   0.0030720
        k(   19) = (   0.1979899   0.1414214  -0.1414214), wk =   0.0030720
        k(   20) = (   0.2262742   0.1697056  -0.1697056), wk =   0.0030720
        k(   21) = (   0.2545584   0.1979899  -0.1979899), wk =   0.0030720
        k(   22) = (   0.2828427   0.2262742  -0.2262742), wk =   0.0030720
        k(   23) = (   0.3111270   0.2545584  -0.2545584), wk =   0.0030720
        k(   24) = (   0.3394113   0.2828427  -0.2828427), wk =   0.0030720
        k(   25) = (   0.3676955   0.3111270  -0.3111270), wk =   0.0030720
        k(   26) = (  -0.3111270  -0.3676955   0.3676955), wk =   0.0030720
        k(   27) = (  -0.2828427  -0.3394113   0.3394113), wk =   0.0030720
        k(   28) = (  -0.2545584  -0.3111270   0.3111270), wk =   0.0030720
        k(   29) = (  -0.2262742  -0.2828427   0.2828427), wk =   0.0030720
        k(   30) = (  -0.1979899  -0.2545584   0.2545584), wk =   0.0030720
        k(   31) = (  -0.1697056  -0.2262742   0.2262742), wk =   0.0030720
        k(   32) = (  -0.1414214  -0.1979899   0.1979899), wk =   0.0030720
        k(   33) = (  -0.1131371  -0.1697056   0.1697056), wk =   0.0030720
        k(   34) = (  -0.0848528  -0.1414214   0.1414214), wk =   0.0030720
        k(   35) = (  -0.0565685  -0.1131371   0.1131371), wk =   0.0030720
        k(   36) = (  -0.0282843  -0.0848528   0.0848528), wk =   0.0030720
        k(   37) = (  -0.0000000  -0.0565685   0.0565685), wk =   0.0015360
        k(   38) = (   0.1131371   0.0000000   0.0000000), wk =   0.0007680
        k(   39) = (   0.1414214   0.0282843  -0.0282843), wk =   0.0030720
        k(   40) = (   0.1697056   0.0565685  -0.0565685), wk =   0.0030720
        k(   41) = (   0.1979899   0.0848528  -0.0848528), wk =   0.0030720
        k(   42) = (   0.2262742   0.1131371  -0.1131371), wk =   0.0030720
        k(   43) = (   0.2545584   0.1414214  -0.1414214), wk =   0.0030720
        k(   44) = (   0.2828427   0.1697056  -0.1697056), wk =   0.0030720
        k(   45) = (   0.3111270   0.1979899  -0.1979899), wk =   0.0030720
        k(   46) = (   0.3394113   0.2262742  -0.2262742), wk =   0.0030720
        k(   47) = (   0.3676955   0.2545584  -0.2545584), wk =   0.0030720
        k(   48) = (   0.3959798   0.2828427  -0.2828427), wk =   0.0030720
        k(   49) = (  -0.2828427  -0.3959798   0.3959798), wk =   0.0030720
        k(   50) = (  -0.2545584  -0.3676955   0.3676955), wk =   0.0030720
        k(   51) = (  -0.2262742  -0.3394113   0.3394113), wk =   0.0030720
        k(   52) = (  -0.1979899  -0.3111270   0.3111270), wk =   0.0030720
        k(   53) = (  -0.1697056  -0.2828427   0.2828427), wk =   0.0030720
        k(   54) = (  -0.1414214  -0.2545584   0.2545584), wk =   0.0030720
        k(   55) = (  -0.1131371  -0.2262742   0.2262742), wk =   0.0030720
        k(   56) = (  -0.0848528  -0.1979899   0.1979899), wk =   0.0030720
        k(   57) = (  -0.0565685  -0.1697056   0.1697056), wk =   0.0030720
        k(   58) = (  -0.0282843  -0.1414214   0.1414214), wk =   0.0030720
        k(   59) = (   0.0000000  -0.1131371   0.1131371), wk =   0.0015360
        k(   60) = (   0.1697056   0.0000000   0.0000000), wk =   0.0007680
        k(   61) = (   0.1979899   0.0282843  -0.0282843), wk =   0.0030720
        k(   62) = (   0.2262742   0.0565685  -0.0565685), wk =   0.0030720
        k(   63) = (   0.2545584   0.0848528  -0.0848528), wk =   0.0030720
        k(   64) = (   0.2828427   0.1131371  -0.1131371), wk =   0.0030720
        k(   65) = (   0.3111270   0.1414214  -0.1414214), wk =   0.0030720
        k(   66) = (   0.3394113   0.1697056  -0.1697056), wk =   0.0030720
        k(   67) = (   0.3676955   0.1979899  -0.1979899), wk =   0.0030720
        k(   68) = (   0.3959798   0.2262742  -0.2262742), wk =   0.0030720
        k(   69) = (   0.4242641   0.2545584  -0.2545584), wk =   0.0030720
        k(   70) = (  -0.2545584  -0.4242641   0.4242641), wk =   0.0030720
        k(   71) = (  -0.2262742  -0.3959798   0.3959798), wk =   0.0030720
        k(   72) = (  -0.1979899  -0.3676955   0.3676955), wk =   0.0030720
        k(   73) = (  -0.1697056  -0.3394113   0.3394113), wk =   0.0030720
        k(   74) = (  -0.1414214  -0.3111270   0.3111270), wk =   0.0030720
        k(   75) = (  -0.1131371  -0.2828427   0.2828427), wk =   0.0030720
        k(   76) = (  -0.0848528  -0.2545584   0.2545584), wk =   0.0030720
        k(   77) = (  -0.0565685  -0.2262742   0.2262742), wk =   0.0030720
        k(   78) = (  -0.0282843  -0.1979899   0.1979899), wk =   0.0030720
        k(   79) = (   0.0000000  -0.1697056   0.1697056), wk =   0.0015360
        k(   80) = (   0.2262742   0.0000000   0.0000000), wk =   0.0007680
        k(   81) = (   0.2545584   0.0282843  -0.0282843), wk =   0.0030720
        k(   82) = (   0.2828427   0.0565685  -0.0565685), wk =   0.0030720
        k(   83) = (   0.3111270   0.0848528  -0.0848528), wk =   0.0030720
        k(   84) = (   0.3394113   0.1131371  -0.1131371), wk =   0.0030720
        k(   85) = (   0.3676955   0.1414214  -0.1414214), wk =   0.0030720
        k(   86) = (   0.3959798   0.1697056  -0.1697056), wk =   0.0030720
        k(   87) = (   0.4242641   0.1979899  -0.1979899), wk =   0.0030720
        k(   88) = (   0.4525483   0.2262742  -0.2262742), wk =   0.0030720
        k(   89) = (  -0.2262742  -0.4525483   0.4525483), wk =   0.0030720
        k(   90) = (  -0.1979899  -0.4242641   0.4242641), wk =   0.0030720
        k(   91) = (  -0.1697056  -0.3959798   0.3959798), wk =   0.0030720
        k(   92) = (  -0.1414214  -0.3676955   0.3676955), wk =   0.0030720
        k(   93) = (  -0.1131371  -0.3394113   0.3394113), wk =   0.0030720
        k(   94) = (  -0.0848528  -0.3111270   0.3111270), wk =   0.0030720
        k(   95) = (  -0.0565685  -0.2828427   0.2828427), wk =   0.0030720
        k(   96) = (  -0.0282843  -0.2545584   0.2545584), wk =   0.0030720
        k(   97) = (  -0.0000000  -0.2262742   0.2262742), wk =   0.0015360
        k(   98) = (   0.2828427   0.0000000   0.0000000), wk =   0.0007680
        k(   99) = (   0.3111270   0.0282843  -0.0282843), wk =   0.0030720
        k(  100) = (   0.3394113   0.0565685  -0.0565685), wk =   0.0030720
        k(  101) = (   0.3676955   0.0848528  -0.0848528), wk =   0.0030720
        k(  102) = (   0.3959798   0.1131371  -0.1131371), wk =   0.0030720
        k(  103) = (   0.4242641   0.1414214  -0.1414214), wk =   0.0030720
        k(  104) = (   0.4525483   0.1697056  -0.1697056), wk =   0.0030720
        k(  105) = (   0.4808326   0.1979899  -0.1979899), wk =   0.0030720
        k(  106) = (  -0.1979899  -0.4808326   0.4808326), wk =   0.0030720
        k(  107) = (  -0.1697056  -0.4525483   0.4525483), wk =   0.0030720
        k(  108) = (  -0.1414214  -0.4242641   0.4242641), wk =   0.0030720
        k(  109) = (  -0.1131371  -0.3959798   0.3959798), wk =   0.0030720
        k(  110) = (  -0.0848528  -0.3676955   0.3676955), wk =   0.0030720
        k(  111) = (  -0.0565685  -0.3394113   0.3394113), wk =   0.0030720
        k(  112) = (  -0.0282843  -0.3111270   0.3111270), wk =   0.0030720
        k(  113) = (   0.0000000  -0.2828427   0.2828427), wk =   0.0015360
        k(  114) = (   0.3394113   0.0000000   0.0000000), wk =   0.0007680
        k(  115) = (   0.3676955   0.0282843  -0.0282843), wk =   0.0030720
        k(  116) = (   0.3959798   0.0565685  -0.0565685), wk =   0.0030720
        k(  117) = (   0.4242641   0.0848528  -0.0848528), wk =   0.0030720
        k(  118) = (   0.4525483   0.1131371  -0.1131371), wk =   0.0030720
        k(  119) = (   0.4808326   0.1414214  -0.1414214), wk =   0.0030720
        k(  120) = (   0.5091169   0.1697056  -0.1697056), wk =   0.0030720
        k(  121) = (  -0.1697056  -0.5091169   0.5091169), wk =   0.0030720
        k(  122) = (  -0.1414214  -0.4808326   0.4808326), wk =   0.0030720
        k(  123) = (  -0.1131371  -0.4525483   0.4525483), wk =   0.0030720
        k(  124) = (  -0.0848528  -0.4242641   0.4242641), wk =   0.0030720
        k(  125) = (  -0.0565685  -0.3959798   0.3959798), wk =   0.0030720
        k(  126) = (  -0.0282843  -0.3676955   0.3676955), wk =   0.0030720
        k(  127) = (   0.0000000  -0.3394113   0.3394113), wk =   0.0015360
        k(  128) = (   0.3959798   0.0000000   0.0000000), wk =   0.0007680
        k(  129) = (   0.4242641   0.0282843  -0.0282843), wk =   0.0030720
        k(  130) = (   0.4525483   0.0565685  -0.0565685), wk =   0.0030720
        k(  131) = (   0.4808326   0.0848528  -0.0848528), wk =   0.0030720
        k(  132) = (   0.5091169   0.1131371  -0.1131371), wk =   0.0030720
        k(  133) = (   0.5374012   0.1414214  -0.1414214), wk =   0.0030720
        k(  134) = (  -0.1414214  -0.5374012   0.5374012), wk =   0.0030720
        k(  135) = (  -0.1131371  -0.5091169   0.5091169), wk =   0.0030720
        k(  136) = (  -0.0848528  -0.4808326   0.4808326), wk =   0.0030720
        k(  137) = (  -0.0565685  -0.4525483   0.4525483), wk =   0.0030720
        k(  138) = (  -0.0282843  -0.4242641   0.4242641), wk =   0.0030720
        k(  139) = (   0.0000000  -0.3959798   0.3959798), wk =   0.0015360
        k(  140) = (   0.4525483   0.0000000   0.0000000), wk =   0.0007680
        k(  141) = (   0.4808326   0.0282843  -0.0282843), wk =   0.0030720
        k(  142) = (   0.5091169   0.0565685  -0.0565685), wk =   0.0030720
        k(  143) = (   0.5374012   0.0848528  -0.0848528), wk =   0.0030720
        k(  144) = (   0.5656854   0.1131371  -0.1131371), wk =   0.0030720
        k(  145) = (  -0.1131371  -0.5656854   0.5656854), wk =   0.0030720
        k(  146) = (  -0.0848528  -0.5374012   0.5374012), wk =   0.0030720
        k(  147) = (  -0.0565685  -0.5091169   0.5091169), wk =   0.0030720
        k(  148) = (  -0.0282843  -0.4808326   0.4808326), wk =   0.0030720
        k(  149) = (   0.0000000  -0.4525483   0.4525483), wk =   0.0015360
        k(  150) = (   0.5091169   0.0000000   0.0000000), wk =   0.0007680
        k(  151) = (   0.5374012   0.0282843  -0.0282843), wk =   0.0030720
        k(  152) = (   0.5656854   0.0565685  -0.0565685), wk =   0.0030720
        k(  153) = (   0.5939697   0.0848528  -0.0848528), wk =   0.0030720
        k(  154) = (  -0.0848528  -0.5939697   0.5939697), wk =   0.0030720
        k(  155) = (  -0.0565685  -0.5656854   0.5656854), wk =   0.0030720
        k(  156) = (  -0.0282843  -0.5374012   0.5374012), wk =   0.0030720
        k(  157) = (   0.0000000  -0.5091169   0.5091169), wk =   0.0015360
        k(  158) = (   0.5656854   0.0000000   0.0000000), wk =   0.0007680
        k(  159) = (   0.5939697   0.0282843  -0.0282843), wk =   0.0030720
        k(  160) = (   0.6222540   0.0565685  -0.0565685), wk =   0.0030720
        k(  161) = (  -0.0565685  -0.6222540   0.6222540), wk =   0.0030720
        k(  162) = (  -0.0282843  -0.5939697   0.5939697), wk =   0.0030720
        k(  163) = (   0.0000000  -0.5656854   0.5656854), wk =   0.0015360
        k(  164) = (   0.6222540   0.0000000   0.0000000), wk =   0.0007680
        k(  165) = (   0.6505382   0.0282843  -0.0282843), wk =   0.0030720
        k(  166) = (  -0.0282843  -0.6505382   0.6505382), wk =   0.0030720
        k(  167) = (   0.0000000  -0.6222540   0.6222540), wk =   0.0015360
        k(  168) = (   0.6788225   0.0000000   0.0000000), wk =   0.0007680
        k(  169) = (   0.0000000  -0.6788225   0.6788225), wk =   0.0015360
        k(  170) = (   0.1131371   0.0565685   0.0000000), wk =   0.0030720
        k(  171) = (   0.1414214   0.0848528  -0.0282843), wk =   0.0061440
        k(  172) = (   0.1697056   0.1131371  -0.0565685), wk =   0.0061440
        k(  173) = (   0.1979899   0.1414214  -0.0848528), wk =   0.0061440
        k(  174) = (   0.2262742   0.1697056  -0.1131371), wk =   0.0061440
        k(  175) = (   0.2545584   0.1979899  -0.1414214), wk =   0.0061440
        k(  176) = (   0.2828427   0.2262742  -0.1697056), wk =   0.0061440
        k(  177) = (   0.3111270   0.2545584  -0.1979899), wk =   0.0061440
        k(  178) = (   0.3394113   0.2828427  -0.2262742), wk =   0.0061440
        k(  179) = (   0.3676955   0.3111270  -0.2545584), wk =   0.0061440
        k(  180) = (  -0.3111270  -0.3676955   0.4242641), wk =   0.0061440
        k(  181) = (   0.1697056   0.0565685   0.0000000), wk =   0.0030720
        k(  182) = (   0.1979899   0.0848528  -0.0282843), wk =   0.0061440
        k(  183) = (   0.2262742   0.1131371  -0.0565685), wk =   0.0061440
        k(  184) = (   0.2545584   0.1414214  -0.0848528), wk =   0.0061440
        k(  185) = (   0.2828427   0.1697056  -0.1131371), wk =   0.0061440
        k(  186) = (   0.3111270   0.1979899  -0.1414214), wk =   0.0061440
        k(  187) = (   0.3394113   0.2262742  -0.1697056), wk =   0.0061440
        k(  188) = (   0.3676955   0.2545584  -0.1979899), wk =   0.0061440
        k(  189) = (   0.3959798   0.2828427  -0.2262742), wk =   0.0061440
        k(  190) = (  -0.2828427  -0.3959798   0.4525483), wk =   0.0061440
        k(  191) = (  -0.2545584  -0.3676955   0.4242641), wk =   0.0061440
        k(  192) = (  -0.2262742  -0.3394113   0.3959798), wk =   0.0061440
        k(  193) = (  -0.1979899  -0.3111270   0.3676955), wk =   0.0061440
        k(  194) = (  -0.1697056  -0.2828427   0.3394113), wk =   0.0061440
        k(  195) = (  -0.1414214  -0.2545584   0.3111270), wk =   0.0061440
        k(  196) = (  -0.1131371  -0.2262742   0.2828427), wk =   0.0061440
        k(  197) = (  -0.0848528  -0.1979899   0.2545584), wk =   0.0061440
        k(  198) = (  -0.0565685  -0.1697056   0.2262742), wk =   0.0061440
        k(  199) = (  -0.0282843  -0.1414214   0.1979899), wk =   0.0061440
        k(  200) = (   0.0000000  -0.1131371   0.1697056), wk =   0.0030720
        k(  201) = (   0.2262742   0.0565685   0.0000000), wk =   0.0030720
        k(  202) = (   0.2545584   0.0848528  -0.0282843), wk =   0.0061440
        k(  203) = (   0.2828427   0.1131371  -0.0565685), wk =   0.0061440
        k(  204) = (   0.3111270   0.1414214  -0.0848528), wk =   0.0061440
        k(  205) = (   0.3394113   0.1697056  -0.1131371), wk =   0.0061440
        k(  206) = (   0.3676955   0.1979899  -0.1414214), wk =   0.0061440
        k(  207) = (   0.3959798   0.2262742  -0.1697056), wk =   0.0061440
        k(  208) = (   0.4242641   0.2545584  -0.1979899), wk =   0.0061440
        k(  209) = (  -0.2545584  -0.4242641   0.4808326), wk =   0.0061440
        k(  210) = (  -0.2262742  -0.3959798   0.4525483), wk =   0.0061440
        k(  211) = (  -0.1979899  -0.3676955   0.4242641), wk =   0.0061440
        k(  212) = (  -0.1697056  -0.3394113   0.3959798), wk =   0.0061440
        k(  213) = (  -0.1414214  -0.3111270   0.3676955), wk =   0.0061440
        k(  214) = (  -0.1131371  -0.2828427   0.3394113), wk =   0.0061440
        k(  215) = (  -0.0848528  -0.2545584   0.3111270), wk =   0.0061440
        k(  216) = (  -0.0565685  -0.2262742   0.2828427), wk =   0.0061440
        k(  217) = (  -0.0282843  -0.1979899   0.2545584), wk =   0.0061440
        k(  218) = (   0.0000000  -0.1697056   0.2262742), wk =   0.0030720
        k(  219) = (   0.2828427   0.0565685   0.0000000), wk =   0.0030720
        k(  220) = (   0.3111270   0.0848528  -0.0282843), wk =   0.0061440
        k(  221) = (   0.3394113   0.1131371  -0.0565685), wk =   0.0061440
        k(  222) = (   0.3676955   0.1414214  -0.0848528), wk =   0.0061440
        k(  223) = (   0.3959798   0.1697056  -0.1131371), wk =   0.0061440
        k(  224) = (   0.4242641   0.1979899  -0.1414214), wk =   0.0061440
        k(  225) = (   0.4525483   0.2262742  -0.1697056), wk =   0.0061440
        k(  226) = (  -0.2262742  -0.4525483   0.5091169), wk =   0.0061440
        k(  227) = (  -0.1979899  -0.4242641   0.4808326), wk =   0.0061440
        k(  228) = (  -0.1697056  -0.3959798   0.4525483), wk =   0.0061440
        k(  229) = (  -0.1414214  -0.3676955   0.4242641), wk =   0.0061440
        k(  230) = (  -0.1131371  -0.3394113   0.3959798), wk =   0.0061440
        k(  231) = (  -0.0848528  -0.3111270   0.3676955), wk =   0.0061440
        k(  232) = (  -0.0565685  -0.2828427   0.3394113), wk =   0.0061440
        k(  233) = (  -0.0282843  -0.2545584   0.3111270), wk =   0.0061440
        k(  234) = (  -0.0000000  -0.2262742   0.2828427), wk =   0.0030720
        k(  235) = (   0.3394113   0.0565685   0.0000000), wk =   0.0030720
        k(  236) = (   0.3676955   0.0848528  -0.0282843), wk =   0.0061440
        k(  237) = (   0.3959798   0.1131371  -0.0565685), wk =   0.0061440
        k(  238) = (   0.4242641   0.1414214  -0.0848528), wk =   0.0061440
        k(  239) = (   0.4525483   0.1697056  -0.1131371), wk =   0.0061440
        k(  240) = (   0.4808326   0.1979899  -0.1414214), wk =   0.0061440
        k(  241) = (  -0.1979899  -0.4808326   0.5374012), wk =   0.0061440
        k(  242) = (  -0.1697056  -0.4525483   0.5091169), wk =   0.0061440
        k(  243) = (  -0.1414214  -0.4242641   0.4808326), wk =   0.0061440
        k(  244) = (  -0.1131371  -0.3959798   0.4525483), wk =   0.0061440
        k(  245) = (  -0.0848528  -0.3676955   0.4242641), wk =   0.0061440
        k(  246) = (  -0.0565685  -0.3394113   0.3959798), wk =   0.0061440
        k(  247) = (  -0.0282843  -0.3111270   0.3676955), wk =   0.0061440
        k(  248) = (   0.0000000  -0.2828427   0.3394113), wk =   0.0030720
        k(  249) = (   0.3959798   0.0565685   0.0000000), wk =   0.0030720
        k(  250) = (   0.4242641   0.0848528  -0.0282843), wk =   0.0061440
        k(  251) = (   0.4525483   0.1131371  -0.0565685), wk =   0.0061440
        k(  252) = (   0.4808326   0.1414214  -0.0848528), wk =   0.0061440
        k(  253) = (   0.5091169   0.1697056  -0.1131371), wk =   0.0061440
        k(  254) = (  -0.1697056  -0.5091169   0.5656854), wk =   0.0061440
        k(  255) = (  -0.1414214  -0.4808326   0.5374012), wk =   0.0061440
        k(  256) = (  -0.1131371  -0.4525483   0.5091169), wk =   0.0061440
        k(  257) = (  -0.0848528  -0.4242641   0.4808326), wk =   0.0061440
        k(  258) = (  -0.0565685  -0.3959798   0.4525483), wk =   0.0061440
        k(  259) = (  -0.0282843  -0.3676955   0.4242641), wk =   0.0061440
        k(  260) = (   0.0000000  -0.3394113   0.3959798), wk =   0.0030720
        k(  261) = (   0.4525483   0.0565685   0.0000000), wk =   0.0030720
        k(  262) = (   0.4808326   0.0848528  -0.0282843), wk =   0.0061440
        k(  263) = (   0.5091169   0.1131371  -0.0565685), wk =   0.0061440
        k(  264) = (   0.5374012   0.1414214  -0.0848528), wk =   0.0061440
        k(  265) = (  -0.1414214  -0.5374012   0.5939697), wk =   0.0061440
        k(  266) = (  -0.1131371  -0.5091169   0.5656854), wk =   0.0061440
        k(  267) = (  -0.0848528  -0.4808326   0.5374012), wk =   0.0061440
        k(  268) = (  -0.0565685  -0.4525483   0.5091169), wk =   0.0061440
        k(  269) = (  -0.0282843  -0.4242641   0.4808326), wk =   0.0061440
        k(  270) = (   0.0000000  -0.3959798   0.4525483), wk =   0.0030720
        k(  271) = (   0.5091169   0.0565685  -0.0000000), wk =   0.0030720
        k(  272) = (   0.5374012   0.0848528  -0.0282843), wk =   0.0061440
        k(  273) = (   0.5656854   0.1131371  -0.0565685), wk =   0.0061440
        k(  274) = (  -0.1131371  -0.5656854   0.6222540), wk =   0.0061440
        k(  275) = (  -0.0848528  -0.5374012   0.5939697), wk =   0.0061440
        k(  276) = (  -0.0565685  -0.5091169   0.5656854), wk =   0.0061440
        k(  277) = (  -0.0282843  -0.4808326   0.5374012), wk =   0.0061440
        k(  278) = (   0.0000000  -0.4525483   0.5091169), wk =   0.0030720
        k(  279) = (   0.5656854   0.0565685   0.0000000), wk =   0.0030720
        k(  280) = (   0.5939697   0.0848528  -0.0282843), wk =   0.0061440
        k(  281) = (  -0.0848528  -0.5939697   0.6505382), wk =   0.0061440
        k(  282) = (  -0.0565685  -0.5656854   0.6222540), wk =   0.0061440
        k(  283) = (  -0.0282843  -0.5374012   0.5939697), wk =   0.0061440
        k(  284) = (   0.0000000  -0.5091169   0.5656854), wk =   0.0030720
        k(  285) = (   0.6222540   0.0565685   0.0000000), wk =   0.0030720
        k(  286) = (  -0.0565685  -0.6222540   0.6788225), wk =   0.0061440
        k(  287) = (  -0.0282843  -0.5939697   0.6505382), wk =   0.0061440
        k(  288) = (  -0.0000000  -0.5656854   0.6222540), wk =   0.0030720
        k(  289) = (  -0.0282843  -0.6505382   0.7071068), wk =   0.0030720
        k(  290) = (   0.0000000  -0.6222540   0.6788225), wk =   0.0030720
        k(  291) = (   0.2262742   0.1131371   0.0000000), wk =   0.0030720
        k(  292) = (   0.2545584   0.1414214  -0.0282843), wk =   0.0061440
        k(  293) = (   0.2828427   0.1697056  -0.0565685), wk =   0.0061440
        k(  294) = (   0.3111270   0.1979899  -0.0848528), wk =   0.0061440
        k(  295) = (   0.3394113   0.2262742  -0.1131371), wk =   0.0061440
        k(  296) = (   0.3676955   0.2545584  -0.1414214), wk =   0.0061440
        k(  297) = (   0.3959798   0.2828427  -0.1697056), wk =   0.0061440
        k(  298) = (  -0.2828427  -0.3959798   0.5091169), wk =   0.0061440
        k(  299) = (  -0.2545584  -0.3676955   0.4808326), wk =   0.0061440
        k(  300) = (   0.2828427   0.1131371   0.0000000), wk =   0.0030720
        k(  301) = (   0.3111270   0.1414214  -0.0282843), wk =   0.0061440
        k(  302) = (   0.3394113   0.1697056  -0.0565685), wk =   0.0061440
        k(  303) = (   0.3676955   0.1979899  -0.0848528), wk =   0.0061440
        k(  304) = (   0.3959798   0.2262742  -0.1131371), wk =   0.0061440
        k(  305) = (   0.4242641   0.2545584  -0.1414214), wk =   0.0061440
        k(  306) = (  -0.2545584  -0.4242641   0.5374012), wk =   0.0061440
        k(  307) = (  -0.2262742  -0.3959798   0.5091169), wk =   0.0061440
        k(  308) = (  -0.1979899  -0.3676955   0.4808326), wk =   0.0061440
        k(  309) = (  -0.1697056  -0.3394113   0.4525483), wk =   0.0061440
        k(  310) = (  -0.1414214  -0.3111270   0.4242641), wk =   0.0061440
        k(  311) = (  -0.1131371  -0.2828427   0.3959798), wk =   0.0061440
        k(  312) = (  -0.0848528  -0.2545584   0.3676955), wk =   0.0061440
        k(  313) = (  -0.0565685  -0.2262742   0.3394113), wk =   0.0061440
        k(  314) = (  -0.0282843  -0.1979899   0.3111270), wk =   0.0061440
        k(  315) = (   0.0000000  -0.1697056   0.2828427), wk =   0.0030720
        k(  316) = (   0.3394113   0.1131371   0.0000000), wk =   0.0030720
        k(  317) = (   0.3676955   0.1414214  -0.0282843), wk =   0.0061440
        k(  318) = (   0.3959798   0.1697056  -0.0565685), wk =   0.0061440
        k(  319) = (   0.4242641   0.1979899  -0.0848528), wk =   0.0061440
        k(  320) = (   0.4525483   0.2262742  -0.1131371), wk =   0.0061440
        k(  321) = (  -0.2262742  -0.4525483   0.5656854), wk =   0.0061440
        k(  322) = (  -0.1979899  -0.4242641   0.5374012), wk =   0.0061440
        k(  323) = (  -0.1697056  -0.3959798   0.5091169), wk =   0.0061440
        k(  324) = (  -0.1414214  -0.3676955   0.4808326), wk =   0.0061440
        k(  325) = (  -0.1131371  -0.3394113   0.4525483), wk =   0.0061440
        k(  326) = (  -0.0848528  -0.3111270   0.4242641), wk =   0.0061440
        k(  327) = (  -0.0565685  -0.2828427   0.3959798), wk =   0.0061440
        k(  328) = (  -0.0282843  -0.2545584   0.3676955), wk =   0.0061440
        k(  329) = (  -0.0000000  -0.2262742   0.3394113), wk =   0.0030720
        k(  330) = (   0.3959798   0.1131371   0.0000000), wk =   0.0030720
        k(  331) = (   0.4242641   0.1414214  -0.0282843), wk =   0.0061440
        k(  332) = (   0.4525483   0.1697056  -0.0565685), wk =   0.0061440
        k(  333) = (   0.4808326   0.1979899  -0.0848528), wk =   0.0061440
        k(  334) = (  -0.1979899  -0.4808326   0.5939697), wk =   0.0061440
        k(  335) = (  -0.1697056  -0.4525483   0.5656854), wk =   0.0061440
        k(  336) = (  -0.1414214  -0.4242641   0.5374012), wk =   0.0061440
        k(  337) = (  -0.1131371  -0.3959798   0.5091169), wk =   0.0061440
        k(  338) = (  -0.0848528  -0.3676955   0.4808326), wk =   0.0061440
        k(  339) = (  -0.0565685  -0.3394113   0.4525483), wk =   0.0061440
        k(  340) = (  -0.0282843  -0.3111270   0.4242641), wk =   0.0061440
        k(  341) = (   0.0000000  -0.2828427   0.3959798), wk =   0.0030720
        k(  342) = (   0.4525483   0.1131371   0.0000000), wk =   0.0030720
        k(  343) = (   0.4808326   0.1414214  -0.0282843), wk =   0.0061440
        k(  344) = (   0.5091169   0.1697056  -0.0565685), wk =   0.0061440
        k(  345) = (  -0.1697056  -0.5091169   0.6222540), wk =   0.0061440
        k(  346) = (  -0.1414214  -0.4808326   0.5939697), wk =   0.0061440
        k(  347) = (  -0.1131371  -0.4525483   0.5656854), wk =   0.0061440
        k(  348) = (  -0.0848528  -0.4242641   0.5374012), wk =   0.0061440
        k(  349) = (  -0.0565685  -0.3959798   0.5091169), wk =   0.0061440
        k(  350) = (  -0.0282843  -0.3676955   0.4808326), wk =   0.0061440
        k(  351) = (   0.0000000  -0.3394113   0.4525483), wk =   0.0030720
        k(  352) = (   0.5091169   0.1131371   0.0000000), wk =   0.0030720
        k(  353) = (   0.5374012   0.1414214  -0.0282843), wk =   0.0061440
        k(  354) = (  -0.1414214  -0.5374012   0.6505382), wk =   0.0061440
        k(  355) = (  -0.1131371  -0.5091169   0.6222540), wk =   0.0061440
        k(  356) = (  -0.0848528  -0.4808326   0.5939697), wk =   0.0061440
        k(  357) = (  -0.0565685  -0.4525483   0.5656854), wk =   0.0061440
        k(  358) = (  -0.0282843  -0.4242641   0.5374012), wk =   0.0061440
        k(  359) = (  -0.0000000  -0.3959798   0.5091169), wk =   0.0030720
        k(  360) = (   0.5656854   0.1131371   0.0000000), wk =   0.0030720
        k(  361) = (  -0.1131371  -0.5656854   0.6788225), wk =   0.0061440
        k(  362) = (  -0.0848528  -0.5374012   0.6505382), wk =   0.0061440
        k(  363) = (  -0.0565685  -0.5091169   0.6222540), wk =   0.0061440
        k(  364) = (  -0.0282843  -0.4808326   0.5939697), wk =   0.0061440
        k(  365) = (   0.0000000  -0.4525483   0.5656854), wk =   0.0030720
        k(  366) = (  -0.0848528  -0.5939697   0.7071068), wk =   0.0030720
        k(  367) = (  -0.0565685  -0.5656854   0.6788225), wk =   0.0061440
        k(  368) = (  -0.0282843  -0.5374012   0.6505382), wk =   0.0061440
        k(  369) = (   0.0000000  -0.5091169   0.6222540), wk =   0.0030720
        k(  370) = (  -0.0282843  -0.5939697   0.7071068), wk =   0.0030720
        k(  371) = (  -0.0000000  -0.5656854   0.6788225), wk =   0.0030720
        k(  372) = (   0.3394113   0.1697056   0.0000000), wk =   0.0030720
        k(  373) = (   0.3676955   0.1979899  -0.0282843), wk =   0.0061440
        k(  374) = (   0.3959798   0.2262742  -0.0565685), wk =   0.0061440
        k(  375) = (   0.4242641   0.2545584  -0.0848528), wk =   0.0061440
        k(  376) = (  -0.2545584  -0.4242641   0.5939697), wk =   0.0061440
        k(  377) = (  -0.2262742  -0.3959798   0.5656854), wk =   0.0061440
        k(  378) = (  -0.1979899  -0.3676955   0.5374012), wk =   0.0061440
        k(  379) = (   0.3959798   0.1697056  -0.0000000), wk =   0.0030720
        k(  380) = (   0.4242641   0.1979899  -0.0282843), wk =   0.0061440
        k(  381) = (   0.4525483   0.2262742  -0.0565685), wk =   0.0061440
        k(  382) = (  -0.2262742  -0.4525483   0.6222540), wk =   0.0061440
        k(  383) = (  -0.1979899  -0.4242641   0.5939697), wk =   0.0061440
        k(  384) = (  -0.1697056  -0.3959798   0.5656854), wk =   0.0061440
        k(  385) = (  -0.1414214  -0.3676955   0.5374012), wk =   0.0061440
        k(  386) = (  -0.1131371  -0.3394113   0.5091169), wk =   0.0061440
        k(  387) = (  -0.0848528  -0.3111270   0.4808326), wk =   0.0061440
        k(  388) = (  -0.0565685  -0.2828427   0.4525483), wk =   0.0061440
        k(  389) = (  -0.0282843  -0.2545584   0.4242641), wk =   0.0061440
        k(  390) = (  -0.0000000  -0.2262742   0.3959798), wk =   0.0030720
        k(  391) = (   0.4525483   0.1697056   0.0000000), wk =   0.0030720
        k(  392) = (   0.4808326   0.1979899  -0.0282843), wk =   0.0061440
        k(  393) = (  -0.1979899  -0.4808326   0.6505382), wk =   0.0061440
        k(  394) = (  -0.1697056  -0.4525483   0.6222540), wk =   0.0061440
        k(  395) = (  -0.1414214  -0.4242641   0.5939697), wk =   0.0061440
        k(  396) = (  -0.1131371  -0.3959798   0.5656854), wk =   0.0061440
        k(  397) = (  -0.0848528  -0.3676955   0.5374012), wk =   0.0061440
        k(  398) = (  -0.0565685  -0.3394113   0.5091169), wk =   0.0061440
        k(  399) = (  -0.0282843  -0.3111270   0.4808326), wk =   0.0061440
        k(  400) = (   0.0000000  -0.2828427   0.4525483), wk =   0.0030720
        k(  401) = (   0.5091169   0.1697056   0.0000000), wk =   0.0030720
        k(  402) = (  -0.1697056  -0.5091169   0.6788225), wk =   0.0061440
        k(  403) = (  -0.1414214  -0.4808326   0.6505382), wk =   0.0061440
        k(  404) = (  -0.1131371  -0.4525483   0.6222540), wk =   0.0061440
        k(  405) = (  -0.0848528  -0.4242641   0.5939697), wk =   0.0061440
        k(  406) = (  -0.0565685  -0.3959798   0.5656854), wk =   0.0061440
        k(  407) = (  -0.0282843  -0.3676955   0.5374012), wk =   0.0061440
        k(  408) = (  -0.0000000  -0.3394113   0.5091169), wk =   0.0030720
        k(  409) = (  -0.1414214  -0.5374012   0.7071068), wk =   0.0030720
        k(  410) = (  -0.1131371  -0.5091169   0.6788225), wk =   0.0061440
        k(  411) = (  -0.0848528  -0.4808326   0.6505382), wk =   0.0061440
        k(  412) = (  -0.0565685  -0.4525483   0.6222540), wk =   0.0061440
        k(  413) = (  -0.0282843  -0.4242641   0.5939697), wk =   0.0061440
        k(  414) = (   0.0000000  -0.3959798   0.5656854), wk =   0.0030720
        k(  415) = (  -0.0848528  -0.5374012   0.7071068), wk =   0.0030720
        k(  416) = (  -0.0565685  -0.5091169   0.6788225), wk =   0.0061440
        k(  417) = (  -0.0282843  -0.4808326   0.6505382), wk =   0.0061440
        k(  418) = (   0.0000000  -0.4525483   0.6222540), wk =   0.0030720
        k(  419) = (  -0.0282843  -0.5374012   0.7071068), wk =   0.0030720
        k(  420) = (   0.0000000  -0.5091169   0.6788225), wk =   0.0030720
        k(  421) = (   0.4525483   0.2262742   0.0000000), wk =   0.0030720
        k(  422) = (  -0.2262742  -0.4525483   0.6788225), wk =   0.0061440
        k(  423) = (  -0.1979899  -0.4242641   0.6505382), wk =   0.0061440
        k(  424) = (  -0.1697056  -0.3959798   0.6222540), wk =   0.0061440
        k(  425) = (  -0.1414214  -0.3676955   0.5939697), wk =   0.0061440
        k(  426) = (  -0.1979899  -0.4808326   0.7071068), wk =   0.0030720
        k(  427) = (  -0.1697056  -0.4525483   0.6788225), wk =   0.0061440
        k(  428) = (  -0.1414214  -0.4242641   0.6505382), wk =   0.0061440
        k(  429) = (  -0.1131371  -0.3959798   0.6222540), wk =   0.0061440
        k(  430) = (  -0.0848528  -0.3676955   0.5939697), wk =   0.0061440
        k(  431) = (  -0.0565685  -0.3394113   0.5656854), wk =   0.0061440
        k(  432) = (  -0.0282843  -0.3111270   0.5374012), wk =   0.0061440
        k(  433) = (   0.0000000  -0.2828427   0.5091169), wk =   0.0030720
        k(  434) = (  -0.1414214  -0.4808326   0.7071068), wk =   0.0030720
        k(  435) = (  -0.1131371  -0.4525483   0.6788225), wk =   0.0061440
        k(  436) = (  -0.0848528  -0.4242641   0.6505382), wk =   0.0061440
        k(  437) = (  -0.0565685  -0.3959798   0.6222540), wk =   0.0061440
        k(  438) = (  -0.0282843  -0.3676955   0.5939697), wk =   0.0061440
        k(  439) = (   0.0000000  -0.3394113   0.5656854), wk =   0.0030720
        k(  440) = (  -0.0848528  -0.4808326   0.7071068), wk =   0.0030720
        k(  441) = (  -0.0565685  -0.4525483   0.6788225), wk =   0.0061440
        k(  442) = (  -0.0282843  -0.4242641   0.6505382), wk =   0.0061440
        k(  443) = (  -0.0000000  -0.3959798   0.6222540), wk =   0.0030720
        k(  444) = (  -0.0282843  -0.4808326   0.7071068), wk =   0.0030720
        k(  445) = (   0.0000000  -0.4525483   0.6788225), wk =   0.0030720
        k(  446) = (  -0.1414214  -0.4242641   0.7071068), wk =   0.0030720
        k(  447) = (  -0.1131371  -0.3959798   0.6788225), wk =   0.0061440
        k(  448) = (  -0.0848528  -0.3676955   0.6505382), wk =   0.0061440
        k(  449) = (  -0.0848528  -0.4242641   0.7071068), wk =   0.0030720
        k(  450) = (  -0.0565685  -0.3959798   0.6788225), wk =   0.0061440
        k(  451) = (  -0.0282843  -0.3676955   0.6505382), wk =   0.0061440
        k(  452) = (  -0.0000000  -0.3394113   0.6222540), wk =   0.0030720
        k(  453) = (  -0.0282843  -0.4242641   0.7071068), wk =   0.0030720
        k(  454) = (  -0.0000000  -0.3959798   0.6788225), wk =   0.0030720
        k(  455) = (  -0.0282843  -0.3676955   0.7071068), wk =   0.0030720

                       cryst. coord.
        k(    1) = (   0.0000000   0.0000000   0.0000000), wk =   0.0001280
        k(    2) = (   0.0000000   0.0000000   0.0400000), wk =   0.0010240
        k(    3) = (   0.0000000   0.0000000   0.0800000), wk =   0.0010240
        k(    4) = (   0.0000000   0.0000000   0.1200000), wk =   0.0010240
        k(    5) = (   0.0000000   0.0000000   0.1600000), wk =   0.0010240
        k(    6) = (   0.0000000   0.0000000   0.2000000), wk =   0.0010240
        k(    7) = (   0.0000000   0.0000000   0.2400000), wk =   0.0010240
        k(    8) = (   0.0000000   0.0000000   0.2800000), wk =   0.0010240
        k(    9) = (   0.0000000   0.0000000   0.3200000), wk =   0.0010240
        k(   10) = (   0.0000000   0.0000000   0.3600000), wk =   0.0010240
        k(   11) = (   0.0000000   0.0000000   0.4000000), wk =   0.0010240
        k(   12) = (   0.0000000   0.0000000   0.4400000), wk =   0.0010240
        k(   13) = (   0.0000000   0.0000000   0.4800000), wk =   0.0010240
        k(   14) = (   0.0000000   0.0400000   0.0400000), wk =   0.0007680
        k(   15) = (   0.0000000   0.0400000   0.0800000), wk =   0.0030720
        k(   16) = (   0.0000000   0.0400000   0.1200000), wk =   0.0030720
        k(   17) = (   0.0000000   0.0400000   0.1600000), wk =   0.0030720
        k(   18) = (   0.0000000   0.0400000   0.2000000), wk =   0.0030720
        k(   19) = (   0.0000000   0.0400000   0.2400000), wk =   0.0030720
        k(   20) = (   0.0000000   0.0400000   0.2800000), wk =   0.0030720
        k(   21) = (   0.0000000   0.0400000   0.3200000), wk =   0.0030720
        k(   22) = (   0.0000000   0.0400000   0.3600000), wk =   0.0030720
        k(   23) = (   0.0000000   0.0400000   0.4000000), wk =   0.0030720
        k(   24) = (   0.0000000   0.0400000   0.4400000), wk =   0.0030720
        k(   25) = (   0.0000000   0.0400000   0.4800000), wk =   0.0030720
        k(   26) = (   0.0000000   0.0400000  -0.4800000), wk =   0.0030720
        k(   27) = (   0.0000000   0.0400000  -0.4400000), wk =   0.0030720
        k(   28) = (   0.0000000   0.0400000  -0.4000000), wk =   0.0030720
        k(   29) = (   0.0000000   0.0400000  -0.3600000), wk =   0.0030720
        k(   30) = (   0.0000000   0.0400000  -0.3200000), wk =   0.0030720
        k(   31) = (   0.0000000   0.0400000  -0.2800000), wk =   0.0030720
        k(   32) = (   0.0000000   0.0400000  -0.2400000), wk =   0.0030720
        k(   33) = (   0.0000000   0.0400000  -0.2000000), wk =   0.0030720
        k(   34) = (   0.0000000   0.0400000  -0.1600000), wk =   0.0030720
        k(   35) = (   0.0000000   0.0400000  -0.1200000), wk =   0.0030720
        k(   36) = (   0.0000000   0.0400000  -0.0800000), wk =   0.0030720
        k(   37) = (   0.0000000   0.0400000  -0.0400000), wk =   0.0015360
        k(   38) = (   0.0000000   0.0800000   0.0800000), wk =   0.0007680
        k(   39) = (   0.0000000   0.0800000   0.1200000), wk =   0.0030720
        k(   40) = (   0.0000000   0.0800000   0.1600000), wk =   0.0030720
        k(   41) = (   0.0000000   0.0800000   0.2000000), wk =   0.0030720
        k(   42) = (   0.0000000   0.0800000   0.2400000), wk =   0.0030720
        k(   43) = (   0.0000000   0.0800000   0.2800000), wk =   0.0030720
        k(   44) = (   0.0000000   0.0800000   0.3200000), wk =   0.0030720
        k(   45) = (   0.0000000   0.0800000   0.3600000), wk =   0.0030720
        k(   46) = (   0.0000000   0.0800000   0.4000000), wk =   0.0030720
        k(   47) = (   0.0000000   0.0800000   0.4400000), wk =   0.0030720
        k(   48) = (   0.0000000   0.0800000   0.4800000), wk =   0.0030720
        k(   49) = (   0.0000000   0.0800000  -0.4800000), wk =   0.0030720
        k(   50) = (   0.0000000   0.0800000  -0.4400000), wk =   0.0030720
        k(   51) = (   0.0000000   0.0800000  -0.4000000), wk =   0.0030720
        k(   52) = (   0.0000000   0.0800000  -0.3600000), wk =   0.0030720
        k(   53) = (   0.0000000   0.0800000  -0.3200000), wk =   0.0030720
        k(   54) = (   0.0000000   0.0800000  -0.2800000), wk =   0.0030720
        k(   55) = (   0.0000000   0.0800000  -0.2400000), wk =   0.0030720
        k(   56) = (   0.0000000   0.0800000  -0.2000000), wk =   0.0030720
        k(   57) = (   0.0000000   0.0800000  -0.1600000), wk =   0.0030720
        k(   58) = (   0.0000000   0.0800000  -0.1200000), wk =   0.0030720
        k(   59) = (   0.0000000   0.0800000  -0.0800000), wk =   0.0015360
        k(   60) = (   0.0000000   0.1200000   0.1200000), wk =   0.0007680
        k(   61) = (   0.0000000   0.1200000   0.1600000), wk =   0.0030720
        k(   62) = (   0.0000000   0.1200000   0.2000000), wk =   0.0030720
        k(   63) = (   0.0000000   0.1200000   0.2400000), wk =   0.0030720
        k(   64) = (   0.0000000   0.1200000   0.2800000), wk =   0.0030720
        k(   65) = (   0.0000000   0.1200000   0.3200000), wk =   0.0030720
        k(   66) = (   0.0000000   0.1200000   0.3600000), wk =   0.0030720
        k(   67) = (   0.0000000   0.1200000   0.4000000), wk =   0.0030720
        k(   68) = (   0.0000000   0.1200000   0.4400000), wk =   0.0030720
        k(   69) = (   0.0000000   0.1200000   0.4800000), wk =   0.0030720
        k(   70) = (   0.0000000   0.1200000  -0.4800000), wk =   0.0030720
        k(   71) = (   0.0000000   0.1200000  -0.4400000), wk =   0.0030720
        k(   72) = (   0.0000000   0.1200000  -0.4000000), wk =   0.0030720
        k(   73) = (   0.0000000   0.1200000  -0.3600000), wk =   0.0030720
        k(   74) = (   0.0000000   0.1200000  -0.3200000), wk =   0.0030720
        k(   75) = (   0.0000000   0.1200000  -0.2800000), wk =   0.0030720
        k(   76) = (   0.0000000   0.1200000  -0.2400000), wk =   0.0030720
        k(   77) = (   0.0000000   0.1200000  -0.2000000), wk =   0.0030720
        k(   78) = (   0.0000000   0.1200000  -0.1600000), wk =   0.0030720
        k(   79) = (   0.0000000   0.1200000  -0.1200000), wk =   0.0015360
        k(   80) = (   0.0000000   0.1600000   0.1600000), wk =   0.0007680
        k(   81) = (   0.0000000   0.1600000   0.2000000), wk =   0.0030720
        k(   82) = (   0.0000000   0.1600000   0.2400000), wk =   0.0030720
        k(   83) = (   0.0000000   0.1600000   0.2800000), wk =   0.0030720
        k(   84) = (   0.0000000   0.1600000   0.3200000), wk =   0.0030720
        k(   85) = (   0.0000000   0.1600000   0.3600000), wk =   0.0030720
        k(   86) = (   0.0000000   0.1600000   0.4000000), wk =   0.0030720
        k(   87) = (   0.0000000   0.1600000   0.4400000), wk =   0.0030720
        k(   88) = (   0.0000000   0.1600000   0.4800000), wk =   0.0030720
        k(   89) = (   0.0000000   0.1600000  -0.4800000), wk =   0.0030720
        k(   90) = (   0.0000000   0.1600000  -0.4400000), wk =   0.0030720
        k(   91) = (   0.0000000   0.1600000  -0.4000000), wk =   0.0030720
        k(   92) = (   0.0000000   0.1600000  -0.3600000), wk =   0.0030720
        k(   93) = (   0.0000000   0.1600000  -0.3200000), wk =   0.0030720
        k(   94) = (   0.0000000   0.1600000  -0.2800000), wk =   0.0030720
        k(   95) = (   0.0000000   0.1600000  -0.2400000), wk =   0.0030720
        k(   96) = (   0.0000000   0.1600000  -0.2000000), wk =   0.0030720
        k(   97) = (   0.0000000   0.1600000  -0.1600000), wk =   0.0015360
        k(   98) = (   0.0000000   0.2000000   0.2000000), wk =   0.0007680
        k(   99) = (   0.0000000   0.2000000   0.2400000), wk =   0.0030720
        k(  100) = (   0.0000000   0.2000000   0.2800000), wk =   0.0030720
        k(  101) = (   0.0000000   0.2000000   0.3200000), wk =   0.0030720
        k(  102) = (   0.0000000   0.2000000   0.3600000), wk =   0.0030720
        k(  103) = (   0.0000000   0.2000000   0.4000000), wk =   0.0030720
        k(  104) = (   0.0000000   0.2000000   0.4400000), wk =   0.0030720
        k(  105) = (   0.0000000   0.2000000   0.4800000), wk =   0.0030720
        k(  106) = (   0.0000000   0.2000000  -0.4800000), wk =   0.0030720
        k(  107) = (   0.0000000   0.2000000  -0.4400000), wk =   0.0030720
        k(  108) = (   0.0000000   0.2000000  -0.4000000), wk =   0.0030720
        k(  109) = (   0.0000000   0.2000000  -0.3600000), wk =   0.0030720
        k(  110) = (   0.0000000   0.2000000  -0.3200000), wk =   0.0030720
        k(  111) = (   0.0000000   0.2000000  -0.2800000), wk =   0.0030720
        k(  112) = (   0.0000000   0.2000000  -0.2400000), wk =   0.0030720
        k(  113) = (   0.0000000   0.2000000  -0.2000000), wk =   0.0015360
        k(  114) = (   0.0000000   0.2400000   0.2400000), wk =   0.0007680
        k(  115) = (   0.0000000   0.2400000   0.2800000), wk =   0.0030720
        k(  116) = (   0.0000000   0.2400000   0.3200000), wk =   0.0030720
        k(  117) = (   0.0000000   0.2400000   0.3600000), wk =   0.0030720
        k(  118) = (   0.0000000   0.2400000   0.4000000), wk =   0.0030720
        k(  119) = (   0.0000000   0.2400000   0.4400000), wk =   0.0030720
        k(  120) = (   0.0000000   0.2400000   0.4800000), wk =   0.0030720
        k(  121) = (   0.0000000   0.2400000  -0.4800000), wk =   0.0030720
        k(  122) = (   0.0000000   0.2400000  -0.4400000), wk =   0.0030720
        k(  123) = (   0.0000000   0.2400000  -0.4000000), wk =   0.0030720
        k(  124) = (   0.0000000   0.2400000  -0.3600000), wk =   0.0030720
        k(  125) = (   0.0000000   0.2400000  -0.3200000), wk =   0.0030720
        k(  126) = (   0.0000000   0.2400000  -0.2800000), wk =   0.0030720
        k(  127) = (   0.0000000   0.2400000  -0.2400000), wk =   0.0015360
        k(  128) = (   0.0000000   0.2800000   0.2800000), wk =   0.0007680
        k(  129) = (   0.0000000   0.2800000   0.3200000), wk =   0.0030720
        k(  130) = (   0.0000000   0.2800000   0.3600000), wk =   0.0030720
        k(  131) = (   0.0000000   0.2800000   0.4000000), wk =   0.0030720
        k(  132) = (   0.0000000   0.2800000   0.4400000), wk =   0.0030720
        k(  133) = (   0.0000000   0.2800000   0.4800000), wk =   0.0030720
        k(  134) = (   0.0000000   0.2800000  -0.4800000), wk =   0.0030720
        k(  135) = (   0.0000000   0.2800000  -0.4400000), wk =   0.0030720
        k(  136) = (   0.0000000   0.2800000  -0.4000000), wk =   0.0030720
        k(  137) = (   0.0000000   0.2800000  -0.3600000), wk =   0.0030720
        k(  138) = (   0.0000000   0.2800000  -0.3200000), wk =   0.0030720
        k(  139) = (   0.0000000   0.2800000  -0.2800000), wk =   0.0015360
        k(  140) = (   0.0000000   0.3200000   0.3200000), wk =   0.0007680
        k(  141) = (   0.0000000   0.3200000   0.3600000), wk =   0.0030720
        k(  142) = (   0.0000000   0.3200000   0.4000000), wk =   0.0030720
        k(  143) = (   0.0000000   0.3200000   0.4400000), wk =   0.0030720
        k(  144) = (   0.0000000   0.3200000   0.4800000), wk =   0.0030720
        k(  145) = (   0.0000000   0.3200000  -0.4800000), wk =   0.0030720
        k(  146) = (   0.0000000   0.3200000  -0.4400000), wk =   0.0030720
        k(  147) = (   0.0000000   0.3200000  -0.4000000), wk =   0.0030720
        k(  148) = (   0.0000000   0.3200000  -0.3600000), wk =   0.0030720
        k(  149) = (   0.0000000   0.3200000  -0.3200000), wk =   0.0015360
        k(  150) = (   0.0000000   0.3600000   0.3600000), wk =   0.0007680
        k(  151) = (   0.0000000   0.3600000   0.4000000), wk =   0.0030720
        k(  152) = (   0.0000000   0.3600000   0.4400000), wk =   0.0030720
        k(  153) = (   0.0000000   0.3600000   0.4800000), wk =   0.0030720
        k(  154) = (   0.0000000   0.3600000  -0.4800000), wk =   0.0030720
        k(  155) = (   0.0000000   0.3600000  -0.4400000), wk =   0.0030720
        k(  156) = (   0.0000000   0.3600000  -0.4000000), wk =   0.0030720
        k(  157) = (   0.0000000   0.3600000  -0.3600000), wk =   0.0015360
        k(  158) = (   0.0000000   0.4000000   0.4000000), wk =   0.0007680
        k(  159) = (   0.0000000   0.4000000   0.4400000), wk =   0.0030720
        k(  160) = (   0.0000000   0.4000000   0.4800000), wk =   0.0030720
        k(  161) = (   0.0000000   0.4000000  -0.4800000), wk =   0.0030720
        k(  162) = (   0.0000000   0.4000000  -0.4400000), wk =   0.0030720
        k(  163) = (   0.0000000   0.4000000  -0.4000000), wk =   0.0015360
        k(  164) = (   0.0000000   0.4400000   0.4400000), wk =   0.0007680
        k(  165) = (   0.0000000   0.4400000   0.4800000), wk =   0.0030720
        k(  166) = (   0.0000000   0.4400000  -0.4800000), wk =   0.0030720
        k(  167) = (   0.0000000   0.4400000  -0.4400000), wk =   0.0015360
        k(  168) = (   0.0000000   0.4800000   0.4800000), wk =   0.0007680
        k(  169) = (   0.0000000   0.4800000  -0.4800000), wk =   0.0015360
        k(  170) = (   0.0400000   0.0800000   0.1200000), wk =   0.0030720
        k(  171) = (   0.0400000   0.0800000   0.1600000), wk =   0.0061440
        k(  172) = (   0.0400000   0.0800000   0.2000000), wk =   0.0061440
        k(  173) = (   0.0400000   0.0800000   0.2400000), wk =   0.0061440
        k(  174) = (   0.0400000   0.0800000   0.2800000), wk =   0.0061440
        k(  175) = (   0.0400000   0.0800000   0.3200000), wk =   0.0061440
        k(  176) = (   0.0400000   0.0800000   0.3600000), wk =   0.0061440
        k(  177) = (   0.0400000   0.0800000   0.4000000), wk =   0.0061440
        k(  178) = (   0.0400000   0.0800000   0.4400000), wk =   0.0061440
        k(  179) = (   0.0400000   0.0800000   0.4800000), wk =   0.0061440
        k(  180) = (   0.0400000   0.0800000  -0.4800000), wk =   0.0061440
        k(  181) = (   0.0400000   0.1200000   0.1600000), wk =   0.0030720
        k(  182) = (   0.0400000   0.1200000   0.2000000), wk =   0.0061440
        k(  183) = (   0.0400000   0.1200000   0.2400000), wk =   0.0061440
        k(  184) = (   0.0400000   0.1200000   0.2800000), wk =   0.0061440
        k(  185) = (   0.0400000   0.1200000   0.3200000), wk =   0.0061440
        k(  186) = (   0.0400000   0.1200000   0.3600000), wk =   0.0061440
        k(  187) = (   0.0400000   0.1200000   0.4000000), wk =   0.0061440
        k(  188) = (   0.0400000   0.1200000   0.4400000), wk =   0.0061440
        k(  189) = (   0.0400000   0.1200000   0.4800000), wk =   0.0061440
        k(  190) = (   0.0400000   0.1200000  -0.4800000), wk =   0.0061440
        k(  191) = (   0.0400000   0.1200000  -0.4400000), wk =   0.0061440
        k(  192) = (   0.0400000   0.1200000  -0.4000000), wk =   0.0061440
        k(  193) = (   0.0400000   0.1200000  -0.3600000), wk =   0.0061440
        k(  194) = (   0.0400000   0.1200000  -0.3200000), wk =   0.0061440
        k(  195) = (   0.0400000   0.1200000  -0.2800000), wk =   0.0061440
        k(  196) = (   0.0400000   0.1200000  -0.2400000), wk =   0.0061440
        k(  197) = (   0.0400000   0.1200000  -0.2000000), wk =   0.0061440
        k(  198) = (   0.0400000   0.1200000  -0.1600000), wk =   0.0061440
        k(  199) = (   0.0400000   0.1200000  -0.1200000), wk =   0.0061440
        k(  200) = (   0.0400000   0.1200000  -0.0800000), wk =   0.0030720
        k(  201) = (   0.0400000   0.1600000   0.2000000), wk =   0.0030720
        k(  202) = (   0.0400000   0.1600000   0.2400000), wk =   0.0061440
        k(  203) = (   0.0400000   0.1600000   0.2800000), wk =   0.0061440
        k(  204) = (   0.0400000   0.1600000   0.3200000), wk =   0.0061440
        k(  205) = (   0.0400000   0.1600000   0.3600000), wk =   0.0061440
        k(  206) = (   0.0400000   0.1600000   0.4000000), wk =   0.0061440
        k(  207) = (   0.0400000   0.1600000   0.4400000), wk =   0.0061440
        k(  208) = (   0.0400000   0.1600000   0.4800000), wk =   0.0061440
        k(  209) = (   0.0400000   0.1600000  -0.4800000), wk =   0.0061440
        k(  210) = (   0.0400000   0.1600000  -0.4400000), wk =   0.0061440
        k(  211) = (   0.0400000   0.1600000  -0.4000000), wk =   0.0061440
        k(  212) = (   0.0400000   0.1600000  -0.3600000), wk =   0.0061440
        k(  213) = (   0.0400000   0.1600000  -0.3200000), wk =   0.0061440
        k(  214) = (   0.0400000   0.1600000  -0.2800000), wk =   0.0061440
        k(  215) = (   0.0400000   0.1600000  -0.2400000), wk =   0.0061440
        k(  216) = (   0.0400000   0.1600000  -0.2000000), wk =   0.0061440
        k(  217) = (   0.0400000   0.1600000  -0.1600000), wk =   0.0061440
        k(  218) = (   0.0400000   0.1600000  -0.1200000), wk =   0.0030720
        k(  219) = (   0.0400000   0.2000000   0.2400000), wk =   0.0030720
        k(  220) = (   0.0400000   0.2000000   0.2800000), wk =   0.0061440
        k(  221) = (   0.0400000   0.2000000   0.3200000), wk =   0.0061440
        k(  222) = (   0.0400000   0.2000000   0.3600000), wk =   0.0061440
        k(  223) = (   0.0400000   0.2000000   0.4000000), wk =   0.0061440
        k(  224) = (   0.0400000   0.2000000   0.4400000), wk =   0.0061440
        k(  225) = (   0.0400000   0.2000000   0.4800000), wk =   0.0061440
        k(  226) = (   0.0400000   0.2000000  -0.4800000), wk =   0.0061440
        k(  227) = (   0.0400000   0.2000000  -0.4400000), wk =   0.0061440
        k(  228) = (   0.0400000   0.2000000  -0.4000000), wk =   0.0061440
        k(  229) = (   0.0400000   0.2000000  -0.3600000), wk =   0.0061440
        k(  230) = (   0.0400000   0.2000000  -0.3200000), wk =   0.0061440
        k(  231) = (   0.0400000   0.2000000  -0.2800000), wk =   0.0061440
        k(  232) = (   0.0400000   0.2000000  -0.2400000), wk =   0.0061440
        k(  233) = (   0.0400000   0.2000000  -0.2000000), wk =   0.0061440
        k(  234) = (   0.0400000   0.2000000  -0.1600000), wk =   0.0030720
        k(  235) = (   0.0400000   0.2400000   0.2800000), wk =   0.0030720
        k(  236) = (   0.0400000   0.2400000   0.3200000), wk =   0.0061440
        k(  237) = (   0.0400000   0.2400000   0.3600000), wk =   0.0061440
        k(  238) = (   0.0400000   0.2400000   0.4000000), wk =   0.0061440
        k(  239) = (   0.0400000   0.2400000   0.4400000), wk =   0.0061440
        k(  240) = (   0.0400000   0.2400000   0.4800000), wk =   0.0061440
        k(  241) = (   0.0400000   0.2400000  -0.4800000), wk =   0.0061440
        k(  242) = (   0.0400000   0.2400000  -0.4400000), wk =   0.0061440
        k(  243) = (   0.0400000   0.2400000  -0.4000000), wk =   0.0061440
        k(  244) = (   0.0400000   0.2400000  -0.3600000), wk =   0.0061440
        k(  245) = (   0.0400000   0.2400000  -0.3200000), wk =   0.0061440
        k(  246) = (   0.0400000   0.2400000  -0.2800000), wk =   0.0061440
        k(  247) = (   0.0400000   0.2400000  -0.2400000), wk =   0.0061440
        k(  248) = (   0.0400000   0.2400000  -0.2000000), wk =   0.0030720
        k(  249) = (   0.0400000   0.2800000   0.3200000), wk =   0.0030720
        k(  250) = (   0.0400000   0.2800000   0.3600000), wk =   0.0061440
        k(  251) = (   0.0400000   0.2800000   0.4000000), wk =   0.0061440
        k(  252) = (   0.0400000   0.2800000   0.4400000), wk =   0.0061440
        k(  253) = (   0.0400000   0.2800000   0.4800000), wk =   0.0061440
        k(  254) = (   0.0400000   0.2800000  -0.4800000), wk =   0.0061440
        k(  255) = (   0.0400000   0.2800000  -0.4400000), wk =   0.0061440
        k(  256) = (   0.0400000   0.2800000  -0.4000000), wk =   0.0061440
        k(  257) = (   0.0400000   0.2800000  -0.3600000), wk =   0.0061440
        k(  258) = (   0.0400000   0.2800000  -0.3200000), wk =   0.0061440
        k(  259) = (   0.0400000   0.2800000  -0.2800000), wk =   0.0061440
        k(  260) = (   0.0400000   0.2800000  -0.2400000), wk =   0.0030720
        k(  261) = (   0.0400000   0.3200000   0.3600000), wk =   0.0030720
        k(  262) = (   0.0400000   0.3200000   0.4000000), wk =   0.0061440
        k(  263) = (   0.0400000   0.3200000   0.4400000), wk =   0.0061440
        k(  264) = (   0.0400000   0.3200000   0.4800000), wk =   0.0061440
        k(  265) = (   0.0400000   0.3200000  -0.4800000), wk =   0.0061440
        k(  266) = (   0.0400000   0.3200000  -0.4400000), wk =   0.0061440
        k(  267) = (   0.0400000   0.3200000  -0.4000000), wk =   0.0061440
        k(  268) = (   0.0400000   0.3200000  -0.3600000), wk =   0.0061440
        k(  269) = (   0.0400000   0.3200000  -0.3200000), wk =   0.0061440
        k(  270) = (   0.0400000   0.3200000  -0.2800000), wk =   0.0030720
        k(  271) = (   0.0400000   0.3600000   0.4000000), wk =   0.0030720
        k(  272) = (   0.0400000   0.3600000   0.4400000), wk =   0.0061440
        k(  273) = (   0.0400000   0.3600000   0.4800000), wk =   0.0061440
        k(  274) = (   0.0400000   0.3600000  -0.4800000), wk =   0.0061440
        k(  275) = (   0.0400000   0.3600000  -0.4400000), wk =   0.0061440
        k(  276) = (   0.0400000   0.3600000  -0.4000000), wk =   0.0061440
        k(  277) = (   0.0400000   0.3600000  -0.3600000), wk =   0.0061440
        k(  278) = (   0.0400000   0.3600000  -0.3200000), wk =   0.0030720
        k(  279) = (   0.0400000   0.4000000   0.4400000), wk =   0.0030720
        k(  280) = (   0.0400000   0.4000000   0.4800000), wk =   0.0061440
        k(  281) = (   0.0400000   0.4000000  -0.4800000), wk =   0.0061440
        k(  282) = (   0.0400000   0.4000000  -0.4400000), wk =   0.0061440
        k(  283) = (   0.0400000   0.4000000  -0.4000000), wk =   0.0061440
        k(  284) = (   0.0400000   0.4000000  -0.3600000), wk =   0.0030720
        k(  285) = (   0.0400000   0.4400000   0.4800000), wk =   0.0030720
        k(  286) = (   0.0400000   0.4400000  -0.4800000), wk =   0.0061440
        k(  287) = (   0.0400000   0.4400000  -0.4400000), wk =   0.0061440
        k(  288) = (   0.0400000   0.4400000  -0.4000000), wk =   0.0030720
        k(  289) = (   0.0400000   0.4800000  -0.4800000), wk =   0.0030720
        k(  290) = (   0.0400000   0.4800000  -0.4400000), wk =   0.0030720
        k(  291) = (   0.0800000   0.1600000   0.2400000), wk =   0.0030720
        k(  292) = (   0.0800000   0.1600000   0.2800000), wk =   0.0061440
        k(  293) = (   0.0800000   0.1600000   0.3200000), wk =   0.0061440
        k(  294) = (   0.0800000   0.1600000   0.3600000), wk =   0.0061440
        k(  295) = (   0.0800000   0.1600000   0.4000000), wk =   0.0061440
        k(  296) = (   0.0800000   0.1600000   0.4400000), wk =   0.0061440
        k(  297) = (   0.0800000   0.1600000   0.4800000), wk =   0.0061440
        k(  298) = (   0.0800000   0.1600000  -0.4800000), wk =   0.0061440
        k(  299) = (   0.0800000   0.1600000  -0.4400000), wk =   0.0061440
        k(  300) = (   0.0800000   0.2000000   0.2800000), wk =   0.0030720
        k(  301) = (   0.0800000   0.2000000   0.3200000), wk =   0.0061440
        k(  302) = (   0.0800000   0.2000000   0.3600000), wk =   0.0061440
        k(  303) = (   0.0800000   0.2000000   0.4000000), wk =   0.0061440
        k(  304) = (   0.0800000   0.2000000   0.4400000), wk =   0.0061440
        k(  305) = (   0.0800000   0.2000000   0.4800000), wk =   0.0061440
        k(  306) = (   0.0800000   0.2000000  -0.4800000), wk =   0.0061440
        k(  307) = (   0.0800000   0.2000000  -0.4400000), wk =   0.0061440
        k(  308) = (   0.0800000   0.2000000  -0.4000000), wk =   0.0061440
        k(  309) = (   0.0800000   0.2000000  -0.3600000), wk =   0.0061440
        k(  310) = (   0.0800000   0.2000000  -0.3200000), wk =   0.0061440
        k(  311) = (   0.0800000   0.2000000  -0.2800000), wk =   0.0061440
        k(  312) = (   0.0800000   0.2000000  -0.2400000), wk =   0.0061440
        k(  313) = (   0.0800000   0.2000000  -0.2000000), wk =   0.0061440
        k(  314) = (   0.0800000   0.2000000  -0.1600000), wk =   0.0061440
        k(  315) = (   0.0800000   0.2000000  -0.1200000), wk =   0.0030720
        k(  316) = (   0.0800000   0.2400000   0.3200000), wk =   0.0030720
        k(  317) = (   0.0800000   0.2400000   0.3600000), wk =   0.0061440
        k(  318) = (   0.0800000   0.2400000   0.4000000), wk =   0.0061440
        k(  319) = (   0.0800000   0.2400000   0.4400000), wk =   0.0061440
        k(  320) = (   0.0800000   0.2400000   0.4800000), wk =   0.0061440
        k(  321) = (   0.0800000   0.2400000  -0.4800000), wk =   0.0061440
        k(  322) = (   0.0800000   0.2400000  -0.4400000), wk =   0.0061440
        k(  323) = (   0.0800000   0.2400000  -0.4000000), wk =   0.0061440
        k(  324) = (   0.0800000   0.2400000  -0.3600000), wk =   0.0061440
        k(  325) = (   0.0800000   0.2400000  -0.3200000), wk =   0.0061440
        k(  326) = (   0.0800000   0.2400000  -0.2800000), wk =   0.0061440
        k(  327) = (   0.0800000   0.2400000  -0.2400000), wk =   0.0061440
        k(  328) = (   0.0800000   0.2400000  -0.2000000), wk =   0.0061440
        k(  329) = (   0.0800000   0.2400000  -0.1600000), wk =   0.0030720
        k(  330) = (   0.0800000   0.2800000   0.3600000), wk =   0.0030720
        k(  331) = (   0.0800000   0.2800000   0.4000000), wk =   0.0061440
        k(  332) = (   0.0800000   0.2800000   0.4400000), wk =   0.0061440
        k(  333) = (   0.0800000   0.2800000   0.4800000), wk =   0.0061440
        k(  334) = (   0.0800000   0.2800000  -0.4800000), wk =   0.0061440
        k(  335) = (   0.0800000   0.2800000  -0.4400000), wk =   0.0061440
        k(  336) = (   0.0800000   0.2800000  -0.4000000), wk =   0.0061440
        k(  337) = (   0.0800000   0.2800000  -0.3600000), wk =   0.0061440
        k(  338) = (   0.0800000   0.2800000  -0.3200000), wk =   0.0061440
        k(  339) = (   0.0800000   0.2800000  -0.2800000), wk =   0.0061440
        k(  340) = (   0.0800000   0.2800000  -0.2400000), wk =   0.0061440
        k(  341) = (   0.0800000   0.2800000  -0.2000000), wk =   0.0030720
        k(  342) = (   0.0800000   0.3200000   0.4000000), wk =   0.0030720
        k(  343) = (   0.0800000   0.3200000   0.4400000), wk =   0.0061440
        k(  344) = (   0.0800000   0.3200000   0.4800000), wk =   0.0061440
        k(  345) = (   0.0800000   0.3200000  -0.4800000), wk =   0.0061440
        k(  346) = (   0.0800000   0.3200000  -0.4400000), wk =   0.0061440
        k(  347) = (   0.0800000   0.3200000  -0.4000000), wk =   0.0061440
        k(  348) = (   0.0800000   0.3200000  -0.3600000), wk =   0.0061440
        k(  349) = (   0.0800000   0.3200000  -0.3200000), wk =   0.0061440
        k(  350) = (   0.0800000   0.3200000  -0.2800000), wk =   0.0061440
        k(  351) = (   0.0800000   0.3200000  -0.2400000), wk =   0.0030720
        k(  352) = (   0.0800000   0.3600000   0.4400000), wk =   0.0030720
        k(  353) = (   0.0800000   0.3600000   0.4800000), wk =   0.0061440
        k(  354) = (   0.0800000   0.3600000  -0.4800000), wk =   0.0061440
        k(  355) = (   0.0800000   0.3600000  -0.4400000), wk =   0.0061440
        k(  356) = (   0.0800000   0.3600000  -0.4000000), wk =   0.0061440
        k(  357) = (   0.0800000   0.3600000  -0.3600000), wk =   0.0061440
        k(  358) = (   0.0800000   0.3600000  -0.3200000), wk =   0.0061440
        k(  359) = (   0.0800000   0.3600000  -0.2800000), wk =   0.0030720
        k(  360) = (   0.0800000   0.4000000   0.4800000), wk =   0.0030720
        k(  361) = (   0.0800000   0.4000000  -0.4800000), wk =   0.0061440
        k(  362) = (   0.0800000   0.4000000  -0.4400000), wk =   0.0061440
        k(  363) = (   0.0800000   0.4000000  -0.4000000), wk =   0.0061440
        k(  364) = (   0.0800000   0.4000000  -0.3600000), wk =   0.0061440
        k(  365) = (   0.0800000   0.4000000  -0.3200000), wk =   0.0030720
        k(  366) = (   0.0800000   0.4400000  -0.4800000), wk =   0.0030720
        k(  367) = (   0.0800000   0.4400000  -0.4400000), wk =   0.0061440
        k(  368) = (   0.0800000   0.4400000  -0.4000000), wk =   0.0061440
        k(  369) = (   0.0800000   0.4400000  -0.3600000), wk =   0.0030720
        k(  370) = (   0.0800000   0.4800000  -0.4400000), wk =   0.0030720
        k(  371) = (   0.0800000   0.4800000  -0.4000000), wk =   0.0030720
        k(  372) = (   0.1200000   0.2400000   0.3600000), wk =   0.0030720
        k(  373) = (   0.1200000   0.2400000   0.4000000), wk =   0.0061440
        k(  374) = (   0.1200000   0.2400000   0.4400000), wk =   0.0061440
        k(  375) = (   0.1200000   0.2400000   0.4800000), wk =   0.0061440
        k(  376) = (   0.1200000   0.2400000  -0.4800000), wk =   0.0061440
        k(  377) = (   0.1200000   0.2400000  -0.4400000), wk =   0.0061440
        k(  378) = (   0.1200000   0.2400000  -0.4000000), wk =   0.0061440
        k(  379) = (   0.1200000   0.2800000   0.4000000), wk =   0.0030720
        k(  380) = (   0.1200000   0.2800000   0.4400000), wk =   0.0061440
        k(  381) = (   0.1200000   0.2800000   0.4800000), wk =   0.0061440
        k(  382) = (   0.1200000   0.2800000  -0.4800000), wk =   0.0061440
        k(  383) = (   0.1200000   0.2800000  -0.4400000), wk =   0.0061440
        k(  384) = (   0.1200000   0.2800000  -0.4000000), wk =   0.0061440
        k(  385) = (   0.1200000   0.2800000  -0.3600000), wk =   0.0061440
        k(  386) = (   0.1200000   0.2800000  -0.3200000), wk =   0.0061440
        k(  387) = (   0.1200000   0.2800000  -0.2800000), wk =   0.0061440
        k(  388) = (   0.1200000   0.2800000  -0.2400000), wk =   0.0061440
        k(  389) = (   0.1200000   0.2800000  -0.2000000), wk =   0.0061440
        k(  390) = (   0.1200000   0.2800000  -0.1600000), wk =   0.0030720
        k(  391) = (   0.1200000   0.3200000   0.4400000), wk =   0.0030720
        k(  392) = (   0.1200000   0.3200000   0.4800000), wk =   0.0061440
        k(  393) = (   0.1200000   0.3200000  -0.4800000), wk =   0.0061440
        k(  394) = (   0.1200000   0.3200000  -0.4400000), wk =   0.0061440
        k(  395) = (   0.1200000   0.3200000  -0.4000000), wk =   0.0061440
        k(  396) = (   0.1200000   0.3200000  -0.3600000), wk =   0.0061440
        k(  397) = (   0.1200000   0.3200000  -0.3200000), wk =   0.0061440
        k(  398) = (   0.1200000   0.3200000  -0.2800000), wk =   0.0061440
        k(  399) = (   0.1200000   0.3200000  -0.2400000), wk =   0.0061440
        k(  400) = (   0.1200000   0.3200000  -0.2000000), wk =   0.0030720
        k(  401) = (   0.1200000   0.3600000   0.4800000), wk =   0.0030720
        k(  402) = (   0.1200000   0.3600000  -0.4800000), wk =   0.0061440
        k(  403) = (   0.1200000   0.3600000  -0.4400000), wk =   0.0061440
        k(  404) = (   0.1200000   0.3600000  -0.4000000), wk =   0.0061440
        k(  405) = (   0.1200000   0.3600000  -0.3600000), wk =   0.0061440
        k(  406) = (   0.1200000   0.3600000  -0.3200000), wk =   0.0061440
        k(  407) = (   0.1200000   0.3600000  -0.2800000), wk =   0.0061440
        k(  408) = (   0.1200000   0.3600000  -0.2400000), wk =   0.0030720
        k(  409) = (   0.1200000   0.4000000  -0.4800000), wk =   0.0030720
        k(  410) = (   0.1200000   0.4000000  -0.4400000), wk =   0.0061440
        k(  411) = (   0.1200000   0.4000000  -0.4000000), wk =   0.0061440
        k(  412) = (   0.1200000   0.4000000  -0.3600000), wk =   0.0061440
        k(  413) = (   0.1200000   0.4000000  -0.3200000), wk =   0.0061440
        k(  414) = (   0.1200000   0.4000000  -0.2800000), wk =   0.0030720
[...]
     9.4157   9.6641

     occupation numbers 
     1.0000   1.0000   1.0000   1.0000   1.0000   1.0000   1.0000   1.0000
     1.0000   1.0000   1.0000   1.0000   1.0000   1.0000   0.0000   0.0000
     0.0000   0.0000

          k =-0.0283-0.4808 0.6505 (  6005 PWs)   bands (ev):

   -14.1128 -14.1055 -13.9717 -13.9402 -13.8929 -13.8745 -13.8567 -13.8275
   -13.6923 -13.6851   0.0512   0.5465   4.7219   5.1878   9.2897   9.4130
     9.4164  10.1496

     occupation numbers 
     1.0000   1.0000   1.0000   1.0000   1.0000   1.0000   1.0000   1.0000
     1.0000   1.0000   1.0000   1.0000   1.0000   1.0000   0.0000   0.0000
     0.0000   0.0000

          k = 0.0000-0.4525 0.6223 (  6007 PWs)   bands (ev):

   -14.1152 -14.1052 -13.9712 -13.9281 -13.8937 -13.8757 -13.8671 -13.8278
   -13.6926 -13.6828   0.0104   0.5955   4.5981   5.2636   9.3465   9.4132
     9.4184  10.6831

     occupation numbers 
     1.0000   1.0000   1.0000   1.0000   1.0000   1.0000   1.0000   1.0000
     1.0000   1.0000   1.0000   1.0000   1.0000   1.0000   0.0000   0.0000
     0.0000   0.0000

          k =-0.0283-0.5374 0.7071 (  6014 PWs)   bands (ev):

   -14.1063 -14.1059 -13.9762 -13.9600 -13.8901 -13.8744 -13.8393 -13.8237
   -13.6918 -13.6915   0.0922   0.4837   5.0219   5.0863   9.1569   9.2288
     9.4138   9.4161

     occupation numbers 
     1.0000   1.0000   1.0000   1.0000   1.0000   1.0000   1.0000   1.0000
     1.0000   1.0000   1.0000   1.0000   1.0000   1.0000   0.0000   0.0000
     0.0000   0.0000

          k = 0.0000-0.5091 0.6788 (  6016 PWs)   bands (ev):

   -14.1098 -14.1060 -13.9689 -13.9561 -13.8850 -13.8807 -13.8425 -13.8305
   -13.6917 -13.6880   0.2171   0.3661   4.8736   5.1050   9.2328   9.4122
     9.4156   9.6407

     occupation numbers 
     1.0000   1.0000   1.0000   1.0000   1.0000   1.0000   1.0000   1.0000
     1.0000   1.0000   1.0000   1.0000   1.0000   1.0000   0.0000   0.0000
     0.0000   0.0000

          k = 0.4525 0.2263 0.0000 (  6028 PWs)   bands (ev):

   -14.1016 -14.0975 -14.0125 -13.9482 -13.9118 -13.8782 -13.8185 -13.7930
   -13.7018 -13.6998  -1.1512   2.0110   5.0141   5.9080   9.4114   9.4139
     9.7216   9.8055

     occupation numbers 
     1.0000   1.0000   1.0000   1.0000   1.0000   1.0000   1.0000   1.0000
     1.0000   1.0000   1.0000   1.0000   1.0000   1.0000   0.0000   0.0000
     0.0000   0.0000

          k =-0.2263-0.4525 0.6788 (  6030 PWs)   bands (ev):

   -14.1061 -14.0995 -14.0026 -13.9419 -13.9065 -13.8824 -13.8262 -13.8029
   -13.6996 -13.6942  -0.9583   1.7298   4.8577   5.7912   9.4115   9.4141
     9.7176  10.1345

     occupation numbers 
     1.0000   1.0000   1.0000   1.0000   1.0000   1.0000   1.0000   1.0000
     1.0000   1.0000   1.0000   1.0000   1.0000   1.0000   0.0000   0.0000
     0.0000   0.0000

          k =-0.1980-0.4243 0.6505 (  6027 PWs)   bands (ev):

   -14.1100 -14.1008 -13.9940 -13.9354 -13.9037 -13.8841 -13.8349 -13.8108
   -13.6980 -13.6896  -0.7680   1.4678   4.7445   5.6915   9.4116   9.4141
     9.6979  10.4136

     occupation numbers 
     1.0000   1.0000   1.0000   1.0000   1.0000   1.0000   1.0000   1.0000
     1.0000   1.0000   1.0000   1.0000   1.0000   1.0000   0.0000   0.0000
     0.0000   0.0000

          k =-0.1697-0.3960 0.6223 (  6014 PWs)   bands (ev):

   -14.1127 -14.1016 -13.9876 -13.9294 -13.9032 -13.8837 -13.8431 -13.8160
   -13.6970 -13.6864  -0.6030   1.2522   4.6717   5.6196   9.4115   9.4141
     9.6837  10.5448

     occupation numbers 
     1.0000   1.0000   1.0000   1.0000   1.0000   1.0000   1.0000   1.0000
     1.0000   1.0000   1.0000   1.0000   1.0000   1.0000   0.0000   0.0000
     0.0000   0.0000

          k =-0.1414-0.3677 0.5940 (  6012 PWs)   bands (ev):

   -14.1141 -14.1020 -13.9842 -13.9256 -13.9033 -13.8830 -13.8484 -13.8186
   -13.6965 -13.6847  -0.5012   1.1241   4.6362   5.5821   9.4114   9.4141
     9.6766  10.5792

     occupation numbers 
     1.0000   1.0000   1.0000   1.0000   1.0000   1.0000   1.0000   1.0000
     1.0000   1.0000   1.0000   1.0000   1.0000   1.0000   0.0000   0.0000
     0.0000   0.0000

          k =-0.1980-0.4808 0.7071 (  6032 PWs)   bands (ev):

   -14.1053 -14.1010 -14.0033 -13.9355 -13.8967 -13.8958 -13.8314 -13.7999
   -13.6979 -13.6947  -0.8684   1.6218   4.9065   5.6075   9.4117   9.4140
     9.7168   9.8433

     occupation numbers 
     1.0000   1.0000   1.0000   1.0000   1.0000   1.0000   1.0000   1.0000
     1.0000   1.0000   1.0000   1.0000   1.0000   1.0000   0.0000   0.0000
     0.0000   0.0000

          k =-0.1697-0.4525 0.6788 (  6032 PWs)   bands (ev):

   -14.1092 -14.1029 -13.9927 -13.9288 -13.9008 -13.8907 -13.8398 -13.8101
   -13.6958 -13.6900  -0.6735   1.3694   4.7769   5.4996   9.4119   9.4142
     9.7833  10.1777

     occupation numbers 
     1.0000   1.0000   1.0000   1.0000   1.0000   1.0000   1.0000   1.0000
     1.0000   1.0000   1.0000   1.0000   1.0000   1.0000   0.0000   0.0000
     0.0000   0.0000

          k =-0.1414-0.4243 0.6505 (  6023 PWs)   bands (ev):

   -14.1125 -14.1039 -13.9838 -13.9227 -13.9024 -13.8880 -13.8483 -13.8180
   -13.6945 -13.6863  -0.4929   1.1475   4.6781   5.4246   9.4119   9.4143
     9.7937  10.5446

     occupation numbers 
     1.0000   1.0000   1.0000   1.0000   1.0000   1.0000   1.0000   1.0000
     1.0000   1.0000   1.0000   1.0000   1.0000   1.0000   0.0000   0.0000
     0.0000   0.0000

          k =-0.1131-0.3960 0.6223 (  6013 PWs)   bands (ev):

   -14.1146 -14.1045 -13.9780 -13.9186 -13.9000 -13.8889 -13.8549 -13.8228
   -13.6938 -13.6839  -0.3622   0.9934   4.6104   5.3910   9.4120   9.4144
     9.8130  10.7356

     occupation numbers 
     1.0000   1.0000   1.0000   1.0000   1.0000   1.0000   1.0000   1.0000
     1.0000   1.0000   1.0000   1.0000   1.0000   1.0000   0.0000   0.0000
     0.0000   0.0000

          k =-0.0849-0.3677 0.5940 (  6010 PWs)   bands (ev):

   -14.1153 -14.1046 -13.9760 -13.9177 -13.8960 -13.8918 -13.8574 -13.8244
   -13.6936 -13.6831  -0.3310   0.9577   4.5758   5.4012   9.4120   9.4143
     9.8404  10.7645

     occupation numbers 
     1.0000   1.0000   1.0000   1.0000   1.0000   1.0000   1.0000   1.0000
     1.0000   1.0000   1.0000   1.0000   1.0000   1.0000   0.0000   0.0000
     0.0000   0.0000

          k =-0.0566-0.3394 0.5657 (  6009 PWs)   bands (ev):

   -14.1147 -14.1042 -13.9782 -13.9207 -13.8964 -13.8909 -13.8542 -13.8229
   -13.6940 -13.6839  -0.4155   1.0564   4.5785   5.4532   9.4120   9.4143
     9.8710  10.7270

     occupation numbers 
     1.0000   1.0000   1.0000   1.0000   1.0000   1.0000   1.0000   1.0000
     1.0000   1.0000   1.0000   1.0000   1.0000   1.0000   0.0000   0.0000
     0.0000   0.0000

          k =-0.0283-0.3111 0.5374 (  6023 PWs)   bands (ev):

   -14.1128 -14.1034 -13.9839 -13.9273 -13.8959 -13.8915 -13.8458 -13.8187
   -13.6950 -13.6863  -0.5751   1.2468   4.6235   5.5415   9.4120   9.4144
     9.8946  10.5930

     occupation numbers 
     1.0000   1.0000   1.0000   1.0000   1.0000   1.0000   1.0000   1.0000
     1.0000   1.0000   1.0000   1.0000   1.0000   1.0000   0.0000   0.0000
     0.0000   0.0000

          k = 0.0000-0.2828 0.5091 (  6028 PWs)   bands (ev):

   -14.1097 -14.1019 -13.9924 -13.9348 -13.8997 -13.8884 -13.8356 -13.8120
   -13.6967 -13.6899  -0.7647   1.4809   4.7155   5.6580   9.4119   9.4143
     9.8808  10.3253

     occupation numbers 
     1.0000   1.0000   1.0000   1.0000   1.0000   1.0000   1.0000   1.0000
     1.0000   1.0000   1.0000   1.0000   1.0000   1.0000   0.0000   0.0000
     0.0000   0.0000

          k =-0.1414-0.4808 0.7071 (  6028 PWs)   bands (ev):

   -14.1079 -14.1043 -13.9923 -13.9215 -13.9148 -13.8797 -13.8455 -13.8091
   -13.6942 -13.6910  -0.5607   1.2353   4.8479   5.3499   9.4118   9.4140
     9.6635   9.8401

     occupation numbers 
     1.0000   1.0000   1.0000   1.0000   1.0000   1.0000   1.0000   1.0000
     1.0000   1.0000   1.0000   1.0000   1.0000   1.0000   0.0000   0.0000
     0.0000   0.0000

          k =-0.1131-0.4525 0.6788 (  6015 PWs)   bands (ev):

   -14.1112 -14.1059 -13.9811 -13.9183 -13.9143 -13.8759 -13.8541 -13.8195
   -13.6924 -13.6873  -0.3685   1.0124   4.7444   5.2567   9.4120   9.4143
     9.7663  10.2045

     occupation numbers 
     1.0000   1.0000   1.0000   1.0000   1.0000   1.0000   1.0000   1.0000
     1.0000   1.0000   1.0000   1.0000   1.0000   1.0000   0.0000   0.0000
     0.0000   0.0000

          k =-0.0849-0.4243 0.6505 (  6017 PWs)   bands (ev):

   -14.1139 -14.1065 -13.9728 -13.9186 -13.9077 -13.8760 -13.8615 -13.8267
   -13.6916 -13.6843  -0.2116   0.8385   4.6525   5.2196   9.4120   9.4143
     9.8033  10.6660

     occupation numbers 
     1.0000   1.0000   1.0000   1.0000   1.0000   1.0000   1.0000   1.0000
     1.0000   1.0000   1.0000   1.0000   1.0000   1.0000   0.0000   0.0000
     0.0000   0.0000

          k =-0.0566-0.3960 0.6223 (  6013 PWs)   bands (ev):

   -14.1155 -14.1066 -13.9691 -13.9155 -13.9039 -13.8797 -13.8656 -13.8296
   -13.6914 -13.6826  -0.1504   0.7735   4.5824   5.2381   9.4121   9.4144
     9.8477  11.0113

     occupation numbers 
     1.0000   1.0000   1.0000   1.0000   1.0000   1.0000   1.0000   1.0000
     1.0000   1.0000   1.0000   1.0000   1.0000   1.0000   0.0000   0.0000
     0.0000   0.0000

          k =-0.0283-0.3677 0.5940 (  6012 PWs)   bands (ev):

   -14.1158 -14.1061 -13.9705 -13.9116 -13.9054 -13.8825 -13.8650 -13.8285
   -13.6919 -13.6825  -0.2246   0.8555   4.5476   5.3042   9.4121   9.4144
     9.8960  11.0718

     occupation numbers 
     1.0000   1.0000   1.0000   1.0000   1.0000   1.0000   1.0000   1.0000
     1.0000   1.0000   1.0000   1.0000   1.0000   1.0000   0.0000   0.0000
     0.0000   0.0000

          k = 0.0000-0.3394 0.5657 (  6015 PWs)   bands (ev):

   -14.1148 -14.1051 -13.9758 -13.9182 -13.9002 -13.8875 -13.8570 -13.8246
   -13.6930 -13.6838  -0.3850   1.0329   4.5589   5.4085   9.4121   9.4144
     9.9296  10.9021

     occupation numbers 
     1.0000   1.0000   1.0000   1.0000   1.0000   1.0000   1.0000   1.0000
     1.0000   1.0000   1.0000   1.0000   1.0000   1.0000   0.0000   0.0000
     0.0000   0.0000

          k =-0.0849-0.4808 0.7071 (  6012 PWs)   bands (ev):

   -14.1094 -14.1070 -13.9795 -13.9325 -13.9067 -13.8637 -13.8605 -13.8205
   -13.6911 -13.6888  -0.2311   0.8537   4.8407   5.1419   9.4117   9.4139
     9.6463   9.7786

     occupation numbers 
     1.0000   1.0000   1.0000   1.0000   1.0000   1.0000   1.0000   1.0000
     1.0000   1.0000   1.0000   1.0000   1.0000   1.0000   0.0000   0.0000
     0.0000   0.0000

          k =-0.0566-0.4525 0.6788 (  6013 PWs)   bands (ev):

   -14.1121 -14.1080 -13.9684 -13.9341 -13.9000 -13.8693 -13.8611 -13.8304
   -13.6899 -13.6858  -0.0504   0.6638   4.7546   5.0777   9.4120   9.4142
     9.7448  10.1945

     occupation numbers 
     1.0000   1.0000   1.0000   1.0000   1.0000   1.0000   1.0000   1.0000
     1.0000   1.0000   1.0000   1.0000   1.0000   1.0000   0.0000   0.0000
     0.0000   0.0000

          k =-0.0283-0.4243 0.6505 (  6016 PWs)   bands (ev):

   -14.1145 -14.1080 -13.9634 -13.9295 -13.8960 -13.8758 -13.8643 -13.8346
   -13.6898 -13.6834   0.0367   0.5772   4.6523   5.1021   9.4121   9.4144
     9.7960  10.7059

     occupation numbers 
     1.0000   1.0000   1.0000   1.0000   1.0000   1.0000   1.0000   1.0000
     1.0000   1.0000   1.0000   1.0000   1.0000   1.0000   0.0000   0.0000
     0.0000   0.0000

          k =-0.0000-0.3960 0.6223 (  6012 PWs)   bands (ev):

   -14.1158 -14.1074 -13.9651 -13.9191 -13.9003 -13.8736 -13.8726 -13.8328
   -13.6905 -13.6823  -0.0507   0.6715   4.5756   5.1836   9.4121   9.4144
     9.8522  11.1469

     occupation numbers 
     1.0000   1.0000   1.0000   1.0000   1.0000   1.0000   1.0000   1.0000
     1.0000   1.0000   1.0000   1.0000   1.0000   1.0000   0.0000   0.0000
     0.0000   0.0000

          k =-0.0283-0.4808 0.7071 (  6014 PWs)   bands (ev):

   -14.1097 -14.1088 -13.9651 -13.9493 -13.8914 -13.8759 -13.8482 -13.8337
   -13.6890 -13.6882   0.1170   0.4798   4.8867   4.9870   9.4116   9.4138
     9.6637   9.7114

     occupation numbers 
     1.0000   1.0000   1.0000   1.0000   1.0000   1.0000   1.0000   1.0000
     1.0000   1.0000   1.0000   1.0000   1.0000   1.0000   0.0000   0.0000
     0.0000   0.0000

          k = 0.0000-0.4525 0.6788 (  6016 PWs)   bands (ev):

   -14.1124 -14.1089 -13.9592 -13.9446 -13.8877 -13.8816 -13.8519 -13.8386
   -13.6889 -13.6855   0.2043   0.3991   4.7743   5.0012   9.4120   9.4142
     9.7367  10.1863

     occupation numbers 
     1.0000   1.0000   1.0000   1.0000   1.0000   1.0000   1.0000   1.0000
     1.0000   1.0000   1.0000   1.0000   1.0000   1.0000   0.0000   0.0000
     0.0000   0.0000

          k =-0.1414-0.4243 0.7071 (  6022 PWs)   bands (ev):

   -14.1118 -14.1053 -13.9817 -13.9215 -13.9060 -13.8848 -13.8494 -13.8197
   -13.6930 -13.6870  -0.4782   1.1411   4.6816   5.3641   9.4121   9.4144
    10.1162  10.2645

     occupation numbers 
     1.0000   1.0000   1.0000   1.0000   1.0000   1.0000   1.0000   1.0000
     1.0000   1.0000   1.0000   1.0000   1.0000   1.0000   0.0000   0.0000
     0.0000   0.0000

          k =-0.1131-0.3960 0.6788 (  6013 PWs)   bands (ev):

   -14.1140 -14.1067 -13.9728 -13.9151 -13.9091 -13.8806 -13.8587 -13.8269
   -13.6914 -13.6844  -0.2984   0.9383   4.6225   5.2622   9.4122   9.4145
    10.1526  10.6051

     occupation numbers 
     1.0000   1.0000   1.0000   1.0000   1.0000   1.0000   1.0000   1.0000
     1.0000   1.0000   1.0000   1.0000   1.0000   1.0000   0.0000   0.0000
     0.0000   0.0000

          k =-0.0849-0.3677 0.6505 (  6014 PWs)   bands (ev):

   -14.1152 -14.1073 -13.9677 -13.9150 -13.9053 -13.8803 -13.8641 -13.8310
   -13.6907 -13.6830  -0.1770   0.8050   4.5949   5.2074   9.4122   9.4145
    10.1575  10.7734

     occupation numbers 
     1.0000   1.0000   1.0000   1.0000   1.0000   1.0000   1.0000   1.0000
     1.0000   1.0000   1.0000   1.0000   1.0000   1.0000   0.0000   0.0000
     0.0000   0.0000

          k =-0.0849-0.4243 0.7071 (  6010 PWs)   bands (ev):

   -14.1127 -14.1084 -13.9693 -13.9232 -13.9075 -13.8699 -13.8637 -13.8298
   -13.6896 -13.6855  -0.1743   0.8036   4.7035   5.1158   9.4122   9.4144
    10.2204  10.2336

     occupation numbers 
     1.0000   1.0000   1.0000   1.0000   1.0000   1.0000   1.0000   1.0000
     1.0000   1.0000   1.0000   1.0000   1.0000   1.0000   0.0000   0.0000
     0.0000   0.0000

          k =-0.0566-0.3960 0.6788 (  6002 PWs)   bands (ev):

   -14.1141 -14.1095 -13.9605 -13.9261 -13.9009 -13.8730 -13.8659 -13.8370
   -13.6884 -13.6839  -0.0163   0.6389   4.6713   5.0392   9.4123   9.4145
    10.2574  10.6876

     occupation numbers 
     1.0000   1.0000   1.0000   1.0000   1.0000   1.0000   1.0000   1.0000
     1.0000   1.0000   1.0000   1.0000   1.0000   1.0000   0.0000   0.0000
     0.0000   0.0000

          k =-0.0283-0.3677 0.6505 (  6013 PWs)   bands (ev):

   -14.1149 -14.1095 -13.9586 -13.9240 -13.8994 -13.8760 -13.8671 -13.8383
   -13.6884 -13.6830   0.0137   0.6091   4.6355   5.0482   9.4123   9.4146
    10.2901  10.9524

     occupation numbers 
     1.0000   1.0000   1.0000   1.0000   1.0000   1.0000   1.0000   1.0000
     1.0000   1.0000   1.0000   1.0000   1.0000   1.0000   0.0000   0.0000
     0.0000   0.0000

          k =-0.0000-0.3394 0.6223 (  6009 PWs)   bands (ev):

   -14.1149 -14.1085 -13.9638 -13.9176 -13.9058 -13.8732 -13.8689 -13.8341
   -13.6894 -13.6832  -0.1131   0.7421   4.6120   5.1304   9.4123   9.4145
    10.2951  10.8420

     occupation numbers 
     1.0000   1.0000   1.0000   1.0000   1.0000   1.0000   1.0000   1.0000
     1.0000   1.0000   1.0000   1.0000   1.0000   1.0000   0.0000   0.0000
     0.0000   0.0000

          k =-0.0283-0.4243 0.7071 (  6007 PWs)   bands (ev):

   -14.1123 -14.1108 -13.9552 -13.9397 -13.8930 -13.8783 -13.8554 -13.8419
   -13.6870 -13.6856   0.1430   0.4701   4.7830   4.9208   9.4122   9.4144
    10.2282  10.2351

     occupation numbers 
     1.0000   1.0000   1.0000   1.0000   1.0000   1.0000   1.0000   1.0000
     1.0000   1.0000   1.0000   1.0000   1.0000   1.0000   0.0000   0.0000
     0.0000   0.0000

          k =-0.0000-0.3960 0.6788 (  6014 PWs)   bands (ev):

   -14.1138 -14.1108 -13.9516 -13.9361 -13.8912 -13.8822 -13.8579 -13.8444
   -13.6870 -13.6841   0.1880   0.4290   4.7230   4.9285   9.4123   9.4145
    10.2750  10.7242

     occupation numbers 
     1.0000   1.0000   1.0000   1.0000   1.0000   1.0000   1.0000   1.0000
     1.0000   1.0000   1.0000   1.0000   1.0000   1.0000   0.0000   0.0000
     0.0000   0.0000

          k =-0.0283-0.3677 0.7071 (  6017 PWs)   bands (ev):

   -14.1137 -14.1115 -13.9498 -13.9343 -13.8935 -13.8811 -13.8590 -13.8458
   -13.6863 -13.6841   0.1674   0.4532   4.7260   4.9001   9.4123   9.4145
    10.5995  10.7658

     occupation numbers 
     1.0000   1.0000   1.0000   1.0000   1.0000   1.0000   1.0000   1.0000
     1.0000   1.0000   1.0000   1.0000   1.0000   1.0000   0.0000   0.0000
     0.0000   0.0000

     the Fermi energy is     7.5414 ev

!    total energy              =    -256.22175140 Ry
     Harris-Foulkes estimate   =    -256.22175106 Ry
     estimated scf accuracy    <       0.00000090 Ry

     The total energy is the sum of the following terms:

     one-electron contribution =    -136.18436025 Ry
     hartree contribution      =      79.21809766 Ry
     xc contribution           =     -31.47403486 Ry
     ewald contribution        =    -167.78134157 Ry
     smearing contrib. (-TS)   =      -0.00011237 Ry

     convergence has been achieved in   4 iterations

     Writing output data file Sn.save
 
     init_run     :      3.73s CPU      4.36s WALL (       1 calls)
     electrons    :     84.48s CPU     91.74s WALL (       1 calls)

     Called by init_run:
     wfcinit      :      3.58s CPU      4.13s WALL (       1 calls)
     potinit      :      0.01s CPU      0.01s WALL (       1 calls)

     Called by electrons:
     c_bands      :     76.19s CPU     82.89s WALL (       5 calls)
     sum_band     :      8.24s CPU      8.74s WALL (       5 calls)
     v_of_rho     :      0.04s CPU      0.04s WALL (       5 calls)
     v_h          :      0.00s CPU      0.00s WALL (       5 calls)
     v_xc         :      0.03s CPU      0.04s WALL (       5 calls)
     mix_rho      :      0.00s CPU      0.00s WALL (       5 calls)

     Called by c_bands:
     init_us_2    :      0.54s CPU      0.59s WALL (    5005 calls)
     cegterg      :     73.23s CPU     79.65s WALL (    2275 calls)

     Called by sum_band:

     Called by *egterg:
     h_psi        :     62.05s CPU     68.28s WALL (   12362 calls)
     g_psi        :      0.26s CPU      0.27s WALL (    9632 calls)
     cdiaghg      :      8.00s CPU      8.21s WALL (   11452 calls)
     cegterg:over :      2.38s CPU      2.55s WALL (    9632 calls)
     cegterg:upda :      0.97s CPU      1.00s WALL (    9632 calls)
     cegterg:last :      0.51s CPU      0.52s WALL (    3185 calls)

     Called by h_psi:
     h_psi:vloc   :     59.47s CPU     65.48s WALL (   12362 calls)
     h_psi:vnl    :      2.39s CPU      2.60s WALL (   12362 calls)
     add_vuspsi   :      0.76s CPU      0.84s WALL (   12362 calls)

     General routines
     calbec       :      1.58s CPU      1.72s WALL (   12362 calls)
     fft          :      0.03s CPU      0.03s WALL (      56 calls)
     fftw         :     62.21s CPU     68.23s WALL (  344002 calls)
     davcio       :      0.01s CPU      0.29s WALL (     455 calls)
 
     Parallel routines
     fft_scatter  :     28.50s CPU     31.16s WALL (  344058 calls)
 
     PWSCF        :  1m28.52s CPU     1m36.82s WALL

 
   This run was terminated on:   0:54:25  21Feb2020            

=------------------------------------------------------------------------------=
   JOB DONE.
=------------------------------------------------------------------------------=
