
     Program PWSCF v.5.4.0 starts on 16Mar2020 at 22:54:21 

     This program is part of the open-source Quantum ESPRESSO suite
     for quantum simulation of materials; please cite
         "P. Giannozzi et al., J. Phys.:Condens. Matter 21 395502 (2009);
          URL http://www.quantum-espresso.org", 
     in publications or presentations arising from this work. More details at
     http://www.quantum-espresso.org/quote

     Parallel version (MPI & OpenMP), running on      16 processor cores
     Number of MPI processes:                16
     Threads/MPI process:                     1
     R & G space division:  proc/nbgrp/npool/nimage =      16
     Waiting for input...
     Reading input from standard input
Warning: card &IONS ignored
Warning: card / ignored
Warning: card &CELL ignored
Warning: card / ignored

     Current dimensions of program PWSCF are:
     Max number of different atomic species (ntypx) = 10
     Max number of k-points (npk) =  40000
     Max angular momentum in pseudopotentials (lmaxx) =  3
               file Sn.rel-pbe-dn-rrkjus_psl.1.0.0.UPF: wavefunction(s)  5S 4D 4D renormalized

     Subspace diagonalization in iterative solution of the eigenvalue problem:
     a serial algorithm will be used

 
     Parallelization info
     --------------------
     sticks:   dense  smooth     PW     G-vecs:    dense   smooth      PW
     Min         122     122     34                 3603     3603     547
     Max         125     125     35                 3604     3604     551
     Sum        1969    1969    559                57655    57655    8801
 

     Title: 
     Sn                                                                         


     bravais-lattice index     =            0
     lattice parameter (alat)  =       8.9127  a.u.
     unit-cell volume          =     500.6268 (a.u.)^3
     number of atoms/cell      =            2
     number of atomic types    =            1
     number of electrons       =        28.00
     number of Kohn-Sham states=           36
     kinetic-energy cutoff     =      90.0000  Ry
     charge density cutoff     =     360.0000  Ry
     convergence threshold     =      1.0E-06
     mixing beta               =       0.7000
     number of iterations used =            8  plain     mixing
     Exchange-correlation      = PBE ( 1  4  3  4 0 0)
     Non magnetic calculation with spin-orbit


     celldm(1)=   8.912709  celldm(2)=   0.000000  celldm(3)=   0.000000
     celldm(4)=   0.000000  celldm(5)=   0.000000  celldm(6)=   0.000000

     crystal axes: (cart. coord. in units of alat)
               a(1) = (   0.000000   0.707107   0.707107 )  
               a(2) = (   0.707107   0.000000   0.707107 )  
               a(3) = (   0.707107   0.707107   0.000000 )  

     reciprocal axes: (cart. coord. in units 2 pi/alat)
               b(1) = ( -0.707107  0.707107  0.707107 )  
               b(2) = (  0.707107 -0.707107  0.707107 )  
               b(3) = (  0.707107  0.707107 -0.707107 )  


     PseudoPot. # 1 for Sn read from file:
     ../PseudopotentialDatabase/Sn.rel-pbe-dn-rrkjus_psl.1.0.0.UPF
     MD5 check sum: e9415cc9ba1036dfb73502962f03961a
     Pseudo is Ultrasoft + core correction, Zval = 14.0
     Generated using "atomic" code by A. Dal Corso  v.6.3
     Using radial grid of 1243 points, 10 beta functions with: 
                l(1) =   0
                l(2) =   0
                l(3) =   1
                l(4) =   1
                l(5) =   1
                l(6) =   1
                l(7) =   2
                l(8) =   2
                l(9) =   2
               l(10) =   2
     Q(r) pseudized with 0 coefficients 


     atomic species   valence    mass     pseudopotential
        Sn            14.00   118.71000     Sn( 1.00)

     24 Sym. Ops. (no inversion) found
          (note: 24 additional sym.ops. were found but ignored
           their fractional translations are incommensurate with FFT grid)

                                    s                        frac. trans.

      isym =  1     identity                                     

 cryst.   s( 1) = (     1          0          0      )
                  (     0          1          0      )
                  (     0          0          1      )

 cart.    s( 1) = (  1.0000000  0.0000000  0.0000000 )
                  (  0.0000000  1.0000000  0.0000000 )
                  (  0.0000000  0.0000000  1.0000000 )


      isym =  2     180 deg rotation - cart. axis [0,0,1]        

 cryst.   s( 2) = (     0          1         -1      )
                  (     1          0         -1      )
                  (     0          0         -1      )

 cart.    s( 2) = ( -1.0000000  0.0000000  0.0000000 )
                  (  0.0000000 -1.0000000  0.0000000 )
                  (  0.0000000  0.0000000  1.0000000 )


      isym =  3     180 deg rotation - cart. axis [0,1,0]        

 cryst.   s( 3) = (     0         -1          1      )
                  (     0         -1          0      )
                  (     1         -1          0      )

 cart.    s( 3) = ( -1.0000000  0.0000000  0.0000000 )
                  (  0.0000000  1.0000000  0.0000000 )
                  (  0.0000000  0.0000000 -1.0000000 )


      isym =  4     180 deg rotation - cart. axis [1,0,0]        

 cryst.   s( 4) = (    -1          0          0      )
                  (    -1          0          1      )
                  (    -1          1          0      )

 cart.    s( 4) = (  1.0000000  0.0000000  0.0000000 )
                  (  0.0000000 -1.0000000  0.0000000 )
                  (  0.0000000  0.0000000 -1.0000000 )


      isym =  5     120 deg rotation - cart. axis [-1,-1,-1]     

 cryst.   s( 5) = (     0          0          1      )
                  (     1          0          0      )
                  (     0          1          0      )

 cart.    s( 5) = (  0.0000000  1.0000000  0.0000000 )
                  (  0.0000000  0.0000000  1.0000000 )
                  (  1.0000000  0.0000000  0.0000000 )


      isym =  6     120 deg rotation - cart. axis [-1,1,1]       

 cryst.   s( 6) = (     1         -1          0      )
                  (     0         -1          1      )
                  (     0         -1          0      )

 cart.    s( 6) = (  0.0000000 -1.0000000  0.0000000 )
                  (  0.0000000  0.0000000  1.0000000 )
                  ( -1.0000000  0.0000000  0.0000000 )


      isym =  7     120 deg rotation - cart. axis [1,1,-1]       

 cryst.   s( 7) = (    -1          1          0      )
                  (    -1          0          0      )
                  (    -1          0          1      )

 cart.    s( 7) = (  0.0000000  1.0000000  0.0000000 )
                  (  0.0000000  0.0000000 -1.0000000 )
                  ( -1.0000000  0.0000000  0.0000000 )


      isym =  8     120 deg rotation - cart. axis [1,-1,1]       

 cryst.   s( 8) = (     0          0         -1      )
                  (     0          1         -1      )
                  (     1          0         -1      )

 cart.    s( 8) = (  0.0000000 -1.0000000  0.0000000 )
                  (  0.0000000  0.0000000 -1.0000000 )
                  (  1.0000000  0.0000000  0.0000000 )


      isym =  9     120 deg rotation - cart. axis [1,1,1]        

 cryst.   s( 9) = (     0          1          0      )
                  (     0          0          1      )
                  (     1          0          0      )

 cart.    s( 9) = (  0.0000000  0.0000000  1.0000000 )
                  (  1.0000000  0.0000000  0.0000000 )
                  (  0.0000000  1.0000000  0.0000000 )


      isym = 10     120 deg rotation - cart. axis [-1,1,-1]      

 cryst.   s(10) = (    -1          0          1      )
                  (    -1          1          0      )
                  (    -1          0          0      )

 cart.    s(10) = (  0.0000000  0.0000000  1.0000000 )
                  ( -1.0000000  0.0000000  0.0000000 )
                  (  0.0000000 -1.0000000  0.0000000 )


      isym = 11     120 deg rotation - cart. axis [1,-1,-1]      

 cryst.   s(11) = (     1          0         -1      )
                  (     0          0         -1      )
                  (     0          1         -1      )

 cart.    s(11) = (  0.0000000  0.0000000 -1.0000000 )
                  ( -1.0000000  0.0000000  0.0000000 )
                  (  0.0000000  1.0000000  0.0000000 )


      isym = 12     120 deg rotation - cart. axis [-1,-1,1]      

 cryst.   s(12) = (     0         -1          0      )
                  (     1         -1          0      )
                  (     0         -1          1      )

 cart.    s(12) = (  0.0000000  0.0000000 -1.0000000 )
                  (  1.0000000  0.0000000  0.0000000 )
                  (  0.0000000 -1.0000000  0.0000000 )


      isym = 13     inv. 180 deg rotation - cart. axis [1,1,0]   

 cryst.   s(13) = (     1          0         -1      )
                  (     0          1         -1      )
                  (     0          0         -1      )

 cart.    s(13) = (  0.0000000 -1.0000000  0.0000000 )
                  ( -1.0000000  0.0000000  0.0000000 )
                  (  0.0000000  0.0000000  1.0000000 )


      isym = 14     inv. 180 deg rotation - cart. axis [1,-1,0]  

 cryst.   s(14) = (     0          1          0      )
                  (     1          0          0      )
                  (     0          0          1      )

 cart.    s(14) = (  0.0000000  1.0000000  0.0000000 )
                  (  1.0000000  0.0000000  0.0000000 )
                  (  0.0000000  0.0000000  1.0000000 )


      isym = 15     inv.  90 deg rotation - cart. axis [0,0,-1]  

 cryst.   s(15) = (     0         -1          0      )
                  (     0         -1          1      )
                  (     1         -1          0      )

 cart.    s(15) = (  0.0000000 -1.0000000  0.0000000 )
                  (  1.0000000  0.0000000  0.0000000 )
                  (  0.0000000  0.0000000 -1.0000000 )


      isym = 16     inv.  90 deg rotation - cart. axis [0,0,1]   

 cryst.   s(16) = (    -1          0          1      )
                  (    -1          0          0      )
                  (    -1          1          0      )

 cart.    s(16) = (  0.0000000  1.0000000  0.0000000 )
                  ( -1.0000000  0.0000000  0.0000000 )
                  (  0.0000000  0.0000000 -1.0000000 )


      isym = 17     inv. 180 deg rotation - cart. axis [1,0,1]   

 cryst.   s(17) = (     1         -1          0      )
                  (     0         -1          0      )
                  (     0         -1          1      )

 cart.    s(17) = (  0.0000000  0.0000000 -1.0000000 )
                  (  0.0000000  1.0000000  0.0000000 )
                  ( -1.0000000  0.0000000  0.0000000 )


      isym = 18     inv. 180 deg rotation - cart. axis [-1,0,1]  

 cryst.   s(18) = (     0          0          1      )
                  (     0          1          0      )
                  (     1          0          0      )

 cart.    s(18) = (  0.0000000  0.0000000  1.0000000 )
                  (  0.0000000  1.0000000  0.0000000 )
                  (  1.0000000  0.0000000  0.0000000 )


      isym = 19     inv.  90 deg rotation - cart. axis [0,1,0]   

 cryst.   s(19) = (     0          0         -1      )
                  (     1          0         -1      )
                  (     0          1         -1      )

 cart.    s(19) = (  0.0000000  0.0000000 -1.0000000 )
                  (  0.0000000 -1.0000000  0.0000000 )
                  (  1.0000000  0.0000000  0.0000000 )


      isym = 20     inv.  90 deg rotation - cart. axis [0,-1,0]  

 cryst.   s(20) = (    -1          1          0      )
                  (    -1          0          1      )
                  (    -1          0          0      )

 cart.    s(20) = (  0.0000000  0.0000000  1.0000000 )
                  (  0.0000000 -1.0000000  0.0000000 )
                  ( -1.0000000  0.0000000  0.0000000 )


      isym = 21     inv. 180 deg rotation - cart. axis [0,1,1]   

 cryst.   s(21) = (    -1          0          0      )
                  (    -1          1          0      )
                  (    -1          0          1      )

 cart.    s(21) = (  1.0000000  0.0000000  0.0000000 )
                  (  0.0000000  0.0000000 -1.0000000 )
                  (  0.0000000 -1.0000000  0.0000000 )


      isym = 22     inv. 180 deg rotation - cart. axis [0,1,-1]  

 cryst.   s(22) = (     1          0          0      )
                  (     0          0          1      )
                  (     0          1          0      )

 cart.    s(22) = (  1.0000000  0.0000000  0.0000000 )
                  (  0.0000000  0.0000000  1.0000000 )
                  (  0.0000000  1.0000000  0.0000000 )


      isym = 23     inv.  90 deg rotation - cart. axis [-1,0,0]  

 cryst.   s(23) = (     0          1         -1      )
                  (     0          0         -1      )
                  (     1          0         -1      )

 cart.    s(23) = ( -1.0000000  0.0000000  0.0000000 )
                  (  0.0000000  0.0000000 -1.0000000 )
                  (  0.0000000  1.0000000  0.0000000 )


      isym = 24     inv.  90 deg rotation - cart. axis [1,0,0]   

 cryst.   s(24) = (     0         -1          1      )
                  (     1         -1          0      )
                  (     0         -1          0      )

 cart.    s(24) = ( -1.0000000  0.0000000  0.0000000 )
                  (  0.0000000  0.0000000  1.0000000 )
                  (  0.0000000 -1.0000000  0.0000000 )


   Cartesian axes

     site n.     atom                  positions (alat units)
         1           Sn  tau(   1) = (   0.0000000   0.0000000   0.0000000  )
         2           Sn  tau(   2) = (   0.3535534   0.3535534   0.3535534  )

   Crystallographic axes

     site n.     atom                  positions (cryst. coord.)
         1           Sn  tau(   1) = (  0.0000000  0.0000000  0.0000000  )
         2           Sn  tau(   2) = (  0.2500000  0.2500000  0.2500000  )

     number of k points=   145  gaussian smearing, width (Ry)=  0.0001
                       cart. coord. in units 2pi/alat
        k(    1) = (   0.0000000   0.0000000   0.0000000), wk =   0.0002441
        k(    2) = (   0.0441942   0.0441942  -0.0441942), wk =   0.0019531
        k(    3) = (   0.0883883   0.0883883  -0.0883883), wk =   0.0019531
        k(    4) = (   0.1325825   0.1325825  -0.1325825), wk =   0.0019531
        k(    5) = (   0.1767767   0.1767767  -0.1767767), wk =   0.0019531
        k(    6) = (   0.2209709   0.2209709  -0.2209709), wk =   0.0019531
        k(    7) = (   0.2651650   0.2651650  -0.2651650), wk =   0.0019531
        k(    8) = (   0.3093592   0.3093592  -0.3093592), wk =   0.0019531
        k(    9) = (  -0.3535534  -0.3535534   0.3535534), wk =   0.0009766
        k(   10) = (   0.0883883   0.0000000   0.0000000), wk =   0.0014648
        k(   11) = (   0.1325825   0.0441942  -0.0441942), wk =   0.0058594
        k(   12) = (   0.1767767   0.0883883  -0.0883883), wk =   0.0058594
        k(   13) = (   0.2209709   0.1325825  -0.1325825), wk =   0.0058594
        k(   14) = (   0.2651650   0.1767767  -0.1767767), wk =   0.0058594
        k(   15) = (   0.3093592   0.2209709  -0.2209709), wk =   0.0058594
        k(   16) = (   0.3535534   0.2651650  -0.2651650), wk =   0.0058594
        k(   17) = (  -0.3093592  -0.3977476   0.3977476), wk =   0.0058594
        k(   18) = (  -0.2651650  -0.3535534   0.3535534), wk =   0.0058594
        k(   19) = (  -0.2209709  -0.3093592   0.3093592), wk =   0.0058594
        k(   20) = (  -0.1767767  -0.2651650   0.2651650), wk =   0.0058594
        k(   21) = (  -0.1325825  -0.2209709   0.2209709), wk =   0.0058594
        k(   22) = (  -0.0883883  -0.1767767   0.1767767), wk =   0.0058594
        k(   23) = (  -0.0441942  -0.1325825   0.1325825), wk =   0.0058594
        k(   24) = (   0.0000000  -0.0883883   0.0883883), wk =   0.0029297
        k(   25) = (   0.1767767   0.0000000   0.0000000), wk =   0.0014648
        k(   26) = (   0.2209709   0.0441942  -0.0441942), wk =   0.0058594
        k(   27) = (   0.2651650   0.0883883  -0.0883883), wk =   0.0058594
        k(   28) = (   0.3093592   0.1325825  -0.1325825), wk =   0.0058594
        k(   29) = (   0.3535534   0.1767767  -0.1767767), wk =   0.0058594
        k(   30) = (   0.3977476   0.2209709  -0.2209709), wk =   0.0058594
        k(   31) = (  -0.2651650  -0.4419417   0.4419417), wk =   0.0058594
        k(   32) = (  -0.2209709  -0.3977476   0.3977476), wk =   0.0058594
        k(   33) = (  -0.1767767  -0.3535534   0.3535534), wk =   0.0058594
        k(   34) = (  -0.1325825  -0.3093592   0.3093592), wk =   0.0058594
        k(   35) = (  -0.0883883  -0.2651650   0.2651650), wk =   0.0058594
        k(   36) = (  -0.0441942  -0.2209709   0.2209709), wk =   0.0058594
        k(   37) = (   0.0000000  -0.1767767   0.1767767), wk =   0.0029297
        k(   38) = (   0.2651650   0.0000000   0.0000000), wk =   0.0014648
        k(   39) = (   0.3093592   0.0441942  -0.0441942), wk =   0.0058594
        k(   40) = (   0.3535534   0.0883883  -0.0883883), wk =   0.0058594
        k(   41) = (   0.3977476   0.1325825  -0.1325825), wk =   0.0058594
        k(   42) = (   0.4419417   0.1767767  -0.1767767), wk =   0.0058594
        k(   43) = (  -0.2209709  -0.4861359   0.4861359), wk =   0.0058594
        k(   44) = (  -0.1767767  -0.4419417   0.4419417), wk =   0.0058594
        k(   45) = (  -0.1325825  -0.3977476   0.3977476), wk =   0.0058594
        k(   46) = (  -0.0883883  -0.3535534   0.3535534), wk =   0.0058594
        k(   47) = (  -0.0441942  -0.3093592   0.3093592), wk =   0.0058594
        k(   48) = (   0.0000000  -0.2651650   0.2651650), wk =   0.0029297
        k(   49) = (   0.3535534   0.0000000   0.0000000), wk =   0.0014648
        k(   50) = (   0.3977476   0.0441942  -0.0441942), wk =   0.0058594
        k(   51) = (   0.4419417   0.0883883  -0.0883883), wk =   0.0058594
        k(   52) = (   0.4861359   0.1325825  -0.1325825), wk =   0.0058594
        k(   53) = (  -0.1767767  -0.5303301   0.5303301), wk =   0.0058594
        k(   54) = (  -0.1325825  -0.4861359   0.4861359), wk =   0.0058594
        k(   55) = (  -0.0883883  -0.4419417   0.4419417), wk =   0.0058594
        k(   56) = (  -0.0441942  -0.3977476   0.3977476), wk =   0.0058594
        k(   57) = (   0.0000000  -0.3535534   0.3535534), wk =   0.0029297
        k(   58) = (   0.4419417   0.0000000   0.0000000), wk =   0.0014648
        k(   59) = (   0.4861359   0.0441942  -0.0441942), wk =   0.0058594
        k(   60) = (   0.5303301   0.0883883  -0.0883883), wk =   0.0058594
        k(   61) = (  -0.1325825  -0.5745243   0.5745243), wk =   0.0058594
        k(   62) = (  -0.0883883  -0.5303301   0.5303301), wk =   0.0058594
        k(   63) = (  -0.0441942  -0.4861359   0.4861359), wk =   0.0058594
        k(   64) = (   0.0000000  -0.4419417   0.4419417), wk =   0.0029297
        k(   65) = (   0.5303301   0.0000000   0.0000000), wk =   0.0014648
        k(   66) = (   0.5745243   0.0441942  -0.0441942), wk =   0.0058594
        k(   67) = (  -0.0883883  -0.6187184   0.6187184), wk =   0.0058594
        k(   68) = (  -0.0441942  -0.5745243   0.5745243), wk =   0.0058594
        k(   69) = (   0.0000000  -0.5303301   0.5303301), wk =   0.0029297
        k(   70) = (   0.6187184   0.0000000   0.0000000), wk =   0.0014648
        k(   71) = (  -0.0441942  -0.6629126   0.6629126), wk =   0.0058594
        k(   72) = (   0.0000000  -0.6187184   0.6187184), wk =   0.0029297
        k(   73) = (  -0.7071068   0.0000000   0.0000000), wk =   0.0007324
        k(   74) = (   0.1767767   0.0883883   0.0000000), wk =   0.0058594
        k(   75) = (   0.2209709   0.1325825  -0.0441942), wk =   0.0117188
        k(   76) = (   0.2651650   0.1767767  -0.0883883), wk =   0.0117188
        k(   77) = (   0.3093592   0.2209709  -0.1325825), wk =   0.0117188
        k(   78) = (   0.3535534   0.2651650  -0.1767767), wk =   0.0117188
        k(   79) = (  -0.3093592  -0.3977476   0.4861359), wk =   0.0117188
        k(   80) = (  -0.2651650  -0.3535534   0.4419417), wk =   0.0058594
        k(   81) = (   0.2651650   0.0883883   0.0000000), wk =   0.0058594
        k(   82) = (   0.3093592   0.1325825  -0.0441942), wk =   0.0117188
        k(   83) = (   0.3535534   0.1767767  -0.0883883), wk =   0.0117188
        k(   84) = (   0.3977476   0.2209709  -0.1325825), wk =   0.0117188
        k(   85) = (  -0.2651650  -0.4419417   0.5303301), wk =   0.0117188
        k(   86) = (  -0.2209709  -0.3977476   0.4861359), wk =   0.0117188
        k(   87) = (  -0.1767767  -0.3535534   0.4419417), wk =   0.0117188
        k(   88) = (  -0.1325825  -0.3093592   0.3977476), wk =   0.0117188
        k(   89) = (  -0.0883883  -0.2651650   0.3535534), wk =   0.0117188
        k(   90) = (  -0.0441942  -0.2209709   0.3093592), wk =   0.0117188
        k(   91) = (   0.0000000  -0.1767767   0.2651650), wk =   0.0058594
        k(   92) = (   0.3535534   0.0883883   0.0000000), wk =   0.0058594
        k(   93) = (   0.3977476   0.1325825  -0.0441942), wk =   0.0117188
        k(   94) = (   0.4419417   0.1767767  -0.0883883), wk =   0.0117188
        k(   95) = (  -0.2209709  -0.4861359   0.5745243), wk =   0.0117188
        k(   96) = (  -0.1767767  -0.4419417   0.5303301), wk =   0.0117188
        k(   97) = (  -0.1325825  -0.3977476   0.4861359), wk =   0.0117188
        k(   98) = (  -0.0883883  -0.3535534   0.4419417), wk =   0.0117188
        k(   99) = (  -0.0441942  -0.3093592   0.3977476), wk =   0.0117188
        k(  100) = (   0.0000000  -0.2651650   0.3535534), wk =   0.0058594
        k(  101) = (   0.4419417   0.0883883   0.0000000), wk =   0.0058594
        k(  102) = (   0.4861359   0.1325825  -0.0441942), wk =   0.0117188
        k(  103) = (  -0.1767767  -0.5303301   0.6187184), wk =   0.0117188
        k(  104) = (  -0.1325825  -0.4861359   0.5745243), wk =   0.0117188
        k(  105) = (  -0.0883883  -0.4419417   0.5303301), wk =   0.0117188
        k(  106) = (  -0.0441942  -0.3977476   0.4861359), wk =   0.0117188
        k(  107) = (   0.0000000  -0.3535534   0.4419417), wk =   0.0058594
        k(  108) = (   0.5303301   0.0883883   0.0000000), wk =   0.0058594
        k(  109) = (  -0.1325825  -0.5745243   0.6629126), wk =   0.0117188
        k(  110) = (  -0.0883883  -0.5303301   0.6187184), wk =   0.0117188
        k(  111) = (  -0.0441942  -0.4861359   0.5745243), wk =   0.0117188
        k(  112) = (   0.0000000  -0.4419417   0.5303301), wk =   0.0058594
        k(  113) = (  -0.0883883  -0.6187184   0.7071068), wk =   0.0058594
        k(  114) = (  -0.0441942  -0.5745243   0.6629126), wk =   0.0117188
        k(  115) = (  -0.0000000  -0.5303301   0.6187184), wk =   0.0058594
        k(  116) = (  -0.7071068   0.0883883   0.0000000), wk =   0.0029297
        k(  117) = (   0.3535534   0.1767767   0.0000000), wk =   0.0058594
        k(  118) = (   0.3977476   0.2209709  -0.0441942), wk =   0.0117188
        k(  119) = (  -0.2651650  -0.4419417   0.6187184), wk =   0.0117188
        k(  120) = (  -0.2209709  -0.3977476   0.5745243), wk =   0.0117188
        k(  121) = (  -0.1767767  -0.3535534   0.5303301), wk =   0.0058594
        k(  122) = (   0.4419417   0.1767767   0.0000000), wk =   0.0058594
        k(  123) = (  -0.2209709  -0.4861359   0.6629126), wk =   0.0117188
        k(  124) = (  -0.1767767  -0.4419417   0.6187184), wk =   0.0117188
        k(  125) = (  -0.1325825  -0.3977476   0.5745243), wk =   0.0117188
        k(  126) = (  -0.0883883  -0.3535534   0.5303301), wk =   0.0117188
        k(  127) = (  -0.0441942  -0.3093592   0.4861359), wk =   0.0117188
        k(  128) = (   0.0000000  -0.2651650   0.4419417), wk =   0.0058594
        k(  129) = (  -0.1767767  -0.5303301   0.7071068), wk =   0.0058594
        k(  130) = (  -0.1325825  -0.4861359   0.6629126), wk =   0.0117188
        k(  131) = (  -0.0883883  -0.4419417   0.6187184), wk =   0.0117188
        k(  132) = (  -0.0441942  -0.3977476   0.5745243), wk =   0.0117188
        k(  133) = (   0.0000000  -0.3535534   0.5303301), wk =   0.0058594
        k(  134) = (  -0.0883883  -0.5303301   0.7071068), wk =   0.0058594
        k(  135) = (  -0.0441942  -0.4861359   0.6629126), wk =   0.0117188
        k(  136) = (   0.0000000  -0.4419417   0.6187184), wk =   0.0058594
        k(  137) = (  -0.7071068   0.1767767   0.0000000), wk =   0.0029297
        k(  138) = (  -0.1767767  -0.4419417   0.7071068), wk =   0.0058594
        k(  139) = (  -0.1325825  -0.3977476   0.6629126), wk =   0.0117188
        k(  140) = (  -0.0883883  -0.3535534   0.6187184), wk =   0.0058594
        k(  141) = (  -0.0883883  -0.4419417   0.7071068), wk =   0.0058594
        k(  142) = (  -0.0441942  -0.3977476   0.6629126), wk =   0.0117188
        k(  143) = (  -0.0000000  -0.3535534   0.6187184), wk =   0.0058594
        k(  144) = (  -0.7071068   0.2651650   0.0000000), wk =   0.0029297
        k(  145) = (  -0.7071068   0.3535534   0.0000000), wk =   0.0014648

                       cryst. coord.
        k(    1) = (   0.0000000   0.0000000   0.0000000), wk =   0.0002441
        k(    2) = (   0.0000000   0.0000000   0.0625000), wk =   0.0019531
        k(    3) = (   0.0000000   0.0000000   0.1250000), wk =   0.0019531
        k(    4) = (   0.0000000   0.0000000   0.1875000), wk =   0.0019531
        k(    5) = (   0.0000000   0.0000000   0.2500000), wk =   0.0019531
        k(    6) = (   0.0000000   0.0000000   0.3125000), wk =   0.0019531
        k(    7) = (   0.0000000   0.0000000   0.3750000), wk =   0.0019531
        k(    8) = (   0.0000000   0.0000000   0.4375000), wk =   0.0019531
        k(    9) = (   0.0000000   0.0000000  -0.5000000), wk =   0.0009766
        k(   10) = (   0.0000000   0.0625000   0.0625000), wk =   0.0014648
        k(   11) = (   0.0000000   0.0625000   0.1250000), wk =   0.0058594
        k(   12) = (   0.0000000   0.0625000   0.1875000), wk =   0.0058594
        k(   13) = (   0.0000000   0.0625000   0.2500000), wk =   0.0058594
        k(   14) = (   0.0000000   0.0625000   0.3125000), wk =   0.0058594
        k(   15) = (   0.0000000   0.0625000   0.3750000), wk =   0.0058594
        k(   16) = (   0.0000000   0.0625000   0.4375000), wk =   0.0058594
        k(   17) = (   0.0000000   0.0625000  -0.5000000), wk =   0.0058594
        k(   18) = (   0.0000000   0.0625000  -0.4375000), wk =   0.0058594
        k(   19) = (   0.0000000   0.0625000  -0.3750000), wk =   0.0058594
        k(   20) = (   0.0000000   0.0625000  -0.3125000), wk =   0.0058594
        k(   21) = (   0.0000000   0.0625000  -0.2500000), wk =   0.0058594
        k(   22) = (   0.0000000   0.0625000  -0.1875000), wk =   0.0058594
        k(   23) = (   0.0000000   0.0625000  -0.1250000), wk =   0.0058594
        k(   24) = (   0.0000000   0.0625000  -0.0625000), wk =   0.0029297
        k(   25) = (   0.0000000   0.1250000   0.1250000), wk =   0.0014648
        k(   26) = (   0.0000000   0.1250000   0.1875000), wk =   0.0058594
        k(   27) = (   0.0000000   0.1250000   0.2500000), wk =   0.0058594
        k(   28) = (   0.0000000   0.1250000   0.3125000), wk =   0.0058594
        k(   29) = (   0.0000000   0.1250000   0.3750000), wk =   0.0058594
        k(   30) = (   0.0000000   0.1250000   0.4375000), wk =   0.0058594
        k(   31) = (   0.0000000   0.1250000  -0.5000000), wk =   0.0058594
        k(   32) = (   0.0000000   0.1250000  -0.4375000), wk =   0.0058594
        k(   33) = (   0.0000000   0.1250000  -0.3750000), wk =   0.0058594
        k(   34) = (   0.0000000   0.1250000  -0.3125000), wk =   0.0058594
        k(   35) = (   0.0000000   0.1250000  -0.2500000), wk =   0.0058594
        k(   36) = (   0.0000000   0.1250000  -0.1875000), wk =   0.0058594
        k(   37) = (   0.0000000   0.1250000  -0.1250000), wk =   0.0029297
        k(   38) = (   0.0000000   0.1875000   0.1875000), wk =   0.0014648
        k(   39) = (   0.0000000   0.1875000   0.2500000), wk =   0.0058594
        k(   40) = (   0.0000000   0.1875000   0.3125000), wk =   0.0058594
        k(   41) = (   0.0000000   0.1875000   0.3750000), wk =   0.0058594
        k(   42) = (   0.0000000   0.1875000   0.4375000), wk =   0.0058594
        k(   43) = (   0.0000000   0.1875000  -0.5000000), wk =   0.0058594
        k(   44) = (   0.0000000   0.1875000  -0.4375000), wk =   0.0058594
        k(   45) = (   0.0000000   0.1875000  -0.3750000), wk =   0.0058594
        k(   46) = (   0.0000000   0.1875000  -0.3125000), wk =   0.0058594
        k(   47) = (   0.0000000   0.1875000  -0.2500000), wk =   0.0058594
        k(   48) = (   0.0000000   0.1875000  -0.1875000), wk =   0.0029297
        k(   49) = (   0.0000000   0.2500000   0.2500000), wk =   0.0014648
        k(   50) = (   0.0000000   0.2500000   0.3125000), wk =   0.0058594
        k(   51) = (   0.0000000   0.2500000   0.3750000), wk =   0.0058594
        k(   52) = (   0.0000000   0.2500000   0.4375000), wk =   0.0058594
        k(   53) = (   0.0000000   0.2500000  -0.5000000), wk =   0.0058594
        k(   54) = (   0.0000000   0.2500000  -0.4375000), wk =   0.0058594
        k(   55) = (   0.0000000   0.2500000  -0.3750000), wk =   0.0058594
        k(   56) = (   0.0000000   0.2500000  -0.3125000), wk =   0.0058594
        k(   57) = (   0.0000000   0.2500000  -0.2500000), wk =   0.0029297
        k(   58) = (   0.0000000   0.3125000   0.3125000), wk =   0.0014648
        k(   59) = (   0.0000000   0.3125000   0.3750000), wk =   0.0058594
        k(   60) = (   0.0000000   0.3125000   0.4375000), wk =   0.0058594
        k(   61) = (   0.0000000   0.3125000  -0.5000000), wk =   0.0058594
        k(   62) = (   0.0000000   0.3125000  -0.4375000), wk =   0.0058594
        k(   63) = (   0.0000000   0.3125000  -0.3750000), wk =   0.0058594
        k(   64) = (   0.0000000   0.3125000  -0.3125000), wk =   0.0029297
        k(   65) = (   0.0000000   0.3750000   0.3750000), wk =   0.0014648
        k(   66) = (   0.0000000   0.3750000   0.4375000), wk =   0.0058594
        k(   67) = (   0.0000000   0.3750000  -0.5000000), wk =   0.0058594
        k(   68) = (   0.0000000   0.3750000  -0.4375000), wk =   0.0058594
        k(   69) = (   0.0000000   0.3750000  -0.3750000), wk =   0.0029297
        k(   70) = (   0.0000000   0.4375000   0.4375000), wk =   0.0014648
        k(   71) = (   0.0000000   0.4375000  -0.5000000), wk =   0.0058594
        k(   72) = (   0.0000000   0.4375000  -0.4375000), wk =   0.0029297
        k(   73) = (   0.0000000  -0.5000000  -0.5000000), wk =   0.0007324
        k(   74) = (   0.0625000   0.1250000   0.1875000), wk =   0.0058594
        k(   75) = (   0.0625000   0.1250000   0.2500000), wk =   0.0117188
        k(   76) = (   0.0625000   0.1250000   0.3125000), wk =   0.0117188
        k(   77) = (   0.0625000   0.1250000   0.3750000), wk =   0.0117188
        k(   78) = (   0.0625000   0.1250000   0.4375000), wk =   0.0117188
        k(   79) = (   0.0625000   0.1250000  -0.5000000), wk =   0.0117188
        k(   80) = (   0.0625000   0.1250000  -0.4375000), wk =   0.0058594
        k(   81) = (   0.0625000   0.1875000   0.2500000), wk =   0.0058594
        k(   82) = (   0.0625000   0.1875000   0.3125000), wk =   0.0117188
        k(   83) = (   0.0625000   0.1875000   0.3750000), wk =   0.0117188
        k(   84) = (   0.0625000   0.1875000   0.4375000), wk =   0.0117188
        k(   85) = (   0.0625000   0.1875000  -0.5000000), wk =   0.0117188
        k(   86) = (   0.0625000   0.1875000  -0.4375000), wk =   0.0117188
        k(   87) = (   0.0625000   0.1875000  -0.3750000), wk =   0.0117188
        k(   88) = (   0.0625000   0.1875000  -0.3125000), wk =   0.0117188
        k(   89) = (   0.0625000   0.1875000  -0.2500000), wk =   0.0117188
        k(   90) = (   0.0625000   0.1875000  -0.1875000), wk =   0.0117188
        k(   91) = (   0.0625000   0.1875000  -0.1250000), wk =   0.0058594
        k(   92) = (   0.0625000   0.2500000   0.3125000), wk =   0.0058594
        k(   93) = (   0.0625000   0.2500000   0.3750000), wk =   0.0117188
        k(   94) = (   0.0625000   0.2500000   0.4375000), wk =   0.0117188
        k(   95) = (   0.0625000   0.2500000  -0.5000000), wk =   0.0117188
        k(   96) = (   0.0625000   0.2500000  -0.4375000), wk =   0.0117188
        k(   97) = (   0.0625000   0.2500000  -0.3750000), wk =   0.0117188
        k(   98) = (   0.0625000   0.2500000  -0.3125000), wk =   0.0117188
        k(   99) = (   0.0625000   0.2500000  -0.2500000), wk =   0.0117188
        k(  100) = (   0.0625000   0.2500000  -0.1875000), wk =   0.0058594
        k(  101) = (   0.0625000   0.3125000   0.3750000), wk =   0.0058594
        k(  102) = (   0.0625000   0.3125000   0.4375000), wk =   0.0117188
        k(  103) = (   0.0625000   0.3125000  -0.5000000), wk =   0.0117188
        k(  104) = (   0.0625000   0.3125000  -0.4375000), wk =   0.0117188
        k(  105) = (   0.0625000   0.3125000  -0.3750000), wk =   0.0117188
        k(  106) = (   0.0625000   0.3125000  -0.3125000), wk =   0.0117188
        k(  107) = (   0.0625000   0.3125000  -0.2500000), wk =   0.0058594
        k(  108) = (   0.0625000   0.3750000   0.4375000), wk =   0.0058594
        k(  109) = (   0.0625000   0.3750000  -0.5000000), wk =   0.0117188
        k(  110) = (   0.0625000   0.3750000  -0.4375000), wk =   0.0117188
        k(  111) = (   0.0625000   0.3750000  -0.3750000), wk =   0.0117188
        k(  112) = (   0.0625000   0.3750000  -0.3125000), wk =   0.0058594
        k(  113) = (   0.0625000   0.4375000  -0.5000000), wk =   0.0058594
        k(  114) = (   0.0625000   0.4375000  -0.4375000), wk =   0.0117188
        k(  115) = (   0.0625000   0.4375000  -0.3750000), wk =   0.0058594
        k(  116) = (   0.0625000  -0.5000000  -0.4375000), wk =   0.0029297
        k(  117) = (   0.1250000   0.2500000   0.3750000), wk =   0.0058594
        k(  118) = (   0.1250000   0.2500000   0.4375000), wk =   0.0117188
        k(  119) = (   0.1250000   0.2500000  -0.5000000), wk =   0.0117188
        k(  120) = (   0.1250000   0.2500000  -0.4375000), wk =   0.0117188
        k(  121) = (   0.1250000   0.2500000  -0.3750000), wk =   0.0058594
        k(  122) = (   0.1250000   0.3125000   0.4375000), wk =   0.0058594
        k(  123) = (   0.1250000   0.3125000  -0.5000000), wk =   0.0117188
        k(  124) = (   0.1250000   0.3125000  -0.4375000), wk =   0.0117188
        k(  125) = (   0.1250000   0.3125000  -0.3750000), wk =   0.0117188
        k(  126) = (   0.1250000   0.3125000  -0.3125000), wk =   0.0117188
        k(  127) = (   0.1250000   0.3125000  -0.2500000), wk =   0.0117188
        k(  128) = (   0.1250000   0.3125000  -0.1875000), wk =   0.0058594
        k(  129) = (   0.1250000   0.3750000  -0.5000000), wk =   0.0058594
        k(  130) = (   0.1250000   0.3750000  -0.4375000), wk =   0.0117188
        k(  131) = (   0.1250000   0.3750000  -0.3750000), wk =   0.0117188
        k(  132) = (   0.1250000   0.3750000  -0.3125000), wk =   0.0117188
        k(  133) = (   0.1250000   0.3750000  -0.2500000), wk =   0.0058594
        k(  134) = (   0.1250000   0.4375000  -0.4375000), wk =   0.0058594
        k(  135) = (   0.1250000   0.4375000  -0.3750000), wk =   0.0117188
        k(  136) = (   0.1250000   0.4375000  -0.3125000), wk =   0.0058594
        k(  137) = (   0.1250000  -0.5000000  -0.3750000), wk =   0.0029297
        k(  138) = (   0.1875000   0.3750000  -0.4375000), wk =   0.0058594
        k(  139) = (   0.1875000   0.3750000  -0.3750000), wk =   0.0117188
        k(  140) = (   0.1875000   0.3750000  -0.3125000), wk =   0.0058594
        k(  141) = (   0.1875000   0.4375000  -0.3750000), wk =   0.0058594
        k(  142) = (   0.1875000   0.4375000  -0.3125000), wk =   0.0117188
        k(  143) = (   0.1875000   0.4375000  -0.2500000), wk =   0.0058594
        k(  144) = (   0.1875000  -0.5000000  -0.3125000), wk =   0.0029297
        k(  145) = (   0.2500000  -0.5000000  -0.2500000), wk =   0.0014648

     Dense  grid:    57655 G-vectors     FFT dimensions: (  54,  54,  54)

     Largest allocated arrays     est. size (Mb)     dimensions
        Kohn-Sham Wavefunctions         0.51 Mb     (     920,   36)
        NL pseudopotentials             0.48 Mb     (     460,   68)
        Each V/rho on FFT grid          0.18 Mb     (   11664)
        Each G-vector array             0.03 Mb     (    3604)
        G-vector shells                 0.00 Mb     (     461)
     Largest temporary arrays     est. size (Mb)     dimensions
        Auxiliary wavefunctions         2.02 Mb     (     920,  144)
        Each subspace H/S matrix        0.32 Mb     (     144,  144)
        Each <psi_i|beta_j> matrix      0.07 Mb     (      68,   2,   36)
        Arrays for rho mixing           1.42 Mb     (   11664,    8)

     Check: negative/imaginary core charge=   -0.000001    0.000000

     Initial potential from superposition of free atoms

     starting charge   27.99781, renormalised to   28.00000
     Starting wfc are   36 randomized atomic wfcs

     total cpu time spent up to now is       15.5 secs

     Self-consistent Calculation

     iteration #  1     ecut=    90.00 Ry     beta=0.70
     Davidson diagonalization with overlap
     ethr =  1.00E-02,  avg # of iterations =  3.5

     Threshold (ethr) on eigenvalues was too large:
     Diagonalizing with lowered threshold

     Davidson diagonalization with overlap
     ethr =  5.69E-05,  avg # of iterations =  3.4

     total cpu time spent up to now is      117.5 secs

     total energy              =    -325.85587732 Ry
     Harris-Foulkes estimate   =    -325.85789361 Ry
     estimated scf accuracy    <       0.01885975 Ry

     iteration #  2     ecut=    90.00 Ry     beta=0.70
     Davidson diagonalization with overlap
     ethr =  6.74E-05,  avg # of iterations =  1.0

     total cpu time spent up to now is      157.1 secs

     total energy              =    -325.85646150 Ry
     Harris-Foulkes estimate   =    -325.85657277 Ry
     estimated scf accuracy    <       0.00151038 Ry

     iteration #  3     ecut=    90.00 Ry     beta=0.70
     Davidson diagonalization with overlap
     ethr =  5.39E-06,  avg # of iterations =  2.3

     total cpu time spent up to now is      210.2 secs

     total energy              =    -325.85667416 Ry
     Harris-Foulkes estimate   =    -325.85671401 Ry
     estimated scf accuracy    <       0.00008175 Ry

     iteration #  4     ecut=    90.00 Ry     beta=0.70
     Davidson diagonalization with overlap
     ethr =  2.92E-07,  avg # of iterations =  2.0

     total cpu time spent up to now is      259.7 secs

     total energy              =    -325.85669463 Ry
     Harris-Foulkes estimate   =    -325.85669290 Ry
     estimated scf accuracy    <       0.00000287 Ry

     iteration #  5     ecut=    90.00 Ry     beta=0.70
     Davidson diagonalization with overlap
     ethr =  1.03E-08,  avg # of iterations =  2.0

     total cpu time spent up to now is      303.5 secs

     End of self-consistent calculation

          k = 0.0000 0.0000 0.0000 (  7239 PWs)   bands (ev):

   -15.1255 -15.1255 -15.1255 -15.1255 -15.0457 -15.0457 -15.0457 -15.0457
   -14.1989 -14.1989 -14.0304 -14.0304 -14.0304 -14.0304 -13.9932 -13.9932
   -13.9932 -13.9932 -13.8896 -13.8896  -3.1712  -3.1712   5.7239   5.7239
     6.5509   6.5509   7.1990   7.1990   7.1990   7.1990   8.7331   8.7331
     9.2029   9.2029   9.2029   9.2029

     occupation numbers 
     1.0000   1.0000   1.0000   1.0000   1.0000   1.0000   1.0000   1.0000
     1.0000   1.0000   1.0000   1.0000   1.0000   1.0000   1.0000   1.0000
     1.0000   1.0000   1.0000   1.0000   1.0000   1.0000   1.0000   1.0000
     1.0000   1.0000   0.0000   0.0000   0.0000   0.0000   0.0000   0.0000
     0.0000   0.0000   0.0000   0.0000

          k = 0.0442 0.0442-0.0442 (  7267 PWs)   bands (ev):

   -15.1259 -15.1259 -15.1247 -15.1247 -15.0465 -15.0465 -15.0452 -15.0452
   -14.1971 -14.1971 -14.0354 -14.0354 -14.0336 -14.0336 -13.9899 -13.9899
   -13.9889 -13.9889 -13.8906 -13.8906  -3.1364  -3.1364   5.3152   5.3152
     6.5970   6.5970   7.1242   7.1242   7.2603   7.2603   8.8901   8.8901
     9.2854   9.2854   9.2999   9.2999

     occupation numbers 
     1.0000   1.0000   1.0000   1.0000   1.0000   1.0000   1.0000   1.0000
     1.0000   1.0000   1.0000   1.0000   1.0000   1.0000   1.0000   1.0000
     1.0000   1.0000   1.0000   1.0000   1.0000   1.0000   1.0000   1.0000
     1.0000   1.0000   0.0000   0.0000   0.0000   0.0000   0.0000   0.0000
     0.0000   0.0000   0.0000   0.0000

          k = 0.0884 0.0884-0.0884 (  7240 PWs)   bands (ev):

   -15.1269 -15.1269 -15.1224 -15.1224 -15.0486 -15.0486 -15.0437 -15.0437
   -14.1920 -14.1920 -14.0465 -14.0465 -14.0407 -14.0406 -13.9822 -13.9822
   -13.9799 -13.9799 -13.8933 -13.8933  -3.0330  -3.0330   4.5522   4.5522
     6.4902   6.4902   6.9424   6.9424   7.3076   7.3076   9.2165   9.2165
     9.5371   9.5371   9.6397   9.6397

     occupation numbers 
     1.0000   1.0000   1.0000   1.0000   1.0000   1.0000   1.0000   1.0000
     1.0000   1.0000   1.0000   1.0000   1.0000   1.0000   1.0000   1.0000
     1.0000   1.0000   1.0000   1.0000   1.0000   1.0000   1.0000   1.0000
     1.0000   1.0000   1.0000   1.0000   0.0000   0.0000   0.0000   0.0000
     0.0000   0.0000   0.0000   0.0000

          k = 0.1326 0.1326-0.1326 (  7237 PWs)   bands (ev):

   -15.1284 -15.1284 -15.1188 -15.1188 -15.0522 -15.0522 -15.0417 -15.0417
   -14.1839 -14.1839 -14.0595 -14.0595 -14.0486 -14.0486 -13.9734 -13.9734
   -13.9700 -13.9700 -13.8977 -13.8977  -2.8637  -2.8637   3.7243   3.7243
     6.2947   6.2947   6.7241   6.7241   7.2290   7.2290   9.5029   9.5029
     9.8115   9.8115  10.3073  10.3073

     occupation numbers 
     1.0000   1.0000   1.0000   1.0000   1.0000   1.0000   1.0000   1.0000
     1.0000   1.0000   1.0000   1.0000   1.0000   1.0000   1.0000   1.0000
     1.0000   1.0000   1.0000   1.0000   1.0000   1.0000   1.0000   1.0000
     1.0000   1.0000   1.0000   1.0000   0.0000   0.0000   0.0000   0.0000
     0.0000   0.0000   0.0000   0.0000

          k = 0.1768 0.1768-0.1768 (  7243 PWs)   bands (ev):

   -15.1300 -15.1300 -15.1140 -15.1140 -15.0568 -15.0568 -15.0394 -15.0393
   -14.1737 -14.1737 -14.0729 -14.0729 -14.0561 -14.0561 -13.9650 -13.9650
   -13.9607 -13.9607 -13.9033 -13.9033  -2.6351  -2.6351   2.9142   2.9142
     6.0945   6.0945   6.5151   6.5151   7.0902   7.0902   9.7349   9.7349
    10.0339  10.0339  11.1154  11.1154

     occupation numbers 
     1.0000   1.0000   1.0000   1.0000   1.0000   1.0000   1.0000   1.0000
     1.0000   1.0000   1.0000   1.0000   1.0000   1.0000   1.0000   1.0000
     1.0000   1.0000   1.0000   1.0000   1.0000   1.0000   1.0000   1.0000
     1.0000   1.0000   1.0000   1.0000   0.0000   0.0000   0.0000   0.0000
     0.0000   0.0000   0.0000   0.0000

          k = 0.2210 0.2210-0.2210 (  7237 PWs)   bands (ev):

   -15.1315 -15.1315 -15.1084 -15.1084 -15.0622 -15.0622 -15.0372 -15.0372
   -14.1620 -14.1620 -14.0861 -14.0861 -14.0623 -14.0623 -13.9577 -13.9577
   -13.9522 -13.9522 -13.9097 -13.9097  -2.3600  -2.3600   2.1672   2.1672
     5.9225   5.9225   6.3390   6.3390   6.9511   6.9511   9.8850   9.8850
    10.1599  10.1599  11.9761  11.9761

     occupation numbers 
     1.0000   1.0000   1.0000   1.0000   1.0000   1.0000   1.0000   1.0000
     1.0000   1.0000   1.0000   1.0000   1.0000   1.0000   1.0000   1.0000
     1.0000   1.0000   1.0000   1.0000   1.0000   1.0000   1.0000   1.0000
     1.0000   1.0000   1.0000   1.0000   0.1250   0.1250   0.0000   0.0000
     0.0000   0.0000   0.0000   0.0000

          k = 0.2652 0.2652-0.2652 (  7228 PWs)   bands (ev):

   -15.1327 -15.1327 -15.1024 -15.1024 -15.0680 -15.0680 -15.0354 -15.0354
   -14.1497 -14.1497 -14.0987 -14.0987 -14.0670 -14.0670 -13.9522 -13.9522
   -13.9445 -13.9445 -13.9166 -13.9166  -2.0666  -2.0666   1.5277   1.5277
     5.7931   5.7931   6.2076   6.2076   6.8404   6.8404   9.9553   9.9553
    10.2031  10.2031  12.6302  12.6303

     occupation numbers 
     1.0000   1.0000   1.0000   1.0000   1.0000   1.0000   1.0000   1.0000
     1.0000   1.0000   1.0000   1.0000   1.0000   1.0000   1.0000   1.0000
     1.0000   1.0000   1.0000   1.0000   1.0000   1.0000   1.0000   1.0000
     1.0000   1.0000   1.0000   1.0000   1.0000   1.0000   0.0000   0.0000
     0.0000   0.0000   0.0000   0.0000

          k = 0.3094 0.3094-0.3094 (  7234 PWs)   bands (ev):

   -15.1334 -15.1334 -15.0969 -15.0969 -15.0734 -15.0734 -15.0343 -15.0343
   -14.1376 -14.1376 -14.1106 -14.1106 -14.0699 -14.0699 -13.9487 -13.9487
   -13.9376 -13.9376 -13.9234 -13.9234  -1.8149  -1.8149   1.0653   1.0653
     5.7134   5.7134   6.1269   6.1269   6.7706   6.7706   9.9775   9.9775
    10.2063  10.2063  12.6532  12.6532

     occupation numbers 
     1.0000   1.0000   1.0000   1.0000   1.0000   1.0000   1.0000   1.0000
     1.0000   1.0000   1.0000   1.0000   1.0000   1.0000   1.0000   1.0000
     1.0000   1.0000   1.0000   1.0000   1.0000   1.0000   1.0000   1.0000
     1.0000   1.0000   1.0000   1.0000   1.0000   1.0000   0.0000   0.0000
     0.0000   0.0000   0.0000   0.0000

          k =-0.3536-0.3536 0.3536 (  7192 PWs)   bands (ev):

   -15.1337 -15.1337 -15.0942 -15.0942 -15.0759 -15.0759 -15.0339 -15.0339
   -14.1294 -14.1294 -14.1187 -14.1187 -14.0709 -14.0709 -13.9475 -13.9475
   -13.9323 -13.9323 -13.9286 -13.9286  -1.7085  -1.7085   0.8881   0.8881
     5.6865   5.6865   6.0997   6.0997   6.7469   6.7469   9.9812   9.9812
    10.2034  10.2034  12.6280  12.6280

     occupation numbers 
     1.0000   1.0000   1.0000   1.0000   1.0000   1.0000   1.0000   1.0000
     1.0000   1.0000   1.0000   1.0000   1.0000   1.0000   1.0000   1.0000
     1.0000   1.0000   1.0000   1.0000   1.0000   1.0000   1.0000   1.0000
     1.0000   1.0000   1.0000   1.0000   1.0000   1.0000   0.0000   0.0000
     0.0000   0.0000   0.0000   0.0000

          k = 0.0884 0.0000 0.0000 (  7255 PWs)   bands (ev):

   -15.1256 -15.1256 -15.1249 -15.1249 -15.0464 -15.0464 -15.0453 -15.0453
   -14.1965 -14.1965 -14.0379 -14.0379 -14.0335 -14.0335 -13.9892 -13.9892
   -13.9875 -13.9875 -13.8909 -13.8909  -3.1248  -3.1248   5.2345   5.2345
     6.5296   6.5296   6.9438   6.9438   7.5173   7.5173   8.8075   8.8075
     9.2990   9.2990   9.4338   9.4338

     occupation numbers 
     1.0000   1.0000   1.0000   1.0000   1.0000   1.0000   1.0000   1.0000
     1.0000   1.0000   1.0000   1.0000   1.0000   1.0000   1.0000   1.0000
     1.0000   1.0000   1.0000   1.0000   1.0000   1.0000   1.0000   1.0000
     1.0000   1.0000   1.0000   1.0000   0.0000   0.0000   0.0000   0.0000
     0.0000   0.0000   0.0000   0.0000

          k = 0.1326 0.0442-0.0442 (  7242 PWs)   bands (ev):

   -15.1263 -15.1263 -15.1232 -15.1232 -15.0480 -15.0480 -15.0442 -15.0442
   -14.1925 -14.1925 -14.0468 -14.0468 -14.0384 -14.0384 -13.9839 -13.9839
   -13.9802 -13.9802 -13.8929 -13.8929  -3.0440  -3.0440   4.6691   4.6691
     6.3903   6.3903   6.7332   6.7332   7.7203   7.7203   8.8741   8.8741
     9.5850   9.5850   9.7352   9.7352

     occupation numbers 
     1.0000   1.0000   1.0000   1.0000   1.0000   1.0000   1.0000   1.0000
     1.0000   1.0000   1.0000   1.0000   1.0000   1.0000   1.0000   1.0000
     1.0000   1.0000   1.0000   1.0000   1.0000   1.0000   1.0000   1.0000
     1.0000   1.0000   1.0000   1.0000   0.0000   0.0000   0.0000   0.0000
     0.0000   0.0000   0.0000   0.0000

          k = 0.1768 0.0884-0.0884 (  7236 PWs)   bands (ev):

   -15.1277 -15.1277 -15.1200 -15.1200 -15.0511 -15.0511 -15.0423 -15.0423
   -14.1854 -14.1854 -14.0585 -14.0585 -14.0455 -14.0455 -13.9773 -13.9773
   -13.9701 -13.9701 -13.8966 -13.8966  -2.8963  -2.8963   3.9169   3.9169
     6.1856   6.1856   6.5148   6.5148   7.7158   7.7158   9.1172   9.1172
     9.9183   9.9183  10.2471  10.2471

     occupation numbers 
     1.0000   1.0000   1.0000   1.0000   1.0000   1.0000   1.0000   1.0000
     1.0000   1.0000   1.0000   1.0000   1.0000   1.0000   1.0000   1.0000
     1.0000   1.0000   1.0000   1.0000   1.0000   1.0000   1.0000   1.0000
     1.0000   1.0000   1.0000   1.0000   0.0000   0.0000   0.0000   0.0000
     0.0000   0.0000   0.0000   0.0000

          k = 0.2210 0.1326-0.1326 (  7246 PWs)   bands (ev):

   -15.1294 -15.1294 -15.1155 -15.1155 -15.0554 -15.0554 -15.0400 -15.0400
   -14.1759 -14.1759 -14.0711 -14.0711 -14.0528 -14.0528 -13.9708 -13.9708
   -13.9600 -13.9600 -13.9014 -13.9014  -2.6865  -2.6865   3.1302   3.1302
     5.9698   5.9698   6.2971   6.2971   7.5987   7.5987   9.4224   9.4224
    10.1733  10.1733  10.8841  10.8841

     occupation numbers 
     1.0000   1.0000   1.0000   1.0000   1.0000   1.0000   1.0000   1.0000
     1.0000   1.0000   1.0000   1.0000   1.0000   1.0000   1.0000   1.0000
     1.0000   1.0000   1.0000   1.0000   1.0000   1.0000   1.0000   1.0000
     1.0000   1.0000   1.0000   1.0000   0.0000   0.0000   0.0000   0.0000
     0.0000   0.0000   0.0000   0.0000

          k = 0.2652 0.1768-0.1768 (  7237 PWs)   bands (ev):

   -15.1309 -15.1309 -15.1102 -15.1102 -15.0606 -15.0606 -15.0377 -15.0376
   -14.1648 -14.1648 -14.0835 -14.0835 -14.0594 -14.0594 -13.9649 -13.9649
   -13.9507 -13.9507 -13.9070 -13.9070  -2.4247  -2.4247   2.3776   2.3776
     5.7751   5.7751   6.1109   6.1109   7.4553   7.4553   9.6763   9.6763
    10.3137  10.3137  11.5593  11.5593

     occupation numbers 
     1.0000   1.0000   1.0000   1.0000   1.0000   1.0000   1.0000   1.0000
     1.0000   1.0000   1.0000   1.0000   1.0000   1.0000   1.0000   1.0000
     1.0000   1.0000   1.0000   1.0000   1.0000   1.0000   1.0000   1.0000
     1.0000   1.0000   1.0000   1.0000   0.0000   0.0000   0.0000   0.0000
     0.0000   0.0000   0.0000   0.0000

          k = 0.3094 0.2210-0.2210 (  7234 PWs)   bands (ev):

   -15.1323 -15.1323 -15.1043 -15.1043 -15.0664 -15.0664 -15.0357 -15.0357
   -14.1529 -14.1529 -14.0955 -14.0955 -14.0647 -14.0647 -13.9602 -13.9602
   -13.9430 -13.9430 -13.9127 -13.9127  -2.1326  -2.1326   1.7078   1.7078
     5.6147   5.6147   5.9763   5.9763   7.3275   7.3275   9.8332   9.8332
    10.3461  10.3461  12.2225  12.2225

     occupation numbers 
     1.0000   1.0000   1.0000   1.0000   1.0000   1.0000   1.0000   1.0000
     1.0000   1.0000   1.0000   1.0000   1.0000   1.0000   1.0000   1.0000
     1.0000   1.0000   1.0000   1.0000   1.0000   1.0000   1.0000   1.0000
     1.0000   1.0000   1.0000   1.0000   0.0000   0.0000   0.0000   0.0000
     0.0000   0.0000   0.0000   0.0000

          k = 0.3536 0.2652-0.2652 (  7233 PWs)   bands (ev):

   -15.1332 -15.1332 -15.0985 -15.0985 -15.0721 -15.0720 -15.0343 -15.0342
   -14.1412 -14.1412 -14.1067 -14.1067 -14.0683 -14.0683 -13.9569 -13.9569
   -13.9371 -13.9371 -13.9178 -13.9178  -1.8567  -1.8567   1.1821   1.1821
     5.4962   5.4962   5.9022   5.9022   7.2344   7.2344   9.9176   9.9176
    10.3156  10.3156  12.6486  12.6487

     occupation numbers 
     1.0000   1.0000   1.0000   1.0000   1.0000   1.0000   1.0000   1.0000
     1.0000   1.0000   1.0000   1.0000   1.0000   1.0000   1.0000   1.0000
     1.0000   1.0000   1.0000   1.0000   1.0000   1.0000   1.0000   1.0000
     1.0000   1.0000   1.0000   1.0000   0.0000   0.0000   0.0000   0.0000
     0.0000   0.0000   0.0000   0.0000

          k =-0.3094-0.3977 0.3977 (  7214 PWs)   bands (ev):

   -15.1336 -15.1336 -15.0945 -15.0945 -15.0760 -15.0760 -15.0336 -15.0336
   -14.1316 -14.1316 -14.1158 -14.1158 -14.0700 -14.0700 -13.9554 -13.9554
   -13.9336 -13.9336 -13.9210 -13.9210  -1.6888  -1.6888   0.8992   0.8992
     5.4255   5.4256   5.8901   5.8901   7.1841   7.1841   9.9698   9.9698
    10.2671  10.2671  12.7409  12.7409

     occupation numbers 
     1.0000   1.0000   1.0000   1.0000   1.0000   1.0000   1.0000   1.0000
     1.0000   1.0000   1.0000   1.0000   1.0000   1.0000   1.0000   1.0000
     1.0000   1.0000   1.0000   1.0000   1.0000   1.0000   1.0000   1.0000
     1.0000   1.0000   1.0000   1.0000   0.0000   0.0000   0.0000   0.0000
     0.0000   0.0000   0.0000   0.0000

          k =-0.2652-0.3536 0.3536 (  7222 PWs)   bands (ev):

   -15.1336 -15.1336 -15.0954 -15.0953 -15.0752 -15.0752 -15.0337 -15.0337
   -14.1342 -14.1342 -14.1133 -14.1133 -14.0696 -14.0696 -13.9559 -13.9559
   -13.9341 -13.9341 -13.9204 -13.9204  -1.7258  -1.7258   0.9595   0.9595
     5.4074   5.4074   5.9381   5.9381   7.1799   7.1799  10.0042  10.0042
    10.2300  10.2300  12.7536  12.7536

     occupation numbers 
     1.0000   1.0000   1.0000   1.0000   1.0000   1.0000   1.0000   1.0000
     1.0000   1.0000   1.0000   1.0000   1.0000   1.0000   1.0000   1.0000
     1.0000   1.0000   1.0000   1.0000   1.0000   1.0000   1.0000   1.0000
     1.0000   1.0000   1.0000   1.0000   0.0000   0.0000   0.0000   0.0000
     0.0000   0.0000   0.0000   0.0000

          k =-0.2210-0.3094 0.3094 (  7239 PWs)   bands (ev):

   -15.1330 -15.1330 -15.1002 -15.1002 -15.0704 -15.0704 -15.0346 -15.0346
   -14.1450 -14.1450 -14.1031 -14.1031 -14.0672 -14.0672 -13.9584 -13.9584
   -13.9382 -13.9382 -13.9164 -13.9164  -1.9428  -1.9428   1.3372   1.3372
     5.4453   5.4453   6.0420   6.0420   7.2212   7.2212   9.9988   9.9988
    10.2201  10.2201  12.6417  12.6417

     occupation numbers 
     1.0000   1.0000   1.0000   1.0000   1.0000   1.0000   1.0000   1.0000
     1.0000   1.0000   1.0000   1.0000   1.0000   1.0000   1.0000   1.0000
     1.0000   1.0000   1.0000   1.0000   1.0000   1.0000   1.0000   1.0000
     1.0000   1.0000   1.0000   1.0000   0.0000   0.0000   0.0000   0.0000
     0.0000   0.0000   0.0000   0.0000

          k =-0.1768-0.2652 0.2652 (  7233 PWs)   bands (ev):

   -15.1319 -15.1319 -15.1061 -15.1061 -15.0646 -15.0646 -15.0362 -15.0362
   -14.1569 -14.1569 -14.0916 -14.0916 -14.0629 -14.0629 -13.9624 -13.9624
   -13.9446 -13.9446 -13.9110 -13.9110  -2.2318  -2.2318   1.9197   1.9197
     5.5412   5.5412   6.1953   6.1953   7.3033   7.3033   9.9234   9.9234
    10.2097  10.2097  12.0782  12.0782

     occupation numbers 
     1.0000   1.0000   1.0000   1.0000   1.0000   1.0000   1.0000   1.0000
     1.0000   1.0000   1.0000   1.0000   1.0000   1.0000   1.0000   1.0000
     1.0000   1.0000   1.0000   1.0000   1.0000   1.0000   1.0000   1.0000
     1.0000   1.0000   1.0000   1.0000   0.0000   0.0000   0.0000   0.0000
     0.0000   0.0000   0.0000   0.0000

          k =-0.1326-0.2210 0.2210 (  7244 PWs)   bands (ev):

   -15.1306 -15.1305 -15.1119 -15.1119 -15.0590 -15.0590 -15.0383 -15.0382
   -14.1687 -14.1687 -14.0795 -14.0795 -14.0571 -14.0571 -13.9677 -13.9677
   -13.9527 -13.9527 -13.9052 -13.9052  -2.5173  -2.5173   2.6217   2.6217
     5.6958   5.6958   6.3876   6.3876   7.4142   7.4142   9.7655   9.7655
    10.1149  10.1149  11.3533  11.3533

     occupation numbers 
     1.0000   1.0000   1.0000   1.0000   1.0000   1.0000   1.0000   1.0000
     1.0000   1.0000   1.0000   1.0000   1.0000   1.0000   1.0000   1.0000
     1.0000   1.0000   1.0000   1.0000   1.0000   1.0000   1.0000   1.0000
     1.0000   1.0000   1.0000   1.0000   0.0000   0.0000   0.0000   0.0000
     0.0000   0.0000   0.0000   0.0000

          k =-0.0884-0.1768 0.1768 (  7245 PWs)   bands (ev):

   -15.1290 -15.1290 -15.1169 -15.1169 -15.0541 -15.0541 -15.0406 -15.0406
   -14.1794 -14.1794 -14.0669 -14.0669 -14.0502 -14.0502 -13.9739 -13.9739
   -13.9623 -13.9622 -13.8998 -13.8998  -2.7632  -2.7632   3.3882   3.3882
     5.9075   5.9075   6.6018   6.6018   7.5259   7.5259   9.5324   9.5324
     9.8619   9.8619  10.7016  10.7016

     occupation numbers 
     1.0000   1.0000   1.0000   1.0000   1.0000   1.0000   1.0000   1.0000
     1.0000   1.0000   1.0000   1.0000   1.0000   1.0000   1.0000   1.0000
     1.0000   1.0000   1.0000   1.0000   1.0000   1.0000   1.0000   1.0000
     1.0000   1.0000   1.0000   1.0000   0.0000   0.0000   0.0000   0.0000
     0.0000   0.0000   0.0000   0.0000

          k =-0.0442-0.1326 0.1326 (  7233 PWs)   bands (ev):

   -15.1274 -15.1274 -15.1209 -15.1209 -15.0502 -15.0502 -15.0428 -15.0428
   -14.1881 -14.1881 -14.0543 -14.0543 -14.0431 -14.0431 -13.9805 -13.9805
   -13.9726 -13.9726 -13.8953 -13.8953  -2.9530  -2.9530   4.1658   4.1658
     6.1697   6.1697   6.8076   6.8076   7.5760   7.5760   9.2655   9.2655
     9.5175   9.5175  10.1370  10.1370

     occupation numbers 
     1.0000   1.0000   1.0000   1.0000   1.0000   1.0000   1.0000   1.0000
     1.0000   1.0000   1.0000   1.0000   1.0000   1.0000   1.0000   1.0000
     1.0000   1.0000   1.0000   1.0000   1.0000   1.0000   1.0000   1.0000
     1.0000   1.0000   1.0000   1.0000   0.0000   0.0000   0.0000   0.0000
     0.0000   0.0000   0.0000   0.0000

          k = 0.0000-0.0884 0.0884 (  7257 PWs)   bands (ev):

   -15.1263 -15.1263 -15.1236 -15.1236 -15.0476 -15.0476 -15.0445 -15.0444
   -14.1942 -14.1942 -14.0429 -14.0429 -14.0369 -14.0369 -13.9864 -13.9864
   -13.9825 -13.9825 -13.8921 -13.8921  -3.0787  -3.0787   4.8677   4.8677
     6.4511   6.4511   6.9699   6.9699   7.4698   7.4698   9.0236   9.0236
     9.3037   9.3037   9.6372   9.6372

     occupation numbers 
     1.0000   1.0000   1.0000   1.0000   1.0000   1.0000   1.0000   1.0000
     1.0000   1.0000   1.0000   1.0000   1.0000   1.0000   1.0000   1.0000
     1.0000   1.0000   1.0000   1.0000   1.0000   1.0000   1.0000   1.0000
     1.0000   1.0000   0.0000   0.0000   0.0000   0.0000   0.0000   0.0000
     0.0000   0.0000   0.0000   0.0000

          k = 0.1768 0.0000 0.0000 (  7219 PWs)   bands (ev):

   -15.1257 -15.1257 -15.1232 -15.1232 -15.0482 -15.0482 -15.0443 -15.0443
   -14.1897 -14.1897 -14.0528 -14.0528 -14.0401 -14.0401 -13.9796 -13.9796
   -13.9779 -13.9779 -13.8941 -13.8941  -2.9859  -2.9859   4.4200   4.4200
     6.1998   6.1998   6.4549   6.4549   8.1844   8.1844   8.5678   8.5678
     9.8865   9.8865   9.9900   9.9900

     occupation numbers 
     1.0000   1.0000   1.0000   1.0000   1.0000   1.0000   1.0000   1.0000
     1.0000   1.0000   1.0000   1.0000   1.0000   1.0000   1.0000   1.0000
     1.0000   1.0000   1.0000   1.0000   1.0000   1.0000   1.0000   1.0000
     1.0000   1.0000   1.0000   1.0000   0.0000   0.0000   0.0000   0.0000
     0.0000   0.0000   0.0000   0.0000

          k = 0.2210 0.0442-0.0442 (  7224 PWs)   bands (ev):

   -15.1266 -15.1266 -15.1209 -15.1209 -15.0504 -15.0504 -15.0430 -15.0430
   -14.1837 -14.1837 -14.0622 -14.0622 -14.0448 -14.0448 -13.9761 -13.9761
   -13.9696 -13.9696 -13.8967 -13.8967  -2.8600  -2.8600   3.8782   3.8782
     5.9802   5.9802   6.2133   6.2133   8.3307   8.3307   8.5968   8.5968
    10.2574  10.2574  10.3845  10.3845

     occupation numbers 
     1.0000   1.0000   1.0000   1.0000   1.0000   1.0000   1.0000   1.0000
     1.0000   1.0000   1.0000   1.0000   1.0000   1.0000   1.0000   1.0000
     1.0000   1.0000   1.0000   1.0000   1.0000   1.0000   1.0000   1.0000
     1.0000   1.0000   1.0000   1.0000   0.0000   0.0000   0.0000   0.0000
     0.0000   0.0000   0.0000   0.0000

          k = 0.2652 0.0884-0.0884 (  7236 PWs)   bands (ev):

   -15.1282 -15.1282 -15.1169 -15.1169 -15.0543 -15.0543 -15.0407 -15.0407
   -14.1752 -14.1752 -14.0731 -14.0731 -14.0504 -14.0504 -13.9735 -13.9735
   -13.9592 -13.9592 -13.9003 -13.9003  -2.6701  -2.6701   3.2038   3.2038
     5.7300   5.7300   5.9912   5.9912   8.2576   8.2576   8.8852   8.8852
    10.5534  10.5534  10.8068  10.8068

     occupation numbers 
     1.0000   1.0000   1.0000   1.0000   1.0000   1.0000   1.0000   1.0000
     1.0000   1.0000   1.0000   1.0000   1.0000   1.0000   1.0000   1.0000
     1.0000   1.0000   1.0000   1.0000   1.0000   1.0000   1.0000   1.0000
     1.0000   1.0000   1.0000   1.0000   0.0000   0.0000   0.0000   0.0000
     0.0000   0.0000   0.0000   0.0000

          k = 0.3094 0.1326-0.1326 (  7236 PWs)   bands (ev):

   -15.1299 -15.1299 -15.1120 -15.1120 -15.0592 -15.0592 -15.0382 -15.0382
   -14.1650 -14.1650 -14.0841 -14.0841 -14.0561 -14.0561 -13.9713 -13.9713
   -13.9496 -13.9496 -13.9042 -13.9042  -2.4239  -2.4239   2.5031   2.5031
     5.4749   5.4749   5.8141   5.8141   8.1231   8.1231   9.2576   9.2576
    10.7248  10.7248  11.1244  11.1244

     occupation numbers 
     1.0000   1.0000   1.0000   1.0000   1.0000   1.0000   1.0000   1.0000
     1.0000   1.0000   1.0000   1.0000   1.0000   1.0000   1.0000   1.0000
     1.0000   1.0000   1.0000   1.0000   1.0000   1.0000   1.0000   1.0000
     1.0000   1.0000   1.0000   1.0000   0.0000   0.0000   0.0000   0.0000
     0.0000   0.0000   0.0000   0.0000

          k = 0.3536 0.1768-0.1768 (  7223 PWs)   bands (ev):

   -15.1315 -15.1314 -15.1063 -15.1063 -15.0648 -15.0648 -15.0359 -15.0359
   -14.1540 -14.1540 -14.0944 -14.0944 -14.0612 -14.0611 -13.9698 -13.9698
   -13.9419 -13.9418 -13.9077 -13.9077  -2.1378  -2.1378   1.8428   1.8428
     5.2419   5.2419   5.7003   5.7003   7.9842   7.9842   9.5766   9.5766
    10.7630  10.7630  11.4806  11.4806

     occupation numbers 
     1.0000   1.0000   1.0000   1.0000   1.0000   1.0000   1.0000   1.0000
     1.0000   1.0000   1.0000   1.0000   1.0000   1.0000   1.0000   1.0000
     1.0000   1.0000   1.0000   1.0000   1.0000   1.0000   1.0000   1.0000
     1.0000   1.0000   1.0000   1.0000   0.0000   0.0000   0.0000   0.0000
     0.0000   0.0000   0.0000   0.0000

          k = 0.3977 0.2210-0.2210 (  7214 PWs)   bands (ev):

   -15.1326 -15.1326 -15.1005 -15.1005 -15.0706 -15.0706 -15.0341 -15.0341
   -14.1433 -14.1433 -14.1036 -14.1036 -14.0651 -14.0651 -13.9691 -13.9691
   -13.9367 -13.9367 -13.9100 -13.9100  -1.8474  -1.8474   1.2850   1.2850
     5.0517   5.0517   5.6520   5.6520   7.8703   7.8703   9.7744   9.7744
    10.7089  10.7089  11.9936  11.9936

     occupation numbers 
     1.0000   1.0000   1.0000   1.0000   1.0000   1.0000   1.0000   1.0000
     1.0000   1.0000   1.0000   1.0000   1.0000   1.0000   1.0000   1.0000
     1.0000   1.0000   1.0000   1.0000   1.0000   1.0000   1.0000   1.0000
     1.0000   1.0000   1.0000   1.0000   0.0000   0.0000   0.0000   0.0000
     0.0000   0.0000   0.0000   0.0000

          k =-0.2652-0.4419 0.4419 (  7221 PWs)   bands (ev):

   -15.1333 -15.1333 -15.0956 -15.0956 -15.0756 -15.0756 -15.0329 -15.0329
   -14.1349 -14.1349 -14.1108 -14.1108 -14.0674 -14.0674 -13.9690 -13.9690
   -13.9341 -13.9341 -13.9110 -13.9110  -1.6289  -1.6289   0.9197   0.9197
     4.9163   4.9163   5.6678   5.6678   7.7950   7.7950   9.8930   9.8930
    10.6114  10.6114  12.5560  12.5560

     occupation numbers 
     1.0000   1.0000   1.0000   1.0000   1.0000   1.0000   1.0000   1.0000
     1.0000   1.0000   1.0000   1.0000   1.0000   1.0000   1.0000   1.0000
     1.0000   1.0000   1.0000   1.0000   1.0000   1.0000   1.0000   1.0000
     1.0000   1.0000   1.0000   1.0000   0.0000   0.0000   0.0000   0.0000
     0.0000   0.0000   0.0000   0.0000

          k =-0.2210-0.3977 0.3977 (  7216 PWs)   bands (ev):

   -15.1335 -15.1335 -15.0942 -15.0942 -15.0771 -15.0770 -15.0326 -15.0326
   -14.1334 -14.1334 -14.1122 -14.1122 -14.0676 -14.0676 -13.9695 -13.9695
   -13.9332 -13.9332 -13.9112 -13.9112  -1.5935  -1.5935   0.8644   0.8644
     4.8435   4.8435   5.7443   5.7443   7.7630   7.7630   9.9894   9.9894
    10.4997  10.4997  12.8583  12.8584

     occupation numbers 
     1.0000   1.0000   1.0000   1.0000   1.0000   1.0000   1.0000   1.0000
     1.0000   1.0000   1.0000   1.0000   1.0000   1.0000   1.0000   1.0000
     1.0000   1.0000   1.0000   1.0000   1.0000   1.0000   1.0000   1.0000
     1.0000   1.0000   1.0000   1.0000   0.0000   0.0000   0.0000   0.0000
     0.0000   0.0000   0.0000   0.0000

          k =-0.1768-0.3536 0.3536 (  7215 PWs)   bands (ev):

   -15.1332 -15.1332 -15.0977 -15.0977 -15.0736 -15.0736 -15.0332 -15.0332
   -14.1404 -14.1404 -14.1063 -14.1063 -14.0654 -14.0654 -13.9705 -13.9705
   -13.9341 -13.9341 -13.9108 -13.9108  -1.7656  -1.7656   1.1439   1.1439
     4.8395   4.8395   5.8763   5.8763   7.7735   7.7735  10.0792  10.0792
    10.3828  10.3828  12.6058  12.6058

     occupation numbers 
     1.0000   1.0000   1.0000   1.0000   1.0000   1.0000   1.0000   1.0000
     1.0000   1.0000   1.0000   1.0000   1.0000   1.0000   1.0000   1.0000
     1.0000   1.0000   1.0000   1.0000   1.0000   1.0000   1.0000   1.0000
     1.0000   1.0000   1.0000   1.0000   0.0000   0.0000   0.0000   0.0000
     0.0000   0.0000   0.0000   0.0000

          k =-0.1326-0.3094 0.3094 (  7231 PWs)   bands (ev):

   -15.1324 -15.1324 -15.1032 -15.1032 -15.0681 -15.0681 -15.0345 -15.0345
   -14.1506 -14.1506 -14.0977 -14.0977 -14.0616 -14.0616 -13.9720 -13.9720
   -13.9373 -13.9373 -13.9093 -13.9093  -2.0439  -2.0439   1.6505   1.6505
     4.9110   4.9110   6.0553   6.0553   7.8190   7.8190  10.1026  10.1026
    10.2804  10.2804  11.9601  11.9601

     occupation numbers 
     1.0000   1.0000   1.0000   1.0000   1.0000   1.0000   1.0000   1.0000
     1.0000   1.0000   1.0000   1.0000   1.0000   1.0000   1.0000   1.0000
     1.0000   1.0000   1.0000   1.0000   1.0000   1.0000   1.0000   1.0000
     1.0000   1.0000   1.0000   1.0000   0.0000   0.0000   0.0000   0.0000
     0.0000   0.0000   0.0000   0.0000

          k =-0.0884-0.2652 0.2652 (  7243 PWs)   bands (ev):

   -15.1312 -15.1312 -15.1089 -15.1089 -15.0625 -15.0625 -15.0365 -15.0365
   -14.1616 -14.1616 -14.0879 -14.0879 -14.0567 -14.0567 -13.9740 -13.9740
   -13.9435 -13.9435 -13.9062 -13.9062  -2.3364  -2.3364   2.2781   2.2781
     5.0673   5.0673   6.2674   6.2674   7.8807   7.8807   9.9454   9.9454
    10.1932  10.1932  11.3555  11.3555

     occupation numbers 
     1.0000   1.0000   1.0000   1.0000   1.0000   1.0000   1.0000   1.0000
     1.0000   1.0000   1.0000   1.0000   1.0000   1.0000   1.0000   1.0000
     1.0000   1.0000   1.0000   1.0000   1.0000   1.0000   1.0000   1.0000
     1.0000   1.0000   1.0000   1.0000   0.0000   0.0000   0.0000   0.0000
     0.0000   0.0000   0.0000   0.0000

          k =-0.0442-0.2210 0.2210 (  7238 PWs)   bands (ev):

   -15.1298 -15.1298 -15.1140 -15.1140 -15.0574 -15.0574 -15.0388 -15.0388
   -14.1722 -14.1722 -14.0770 -14.0770 -14.0514 -14.0514 -13.9762 -13.9762
   -13.9522 -13.9522 -13.9023 -13.9023  -2.5974  -2.5974   2.9531   2.9531
     5.3226   5.3226   6.4891   6.4891   7.9149   7.9149   9.6949   9.6950
     9.9282   9.9282  10.9741  10.9741

     occupation numbers 
     1.0000   1.0000   1.0000   1.0000   1.0000   1.0000   1.0000   1.0000
     1.0000   1.0000   1.0000   1.0000   1.0000   1.0000   1.0000   1.0000
     1.0000   1.0000   1.0000   1.0000   1.0000   1.0000   1.0000   1.0000
     1.0000   1.0000   1.0000   1.0000   0.0000   0.0000   0.0000   0.0000
     0.0000   0.0000   0.0000   0.0000

          k = 0.0000-0.1768 0.1768 (  7245 PWs)   bands (ev):

   -15.1284 -15.1284 -15.1181 -15.1181 -15.0531 -15.0531 -15.0411 -15.0411
   -14.1813 -14.1813 -14.0654 -14.0654 -14.0467 -14.0467 -13.9785 -13.9785
   -13.9624 -13.9624 -13.8984 -13.8984  -2.8063  -2.8063   3.6074   3.6074
     5.6943   5.6943   6.6825   6.6825   7.8360   7.8360   9.4373   9.4373
     9.6255   9.6255  10.6350  10.6350

     occupation numbers 
     1.0000   1.0000   1.0000   1.0000   1.0000   1.0000   1.0000   1.0000
     1.0000   1.0000   1.0000   1.0000   1.0000   1.0000   1.0000   1.0000
     1.0000   1.0000   1.0000   1.0000   1.0000   1.0000   1.0000   1.0000
     1.0000   1.0000   1.0000   1.0000   0.0000   0.0000   0.0000   0.0000
     0.0000   0.0000   0.0000   0.0000

          k = 0.2652 0.0000 0.0000 (  7231 PWs)   bands (ev):

   -15.1258 -15.1258 -15.1208 -15.1208 -15.0508 -15.0508 -15.0432 -15.0432
   -14.1789 -14.1789 -14.0689 -14.0689 -14.0473 -14.0473 -13.9718 -13.9718
   -13.9673 -13.9673 -13.8980 -13.8980  -2.7557  -2.7557   3.5671   3.5671
     5.7884   5.7884   5.9597   5.9597   8.2404   8.2404   8.7312   8.7312
    10.6614  10.6614  10.6949  10.6949

     occupation numbers 
     1.0000   1.0000   1.0000   1.0000   1.0000   1.0000   1.0000   1.0000
     1.0000   1.0000   1.0000   1.0000   1.0000   1.0000   1.0000   1.0000
     1.0000   1.0000   1.0000   1.0000   1.0000   1.0000   1.0000   1.0000
     1.0000   1.0000   1.0000   1.0000   0.0000   0.0000   0.0000   0.0000
     0.0000   0.0000   0.0000   0.0000

          k = 0.3094 0.0442-0.0442 (  7237 PWs)   bands (ev):

   -15.1266 -15.1266 -15.1182 -15.1182 -15.0532 -15.0532 -15.0418 -15.0418
   -14.1716 -14.1716 -14.0776 -14.0776 -14.0510 -14.0510 -13.9723 -13.9723
   -13.9584 -13.9584 -13.9001 -13.9001  -2.5861  -2.5861   3.0635   3.0635
     5.5564   5.5564   5.7341   5.7341   8.2212   8.2212   8.8359   8.8359
    10.9907  10.9907  11.0426  11.0426

     occupation numbers 
     1.0000   1.0000   1.0000   1.0000   1.0000   1.0000   1.0000   1.0000
     1.0000   1.0000   1.0000   1.0000   1.0000   1.0000   1.0000   1.0000
     1.0000   1.0000   1.0000   1.0000   1.0000   1.0000   1.0000   1.0000
     1.0000   1.0000   1.0000   1.0000   0.0000   0.0000   0.0000   0.0000
     0.0000   0.0000   0.0000   0.0000

          k = 0.3536 0.0884-0.0884 (  7224 PWs)   bands (ev):

   -15.1283 -15.1283 -15.1139 -15.1139 -15.0575 -15.0575 -15.0394 -15.0394
   -14.1625 -14.1625 -14.0869 -14.0869 -14.0548 -14.0548 -13.9744 -13.9744
   -13.9489 -13.9489 -13.9023 -13.9023  -2.3570  -2.3570   2.4728   2.4728
     5.2648   5.2648   5.5549   5.5549   8.3099   8.3099   8.9827   8.9827
    11.0673  11.0673  11.2680  11.2680

     occupation numbers 
     1.0000   1.0000   1.0000   1.0000   1.0000   1.0000   1.0000   1.0000
     1.0000   1.0000   1.0000   1.0000   1.0000   1.0000   1.0000   1.0000
     1.0000   1.0000   1.0000   1.0000   1.0000   1.0000   1.0000   1.0000
     1.0000   1.0000   1.0000   1.0000   0.0000   0.0000   0.0000   0.0000
     0.0000   0.0000   0.0000   0.0000

          k = 0.3977 0.1326-0.1326 (  7227 PWs)   bands (ev):

   -15.1300 -15.1300 -15.1088 -15.1088 -15.0627 -15.0627 -15.0368 -15.0368
   -14.1527 -14.1527 -14.0953 -14.0953 -14.0584 -14.0584 -13.9771 -13.9771
   -13.9412 -13.9412 -13.9038 -13.9038  -2.0807  -2.0807   1.8717   1.8717
     4.9607   4.9607   5.4451   5.4451   8.2840   8.2840   9.3578   9.3578
    11.0707  11.0707  11.3504  11.3504

     occupation numbers 
     1.0000   1.0000   1.0000   1.0000   1.0000   1.0000   1.0000   1.0000
     1.0000   1.0000   1.0000   1.0000   1.0000   1.0000   1.0000   1.0000
     1.0000   1.0000   1.0000   1.0000   1.0000   1.0000   1.0000   1.0000
     1.0000   1.0000   1.0000   1.0000   0.0000   0.0000   0.0000   0.0000
     0.0000   0.0000   0.0000   0.0000

          k = 0.4419 0.1768-0.1768 (  7220 PWs)   bands (ev):

   -15.1315 -15.1315 -15.1033 -15.1033 -15.0684 -15.0683 -15.0345 -15.0345
   -14.1435 -14.1435 -14.1021 -14.1021 -14.0615 -14.0615 -13.9800 -13.9800
   -13.9363 -13.9363 -13.9039 -13.9039  -1.7838  -1.7838   1.3240   1.3240
     4.6944   4.6944   5.4030   5.4030   8.2101   8.2101   9.7690   9.7690
    11.1978  11.1978  11.3527  11.3527

     occupation numbers 
     1.0000   1.0000   1.0000   1.0000   1.0000   1.0000   1.0000   1.0000
     1.0000   1.0000   1.0000   1.0000   1.0000   1.0000   1.0000   1.0000
     1.0000   1.0000   1.0000   1.0000   1.0000   1.0000   1.0000   1.0000
     1.0000   1.0000   1.0000   1.0000   0.0000   0.0000   0.0000   0.0000
     0.0000   0.0000   0.0000   0.0000

          k =-0.2210-0.4861 0.4861 (  7219 PWs)   bands (ev):

   -15.1325 -15.1325 -15.0981 -15.0981 -15.0737 -15.0737 -15.0327 -15.0327
   -14.1369 -14.1369 -14.1065 -14.1065 -14.0636 -14.0636 -13.9825 -13.9825
   -13.9340 -13.9340 -13.9032 -13.9032  -1.5267  -1.5267   0.9115   0.9115
     4.4903   4.4903   5.4265   5.4265   8.1535   8.1535  10.0255  10.0255
    11.1535  11.1535  11.7520  11.7521

     occupation numbers 
     1.0000   1.0000   1.0000   1.0000   1.0000   1.0000   1.0000   1.0000
     1.0000   1.0000   1.0000   1.0000   1.0000   1.0000   1.0000   1.0000
     1.0000   1.0000   1.0000   1.0000   1.0000   1.0000   1.0000   1.0000
     1.0000   1.0000   1.0000   1.0000   0.0000   0.0000   0.0000   0.0000
     0.0000   0.0000   0.0000   0.0000

          k =-0.1768-0.4419 0.4419 (  7212 PWs)   bands (ev):

   -15.1331 -15.1331 -15.0947 -15.0947 -15.0773 -15.0773 -15.0318 -15.0318
   -14.1347 -14.1347 -14.1080 -14.1080 -14.0640 -14.0640 -13.9841 -13.9841
   -13.9331 -13.9331 -13.9027 -13.9027  -1.4215  -1.4215   0.7568   0.7568
     4.3613   4.3613   5.5129   5.5129   8.1323   8.1323  10.1603  10.1603
    11.0043  11.0043  12.3772  12.3772

     occupation numbers 
     1.0000   1.0000   1.0000   1.0000   1.0000   1.0000   1.0000   1.0000
     1.0000   1.0000   1.0000   1.0000   1.0000   1.0000   1.0000   1.0000
     1.0000   1.0000   1.0000   1.0000   1.0000   1.0000   1.0000   1.0000
     1.0000   1.0000   1.0000   1.0000   0.0000   0.0000   0.0000   0.0000
     0.0000   0.0000   0.0000   0.0000

          k =-0.1326-0.3977 0.3977 (  7214 PWs)   bands (ev):

   -15.1332 -15.1332 -15.0956 -15.0956 -15.0765 -15.0765 -15.0318 -15.0318
   -14.1376 -14.1376 -14.1063 -14.1063 -14.0623 -14.0623 -13.9845 -13.9845
   -13.9329 -13.9329 -13.9033 -13.9033  -1.5410  -1.5410   0.9341   0.9341
     4.3177   4.3177   5.6566   5.6566   8.1458   8.1458  10.2674  10.2675
    10.8245  10.8245  12.4827  12.4827

     occupation numbers 
     1.0000   1.0000   1.0000   1.0000   1.0000   1.0000   1.0000   1.0000
     1.0000   1.0000   1.0000   1.0000   1.0000   1.0000   1.0000   1.0000
     1.0000   1.0000   1.0000   1.0000   1.0000   1.0000   1.0000   1.0000
     1.0000   1.0000   1.0000   1.0000   0.0000   0.0000   0.0000   0.0000
     0.0000   0.0000   0.0000   0.0000

          k =-0.0884-0.3536 0.3536 (  7211 PWs)   bands (ev):

   -15.1328 -15.1328 -15.0999 -15.0999 -15.0722 -15.0722 -15.0327 -15.0327
   -14.1445 -14.1445 -14.1021 -14.1021 -14.0593 -14.0593 -13.9836 -13.9835
   -13.9337 -13.9337 -13.9045 -13.9045  -1.8030  -1.8030   1.3531   1.3531
     4.3723   4.3723   5.8480   5.8480   8.1805   8.1805  10.3683  10.3683
    10.6079  10.6079  11.8201  11.8201

     occupation numbers 
     1.0000   1.0000   1.0000   1.0000   1.0000   1.0000   1.0000   1.0000
     1.0000   1.0000   1.0000   1.0000   1.0000   1.0000   1.0000   1.0000
     1.0000   1.0000   1.0000   1.0000   1.0000   1.0000   1.0000   1.0000
     1.0000   1.0000   1.0000   1.0000   0.0000   0.0000   0.0000   0.0000
     0.0000   0.0000   0.0000   0.0000

          k =-0.0442-0.3094 0.3094 (  7217 PWs)   bands (ev):

   -15.1320 -15.1320 -15.1050 -15.1050 -15.0670 -15.0670 -15.0344 -15.0344
   -14.1536 -14.1536 -14.0955 -14.0955 -14.0560 -14.0560 -13.9815 -13.9815
   -13.9368 -13.9368 -13.9053 -13.9053  -2.0990  -2.0990   1.8850   1.8850
     4.5433   4.5433   6.0710   6.0710   8.2029   8.2029  10.2935  10.2935
    10.4314  10.4314  11.2141  11.2141

     occupation numbers 
     1.0000   1.0000   1.0000   1.0000   1.0000   1.0000   1.0000   1.0000
     1.0000   1.0000   1.0000   1.0000   1.0000   1.0000   1.0000   1.0000
     1.0000   1.0000   1.0000   1.0000   1.0000   1.0000   1.0000   1.0000
     1.0000   1.0000   1.0000   1.0000   0.0000   0.0000   0.0000   0.0000
     0.0000   0.0000   0.0000   0.0000

          k = 0.0000-0.2652 0.2652 (  7225 PWs)   bands (ev):

   -15.1309 -15.1309 -15.1099 -15.1099 -15.0618 -15.0618 -15.0365 -15.0365
   -14.1632 -14.1632 -14.0869 -14.0869 -14.0533 -14.0533 -13.9789 -13.9789
   -13.9432 -13.9432 -13.9045 -13.9045  -2.3721  -2.3721   2.4396   2.4396
     4.8548   4.8548   6.2987   6.2987   8.1444   8.1444   9.9888   9.9888
    10.1717  10.1718  11.0222  11.0222

     occupation numbers 
     1.0000   1.0000   1.0000   1.0000   1.0000   1.0000   1.0000   1.0000
     1.0000   1.0000   1.0000   1.0000   1.0000   1.0000   1.0000   1.0000
     1.0000   1.0000   1.0000   1.0000   1.0000   1.0000   1.0000   1.0000
     1.0000   1.0000   1.0000   1.0000   0.0000   0.0000   0.0000   0.0000
     0.0000   0.0000   0.0000   0.0000

          k = 0.3536 0.0000 0.0000 (  7187 PWs)   bands (ev):

   -15.1255 -15.1255 -15.1182 -15.1182 -15.0532 -15.0532 -15.0424 -15.0424
   -14.1654 -14.1654 -14.0840 -14.0840 -14.0533 -14.0533 -13.9725 -13.9725
   -13.9540 -13.9540 -13.9008 -13.9008  -2.4362  -2.4362   2.7201   2.7201
     5.4048   5.4048   5.5232   5.5232   7.9596   7.9596   8.8961   8.8961
    11.4557  11.4557  11.4923  11.4924

     occupation numbers 
     1.0000   1.0000   1.0000   1.0000   1.0000   1.0000   1.0000   1.0000
     1.0000   1.0000   1.0000   1.0000   1.0000   1.0000   1.0000   1.0000
     1.0000   1.0000   1.0000   1.0000   1.0000   1.0000   1.0000   1.0000
     1.0000   1.0000   1.0000   1.0000   0.0000   0.0000   0.0000   0.0000
     0.0000   0.0000   0.0000   0.0000

          k = 0.3977 0.0442-0.0442 (  7226 PWs)   bands (ev):

   -15.1262 -15.1262 -15.1158 -15.1158 -15.0555 -15.0555 -15.0413 -15.0413
   -14.1576 -14.1576 -14.0913 -14.0913 -14.0555 -14.0555 -13.9765 -13.9765
   -13.9463 -13.9463 -13.9017 -13.9017  -2.2248  -2.2248   2.2546   2.2546
     5.1820   5.1820   5.3349   5.3349   7.9811   7.9811   8.8632   8.8632
    11.6065  11.6065  11.8183  11.8183

     occupation numbers 
     1.0000   1.0000   1.0000   1.0000   1.0000   1.0000   1.0000   1.0000
     1.0000   1.0000   1.0000   1.0000   1.0000   1.0000   1.0000   1.0000
     1.0000   1.0000   1.0000   1.0000   1.0000   1.0000   1.0000   1.0000
     1.0000   1.0000   1.0000   1.0000   0.0000   0.0000   0.0000   0.0000
     0.0000   0.0000   0.0000   0.0000

          k = 0.4419 0.0884-0.0884 (  7204 PWs)   bands (ev):

   -15.1278 -15.1278 -15.1116 -15.1116 -15.0598 -15.0598 -15.0388 -15.0388
   -14.1491 -14.1491 -14.0981 -14.0981 -14.0571 -14.0571 -13.9824 -13.9824
   -13.9391 -13.9391 -13.9019 -13.9019  -1.9609  -1.9609   1.7424   1.7424
     4.8626   4.8626   5.2150   5.2150   8.1233   8.1233   8.9974   8.9974
    11.4810  11.4810  11.9816  11.9816

     occupation numbers 
     1.0000   1.0000   1.0000   1.0000   1.0000   1.0000   1.0000   1.0000
     1.0000   1.0000   1.0000   1.0000   1.0000   1.0000   1.0000   1.0000
     1.0000   1.0000   1.0000   1.0000   1.0000   1.0000   1.0000   1.0000
     1.0000   1.0000   1.0000   1.0000   0.0000   0.0000   0.0000   0.0000
     0.0000   0.0000   0.0000   0.0000

          k = 0.4861 0.1326-0.1326 (  7211 PWs)   bands (ev):

   -15.1296 -15.1296 -15.1067 -15.1067 -15.0650 -15.0650 -15.0360 -15.0360
   -14.1417 -14.1417 -14.1027 -14.1027 -14.0582 -14.0582 -13.9888 -13.9888
   -13.9346 -13.9346 -13.9007 -13.9007  -1.6639  -1.6639   1.2426   1.2426
     4.5313   4.5313   5.1676   5.1676   8.1665   8.1665   9.4518   9.4518
    11.3574  11.3574  11.9749  11.9749

     occupation numbers 
     1.0000   1.0000   1.0000   1.0000   1.0000   1.0000   1.0000   1.0000
     1.0000   1.0000   1.0000   1.0000   1.0000   1.0000   1.0000   1.0000
     1.0000   1.0000   1.0000   1.0000   1.0000   1.0000   1.0000   1.0000
     1.0000   1.0000   1.0000   1.0000   0.0000   0.0000   0.0000   0.0000
     0.0000   0.0000   0.0000   0.0000

          k =-0.1768-0.5303 0.5303 (  7203 PWs)   bands (ev):

   -15.1311 -15.1311 -15.1018 -15.1018 -15.0703 -15.0703 -15.0336 -15.0336
   -14.1372 -14.1372 -14.1044 -14.1044 -14.0589 -14.0589 -13.9944 -13.9944
   -13.9328 -13.9328 -13.8985 -13.8985  -1.3798  -1.3798   0.8231   0.8231
     4.2522   4.2522   5.1877   5.1877   8.1640   8.1640  10.0639  10.0639
    11.3395  11.3395  11.8571  11.8571

     occupation numbers 
     1.0000   1.0000   1.0000   1.0000   1.0000   1.0000   1.0000   1.0000
     1.0000   1.0000   1.0000   1.0000   1.0000   1.0000   1.0000   1.0000
     1.0000   1.0000   1.0000   1.0000   1.0000   1.0000   1.0000   1.0000
[...]

   -15.1315 -15.1315 -15.1005 -15.1005 -15.0722 -15.0721 -15.0325 -15.0325
   -14.1378 -14.1378 -14.1025 -14.1025 -14.0569 -14.0569 -13.9996 -13.9996
   -13.9333 -13.9333 -13.8960 -13.8960  -1.3047  -1.3047   0.7598   0.7598
     4.1381   4.1381   5.0144   5.0144   8.8099   8.8099   9.9122   9.9122
    10.8456  10.8456  12.3810  12.3810

     occupation numbers 
     1.0000   1.0000   1.0000   1.0000   1.0000   1.0000   1.0000   1.0000
     1.0000   1.0000   1.0000   1.0000   1.0000   1.0000   1.0000   1.0000
     1.0000   1.0000   1.0000   1.0000   1.0000   1.0000   1.0000   1.0000
     1.0000   1.0000   1.0000   1.0000   0.0000   0.0000   0.0000   0.0000
     0.0000   0.0000   0.0000   0.0000

          k =-0.1326-0.3977 0.5745 (  7218 PWs)   bands (ev):

   -15.1321 -15.1321 -15.0976 -15.0975 -15.0753 -15.0753 -15.0314 -15.0314
   -14.1368 -14.1368 -14.1015 -14.1015 -14.0569 -14.0569 -14.0031 -14.0031
   -13.9332 -13.9332 -13.8943 -13.8943  -1.1230  -1.1230   0.5262   0.5262
     4.0185   4.0185   4.9966   4.9966   8.8311   8.8311  10.0871  10.0871
    11.3499  11.3500  12.0635  12.0635

     occupation numbers 
     1.0000   1.0000   1.0000   1.0000   1.0000   1.0000   1.0000   1.0000
     1.0000   1.0000   1.0000   1.0000   1.0000   1.0000   1.0000   1.0000
     1.0000   1.0000   1.0000   1.0000   1.0000   1.0000   1.0000   1.0000
     1.0000   1.0000   1.0000   1.0000   0.0000   0.0000   0.0000   0.0000
     0.0000   0.0000   0.0000   0.0000

          k =-0.0884-0.3536 0.5303 (  7222 PWs)   bands (ev):

   -15.1324 -15.1324 -15.0970 -15.0970 -15.0760 -15.0759 -15.0311 -15.0311
   -14.1373 -14.1373 -14.1016 -14.1016 -14.0567 -14.0566 -14.0027 -14.0026
   -13.9333 -13.9333 -13.8945 -13.8945  -1.1776  -1.1776   0.5955   0.5955
     3.9860   3.9860   5.0650   5.0650   8.8750   8.8750  10.0808  10.0808
    11.4077  11.4077  12.0297  12.0297

     occupation numbers 
     1.0000   1.0000   1.0000   1.0000   1.0000   1.0000   1.0000   1.0000
     1.0000   1.0000   1.0000   1.0000   1.0000   1.0000   1.0000   1.0000
     1.0000   1.0000   1.0000   1.0000   1.0000   1.0000   1.0000   1.0000
     1.0000   1.0000   1.0000   1.0000   0.0000   0.0000   0.0000   0.0000
     0.0000   0.0000   0.0000   0.0000

          k =-0.0442-0.3094 0.4861 (  7219 PWs)   bands (ev):

   -15.1322 -15.1322 -15.0991 -15.0991 -15.0737 -15.0736 -15.0318 -15.0318
   -14.1393 -14.1393 -14.1023 -14.1023 -14.0564 -14.0564 -13.9982 -13.9982
   -13.9336 -13.9335 -13.8967 -13.8967  -1.4213  -1.4213   0.9147   0.9147
     4.0573   4.0573   5.2069   5.2069   8.9225   8.9225   9.9692   9.9692
    10.8488  10.8488  12.2367  12.2367

     occupation numbers 
     1.0000   1.0000   1.0000   1.0000   1.0000   1.0000   1.0000   1.0000
     1.0000   1.0000   1.0000   1.0000   1.0000   1.0000   1.0000   1.0000
     1.0000   1.0000   1.0000   1.0000   1.0000   1.0000   1.0000   1.0000
     1.0000   1.0000   1.0000   1.0000   0.0000   0.0000   0.0000   0.0000
     0.0000   0.0000   0.0000   0.0000

          k = 0.0000-0.2652 0.4419 (  7224 PWs)   bands (ev):

   -15.1316 -15.1316 -15.1027 -15.1026 -15.0698 -15.0698 -15.0333 -15.0333
   -14.1438 -14.1438 -14.1012 -14.1012 -14.0565 -14.0565 -13.9909 -13.9909
   -13.9347 -13.9347 -13.9001 -13.9000  -1.7195  -1.7195   1.3335   1.3335
     4.2512   4.2512   5.3971   5.3971   8.9130   8.9130   9.6262   9.6262
    10.6752  10.6752  12.0093  12.0093

     occupation numbers 
     1.0000   1.0000   1.0000   1.0000   1.0000   1.0000   1.0000   1.0000
     1.0000   1.0000   1.0000   1.0000   1.0000   1.0000   1.0000   1.0000
     1.0000   1.0000   1.0000   1.0000   1.0000   1.0000   1.0000   1.0000
     1.0000   1.0000   1.0000   1.0000   0.0000   0.0000   0.0000   0.0000
     0.0000   0.0000   0.0000   0.0000

          k =-0.1768-0.5303 0.7071 (  7209 PWs)   bands (ev):

   -15.1288 -15.1288 -15.1073 -15.1072 -15.0647 -15.0647 -15.0362 -15.0362
   -14.1384 -14.1384 -14.1040 -14.1040 -14.0549 -14.0549 -13.9988 -13.9987
   -13.9319 -13.9319 -13.8981 -13.8981  -1.4282  -1.4282   0.9526   0.9526
     4.4161   4.4161   4.8733   4.8733   8.5653   8.5653   8.9587   8.9587
    11.3595  11.3595  12.9590  12.9590

     occupation numbers 
     1.0000   1.0000   1.0000   1.0000   1.0000   1.0000   1.0000   1.0000
     1.0000   1.0000   1.0000   1.0000   1.0000   1.0000   1.0000   1.0000
     1.0000   1.0000   1.0000   1.0000   1.0000   1.0000   1.0000   1.0000
     1.0000   1.0000   1.0000   1.0000   0.0000   0.0000   0.0000   0.0000
     0.0000   0.0000   0.0000   0.0000

          k =-0.1326-0.4861 0.6629 (  7205 PWs)   bands (ev):

   -15.1299 -15.1299 -15.1040 -15.1040 -15.0685 -15.0684 -15.0340 -15.0340
   -14.1368 -14.1368 -14.1025 -14.1025 -14.0526 -14.0526 -14.0077 -14.0077
   -13.9315 -13.9315 -13.8946 -13.8946  -1.1243  -1.1243   0.5690   0.5690
     4.1885   4.1885   4.7512   4.7512   8.7369   8.7369   9.4229   9.4229
    11.1872  11.1872  12.9149  12.9149

     occupation numbers 
     1.0000   1.0000   1.0000   1.0000   1.0000   1.0000   1.0000   1.0000
     1.0000   1.0000   1.0000   1.0000   1.0000   1.0000   1.0000   1.0000
     1.0000   1.0000   1.0000   1.0000   1.0000   1.0000   1.0000   1.0000
     1.0000   1.0000   1.0000   1.0000   0.0000   0.0000   0.0000   0.0000
     0.0000   0.0000   0.0000   0.0000

          k =-0.0884-0.4419 0.6187 (  7214 PWs)   bands (ev):

   -15.1309 -15.1309 -15.1009 -15.1008 -15.0721 -15.0720 -15.0323 -15.0322
   -14.1370 -14.1370 -14.0997 -14.0997 -14.0508 -14.0507 -14.0138 -14.0138
   -13.9321 -13.9321 -13.8919 -13.8919  -0.8863  -0.8863   0.2937   0.2937
     3.9934   3.9934   4.7397   4.7397   8.7962   8.7962  10.1363  10.1363
    11.0885  11.0885  12.3444  12.3444

     occupation numbers 
     1.0000   1.0000   1.0000   1.0000   1.0000   1.0000   1.0000   1.0000
     1.0000   1.0000   1.0000   1.0000   1.0000   1.0000   1.0000   1.0000
     1.0000   1.0000   1.0000   1.0000   1.0000   1.0000   1.0000   1.0000
     1.0000   1.0000   1.0000   1.0000   0.0000   0.0000   0.0000   0.0000
     0.0000   0.0000   0.0000   0.0000

          k =-0.0442-0.3977 0.5745 (  7217 PWs)   bands (ev):

   -15.1317 -15.1317 -15.0986 -15.0985 -15.0747 -15.0746 -15.0312 -15.0312
   -14.1376 -14.1375 -14.0987 -14.0987 -14.0510 -14.0510 -14.0142 -14.0142
   -13.9328 -13.9328 -13.8912 -13.8912  -0.8884  -0.8884   0.2986   0.2986
     3.8824   3.8824   4.8272   4.8272   8.8729   8.8729  10.5951  10.5951
    11.2967  11.2967  11.6353  11.6353

     occupation numbers 
     1.0000   1.0000   1.0000   1.0000   1.0000   1.0000   1.0000   1.0000
     1.0000   1.0000   1.0000   1.0000   1.0000   1.0000   1.0000   1.0000
     1.0000   1.0000   1.0000   1.0000   1.0000   1.0000   1.0000   1.0000
     1.0000   1.0000   1.0000   1.0000   0.0000   0.0000   0.0000   0.0000
     0.0000   0.0000   0.0000   0.0000

          k = 0.0000-0.3536 0.5303 (  7218 PWs)   bands (ev):

   -15.1321 -15.1321 -15.0979 -15.0978 -15.0753 -15.0753 -15.0311 -15.0311
   -14.1380 -14.1380 -14.1002 -14.1001 -14.0534 -14.0533 -14.0082 -14.0082
   -13.9332 -13.9332 -13.8929 -13.8929  -1.1237  -1.1237   0.5673   0.5673
     3.8953   3.8953   4.9919   4.9919   8.9481   8.9481  10.4616  10.4616
    10.9274  10.9274  12.1057  12.1057

     occupation numbers 
     1.0000   1.0000   1.0000   1.0000   1.0000   1.0000   1.0000   1.0000
     1.0000   1.0000   1.0000   1.0000   1.0000   1.0000   1.0000   1.0000
     1.0000   1.0000   1.0000   1.0000   1.0000   1.0000   1.0000   1.0000
     1.0000   1.0000   1.0000   1.0000   0.0000   0.0000   0.0000   0.0000
     0.0000   0.0000   0.0000   0.0000

          k =-0.0884-0.5303 0.7071 (  7204 PWs)   bands (ev):

   -15.1280 -15.1280 -15.1073 -15.1072 -15.0647 -15.0647 -15.0363 -15.0363
   -14.1346 -14.1346 -14.1048 -14.1048 -14.0473 -14.0472 -14.0149 -14.0148
   -13.9281 -13.9281 -13.8955 -13.8955  -0.9019  -0.9019   0.3018   0.3018
     4.3349   4.3349   4.5916   4.5916   8.5301   8.5301   8.7848   8.7848
    12.0261  12.0261  13.2493  13.2493

     occupation numbers 
     1.0000   1.0000   1.0000   1.0000   1.0000   1.0000   1.0000   1.0000
     1.0000   1.0000   1.0000   1.0000   1.0000   1.0000   1.0000   1.0000
     1.0000   1.0000   1.0000   1.0000   1.0000   1.0000   1.0000   1.0000
     1.0000   1.0000   1.0000   1.0000   0.0000   0.0000   0.0000   0.0000
     0.0000   0.0000   0.0000   0.0000

          k =-0.0442-0.4861 0.6629 (  7211 PWs)   bands (ev):

   -15.1293 -15.1293 -15.1044 -15.1043 -15.0683 -15.0682 -15.0341 -15.0341
   -14.1359 -14.1359 -14.1010 -14.1010 -14.0436 -14.0435 -14.0225 -14.0225
   -13.9299 -13.9299 -13.8922 -13.8922  -0.6185  -0.6185   0.0023   0.0023
     4.1318   4.1318   4.5446   4.5446   8.6873   8.6873   9.3689   9.3689
    11.8442  11.8442  12.5625  12.5625

     occupation numbers 
     1.0000   1.0000   1.0000   1.0000   1.0000   1.0000   1.0000   1.0000
     1.0000   1.0000   1.0000   1.0000   1.0000   1.0000   1.0000   1.0000
     1.0000   1.0000   1.0000   1.0000   1.0000   1.0000   1.0000   1.0000
     1.0000   1.0000   1.0000   1.0000   0.0000   0.0000   0.0000   0.0000
     0.0000   0.0000   0.0000   0.0000

          k = 0.0000-0.4419 0.6187 (  7217 PWs)   bands (ev):

   -15.1306 -15.1306 -15.1013 -15.1012 -15.0719 -15.0718 -15.0322 -15.0322
   -14.1372 -14.1372 -14.0984 -14.0984 -14.0451 -14.0451 -14.0223 -14.0223
   -13.9317 -13.9317 -13.8905 -13.8905  -0.6207  -0.6207   0.0138   0.0138
     3.9444   3.9444   4.6443   4.6443   8.7772   8.7772  10.1739  10.1739
    11.6525  11.6525  11.7518  11.7518

     occupation numbers 
     1.0000   1.0000   1.0000   1.0000   1.0000   1.0000   1.0000   1.0000
     1.0000   1.0000   1.0000   1.0000   1.0000   1.0000   1.0000   1.0000
     1.0000   1.0000   1.0000   1.0000   1.0000   1.0000   1.0000   1.0000
     1.0000   1.0000   1.0000   1.0000   0.0000   0.0000   0.0000   0.0000
     0.0000   0.0000   0.0000   0.0000

          k =-0.7071 0.1768 0.0000 (  7202 PWs)   bands (ev):

   -15.1276 -15.1276 -15.1075 -15.1074 -15.0645 -15.0645 -15.0365 -15.0364
   -14.1339 -14.1339 -14.1045 -14.1044 -14.0379 -14.0378 -14.0273 -14.0272
   -13.9267 -13.9267 -13.8946 -13.8946  -0.3364  -0.3364  -0.3056  -0.3055
     4.3331   4.3331   4.4710   4.4710   8.5470   8.5470   8.6866   8.6866
    12.6669  12.6669  12.8291  12.8291

     occupation numbers 
     1.0000   1.0000   1.0000   1.0000   1.0000   1.0000   1.0000   1.0000
     1.0000   1.0000   1.0000   1.0000   1.0000   1.0000   1.0000   1.0000
     1.0000   1.0000   1.0000   1.0000   1.0000   1.0000   1.0000   1.0000
     1.0000   1.0000   1.0000   1.0000   0.0000   0.0000   0.0000   0.0000
     0.0000   0.0000   0.0000   0.0000

          k =-0.1768-0.4419 0.7071 (  7218 PWs)   bands (ev):

   -15.1311 -15.1311 -15.1017 -15.1017 -15.0711 -15.0710 -15.0327 -15.0327
   -14.1385 -14.1385 -14.1017 -14.1016 -14.0547 -14.0547 -14.0031 -14.0030
   -13.9333 -13.9333 -13.8949 -13.8949  -1.2944  -1.2944   0.7800   0.7800
     4.1119   4.1119   4.9071   4.9071   9.2605   9.2605   9.5382   9.5383
    10.6318  10.6318  12.6918  12.6918

     occupation numbers 
     1.0000   1.0000   1.0000   1.0000   1.0000   1.0000   1.0000   1.0000
     1.0000   1.0000   1.0000   1.0000   1.0000   1.0000   1.0000   1.0000
     1.0000   1.0000   1.0000   1.0000   1.0000   1.0000   1.0000   1.0000
     1.0000   1.0000   1.0000   1.0000   0.0000   0.0000   0.0000   0.0000
     0.0000   0.0000   0.0000   0.0000

          k =-0.1326-0.3977 0.6629 (  7217 PWs)   bands (ev):

   -15.1315 -15.1315 -15.0996 -15.0995 -15.0736 -15.0735 -15.0316 -15.0316
   -14.1378 -14.1377 -14.0993 -14.0993 -14.0525 -14.0525 -14.0110 -14.0110
   -13.9332 -13.9332 -13.8919 -13.8919  -1.0109  -1.0109   0.4414   0.4414
     3.9845   3.9845   4.7524   4.7524   9.3322   9.3322   9.9812   9.9812
    10.7418  10.7418  12.2315  12.2315

     occupation numbers 
     1.0000   1.0000   1.0000   1.0000   1.0000   1.0000   1.0000   1.0000
     1.0000   1.0000   1.0000   1.0000   1.0000   1.0000   1.0000   1.0000
     1.0000   1.0000   1.0000   1.0000   1.0000   1.0000   1.0000   1.0000
     1.0000   1.0000   1.0000   1.0000   0.0000   0.0000   0.0000   0.0000
     0.0000   0.0000   0.0000   0.0000

          k =-0.0884-0.3536 0.6187 (  7222 PWs)   bands (ev):

   -15.1316 -15.1316 -15.0987 -15.0987 -15.0746 -15.0745 -15.0312 -15.0312
   -14.1377 -14.1377 -14.0980 -14.0980 -14.0515 -14.0515 -14.0142 -14.0141
   -13.9333 -13.9333 -13.8908 -13.8908  -0.8730  -0.8730   0.2841   0.2841
     3.9440   3.9440   4.6959   4.6959   9.3372   9.3372  10.0999  10.0999
    11.2420  11.2420  11.5761  11.5761

     occupation numbers 
     1.0000   1.0000   1.0000   1.0000   1.0000   1.0000   1.0000   1.0000
     1.0000   1.0000   1.0000   1.0000   1.0000   1.0000   1.0000   1.0000
     1.0000   1.0000   1.0000   1.0000   1.0000   1.0000   1.0000   1.0000
     1.0000   1.0000   1.0000   1.0000   0.0000   0.0000   0.0000   0.0000
     0.0000   0.0000   0.0000   0.0000

          k =-0.0884-0.4419 0.7071 (  7218 PWs)   bands (ev):

   -15.1304 -15.1304 -15.1022 -15.1022 -15.0708 -15.0708 -15.0327 -15.0326
   -14.1372 -14.1372 -14.0991 -14.0991 -14.0481 -14.0481 -14.0176 -14.0176
   -13.9321 -13.9321 -13.8912 -13.8912  -0.8185  -0.8185   0.2319   0.2319
     4.0952   4.0952   4.5209   4.5209   9.3193   9.3193   9.5342   9.5342
    11.0105  11.0105  12.3976  12.3976

     occupation numbers 
     1.0000   1.0000   1.0000   1.0000   1.0000   1.0000   1.0000   1.0000
     1.0000   1.0000   1.0000   1.0000   1.0000   1.0000   1.0000   1.0000
     1.0000   1.0000   1.0000   1.0000   1.0000   1.0000   1.0000   1.0000
     1.0000   1.0000   1.0000   1.0000   0.0000   0.0000   0.0000   0.0000
     0.0000   0.0000   0.0000   0.0000

          k =-0.0442-0.3977 0.6629 (  7213 PWs)   bands (ev):

   -15.1309 -15.1309 -15.1006 -15.1005 -15.0728 -15.0727 -15.0316 -15.0316
   -14.1380 -14.1380 -14.0965 -14.0965 -14.0452 -14.0452 -14.0234 -14.0234
   -13.9329 -13.9329 -13.8892 -13.8892  -0.5990  -0.5990   0.0032   0.0032
     4.0132   4.0132   4.4416   4.4416   9.4613   9.4613  10.1699  10.1699
    10.9350  10.9350  11.5488  11.5488

     occupation numbers 
     1.0000   1.0000   1.0000   1.0000   1.0000   1.0000   1.0000   1.0000
     1.0000   1.0000   1.0000   1.0000   1.0000   1.0000   1.0000   1.0000
     1.0000   1.0000   1.0000   1.0000   1.0000   1.0000   1.0000   1.0000
     1.0000   1.0000   1.0000   1.0000   0.0000   0.0000   0.0000   0.0000
     0.0000   0.0000   0.0000   0.0000

          k =-0.0000-0.3536 0.6187 (  7212 PWs)   bands (ev):

   -15.1313 -15.1313 -15.0996 -15.0995 -15.0738 -15.0738 -15.0312 -15.0312
   -14.1381 -14.1381 -14.0966 -14.0966 -14.0475 -14.0475 -14.0204 -14.0203
   -13.9333 -13.9333 -13.8894 -13.8894  -0.7207  -0.7207   0.1328   0.1328
     3.9526   3.9526   4.5410   4.5410   9.5103   9.5103  10.3515  10.3515
    10.8223  10.8223  11.4565  11.4565

     occupation numbers 
     1.0000   1.0000   1.0000   1.0000   1.0000   1.0000   1.0000   1.0000
     1.0000   1.0000   1.0000   1.0000   1.0000   1.0000   1.0000   1.0000
     1.0000   1.0000   1.0000   1.0000   1.0000   1.0000   1.0000   1.0000
     1.0000   1.0000   1.0000   1.0000   0.0000   0.0000   0.0000   0.0000
     0.0000   0.0000   0.0000   0.0000

          k =-0.7071 0.2652 0.0000 (  7204 PWs)   bands (ev):

   -15.1301 -15.1301 -15.1026 -15.1026 -15.0705 -15.0705 -15.0327 -15.0327
   -14.1373 -14.1373 -14.0978 -14.0977 -14.0406 -14.0406 -14.0280 -14.0279
   -13.9316 -13.9316 -13.8898 -13.8898  -0.3254  -0.3254  -0.2844  -0.2844
     4.1570   4.1570   4.3211   4.3211   9.3183   9.3183   9.5147   9.5147
    11.6241  11.6241  11.7305  11.7305

     occupation numbers 
     1.0000   1.0000   1.0000   1.0000   1.0000   1.0000   1.0000   1.0000
     1.0000   1.0000   1.0000   1.0000   1.0000   1.0000   1.0000   1.0000
     1.0000   1.0000   1.0000   1.0000   1.0000   1.0000   1.0000   1.0000
     1.0000   1.0000   1.0000   1.0000   0.0000   0.0000   0.0000   0.0000
     0.0000   0.0000   0.0000   0.0000

          k =-0.7071 0.3536 0.0000 (  7228 PWs)   bands (ev):

   -15.1309 -15.1309 -15.1005 -15.1005 -15.0730 -15.0730 -15.0314 -15.0314
   -14.1384 -14.1384 -14.0951 -14.0951 -14.0416 -14.0416 -14.0286 -14.0285
   -13.9333 -13.9333 -13.8882 -13.8882  -0.3205  -0.3205  -0.2758  -0.2758
     4.0910   4.0910   4.2631   4.2631   9.9140   9.9140  10.2362  10.2363
    10.9125  10.9125  10.9337  10.9337

     occupation numbers 
     1.0000   1.0000   1.0000   1.0000   1.0000   1.0000   1.0000   1.0000
     1.0000   1.0000   1.0000   1.0000   1.0000   1.0000   1.0000   1.0000
     1.0000   1.0000   1.0000   1.0000   1.0000   1.0000   1.0000   1.0000
     1.0000   1.0000   1.0000   1.0000   0.0000   0.0000   0.0000   0.0000
     0.0000   0.0000   0.0000   0.0000

     the Fermi energy is     6.9500 ev

!    total energy              =    -325.85669511 Ry
     Harris-Foulkes estimate   =    -325.85669505 Ry
     estimated scf accuracy    <       0.00000010 Ry

     The total energy is the sum of the following terms:

     one-electron contribution =    -157.76553910 Ry
     hartree contribution      =      95.54347945 Ry
     xc contribution           =     -96.10484006 Ry
     ewald contribution        =    -167.52979533 Ry
     smearing contrib. (-TS)   =      -0.00000006 Ry

     convergence has been achieved in   5 iterations

     Writing output data file Sn.save
 
     init_run     :     12.99s CPU     14.41s WALL (       1 calls)
     electrons    :    264.56s CPU    288.07s WALL (       1 calls)

     Called by init_run:
     wfcinit      :     12.47s CPU     13.66s WALL (       1 calls)
     potinit      :      0.03s CPU      0.04s WALL (       1 calls)

     Called by electrons:
     c_bands      :    220.86s CPU    240.89s WALL (       6 calls)
     sum_band     :     43.07s CPU     46.40s WALL (       6 calls)
     v_of_rho     :      0.08s CPU      0.10s WALL (       6 calls)
     v_h          :      0.01s CPU      0.01s WALL (       6 calls)
     v_xc         :      0.07s CPU      0.09s WALL (       6 calls)
     newd         :      0.61s CPU      0.70s WALL (       6 calls)
     mix_rho      :      0.03s CPU      0.05s WALL (       6 calls)

     Called by c_bands:
     init_us_2    :      0.86s CPU      1.01s WALL (    1885 calls)
     cegterg      :    206.03s CPU    225.80s WALL (     870 calls)

     Called by sum_band:
     sum_band:bec :      2.98s CPU      3.03s WALL (     870 calls)
     addusdens    :      0.56s CPU      0.69s WALL (       6 calls)

     Called by *egterg:
     h_psi        :    172.13s CPU    187.76s WALL (    3080 calls)
     s_psi        :      6.39s CPU      6.43s WALL (    3080 calls)
     g_psi        :      0.63s CPU      0.64s WALL (    2065 calls)
     cdiaghg      :     11.68s CPU     11.95s WALL (    2790 calls)
     cegterg:over :     10.29s CPU     10.33s WALL (    2065 calls)
     cegterg:upda :      5.66s CPU      5.68s WALL (    2065 calls)
     cegterg:last :      3.08s CPU      3.09s WALL (     870 calls)

     Called by h_psi:
     h_psi:vloc   :    156.86s CPU    172.23s WALL (    3080 calls)
     h_psi:vnl    :     14.52s CPU     14.73s WALL (    3080 calls)
     add_vuspsi   :      6.70s CPU      6.77s WALL (    3080 calls)

     General routines
     calbec       :     10.64s CPU     10.82s WALL (    3950 calls)
     fft          :      0.12s CPU      0.19s WALL (     116 calls)
     fftw         :    168.44s CPU    185.12s WALL (  392136 calls)
     davcio       :      0.07s CPU      0.76s WALL (     145 calls)
 
     Parallel routines
     fft_scatter  :     89.50s CPU     98.28s WALL (  392252 calls)
 
     PWSCF        :  4m38.92s CPU     5m 4.84s WALL

 
   This run was terminated on:  22:59:26  16Mar2020            

=------------------------------------------------------------------------------=
   JOB DONE.
=------------------------------------------------------------------------------=
