
     Program PWSCF v.5.4.0 starts on 19Mar2020 at 18:57:13 

     This program is part of the open-source Quantum ESPRESSO suite
     for quantum simulation of materials; please cite
         "P. Giannozzi et al., J. Phys.:Condens. Matter 21 395502 (2009);
          URL http://www.quantum-espresso.org", 
     in publications or presentations arising from this work. More details at
     http://www.quantum-espresso.org/quote

     Parallel version (MPI & OpenMP), running on      64 processor cores
     Number of MPI processes:                64
     Threads/MPI process:                     1
     R & G space division:  proc/nbgrp/npool/nimage =      64
     Waiting for input...
     Reading input from standard input
Warning: card &IONS ignored
Warning: card / ignored
Warning: card &CELL ignored
Warning: card / ignored

     Current dimensions of program PWSCF are:
     Max number of different atomic species (ntypx) = 10
     Max number of k-points (npk) =  40000
     Max angular momentum in pseudopotentials (lmaxx) =  3

     Atomic positions and unit cell read from directory:
     ./Sn.save/
 
     Message from routine setup:
     At least one non s.o. pseudo

     Subspace diagonalization in iterative solution of the eigenvalue problem:
     a serial algorithm will be used

 
     Parallelization info
     --------------------
     sticks:   dense  smooth     PW     G-vecs:    dense   smooth      PW
     Min          50      50     13                 1919     1919     271
     Max          51      51     14                 1928     1928     279
     Sum        3259    3259    889               123189   123189   17573
 


     bravais-lattice index     =            0
     lattice parameter (alat)  =       8.8927  a.u.
     unit-cell volume          =     497.2569 (a.u.)^3
     number of atoms/cell      =            2
     number of atomic types    =            1
     number of electrons       =        28.00
     number of Kohn-Sham states=           36
     kinetic-energy cutoff     =     150.0000  Ry
     charge density cutoff     =     600.0000  Ry
     Exchange-correlation      = PBE ( 1  4  3  4 0 0)
     Non magnetic calculation with spin-orbit


     celldm(1)=   8.892665  celldm(2)=   0.000000  celldm(3)=   0.000000
     celldm(4)=   0.000000  celldm(5)=   0.000000  celldm(6)=   0.000000

     crystal axes: (cart. coord. in units of alat)
               a(1) = (   0.000000   0.707107   0.707107 )  
               a(2) = (   0.707107   0.000000   0.707107 )  
               a(3) = (   0.707107   0.707107   0.000000 )  

     reciprocal axes: (cart. coord. in units 2 pi/alat)
               b(1) = ( -0.707107  0.707107  0.707107 )  
               b(2) = (  0.707107 -0.707107  0.707107 )  
               b(3) = (  0.707107  0.707107 -0.707107 )  


     PseudoPot. # 1 for Sn read from file:
     ../PseudopotentialDatabase/Sn_ONCV_PBE-1.1.upf
     MD5 check sum: 7fc728ef37b8342e916bba54f6049344
     Pseudo is Norm-conserving, Zval = 14.0
     Generated using ONCVPSP code by D. R. Hamann
     Using radial grid of  602 points,  6 beta functions with: 
                l(1) =   0
                l(2) =   0
                l(3) =   1
                l(4) =   1
                l(5) =   2
                l(6) =   2

     atomic species   valence    mass     pseudopotential
        Sn            14.00   118.71000     Sn( 1.00)

     48 Sym. Ops., with inversion, found (24 have fractional translation)


                                    s                        frac. trans.

      isym =  1     identity                                     

 cryst.   s( 1) = (     1          0          0      )
                  (     0          1          0      )
                  (     0          0          1      )

 cart.    s( 1) = (  1.0000000  0.0000000  0.0000000 )
                  (  0.0000000  1.0000000  0.0000000 )
                  (  0.0000000  0.0000000  1.0000000 )


      isym =  2     180 deg rotation - cart. axis [0,0,1]        

 cryst.   s( 2) = (     0          1         -1      )
                  (     1          0         -1      )
                  (     0          0         -1      )

 cart.    s( 2) = ( -1.0000000  0.0000000  0.0000000 )
                  (  0.0000000 -1.0000000  0.0000000 )
                  (  0.0000000  0.0000000  1.0000000 )


      isym =  3     180 deg rotation - cart. axis [0,1,0]        

 cryst.   s( 3) = (     0         -1          1      )
                  (     0         -1          0      )
                  (     1         -1          0      )

 cart.    s( 3) = ( -1.0000000  0.0000000  0.0000000 )
                  (  0.0000000  1.0000000  0.0000000 )
                  (  0.0000000  0.0000000 -1.0000000 )


      isym =  4     180 deg rotation - cart. axis [1,0,0]        

 cryst.   s( 4) = (    -1          0          0      )
                  (    -1          0          1      )
                  (    -1          1          0      )

 cart.    s( 4) = (  1.0000000  0.0000000  0.0000000 )
                  (  0.0000000 -1.0000000  0.0000000 )
                  (  0.0000000  0.0000000 -1.0000000 )


      isym =  5     180 deg rotation - cart. axis [1,1,0]        

 cryst.   s( 5) = (    -1          0          1      )    f =( -0.2500000 )
                  (     0         -1          1      )       ( -0.2500000 )
                  (     0          0          1      )       ( -0.2500000 )

 cart.    s( 5) = (  0.0000000  1.0000000  0.0000000 )    f =( -0.3535534 )
                  (  1.0000000  0.0000000  0.0000000 )       ( -0.3535534 )
                  (  0.0000000  0.0000000 -1.0000000 )       ( -0.3535534 )


      isym =  6     180 deg rotation - cart. axis [1,-1,0]       

 cryst.   s( 6) = (     0         -1          0      )    f =( -0.2500000 )
                  (    -1          0          0      )       ( -0.2500000 )
                  (     0          0         -1      )       ( -0.2500000 )

 cart.    s( 6) = (  0.0000000 -1.0000000  0.0000000 )    f =( -0.3535534 )
                  ( -1.0000000  0.0000000  0.0000000 )       ( -0.3535534 )
                  (  0.0000000  0.0000000 -1.0000000 )       ( -0.3535534 )


      isym =  7      90 deg rotation - cart. axis [0,0,-1]       

 cryst.   s( 7) = (     0          1          0      )    f =( -0.2500000 )
                  (     0          1         -1      )       ( -0.2500000 )
                  (    -1          1          0      )       ( -0.2500000 )

 cart.    s( 7) = (  0.0000000  1.0000000  0.0000000 )    f =( -0.3535534 )
                  ( -1.0000000  0.0000000  0.0000000 )       ( -0.3535534 )
                  (  0.0000000  0.0000000  1.0000000 )       ( -0.3535534 )


      isym =  8      90 deg rotation - cart. axis [0,0,1]        

 cryst.   s( 8) = (     1          0         -1      )    f =( -0.2500000 )
                  (     1          0          0      )       ( -0.2500000 )
                  (     1         -1          0      )       ( -0.2500000 )

 cart.    s( 8) = (  0.0000000 -1.0000000  0.0000000 )    f =( -0.3535534 )
                  (  1.0000000  0.0000000  0.0000000 )       ( -0.3535534 )
                  (  0.0000000  0.0000000  1.0000000 )       ( -0.3535534 )


      isym =  9     180 deg rotation - cart. axis [1,0,1]        

 cryst.   s( 9) = (    -1          1          0      )    f =( -0.2500000 )
                  (     0          1          0      )       ( -0.2500000 )
                  (     0          1         -1      )       ( -0.2500000 )

 cart.    s( 9) = (  0.0000000  0.0000000  1.0000000 )    f =( -0.3535534 )
                  (  0.0000000 -1.0000000  0.0000000 )       ( -0.3535534 )
                  (  1.0000000  0.0000000  0.0000000 )       ( -0.3535534 )


      isym = 10     180 deg rotation - cart. axis [-1,0,1]       

 cryst.   s(10) = (     0          0         -1      )    f =( -0.2500000 )
                  (     0         -1          0      )       ( -0.2500000 )
                  (    -1          0          0      )       ( -0.2500000 )

 cart.    s(10) = (  0.0000000  0.0000000 -1.0000000 )    f =( -0.3535534 )
                  (  0.0000000 -1.0000000  0.0000000 )       ( -0.3535534 )
                  ( -1.0000000  0.0000000  0.0000000 )       ( -0.3535534 )


      isym = 11      90 deg rotation - cart. axis [0,1,0]        

 cryst.   s(11) = (     0          0          1      )    f =( -0.2500000 )
                  (    -1          0          1      )       ( -0.2500000 )
                  (     0         -1          1      )       ( -0.2500000 )

 cart.    s(11) = (  0.0000000  0.0000000  1.0000000 )    f =( -0.3535534 )
                  (  0.0000000  1.0000000  0.0000000 )       ( -0.3535534 )
                  ( -1.0000000  0.0000000  0.0000000 )       ( -0.3535534 )


      isym = 12      90 deg rotation - cart. axis [0,-1,0]       

 cryst.   s(12) = (     1         -1          0      )    f =( -0.2500000 )
                  (     1          0         -1      )       ( -0.2500000 )
                  (     1          0          0      )       ( -0.2500000 )

 cart.    s(12) = (  0.0000000  0.0000000 -1.0000000 )    f =( -0.3535534 )
                  (  0.0000000  1.0000000  0.0000000 )       ( -0.3535534 )
                  (  1.0000000  0.0000000  0.0000000 )       ( -0.3535534 )


      isym = 13     180 deg rotation - cart. axis [0,1,1]        

 cryst.   s(13) = (     1          0          0      )    f =( -0.2500000 )
                  (     1         -1          0      )       ( -0.2500000 )
                  (     1          0         -1      )       ( -0.2500000 )

 cart.    s(13) = ( -1.0000000  0.0000000  0.0000000 )    f =( -0.3535534 )
                  (  0.0000000  0.0000000  1.0000000 )       ( -0.3535534 )
                  (  0.0000000  1.0000000  0.0000000 )       ( -0.3535534 )


      isym = 14     180 deg rotation - cart. axis [0,1,-1]       

 cryst.   s(14) = (    -1          0          0      )    f =( -0.2500000 )
                  (     0          0         -1      )       ( -0.2500000 )
                  (     0         -1          0      )       ( -0.2500000 )

 cart.    s(14) = ( -1.0000000  0.0000000  0.0000000 )    f =( -0.3535534 )
                  (  0.0000000  0.0000000 -1.0000000 )       ( -0.3535534 )
                  (  0.0000000 -1.0000000  0.0000000 )       ( -0.3535534 )


      isym = 15      90 deg rotation - cart. axis [-1,0,0]       

 cryst.   s(15) = (     0         -1          1      )    f =( -0.2500000 )
                  (     0          0          1      )       ( -0.2500000 )
                  (    -1          0          1      )       ( -0.2500000 )

 cart.    s(15) = (  1.0000000  0.0000000  0.0000000 )    f =( -0.3535534 )
                  (  0.0000000  0.0000000  1.0000000 )       ( -0.3535534 )
                  (  0.0000000 -1.0000000  0.0000000 )       ( -0.3535534 )


      isym = 16      90 deg rotation - cart. axis [1,0,0]        

 cryst.   s(16) = (     0          1         -1      )    f =( -0.2500000 )
                  (    -1          1          0      )       ( -0.2500000 )
                  (     0          1          0      )       ( -0.2500000 )

 cart.    s(16) = (  1.0000000  0.0000000  0.0000000 )    f =( -0.3535534 )
                  (  0.0000000  0.0000000 -1.0000000 )       ( -0.3535534 )
                  (  0.0000000  1.0000000  0.0000000 )       ( -0.3535534 )


      isym = 17     120 deg rotation - cart. axis [-1,-1,-1]     

 cryst.   s(17) = (     0          0          1      )
                  (     1          0          0      )
                  (     0          1          0      )

 cart.    s(17) = (  0.0000000  1.0000000  0.0000000 )
                  (  0.0000000  0.0000000  1.0000000 )
                  (  1.0000000  0.0000000  0.0000000 )


      isym = 18     120 deg rotation - cart. axis [-1,1,1]       

 cryst.   s(18) = (     1         -1          0      )
                  (     0         -1          1      )
                  (     0         -1          0      )

 cart.    s(18) = (  0.0000000 -1.0000000  0.0000000 )
                  (  0.0000000  0.0000000  1.0000000 )
                  ( -1.0000000  0.0000000  0.0000000 )


      isym = 19     120 deg rotation - cart. axis [1,1,-1]       

 cryst.   s(19) = (    -1          1          0      )
                  (    -1          0          0      )
                  (    -1          0          1      )

 cart.    s(19) = (  0.0000000  1.0000000  0.0000000 )
                  (  0.0000000  0.0000000 -1.0000000 )
                  ( -1.0000000  0.0000000  0.0000000 )


      isym = 20     120 deg rotation - cart. axis [1,-1,1]       

 cryst.   s(20) = (     0          0         -1      )
                  (     0          1         -1      )
                  (     1          0         -1      )

 cart.    s(20) = (  0.0000000 -1.0000000  0.0000000 )
                  (  0.0000000  0.0000000 -1.0000000 )
                  (  1.0000000  0.0000000  0.0000000 )


      isym = 21     120 deg rotation - cart. axis [1,1,1]        

 cryst.   s(21) = (     0          1          0      )
                  (     0          0          1      )
                  (     1          0          0      )

 cart.    s(21) = (  0.0000000  0.0000000  1.0000000 )
                  (  1.0000000  0.0000000  0.0000000 )
                  (  0.0000000  1.0000000  0.0000000 )


      isym = 22     120 deg rotation - cart. axis [-1,1,-1]      

 cryst.   s(22) = (    -1          0          1      )
                  (    -1          1          0      )
                  (    -1          0          0      )

 cart.    s(22) = (  0.0000000  0.0000000  1.0000000 )
                  ( -1.0000000  0.0000000  0.0000000 )
                  (  0.0000000 -1.0000000  0.0000000 )


      isym = 23     120 deg rotation - cart. axis [1,-1,-1]      

 cryst.   s(23) = (     1          0         -1      )
                  (     0          0         -1      )
                  (     0          1         -1      )

 cart.    s(23) = (  0.0000000  0.0000000 -1.0000000 )
                  ( -1.0000000  0.0000000  0.0000000 )
                  (  0.0000000  1.0000000  0.0000000 )


      isym = 24     120 deg rotation - cart. axis [-1,-1,1]      

 cryst.   s(24) = (     0         -1          0      )
                  (     1         -1          0      )
                  (     0         -1          1      )

 cart.    s(24) = (  0.0000000  0.0000000 -1.0000000 )
                  (  1.0000000  0.0000000  0.0000000 )
                  (  0.0000000 -1.0000000  0.0000000 )


      isym = 25     inversion                                    

 cryst.   s(25) = (    -1          0          0      )    f =( -0.2500000 )
                  (     0         -1          0      )       ( -0.2500000 )
                  (     0          0         -1      )       ( -0.2500000 )

 cart.    s(25) = ( -1.0000000  0.0000000  0.0000000 )    f =( -0.3535534 )
                  (  0.0000000 -1.0000000  0.0000000 )       ( -0.3535534 )
                  (  0.0000000  0.0000000 -1.0000000 )       ( -0.3535534 )


      isym = 26     inv. 180 deg rotation - cart. axis [0,0,1]   

 cryst.   s(26) = (     0         -1          1      )    f =( -0.2500000 )
                  (    -1          0          1      )       ( -0.2500000 )
                  (     0          0          1      )       ( -0.2500000 )

 cart.    s(26) = (  1.0000000  0.0000000  0.0000000 )    f =( -0.3535534 )
                  (  0.0000000  1.0000000  0.0000000 )       ( -0.3535534 )
                  (  0.0000000  0.0000000 -1.0000000 )       ( -0.3535534 )


      isym = 27     inv. 180 deg rotation - cart. axis [0,1,0]   

 cryst.   s(27) = (     0          1         -1      )    f =( -0.2500000 )
                  (     0          1          0      )       ( -0.2500000 )
                  (    -1          1          0      )       ( -0.2500000 )

 cart.    s(27) = (  1.0000000  0.0000000  0.0000000 )    f =( -0.3535534 )
                  (  0.0000000 -1.0000000  0.0000000 )       ( -0.3535534 )
                  (  0.0000000  0.0000000  1.0000000 )       ( -0.3535534 )


      isym = 28     inv. 180 deg rotation - cart. axis [1,0,0]   

 cryst.   s(28) = (     1          0          0      )    f =( -0.2500000 )
                  (     1          0         -1      )       ( -0.2500000 )
                  (     1         -1          0      )       ( -0.2500000 )

 cart.    s(28) = ( -1.0000000  0.0000000  0.0000000 )    f =( -0.3535534 )
                  (  0.0000000  1.0000000  0.0000000 )       ( -0.3535534 )
                  (  0.0000000  0.0000000  1.0000000 )       ( -0.3535534 )


      isym = 29     inv. 180 deg rotation - cart. axis [1,1,0]   

 cryst.   s(29) = (     1          0         -1      )
                  (     0          1         -1      )
                  (     0          0         -1      )

 cart.    s(29) = (  0.0000000 -1.0000000  0.0000000 )
                  ( -1.0000000  0.0000000  0.0000000 )
                  (  0.0000000  0.0000000  1.0000000 )


      isym = 30     inv. 180 deg rotation - cart. axis [1,-1,0]  

 cryst.   s(30) = (     0          1          0      )
                  (     1          0          0      )
                  (     0          0          1      )

 cart.    s(30) = (  0.0000000  1.0000000  0.0000000 )
                  (  1.0000000  0.0000000  0.0000000 )
                  (  0.0000000  0.0000000  1.0000000 )


      isym = 31     inv.  90 deg rotation - cart. axis [0,0,-1]  

 cryst.   s(31) = (     0         -1          0      )
                  (     0         -1          1      )
                  (     1         -1          0      )

 cart.    s(31) = (  0.0000000 -1.0000000  0.0000000 )
                  (  1.0000000  0.0000000  0.0000000 )
                  (  0.0000000  0.0000000 -1.0000000 )


      isym = 32     inv.  90 deg rotation - cart. axis [0,0,1]   

 cryst.   s(32) = (    -1          0          1      )
                  (    -1          0          0      )
                  (    -1          1          0      )

 cart.    s(32) = (  0.0000000  1.0000000  0.0000000 )
                  ( -1.0000000  0.0000000  0.0000000 )
                  (  0.0000000  0.0000000 -1.0000000 )


      isym = 33     inv. 180 deg rotation - cart. axis [1,0,1]   

 cryst.   s(33) = (     1         -1          0      )
                  (     0         -1          0      )
                  (     0         -1          1      )

 cart.    s(33) = (  0.0000000  0.0000000 -1.0000000 )
                  (  0.0000000  1.0000000  0.0000000 )
                  ( -1.0000000  0.0000000  0.0000000 )


      isym = 34     inv. 180 deg rotation - cart. axis [-1,0,1]  

 cryst.   s(34) = (     0          0          1      )
                  (     0          1          0      )
                  (     1          0          0      )

 cart.    s(34) = (  0.0000000  0.0000000  1.0000000 )
                  (  0.0000000  1.0000000  0.0000000 )
                  (  1.0000000  0.0000000  0.0000000 )


      isym = 35     inv.  90 deg rotation - cart. axis [0,1,0]   

 cryst.   s(35) = (     0          0         -1      )
                  (     1          0         -1      )
                  (     0          1         -1      )

 cart.    s(35) = (  0.0000000  0.0000000 -1.0000000 )
                  (  0.0000000 -1.0000000  0.0000000 )
                  (  1.0000000  0.0000000  0.0000000 )


      isym = 36     inv.  90 deg rotation - cart. axis [0,-1,0]  

 cryst.   s(36) = (    -1          1          0      )
                  (    -1          0          1      )
                  (    -1          0          0      )

 cart.    s(36) = (  0.0000000  0.0000000  1.0000000 )
                  (  0.0000000 -1.0000000  0.0000000 )
                  ( -1.0000000  0.0000000  0.0000000 )


      isym = 37     inv. 180 deg rotation - cart. axis [0,1,1]   

 cryst.   s(37) = (    -1          0          0      )
                  (    -1          1          0      )
                  (    -1          0          1      )

 cart.    s(37) = (  1.0000000  0.0000000  0.0000000 )
                  (  0.0000000  0.0000000 -1.0000000 )
                  (  0.0000000 -1.0000000  0.0000000 )


      isym = 38     inv. 180 deg rotation - cart. axis [0,1,-1]  

 cryst.   s(38) = (     1          0          0      )
                  (     0          0          1      )
                  (     0          1          0      )

 cart.    s(38) = (  1.0000000  0.0000000  0.0000000 )
                  (  0.0000000  0.0000000  1.0000000 )
                  (  0.0000000  1.0000000  0.0000000 )


      isym = 39     inv.  90 deg rotation - cart. axis [-1,0,0]  

 cryst.   s(39) = (     0          1         -1      )
                  (     0          0         -1      )
                  (     1          0         -1      )

 cart.    s(39) = ( -1.0000000  0.0000000  0.0000000 )
                  (  0.0000000  0.0000000 -1.0000000 )
                  (  0.0000000  1.0000000  0.0000000 )


      isym = 40     inv.  90 deg rotation - cart. axis [1,0,0]   

 cryst.   s(40) = (     0         -1          1      )
                  (     1         -1          0      )
                  (     0         -1          0      )

 cart.    s(40) = ( -1.0000000  0.0000000  0.0000000 )
                  (  0.0000000  0.0000000  1.0000000 )
                  (  0.0000000 -1.0000000  0.0000000 )


      isym = 41     inv. 120 deg rotation - cart. axis [-1,-1,-1]

 cryst.   s(41) = (     0          0         -1      )    f =( -0.2500000 )
                  (    -1          0          0      )       ( -0.2500000 )
                  (     0         -1          0      )       ( -0.2500000 )

 cart.    s(41) = (  0.0000000 -1.0000000  0.0000000 )    f =( -0.3535534 )
                  (  0.0000000  0.0000000 -1.0000000 )       ( -0.3535534 )
                  ( -1.0000000  0.0000000  0.0000000 )       ( -0.3535534 )


      isym = 42     inv. 120 deg rotation - cart. axis [-1,1,1]  

 cryst.   s(42) = (    -1          1          0      )    f =( -0.2500000 )
                  (     0          1         -1      )       ( -0.2500000 )
                  (     0          1          0      )       ( -0.2500000 )

 cart.    s(42) = (  0.0000000  1.0000000  0.0000000 )    f =( -0.3535534 )
                  (  0.0000000  0.0000000 -1.0000000 )       ( -0.3535534 )
                  (  1.0000000  0.0000000  0.0000000 )       ( -0.3535534 )


      isym = 43     inv. 120 deg rotation - cart. axis [1,1,-1]  

 cryst.   s(43) = (     1         -1          0      )    f =( -0.2500000 )
                  (     1          0          0      )       ( -0.2500000 )
                  (     1          0         -1      )       ( -0.2500000 )

 cart.    s(43) = (  0.0000000 -1.0000000  0.0000000 )    f =( -0.3535534 )
                  (  0.0000000  0.0000000  1.0000000 )       ( -0.3535534 )
                  (  1.0000000  0.0000000  0.0000000 )       ( -0.3535534 )


      isym = 44     inv. 120 deg rotation - cart. axis [1,-1,1]  

 cryst.   s(44) = (     0          0          1      )    f =( -0.2500000 )
                  (     0         -1          1      )       ( -0.2500000 )
                  (    -1          0          1      )       ( -0.2500000 )

 cart.    s(44) = (  0.0000000  1.0000000  0.0000000 )    f =( -0.3535534 )
                  (  0.0000000  0.0000000  1.0000000 )       ( -0.3535534 )
                  ( -1.0000000  0.0000000  0.0000000 )       ( -0.3535534 )


      isym = 45     inv. 120 deg rotation - cart. axis [1,1,1]   

 cryst.   s(45) = (     0         -1          0      )    f =( -0.2500000 )
                  (     0          0         -1      )       ( -0.2500000 )
                  (    -1          0          0      )       ( -0.2500000 )

 cart.    s(45) = (  0.0000000  0.0000000 -1.0000000 )    f =( -0.3535534 )
                  ( -1.0000000  0.0000000  0.0000000 )       ( -0.3535534 )
                  (  0.0000000 -1.0000000  0.0000000 )       ( -0.3535534 )


      isym = 46     inv. 120 deg rotation - cart. axis [-1,1,-1] 

 cryst.   s(46) = (     1          0         -1      )    f =( -0.2500000 )
                  (     1         -1          0      )       ( -0.2500000 )
                  (     1          0          0      )       ( -0.2500000 )

 cart.    s(46) = (  0.0000000  0.0000000 -1.0000000 )    f =( -0.3535534 )
                  (  1.0000000  0.0000000  0.0000000 )       ( -0.3535534 )
                  (  0.0000000  1.0000000  0.0000000 )       ( -0.3535534 )


      isym = 47     inv. 120 deg rotation - cart. axis [1,-1,-1] 

 cryst.   s(47) = (    -1          0          1      )    f =( -0.2500000 )
                  (     0          0          1      )       ( -0.2500000 )
                  (     0         -1          1      )       ( -0.2500000 )

 cart.    s(47) = (  0.0000000  0.0000000  1.0000000 )    f =( -0.3535534 )
                  (  1.0000000  0.0000000  0.0000000 )       ( -0.3535534 )
                  (  0.0000000 -1.0000000  0.0000000 )       ( -0.3535534 )


      isym = 48     inv. 120 deg rotation - cart. axis [-1,-1,1] 

 cryst.   s(48) = (     0          1          0      )    f =( -0.2500000 )
                  (    -1          1          0      )       ( -0.2500000 )
                  (     0          1         -1      )       ( -0.2500000 )

 cart.    s(48) = (  0.0000000  0.0000000  1.0000000 )    f =( -0.3535534 )
                  ( -1.0000000  0.0000000  0.0000000 )       ( -0.3535534 )
                  (  0.0000000  1.0000000  0.0000000 )       ( -0.3535534 )


   Cartesian axes

     site n.     atom                  positions (alat units)
         1           Sn  tau(   1) = (   0.0000000   0.0000000   0.0000000  )
         2           Sn  tau(   2) = (   0.3535534   0.3535534   0.3535534  )

   Crystallographic axes

     site n.     atom                  positions (cryst. coord.)
         1           Sn  tau(   1) = (  0.0000000  0.0000000  0.0000000  )
         2           Sn  tau(   2) = (  0.2500000  0.2500000  0.2500000  )

     number of k points=   134  gaussian smearing, width (Ry)=  0.0001
                       cart. coord. in units 2pi/alat
        k(    1) = (   0.0000000   0.0000000   0.0000000), wk =   0.0074627
        k(    2) = (   0.0000000   0.0261891   0.0000000), wk =   0.0074627
        k(    3) = (   0.0000000   0.0523783   0.0000000), wk =   0.0074627
        k(    4) = (   0.0000000   0.0785674   0.0000000), wk =   0.0074627
        k(    5) = (   0.0000000   0.1047566   0.0000000), wk =   0.0074627
        k(    6) = (   0.0000000   0.1309457   0.0000000), wk =   0.0074627
        k(    7) = (   0.0000000   0.1571348   0.0000000), wk =   0.0074627
        k(    8) = (   0.0000000   0.1833240   0.0000000), wk =   0.0074627
        k(    9) = (   0.0000000   0.2095131   0.0000000), wk =   0.0074627
        k(   10) = (   0.0000000   0.2357023   0.0000000), wk =   0.0074627
        k(   11) = (   0.0000000   0.2618914   0.0000000), wk =   0.0074627
        k(   12) = (   0.0000000   0.2880805   0.0000000), wk =   0.0074627
        k(   13) = (   0.0000000   0.3142697   0.0000000), wk =   0.0074627
        k(   14) = (   0.0000000   0.3404588   0.0000000), wk =   0.0074627
        k(   15) = (   0.0000000   0.3666480   0.0000000), wk =   0.0074627
        k(   16) = (   0.0000000   0.3928371   0.0000000), wk =   0.0074627
        k(   17) = (   0.0000000   0.4190262   0.0000000), wk =   0.0074627
        k(   18) = (   0.0000000   0.4452154   0.0000000), wk =   0.0074627
        k(   19) = (   0.0000000   0.4714045   0.0000000), wk =   0.0074627
        k(   20) = (   0.0000000   0.4975937   0.0000000), wk =   0.0074627
        k(   21) = (   0.0000000   0.5237828   0.0000000), wk =   0.0074627
        k(   22) = (   0.0000000   0.5499719   0.0000000), wk =   0.0074627
        k(   23) = (   0.0000000   0.5761611   0.0000000), wk =   0.0074627
        k(   24) = (   0.0000000   0.6023502   0.0000000), wk =   0.0074627
        k(   25) = (   0.0000000   0.6285394   0.0000000), wk =   0.0074627
        k(   26) = (   0.0000000   0.6547285   0.0000000), wk =   0.0074627
        k(   27) = (   0.0000000   0.6809176   0.0000000), wk =   0.0074627
        k(   28) = (   0.0000000   0.7071068   0.0000000), wk =   0.0074627
        k(   29) = (   0.0271964   0.7071068   0.0000000), wk =   0.0074627
        k(   30) = (   0.0543928   0.7071068   0.0000000), wk =   0.0074627
        k(   31) = (   0.0815892   0.7071068  -0.0000000), wk =   0.0074627
        k(   32) = (   0.1087857   0.7071068   0.0000000), wk =   0.0074627
        k(   33) = (   0.1359821   0.7071068   0.0000000), wk =   0.0074627
        k(   34) = (   0.1631785   0.7071068   0.0000000), wk =   0.0074627
        k(   35) = (   0.1903749   0.7071068   0.0000000), wk =   0.0074627
        k(   36) = (   0.2175713   0.7071068   0.0000000), wk =   0.0074627
        k(   37) = (   0.2447677   0.7071068   0.0000000), wk =   0.0074627
        k(   38) = (   0.2719641   0.7071068   0.0000000), wk =   0.0074627
        k(   39) = (   0.2991606   0.7071068   0.0000000), wk =   0.0074627
        k(   40) = (   0.3263570   0.7071068   0.0000000), wk =   0.0074627
        k(   41) = (   0.3535534   0.7071068   0.0000000), wk =   0.0074627
        k(   42) = (   0.3535534   0.6884987   0.0186081), wk =   0.0074627
        k(   43) = (   0.3535534   0.6698906   0.0372161), wk =   0.0074627
        k(   44) = (   0.3535534   0.6512826   0.0558242), wk =   0.0074627
        k(   45) = (   0.3535534   0.6326745   0.0744323), wk =   0.0074627
        k(   46) = (   0.3535534   0.6140664   0.0930404), wk =   0.0074627
        k(   47) = (   0.3535534   0.5954583   0.1116484), wk =   0.0074627
        k(   48) = (   0.3535534   0.5768503   0.1302565), wk =   0.0074627
        k(   49) = (   0.3535534   0.5582422   0.1488646), wk =   0.0074627
        k(   50) = (   0.3535534   0.5396341   0.1674727), wk =   0.0074627
        k(   51) = (   0.3535534   0.5210260   0.1860807), wk =   0.0074627
        k(   52) = (   0.3535534   0.5024180   0.2046888), wk =   0.0074627
        k(   53) = (   0.3535534   0.4838099   0.2232969), wk =   0.0074627
        k(   54) = (   0.3535534   0.4652018   0.2419050), wk =   0.0074627
        k(   55) = (   0.3535534   0.4465938   0.2605130), wk =   0.0074627
        k(   56) = (   0.3535534   0.4279857   0.2791211), wk =   0.0074627
        k(   57) = (   0.3535534   0.4093776   0.2977292), wk =   0.0074627
        k(   58) = (   0.3535534   0.3907695   0.3163372), wk =   0.0074627
        k(   59) = (   0.3535534   0.3721615   0.3349453), wk =   0.0074627
        k(   60) = (   0.3535534   0.3535534   0.3535534), wk =   0.0074627
        k(   61) = (   0.3394113   0.3394113   0.3394113), wk =   0.0074627
        k(   62) = (   0.3252691   0.3252691   0.3252691), wk =   0.0074627
        k(   63) = (   0.3111270   0.3111270   0.3111270), wk =   0.0074627
        k(   64) = (   0.2969848   0.2969848   0.2969848), wk =   0.0074627
        k(   65) = (   0.2828427   0.2828427   0.2828427), wk =   0.0074627
        k(   66) = (   0.2687006   0.2687006   0.2687006), wk =   0.0074627
        k(   67) = (   0.2545584   0.2545584   0.2545584), wk =   0.0074627
        k(   68) = (   0.2404163   0.2404163   0.2404163), wk =   0.0074627
        k(   69) = (   0.2262742   0.2262742   0.2262742), wk =   0.0074627
        k(   70) = (   0.2121320   0.2121320   0.2121320), wk =   0.0074627
        k(   71) = (   0.1979899   0.1979899   0.1979899), wk =   0.0074627
        k(   72) = (   0.1838478   0.1838478   0.1838478), wk =   0.0074627
        k(   73) = (   0.1697056   0.1697056   0.1697056), wk =   0.0074627
        k(   74) = (   0.1555635   0.1555635   0.1555635), wk =   0.0074627
        k(   75) = (   0.1414214   0.1414214   0.1414214), wk =   0.0074627
        k(   76) = (   0.1272792   0.1272792   0.1272792), wk =   0.0074627
        k(   77) = (   0.1131371   0.1131371   0.1131371), wk =   0.0074627
        k(   78) = (   0.0989949   0.0989949   0.0989949), wk =   0.0074627
        k(   79) = (   0.0848528   0.0848528   0.0848528), wk =   0.0074627
        k(   80) = (   0.0707107   0.0707107   0.0707107), wk =   0.0074627
        k(   81) = (   0.0565685   0.0565685   0.0565685), wk =   0.0074627
        k(   82) = (   0.0424264   0.0424264   0.0424264), wk =   0.0074627
        k(   83) = (   0.0282843   0.0282843   0.0282843), wk =   0.0074627
        k(   84) = (   0.0141421   0.0141421   0.0141421), wk =   0.0074627
        k(   85) = (   0.0000000   0.0000000   0.0000000), wk =   0.0074627
        k(   86) = (   0.0171074   0.0171074   0.0000000), wk =   0.0074627
        k(   87) = (   0.0342148   0.0342148   0.0000000), wk =   0.0074627
        k(   88) = (   0.0513223   0.0513223   0.0000000), wk =   0.0074627
        k(   89) = (   0.0684297   0.0684297  -0.0000000), wk =   0.0074627
        k(   90) = (   0.0855371   0.0855371   0.0000000), wk =   0.0074627
        k(   91) = (   0.1026445   0.1026445   0.0000000), wk =   0.0074627
        k(   92) = (   0.1197520   0.1197520   0.0000000), wk =   0.0074627
        k(   93) = (   0.1368594   0.1368594   0.0000000), wk =   0.0074627
        k(   94) = (   0.1539668   0.1539668   0.0000000), wk =   0.0074627
        k(   95) = (   0.1710742   0.1710742  -0.0000000), wk =   0.0074627
        k(   96) = (   0.1881816   0.1881816   0.0000000), wk =   0.0074627
        k(   97) = (   0.2052891   0.2052891   0.0000000), wk =   0.0074627
        k(   98) = (   0.2223965   0.2223965   0.0000000), wk =   0.0074627
        k(   99) = (   0.2395039   0.2395039   0.0000000), wk =   0.0074627
        k(  100) = (   0.2566113   0.2566113   0.0000000), wk =   0.0074627
        k(  101) = (   0.2737188   0.2737188  -0.0000000), wk =   0.0074627
        k(  102) = (   0.2908262   0.2908262  -0.0000000), wk =   0.0074627
        k(  103) = (   0.3079336   0.3079336   0.0000000), wk =   0.0074627
        k(  104) = (   0.3250410   0.3250410   0.0000000), wk =   0.0074627
        k(  105) = (   0.3421484   0.3421484   0.0000000), wk =   0.0074627
        k(  106) = (   0.3592559   0.3592559   0.0000000), wk =   0.0074627
        k(  107) = (   0.3763633   0.3763633  -0.0000000), wk =   0.0074627
        k(  108) = (   0.3934707   0.3934707  -0.0000000), wk =   0.0074627
        k(  109) = (   0.4105781   0.4105781   0.0000000), wk =   0.0074627
        k(  110) = (   0.4276856   0.4276856   0.0000000), wk =   0.0074627
        k(  111) = (   0.4447930   0.4447930   0.0000000), wk =   0.0074627
        k(  112) = (   0.4619004   0.4619004   0.0000000), wk =   0.0074627
        k(  113) = (   0.4790078   0.4790078  -0.0000000), wk =   0.0074627
        k(  114) = (   0.4961152   0.4961152  -0.0000000), wk =   0.0074627
        k(  115) = (   0.5132227   0.5132227   0.0000000), wk =   0.0074627
        k(  116) = (   0.5303301   0.5303301   0.0000000), wk =   0.0074627
        k(  117) = (   0.5205092   0.5205092   0.0196419), wk =   0.0074627
        k(  118) = (   0.5106882   0.5106882   0.0392837), wk =   0.0074627
        k(  119) = (   0.5008673   0.5008673   0.0589256), wk =   0.0074627
        k(  120) = (   0.4910464   0.4910464   0.0785674), wk =   0.0074627
        k(  121) = (   0.4812254   0.4812254   0.0982093), wk =   0.0074627
        k(  122) = (   0.4714045   0.4714045   0.1178511), wk =   0.0074627
        k(  123) = (   0.4615836   0.4615836   0.1374930), wk =   0.0074627
        k(  124) = (   0.4517627   0.4517627   0.1571348), wk =   0.0074627
        k(  125) = (   0.4419417   0.4419417   0.1767767), wk =   0.0074627
        k(  126) = (   0.4321208   0.4321208   0.1964186), wk =   0.0074627
        k(  127) = (   0.4222999   0.4222999   0.2160604), wk =   0.0074627
        k(  128) = (   0.4124790   0.4124790   0.2357023), wk =   0.0074627
        k(  129) = (   0.4026580   0.4026580   0.2553441), wk =   0.0074627
        k(  130) = (   0.3928371   0.3928371   0.2749860), wk =   0.0074627
        k(  131) = (   0.3830162   0.3830162   0.2946278), wk =   0.0074627
        k(  132) = (   0.3731952   0.3731952   0.3142697), wk =   0.0074627
        k(  133) = (   0.3633743   0.3633743   0.3339115), wk =   0.0074627
        k(  134) = (   0.3535534   0.3535534   0.3535534), wk =   0.0074627

                       cryst. coord.
        k(    1) = (   0.0000000   0.0000000   0.0000000), wk =   0.0074627
        k(    2) = (   0.0185185   0.0000000   0.0185185), wk =   0.0074627
        k(    3) = (   0.0370370   0.0000000   0.0370370), wk =   0.0074627
        k(    4) = (   0.0555556   0.0000000   0.0555556), wk =   0.0074627
        k(    5) = (   0.0740741   0.0000000   0.0740741), wk =   0.0074627
        k(    6) = (   0.0925926   0.0000000   0.0925926), wk =   0.0074627
        k(    7) = (   0.1111111   0.0000000   0.1111111), wk =   0.0074627
        k(    8) = (   0.1296296   0.0000000   0.1296296), wk =   0.0074627
        k(    9) = (   0.1481481   0.0000000   0.1481481), wk =   0.0074627
        k(   10) = (   0.1666667   0.0000000   0.1666667), wk =   0.0074627
        k(   11) = (   0.1851852   0.0000000   0.1851852), wk =   0.0074627
        k(   12) = (   0.2037037   0.0000000   0.2037037), wk =   0.0074627
        k(   13) = (   0.2222222   0.0000000   0.2222222), wk =   0.0074627
        k(   14) = (   0.2407407   0.0000000   0.2407407), wk =   0.0074627
        k(   15) = (   0.2592593   0.0000000   0.2592593), wk =   0.0074627
        k(   16) = (   0.2777778   0.0000000   0.2777778), wk =   0.0074627
        k(   17) = (   0.2962963   0.0000000   0.2962963), wk =   0.0074627
        k(   18) = (   0.3148148   0.0000000   0.3148148), wk =   0.0074627
        k(   19) = (   0.3333333   0.0000000   0.3333333), wk =   0.0074627
        k(   20) = (   0.3518519   0.0000000   0.3518519), wk =   0.0074627
        k(   21) = (   0.3703704   0.0000000   0.3703704), wk =   0.0074627
        k(   22) = (   0.3888889   0.0000000   0.3888889), wk =   0.0074627
        k(   23) = (   0.4074074   0.0000000   0.4074074), wk =   0.0074627
        k(   24) = (   0.4259259   0.0000000   0.4259259), wk =   0.0074627
        k(   25) = (   0.4444444   0.0000000   0.4444444), wk =   0.0074627
        k(   26) = (   0.4629630   0.0000000   0.4629630), wk =   0.0074627
        k(   27) = (   0.4814815   0.0000000   0.4814815), wk =   0.0074627
        k(   28) = (   0.5000000   0.0000000   0.5000000), wk =   0.0074627
        k(   29) = (   0.5000000   0.0192308   0.5192308), wk =   0.0074627
        k(   30) = (   0.5000000   0.0384615   0.5384615), wk =   0.0074627
        k(   31) = (   0.5000000   0.0576923   0.5576923), wk =   0.0074627
        k(   32) = (   0.5000000   0.0769231   0.5769231), wk =   0.0074627
        k(   33) = (   0.5000000   0.0961538   0.5961538), wk =   0.0074627
        k(   34) = (   0.5000000   0.1153846   0.6153846), wk =   0.0074627
        k(   35) = (   0.5000000   0.1346154   0.6346154), wk =   0.0074627
        k(   36) = (   0.5000000   0.1538462   0.6538462), wk =   0.0074627
        k(   37) = (   0.5000000   0.1730769   0.6730769), wk =   0.0074627
        k(   38) = (   0.5000000   0.1923077   0.6923077), wk =   0.0074627
        k(   39) = (   0.5000000   0.2115385   0.7115385), wk =   0.0074627
        k(   40) = (   0.5000000   0.2307692   0.7307692), wk =   0.0074627
        k(   41) = (   0.5000000   0.2500000   0.7500000), wk =   0.0074627
        k(   42) = (   0.5000000   0.2631579   0.7368421), wk =   0.0074627
        k(   43) = (   0.5000000   0.2763158   0.7236842), wk =   0.0074627
        k(   44) = (   0.5000000   0.2894737   0.7105263), wk =   0.0074627
        k(   45) = (   0.5000000   0.3026316   0.6973684), wk =   0.0074627
        k(   46) = (   0.5000000   0.3157895   0.6842105), wk =   0.0074627
        k(   47) = (   0.5000000   0.3289474   0.6710526), wk =   0.0074627
        k(   48) = (   0.5000000   0.3421053   0.6578947), wk =   0.0074627
        k(   49) = (   0.5000000   0.3552632   0.6447368), wk =   0.0074627
        k(   50) = (   0.5000000   0.3684211   0.6315789), wk =   0.0074627
        k(   51) = (   0.5000000   0.3815789   0.6184211), wk =   0.0074627
        k(   52) = (   0.5000000   0.3947368   0.6052632), wk =   0.0074627
        k(   53) = (   0.5000000   0.4078947   0.5921053), wk =   0.0074627
        k(   54) = (   0.5000000   0.4210526   0.5789474), wk =   0.0074627
        k(   55) = (   0.5000000   0.4342105   0.5657895), wk =   0.0074627
        k(   56) = (   0.5000000   0.4473684   0.5526316), wk =   0.0074627
        k(   57) = (   0.5000000   0.4605263   0.5394737), wk =   0.0074627
        k(   58) = (   0.5000000   0.4736842   0.5263158), wk =   0.0074627
        k(   59) = (   0.5000000   0.4868421   0.5131579), wk =   0.0074627
        k(   60) = (   0.5000000   0.5000000   0.5000000), wk =   0.0074627
        k(   61) = (   0.4800000   0.4800000   0.4800000), wk =   0.0074627
        k(   62) = (   0.4600000   0.4600000   0.4600000), wk =   0.0074627
        k(   63) = (   0.4400000   0.4400000   0.4400000), wk =   0.0074627
        k(   64) = (   0.4200000   0.4200000   0.4200000), wk =   0.0074627
        k(   65) = (   0.4000000   0.4000000   0.4000000), wk =   0.0074627
        k(   66) = (   0.3800000   0.3800000   0.3800000), wk =   0.0074627
        k(   67) = (   0.3600000   0.3600000   0.3600000), wk =   0.0074627
        k(   68) = (   0.3400000   0.3400000   0.3400000), wk =   0.0074627
        k(   69) = (   0.3200000   0.3200000   0.3200000), wk =   0.0074627
        k(   70) = (   0.3000000   0.3000000   0.3000000), wk =   0.0074627
        k(   71) = (   0.2800000   0.2800000   0.2800000), wk =   0.0074627
        k(   72) = (   0.2600000   0.2600000   0.2600000), wk =   0.0074627
        k(   73) = (   0.2400000   0.2400000   0.2400000), wk =   0.0074627
        k(   74) = (   0.2200000   0.2200000   0.2200000), wk =   0.0074627
        k(   75) = (   0.2000000   0.2000000   0.2000000), wk =   0.0074627
        k(   76) = (   0.1800000   0.1800000   0.1800000), wk =   0.0074627
        k(   77) = (   0.1600000   0.1600000   0.1600000), wk =   0.0074627
        k(   78) = (   0.1400000   0.1400000   0.1400000), wk =   0.0074627
        k(   79) = (   0.1200000   0.1200000   0.1200000), wk =   0.0074627
        k(   80) = (   0.1000000   0.1000000   0.1000000), wk =   0.0074627
        k(   81) = (   0.0800000   0.0800000   0.0800000), wk =   0.0074627
        k(   82) = (   0.0600000   0.0600000   0.0600000), wk =   0.0074627
        k(   83) = (   0.0400000   0.0400000   0.0400000), wk =   0.0074627
        k(   84) = (   0.0200000   0.0200000   0.0200000), wk =   0.0074627
        k(   85) = (   0.0000000   0.0000000   0.0000000), wk =   0.0074627
        k(   86) = (   0.0120968   0.0120968   0.0241935), wk =   0.0074627
        k(   87) = (   0.0241935   0.0241935   0.0483871), wk =   0.0074627
        k(   88) = (   0.0362903   0.0362903   0.0725806), wk =   0.0074627
        k(   89) = (   0.0483871   0.0483871   0.0967742), wk =   0.0074627
        k(   90) = (   0.0604839   0.0604839   0.1209677), wk =   0.0074627
        k(   91) = (   0.0725806   0.0725806   0.1451613), wk =   0.0074627
        k(   92) = (   0.0846774   0.0846774   0.1693548), wk =   0.0074627
        k(   93) = (   0.0967742   0.0967742   0.1935484), wk =   0.0074627
        k(   94) = (   0.1088710   0.1088710   0.2177419), wk =   0.0074627
        k(   95) = (   0.1209677   0.1209677   0.2419355), wk =   0.0074627
        k(   96) = (   0.1330645   0.1330645   0.2661290), wk =   0.0074627
        k(   97) = (   0.1451613   0.1451613   0.2903226), wk =   0.0074627
        k(   98) = (   0.1572581   0.1572581   0.3145161), wk =   0.0074627
        k(   99) = (   0.1693548   0.1693548   0.3387097), wk =   0.0074627
        k(  100) = (   0.1814516   0.1814516   0.3629032), wk =   0.0074627
        k(  101) = (   0.1935484   0.1935484   0.3870968), wk =   0.0074627
        k(  102) = (   0.2056452   0.2056452   0.4112903), wk =   0.0074627
        k(  103) = (   0.2177419   0.2177419   0.4354839), wk =   0.0074627
        k(  104) = (   0.2298387   0.2298387   0.4596774), wk =   0.0074627
        k(  105) = (   0.2419355   0.2419355   0.4838710), wk =   0.0074627
        k(  106) = (   0.2540323   0.2540323   0.5080645), wk =   0.0074627
        k(  107) = (   0.2661290   0.2661290   0.5322581), wk =   0.0074627
        k(  108) = (   0.2782258   0.2782258   0.5564516), wk =   0.0074627
        k(  109) = (   0.2903226   0.2903226   0.5806452), wk =   0.0074627
        k(  110) = (   0.3024194   0.3024194   0.6048387), wk =   0.0074627
        k(  111) = (   0.3145161   0.3145161   0.6290323), wk =   0.0074627
        k(  112) = (   0.3266129   0.3266129   0.6532258), wk =   0.0074627
        k(  113) = (   0.3387097   0.3387097   0.6774194), wk =   0.0074627
        k(  114) = (   0.3508065   0.3508065   0.7016129), wk =   0.0074627
        k(  115) = (   0.3629032   0.3629032   0.7258065), wk =   0.0074627
        k(  116) = (   0.3750000   0.3750000   0.7500000), wk =   0.0074627
        k(  117) = (   0.3819444   0.3819444   0.7361111), wk =   0.0074627
        k(  118) = (   0.3888889   0.3888889   0.7222222), wk =   0.0074627
        k(  119) = (   0.3958333   0.3958333   0.7083333), wk =   0.0074627
        k(  120) = (   0.4027778   0.4027778   0.6944444), wk =   0.0074627
        k(  121) = (   0.4097222   0.4097222   0.6805556), wk =   0.0074627
        k(  122) = (   0.4166667   0.4166667   0.6666667), wk =   0.0074627
        k(  123) = (   0.4236111   0.4236111   0.6527778), wk =   0.0074627
        k(  124) = (   0.4305556   0.4305556   0.6388889), wk =   0.0074627
        k(  125) = (   0.4375000   0.4375000   0.6250000), wk =   0.0074627
        k(  126) = (   0.4444444   0.4444444   0.6111111), wk =   0.0074627
        k(  127) = (   0.4513889   0.4513889   0.5972222), wk =   0.0074627
        k(  128) = (   0.4583333   0.4583333   0.5833333), wk =   0.0074627
        k(  129) = (   0.4652778   0.4652778   0.5694444), wk =   0.0074627
        k(  130) = (   0.4722222   0.4722222   0.5555556), wk =   0.0074627
        k(  131) = (   0.4791667   0.4791667   0.5416667), wk =   0.0074627
        k(  132) = (   0.4861111   0.4861111   0.5277778), wk =   0.0074627
        k(  133) = (   0.4930556   0.4930556   0.5138889), wk =   0.0074627
        k(  134) = (   0.5000000   0.5000000   0.5000000), wk =   0.0074627

     Dense  grid:   123189 G-vectors     FFT dimensions: (  72,  72,  72)

     Largest allocated arrays     est. size (Mb)     dimensions
        Kohn-Sham Wavefunctions         0.27 Mb     (     492,   36)
        NL pseudopotentials             0.14 Mb     (     246,   36)
        Each V/rho on FFT grid          0.16 Mb     (   10368)
        Each G-vector array             0.01 Mb     (    1928)
        G-vector shells                 0.01 Mb     (     668)
     Largest temporary arrays     est. size (Mb)     dimensions
        Auxiliary wavefunctions         1.08 Mb     (     492,  144)
        Each subspace H/S matrix        0.32 Mb     (     144,  144)
        Each <psi_i|beta_j> matrix      0.04 Mb     (      36,   2,   36)

     The potential is recalculated from file :
     ./Sn.save/charge-density.dat

     Starting wfc are random

     Band Structure Calculation
     Davidson diagonalization with overlap

     Computing kpt #:     1
     total cpu time spent up to now is        6.6 secs

     Computing kpt #:     2
     total cpu time spent up to now is        7.6 secs

     Computing kpt #:     3
     total cpu time spent up to now is        8.5 secs

     Computing kpt #:     4
     total cpu time spent up to now is        9.5 secs

     Computing kpt #:     5
     total cpu time spent up to now is       10.4 secs

     Computing kpt #:     6
     total cpu time spent up to now is       11.3 secs

     Computing kpt #:     7
     total cpu time spent up to now is       12.3 secs

     Computing kpt #:     8
     total cpu time spent up to now is       13.3 secs

     Computing kpt #:     9
     total cpu time spent up to now is       14.2 secs

     Computing kpt #:    10
     total cpu time spent up to now is       15.1 secs

     Computing kpt #:    11
     total cpu time spent up to now is       16.1 secs

     Computing kpt #:    12
     total cpu time spent up to now is       17.0 secs

     Computing kpt #:    13
     total cpu time spent up to now is       18.0 secs

     Computing kpt #:    14
     total cpu time spent up to now is       18.9 secs

     Computing kpt #:    15
     total cpu time spent up to now is       19.9 secs

     Computing kpt #:    16
     total cpu time spent up to now is       20.9 secs

     Computing kpt #:    17
     total cpu time spent up to now is       21.8 secs

     Computing kpt #:    18
     total cpu time spent up to now is       22.9 secs

     Computing kpt #:    19
     total cpu time spent up to now is       23.9 secs

     Computing kpt #:    20
     total cpu time spent up to now is       24.9 secs

     Computing kpt #:    21
     total cpu time spent up to now is       25.8 secs

     Computing kpt #:    22
     total cpu time spent up to now is       26.9 secs

     Computing kpt #:    23
     total cpu time spent up to now is       27.9 secs

     Computing kpt #:    24
     total cpu time spent up to now is       28.8 secs

     Computing kpt #:    25
     total cpu time spent up to now is       29.8 secs

     Computing kpt #:    26
     total cpu time spent up to now is       30.8 secs

     Computing kpt #:    27
     total cpu time spent up to now is       31.7 secs

     Computing kpt #:    28
     total cpu time spent up to now is       32.7 secs

     Computing kpt #:    29
     total cpu time spent up to now is       33.6 secs

     Computing kpt #:    30
     total cpu time spent up to now is       34.6 secs

     Computing kpt #:    31
     total cpu time spent up to now is       35.6 secs

     Computing kpt #:    32
     total cpu time spent up to now is       36.6 secs

     Computing kpt #:    33
     total cpu time spent up to now is       37.5 secs

     Computing kpt #:    34
     total cpu time spent up to now is       38.5 secs

     Computing kpt #:    35
     total cpu time spent up to now is       39.5 secs

     Computing kpt #:    36
     total cpu time spent up to now is       40.4 secs

     Computing kpt #:    37
     total cpu time spent up to now is       41.3 secs

     Computing kpt #:    38
     total cpu time spent up to now is       42.2 secs

     Computing kpt #:    39
     total cpu time spent up to now is       43.2 secs

     Computing kpt #:    40
     total cpu time spent up to now is       44.1 secs

     Computing kpt #:    41
     total cpu time spent up to now is       45.0 secs

     Computing kpt #:    42
     total cpu time spent up to now is       45.9 secs

     Computing kpt #:    43
     total cpu time spent up to now is       46.9 secs

     Computing kpt #:    44
     total cpu time spent up to now is       47.8 secs

     Computing kpt #:    45
     total cpu time spent up to now is       48.7 secs

     Computing kpt #:    46
     total cpu time spent up to now is       49.7 secs

     Computing kpt #:    47
     total cpu time spent up to now is       50.6 secs

     Computing kpt #:    48
     total cpu time spent up to now is       51.6 secs

     Computing kpt #:    49
     total cpu time spent up to now is       52.5 secs

     Computing kpt #:    50
     total cpu time spent up to now is       53.5 secs

     Computing kpt #:    51
     total cpu time spent up to now is       54.4 secs

     Computing kpt #:    52
     total cpu time spent up to now is       55.4 secs

     Computing kpt #:    53
     total cpu time spent up to now is       56.5 secs

     Computing kpt #:    54
     total cpu time spent up to now is       57.5 secs

     Computing kpt #:    55
     total cpu time spent up to now is       58.4 secs

     Computing kpt #:    56
     total cpu time spent up to now is       59.4 secs

     Computing kpt #:    57
     total cpu time spent up to now is       60.3 secs

     Computing kpt #:    58
     total cpu time spent up to now is       61.3 secs

     Computing kpt #:    59
     total cpu time spent up to now is       62.3 secs

     Computing kpt #:    60
     total cpu time spent up to now is       63.2 secs

     Computing kpt #:    61
     total cpu time spent up to now is       64.2 secs

     Computing kpt #:    62
     total cpu time spent up to now is       65.1 secs

     Computing kpt #:    63
     total cpu time spent up to now is       66.1 secs

     Computing kpt #:    64
     total cpu time spent up to now is       67.0 secs

     Computing kpt #:    65
     total cpu time spent up to now is       68.0 secs

     Computing kpt #:    66
     total cpu time spent up to now is       68.9 secs

     Computing kpt #:    67
     total cpu time spent up to now is       69.9 secs

     Computing kpt #:    68
     total cpu time spent up to now is       70.9 secs

     Computing kpt #:    69
     total cpu time spent up to now is       71.8 secs

     Computing kpt #:    70
     total cpu time spent up to now is       72.7 secs

     Computing kpt #:    71
     total cpu time spent up to now is       73.7 secs

     Computing kpt #:    72
     total cpu time spent up to now is       74.6 secs

     Computing kpt #:    73
     total cpu time spent up to now is       75.6 secs

     Computing kpt #:    74
     total cpu time spent up to now is       76.5 secs

     Computing kpt #:    75
     total cpu time spent up to now is       77.5 secs

     Computing kpt #:    76
     total cpu time spent up to now is       78.4 secs

     Computing kpt #:    77
     total cpu time spent up to now is       79.3 secs

     Computing kpt #:    78
     total cpu time spent up to now is       80.2 secs

     Computing kpt #:    79
     total cpu time spent up to now is       81.2 secs

     Computing kpt #:    80
     total cpu time spent up to now is       82.1 secs

     Computing kpt #:    81
     total cpu time spent up to now is       83.1 secs

     Computing kpt #:    82
     total cpu time spent up to now is       84.0 secs

     Computing kpt #:    83
     total cpu time spent up to now is       84.9 secs

     Computing kpt #:    84
     total cpu time spent up to now is       85.9 secs

     Computing kpt #:    85
     total cpu time spent up to now is       86.8 secs

     Computing kpt #:    86
     total cpu time spent up to now is       87.8 secs

     Computing kpt #:    87
     total cpu time spent up to now is       88.7 secs

     Computing kpt #:    88
     total cpu time spent up to now is       89.7 secs

     Computing kpt #:    89
     total cpu time spent up to now is       90.6 secs

     Computing kpt #:    90
     total cpu time spent up to now is       91.6 secs

     Computing kpt #:    91
     total cpu time spent up to now is       92.5 secs

     Computing kpt #:    92
     total cpu time spent up to now is       93.4 secs

     Computing kpt #:    93
     total cpu time spent up to now is       94.4 secs

     Computing kpt #:    94
     total cpu time spent up to now is       95.3 secs

     Computing kpt #:    95
     total cpu time spent up to now is       96.3 secs

     Computing kpt #:    96
     total cpu time spent up to now is       97.2 secs

     Computing kpt #:    97
     total cpu time spent up to now is       98.2 secs

     Computing kpt #:    98
     total cpu time spent up to now is       99.1 secs

     Computing kpt #:    99
     total cpu time spent up to now is      100.1 secs

     Computing kpt #:   100
     total cpu time spent up to now is      101.0 secs

     Computing kpt #:   101
     total cpu time spent up to now is      102.0 secs

     Computing kpt #:   102
     total cpu time spent up to now is      102.9 secs

     Computing kpt #:   103
     total cpu time spent up to now is      103.9 secs

     Computing kpt #:   104
     total cpu time spent up to now is      104.8 secs

     Computing kpt #:   105
     total cpu time spent up to now is      105.7 secs

     Computing kpt #:   106
     total cpu time spent up to now is      106.7 secs

     Computing kpt #:   107
     total cpu time spent up to now is      107.7 secs

     Computing kpt #:   108
     total cpu time spent up to now is      108.6 secs

     Computing kpt #:   109
     total cpu time spent up to now is      109.6 secs

     Computing kpt #:   110
     total cpu time spent up to now is      110.5 secs

     Computing kpt #:   111
     total cpu time spent up to now is      111.5 secs

     Computing kpt #:   112
     total cpu time spent up to now is      112.4 secs

     Computing kpt #:   113
     total cpu time spent up to now is      113.4 secs

     Computing kpt #:   114
     total cpu time spent up to now is      114.4 secs

     Computing kpt #:   115
     total cpu time spent up to now is      115.3 secs

     Computing kpt #:   116
     total cpu time spent up to now is      116.4 secs

     Computing kpt #:   117
     total cpu time spent up to now is      117.4 secs

     Computing kpt #:   118
     total cpu time spent up to now is      118.3 secs

     Computing kpt #:   119
     total cpu time spent up to now is      119.3 secs

     Computing kpt #:   120
     total cpu time spent up to now is      120.2 secs

     Computing kpt #:   121
     total cpu time spent up to now is      121.2 secs

     Computing kpt #:   122
     total cpu time spent up to now is      122.1 secs

     Computing kpt #:   123
     total cpu time spent up to now is      123.1 secs

     Computing kpt #:   124
     total cpu time spent up to now is      124.0 secs

     Computing kpt #:   125
     total cpu time spent up to now is      125.0 secs

     Computing kpt #:   126
     total cpu time spent up to now is      125.9 secs

     Computing kpt #:   127
     total cpu time spent up to now is      126.9 secs

     Computing kpt #:   128
     total cpu time spent up to now is      128.0 secs

     Computing kpt #:   129
     total cpu time spent up to now is      128.9 secs

     Computing kpt #:   130
     total cpu time spent up to now is      129.9 secs

     Computing kpt #:   131
     total cpu time spent up to now is      130.9 secs

     Computing kpt #:   132
     total cpu time spent up to now is      131.8 secs

     Computing kpt #:   133
     total cpu time spent up to now is      132.8 secs

     Computing kpt #:   134
     total cpu time spent up to now is      133.7 secs

     ethr =  3.57E-09,  avg # of iterations = 16.9

     total cpu time spent up to now is      133.7 secs

     End of band structure calculation

          k = 0.0000 0.0000 0.0000 ( 15473 PWs)   bands (ev):

   -13.2391 -13.2391 -13.2391 -13.2391 -13.2391 -13.2391 -13.1848 -13.1848
   -13.1848 -13.1848 -12.9364 -12.9364 -12.9364 -12.9364 -12.9364 -12.9364
   -12.9317 -12.9317 -12.9317 -12.9317  -1.7536  -1.7536   7.2186   7.2186
     8.4551   8.4551   8.4551   8.4551   8.4551   8.4551  10.5300  10.5300
    10.5300  10.5300  10.5300  10.5300

          k = 0.0000 0.0262 0.0000 ( 15445 PWs)   bands (ev):

   -13.2393 -13.2393 -13.2393 -13.2393 -13.2393 -13.2393 -13.1845 -13.1845
   -13.1841 -13.1841 -12.9400 -12.9400 -12.9362 -12.9362 -12.9362 -12.9362
   -12.9320 -12.9320 -12.9286 -12.9286  -1.7495  -1.7495   7.1613   7.1613
     8.4348   8.4348   8.4348   8.4348   8.5110   8.5110  10.5160  10.5160
    10.5557  10.5557  10.5557  10.5557

          k = 0.0000 0.0524 0.0000 ( 15453 PWs)   bands (ev):

   -13.2398 -13.2398 -13.2398 -13.2398 -13.2398 -13.2398 -13.1839 -13.1839
   -13.1823 -13.1823 -12.9457 -12.9457 -12.9355 -12.9355 -12.9355 -12.9355
   -12.9326 -12.9326 -12.9245 -12.9245  -1.7372  -1.7372   7.0129   7.0129
     8.3766   8.3766   8.3766   8.3766   8.6547   8.6547  10.4753  10.4753
    10.6296  10.6296  10.6296  10.6296

          k = 0.0000 0.0786 0.0000 ( 15453 PWs)   bands (ev):

   -13.2406 -13.2406 -13.2406 -13.2406 -13.2406 -13.2406 -13.1828 -13.1828
   -13.1794 -13.1794 -12.9520 -12.9520 -12.9344 -12.9344 -12.9344 -12.9344
   -12.9336 -12.9336 -12.9207 -12.9207  -1.7167  -1.7167   6.8123   6.8123
     8.2880   8.2880   8.2880   8.2880   8.8467   8.8467  10.4119  10.4119
    10.7445  10.7445  10.7445  10.7445

          k = 0.0000 0.1048 0.0000 ( 15445 PWs)   bands (ev):

   -13.2417 -13.2417 -13.2417 -13.2417 -13.2415 -13.2415 -13.1813 -13.1813
   -13.1755 -13.1755 -12.9587 -12.9587 -12.9351 -12.9351 -12.9328 -12.9328
   -12.9328 -12.9328 -12.9175 -12.9175  -1.6880  -1.6880   6.5848   6.5848
     8.1774   8.1774   8.1774   8.1774   9.0605   9.0605  10.3311  10.3311
    10.8919  10.8919  10.8919  10.8919

          k = 0.0000 0.1309 0.0000 ( 15417 PWs)   bands (ev):

   -13.2431 -13.2431 -13.2431 -13.2431 -13.2424 -13.2424 -13.1793 -13.1793
   -13.1707 -13.1707 -12.9659 -12.9659 -12.9369 -12.9369 -12.9309 -12.9309
   -12.9309 -12.9309 -12.9147 -12.9147  -1.6511  -1.6511   6.3432   6.3432
     8.0524   8.0524   8.0524   8.0524   9.2812   9.2812  10.2380  10.2380
    11.0640  11.0640  11.0640  11.0640

          k = 0.0000 0.1571 0.0000 ( 15401 PWs)   bands (ev):

   -13.2448 -13.2448 -13.2448 -13.2448 -13.2431 -13.2431 -13.1769 -13.1769
   -13.1653 -13.1653 -12.9735 -12.9735 -12.9392 -12.9392 -12.9286 -12.9286
   -12.9286 -12.9286 -12.9126 -12.9126  -1.6061  -1.6061   6.0939   6.0939
     7.9189   7.9189   7.9189   7.9189   9.4996   9.4996  10.1374  10.1374
    11.2548  11.2548  11.2548  11.2548

          k = 0.0000 0.1833 0.0000 ( 15425 PWs)   bands (ev):

   -13.2467 -13.2467 -13.2467 -13.2467 -13.2436 -13.2436 -13.1742 -13.1742
   -13.1593 -13.1593 -12.9815 -12.9815 -12.9418 -12.9418 -12.9260 -12.9260
   -12.9260 -12.9260 -12.9110 -12.9110  -1.5529  -1.5529   5.8405   5.8405
     7.7813   7.7813   7.7813   7.7813   9.7086   9.7086  10.0333  10.0333
    11.4598  11.4598  11.4598  11.4598

          k = 0.0000 0.2095 0.0000 ( 15441 PWs)   bands (ev):

   -13.2487 -13.2487 -13.2487 -13.2487 -13.2438 -13.2438 -13.1710 -13.1710
   -13.1527 -13.1527 -12.9898 -12.9898 -12.9449 -12.9449 -12.9232 -12.9232
   -12.9232 -12.9232 -12.9100 -12.9100  -1.4917  -1.4917   5.5851   5.5851
     7.6428   7.6428   7.6428   7.6428   9.9011   9.9011   9.9288   9.9288
    11.6756  11.6756  11.6756  11.6756

          k = 0.0000 0.2357 0.0000 ( 15437 PWs)   bands (ev):

   -13.2509 -13.2509 -13.2509 -13.2509 -13.2437 -13.2437 -13.1674 -13.1674
   -13.1457 -13.1457 -12.9984 -12.9984 -12.9483 -12.9483 -12.9201 -12.9201
   -12.9201 -12.9201 -12.9096 -12.9096  -1.4225  -1.4225   5.3288   5.3288
     7.5055   7.5055   7.5055   7.5055   9.8261   9.8261  10.0703  10.0703
    11.8999  11.8999  11.8999  11.8999

          k = 0.0000 0.2619 0.0000 ( 15441 PWs)   bands (ev):

   -13.2533 -13.2533 -13.2533 -13.2533 -13.2432 -13.2432 -13.1635 -13.1635
   -13.1383 -13.1383 -13.0073 -13.0073 -12.9521 -12.9521 -12.9168 -12.9168
   -12.9168 -12.9168 -12.9098 -12.9098  -1.3453  -1.3453   5.0727   5.0727
     7.3712   7.3712   7.3712   7.3712   9.7271   9.7271  10.2089  10.2089
    12.1309  12.1309  12.1309  12.1309

          k = 0.0000 0.2881 0.0000 ( 15453 PWs)   bands (ev):

   -13.2557 -13.2557 -13.2557 -13.2557 -13.2423 -13.2423 -13.1592 -13.1592
   -13.1306 -13.1306 -13.0164 -13.0164 -12.9562 -12.9562 -12.9134 -12.9134
   -12.9134 -12.9134 -12.9105 -12.9105  -1.2602  -1.2602   4.8173   4.8173
     7.2411   7.2411   7.2411   7.2411   9.6333   9.6333  10.3104  10.3104
    12.3670  12.3670  12.3670  12.3670

          k = 0.0000 0.3143 0.0000 ( 15473 PWs)   bands (ev):

   -13.2581 -13.2581 -13.2581 -13.2581 -13.2409 -13.2409 -13.1545 -13.1545
   -13.1226 -13.1226 -13.0257 -13.0257 -12.9607 -12.9607 -12.9118 -12.9118
   -12.9100 -12.9100 -12.9100 -12.9100  -1.1673  -1.1673   4.5631   4.5631
     7.1162   7.1162   7.1162   7.1162   9.5456   9.5456  10.3708  10.3708
    12.6071  12.6071  12.6071  12.6071

          k = 0.0000 0.3405 0.0000 ( 15465 PWs)   bands (ev):

   -13.2606 -13.2606 -13.2606 -13.2606 -13.2391 -13.2391 -13.1495 -13.1495
   -13.1143 -13.1143 -13.0351 -13.0351 -12.9655 -12.9655 -12.9137 -12.9137
   -12.9065 -12.9065 -12.9065 -12.9065  -1.0666  -1.0666   4.3105   4.3105
     6.9971   6.9971   6.9971   6.9971   9.4649   9.4649  10.3897  10.3897
    12.8502  12.8502  12.8502  12.8502

          k = 0.0000 0.3666 0.0000 ( 15456 PWs)   bands (ev):

   -13.2630 -13.2630 -13.2630 -13.2630 -13.2368 -13.2368 -13.1442 -13.1442
   -13.1058 -13.1058 -13.0447 -13.0447 -12.9706 -12.9706 -12.9162 -12.9162
   -12.9030 -12.9030 -12.9030 -12.9030  -0.9582  -0.9582   4.0597   4.0597
     6.8846   6.8846   6.8846   6.8846   9.3919   9.3919  10.3707  10.3707
    13.0955  13.0955  13.0955  13.0955

          k = 0.0000 0.3928 0.0000 ( 15460 PWs)   bands (ev):

   -13.2654 -13.2654 -13.2654 -13.2654 -13.2341 -13.2341 -13.1387 -13.1387
   -13.0971 -13.0971 -13.0544 -13.0544 -12.9760 -12.9760 -12.9192 -12.9192
   -12.8996 -12.8996 -12.8996 -12.8996  -0.8422  -0.8422   3.8112   3.8112
     6.7790   6.7790   6.7790   6.7790   9.3271   9.3271  10.3205  10.3205
    13.3422  13.3422  13.3422  13.3422

          k = 0.0000 0.4190 0.0000 ( 15456 PWs)   bands (ev):

   -13.2677 -13.2677 -13.2677 -13.2677 -13.2308 -13.2308 -13.1328 -13.1328
   -13.0883 -13.0883 -13.0642 -13.0642 -12.9817 -12.9817 -12.9227 -12.9227
   -12.8963 -12.8963 -12.8963 -12.8963  -0.7187  -0.7187   3.5651   3.5651
     6.6808   6.6808   6.6808   6.6808   9.2708   9.2708  10.2469  10.2469
    13.5894  13.5894  13.5894  13.5894

          k = 0.0000 0.4452 0.0000 ( 15452 PWs)   bands (ev):

   -13.2699 -13.2699 -13.2699 -13.2699 -13.2271 -13.2271 -13.1267 -13.1267
   -13.0794 -13.0794 -13.0740 -13.0740 -12.9877 -12.9877 -12.9268 -12.9268
   -12.8931 -12.8931 -12.8931 -12.8931  -0.5878  -0.5878   3.3217   3.3217
     6.5903   6.5903   6.5903   6.5903   9.2235   9.2235  10.1574  10.1574
    13.8362  13.8362  13.8362  13.8362

          k = 0.0000 0.4714 0.0000 ( 15432 PWs)   bands (ev):

   -13.2719 -13.2719 -13.2719 -13.2719 -13.2229 -13.2229 -13.1203 -13.1203
   -13.0838 -13.0838 -13.0704 -13.0704 -12.9938 -12.9938 -12.9314 -12.9314
   -12.8901 -12.8901 -12.8901 -12.8901  -0.4497  -0.4497   3.0813   3.0813
     6.5077   6.5077   6.5077   6.5077   9.1853   9.1853  10.0585  10.0585
    14.0815  14.0815  14.0815  14.0815

          k = 0.0000 0.4976 0.0000 ( 15432 PWs)   bands (ev):

   -13.2738 -13.2738 -13.2738 -13.2738 -13.2183 -13.2183 -13.1138 -13.1138
   -13.0935 -13.0935 -13.0613 -13.0613 -13.0002 -13.0002 -12.9364 -12.9364
   -12.8874 -12.8874 -12.8874 -12.8874  -0.3045  -0.3045   2.8442   2.8442
     6.4332   6.4332   6.4332   6.4332   9.1565   9.1565   9.9551   9.9551
    14.3239  14.3239  14.3239  14.3239

          k = 0.0000 0.5238 0.0000 ( 15460 PWs)   bands (ev):

   -13.2755 -13.2755 -13.2755 -13.2755 -13.2132 -13.2132 -13.1070 -13.1070
   -13.1032 -13.1032 -13.0522 -13.0522 -13.0068 -13.0068 -12.9419 -12.9419
   -12.8849 -12.8849 -12.8849 -12.8849  -0.1522  -0.1522   2.6106   2.6106
     6.3672   6.3672   6.3672   6.3672   9.1372   9.1372   9.8511   9.8511
    14.5614  14.5614  14.5614  14.5614

          k = 0.0000 0.5500 0.0000 ( 15468 PWs)   bands (ev):

   -13.2770 -13.2770 -13.2770 -13.2770 -13.2077 -13.2077 -13.1127 -13.1127
   -13.1001 -13.1001 -13.0432 -13.0432 -13.0136 -13.0136 -12.9478 -12.9478
   -12.8826 -12.8826 -12.8826 -12.8826   0.0069   0.0069   2.3808   2.3808
     6.3096   6.3096   6.3096   6.3096   9.1276   9.1276   9.7494   9.7494
    14.7913  14.7913  14.7913  14.7913

          k = 0.0000 0.5762 0.0000 ( 15476 PWs)   bands (ev):

   -13.2783 -13.2783 -13.2783 -13.2783 -13.2017 -13.2017 -13.1221 -13.1221
   -13.0931 -13.0931 -13.0342 -13.0342 -13.0205 -13.0205 -12.9542 -12.9542
   -12.8807 -12.8807 -12.8807 -12.8807   0.1727   0.1727   2.1550   2.1550
     6.2607   6.2607   6.2607   6.2607   9.1277   9.1277   9.6522   9.6522
    15.0097  15.0097  15.0097  15.0097

          k = 0.0000 0.6024 0.0000 ( 15456 PWs)   bands (ev):

   -13.2794 -13.2794 -13.2794 -13.2794 -13.1953 -13.1953 -13.1313 -13.1313
   -13.0860 -13.0860 -13.0276 -13.0276 -13.0253 -13.0253 -12.9609 -12.9609
   -12.8791 -12.8791 -12.8791 -12.8791   0.3449   0.3449   1.9335   1.9335
     6.2205   6.2205   6.2205   6.2205   9.1377   9.1377   9.5610   9.5610
    15.2107  15.2107  15.2107  15.2107

          k = 0.0000 0.6285 0.0000 ( 15444 PWs)   bands (ev):

   -13.2802 -13.2802 -13.2802 -13.2802 -13.1885 -13.1885 -13.1403 -13.1403
   -13.0787 -13.0787 -13.0348 -13.0348 -13.0165 -13.0165 -12.9680 -12.9680
   -12.8778 -12.8778 -12.8778 -12.8778   0.5235   0.5235   1.7166   1.7166
     6.1892   6.1892   6.1892   6.1892   9.1574   9.1574   9.4769   9.4769
    15.3863  15.3863  15.3863  15.3863

          k = 0.0000 0.6547 0.0000 ( 15444 PWs)   bands (ev):

   -13.2808 -13.2808 -13.2808 -13.2808 -13.1813 -13.1813 -13.1491 -13.1491
   -13.0714 -13.0714 -13.0420 -13.0420 -13.0079 -13.0079 -12.9754 -12.9754
   -12.8769 -12.8769 -12.8769 -12.8769   0.7083   0.7083   1.5044   1.5044
     6.1668   6.1668   6.1668   6.1668   9.1870   9.1870   9.4009   9.4009
    15.5258  15.5258  15.5258  15.5258

          k = 0.0000 0.6809 0.0000 ( 15428 PWs)   bands (ev):

   -13.2812 -13.2812 -13.2812 -13.2812 -13.1737 -13.1737 -13.1576 -13.1576
   -13.0641 -13.0641 -13.0493 -13.0493 -12.9994 -12.9994 -12.9832 -12.9832
   -12.8763 -12.8763 -12.8763 -12.8763   0.8989   0.8989   1.2972   1.2972
     6.1533   6.1533   6.1533   6.1533   9.2264   9.2264   9.3336   9.3336
    15.6169  15.6169  15.6169  15.6169

          k = 0.0000 0.7071 0.0000 ( 15364 PWs)   bands (ev):

   -13.2813 -13.2813 -13.2813 -13.2813 -13.1658 -13.1658 -13.1658 -13.1658
   -13.0567 -13.0567 -13.0567 -13.0567 -12.9912 -12.9912 -12.9912 -12.9912
   -12.8762 -12.8762 -12.8762 -12.8762   1.0953   1.0953   1.0953   1.0953
     6.1488   6.1488   6.1488   6.1488   9.2753   9.2753   9.2753   9.2753
    15.6487  15.6487  15.6487  15.6487

          k = 0.0272 0.7071 0.0000 ( 15422 PWs)   bands (ev):

   -13.2816 -13.2816 -13.2816 -13.2816 -13.1653 -13.1653 -13.1653 -13.1653
   -13.0567 -13.0567 -13.0567 -13.0567 -12.9917 -12.9917 -12.9917 -12.9917
   -12.8759 -12.8759 -12.8759 -12.8759   1.0960   1.0960   1.0960   1.0960
     6.1394   6.1394   6.1394   6.1394   9.2974   9.2974   9.2974   9.2974
    15.6066  15.6066  15.6066  15.6066

          k = 0.0544 0.7071 0.0000 ( 15434 PWs)   bands (ev):

   -13.2822 -13.2822 -13.2822 -13.2822 -13.1636 -13.1636 -13.1636 -13.1636
   -13.0568 -13.0568 -13.0568 -13.0568 -12.9933 -12.9933 -12.9933 -12.9933
   -12.8752 -12.8752 -12.8752 -12.8752   1.0979   1.0979   1.0979   1.0979
     6.1122   6.1122   6.1122   6.1122   9.3625   9.3625   9.3625   9.3625
    15.4833  15.4833  15.4833  15.4833

          k = 0.0816 0.7071-0.0000 ( 15444 PWs)   bands (ev):

   -13.2833 -13.2833 -13.2833 -13.2833 -13.1610 -13.1610 -13.1610 -13.1610
   -13.0570 -13.0570 -13.0570 -13.0570 -12.9958 -12.9958 -12.9958 -12.9958
   -12.8742 -12.8742 -12.8742 -12.8742   1.1009   1.1009   1.1009   1.1009
     6.0702   6.0702   6.0702   6.0702   9.4680   9.4680   9.4680   9.4680
    15.2883  15.2883  15.2883  15.2883

          k = 0.1088 0.7071 0.0000 ( 15444 PWs)   bands (ev):

   -13.2846 -13.2846 -13.2846 -13.2846 -13.1575 -13.1575 -13.1575 -13.1575
   -13.0572 -13.0572 -13.0572 -13.0572 -12.9991 -12.9991 -12.9991 -12.9991
   -12.8728 -12.8728 -12.8728 -12.8728   1.1049   1.1049   1.1049   1.1049
     6.0172   6.0172   6.0172   6.0172   9.6095   9.6095   9.6095   9.6095
    15.0367  15.0367  15.0367  15.0367

          k = 0.1360 0.7071 0.0000 ( 15444 PWs)   bands (ev):

   -13.2862 -13.2862 -13.2862 -13.2862 -13.1532 -13.1532 -13.1532 -13.1532
   -13.0575 -13.0575 -13.0575 -13.0575 -13.0030 -13.0030 -13.0030 -13.0030
   -12.8713 -12.8713 -12.8713 -12.8713   1.1097   1.1097   1.1097   1.1097
     5.9577   5.9577   5.9577   5.9577   9.7828   9.7828   9.7828   9.7828
    14.7447  14.7447  14.7447  14.7447

          k = 0.1632 0.7071 0.0000 ( 15436 PWs)   bands (ev):

   -13.2878 -13.2878 -13.2878 -13.2878 -13.1484 -13.1484 -13.1484 -13.1484
   -13.0580 -13.0580 -13.0580 -13.0580 -13.0074 -13.0074 -13.0074 -13.0074
   -12.8697 -12.8697 -12.8697 -12.8697   1.1149   1.1149   1.1149   1.1149
     5.8959   5.8959   5.8959   5.8959   9.9832   9.9832   9.9832   9.9832
    14.4269  14.4269  14.4269  14.4269

          k = 0.1904 0.7071 0.0000 ( 15420 PWs)   bands (ev):

   -13.2893 -13.2893 -13.2893 -13.2893 -13.1433 -13.1433 -13.1433 -13.1433
   -13.0586 -13.0586 -13.0586 -13.0586 -13.0120 -13.0120 -13.0120 -13.0120
   -12.8680 -12.8680 -12.8680 -12.8680   1.1204   1.1204   1.1204   1.1204
     5.8355   5.8355   5.8355   5.8355  10.2067  10.2067  10.2067  10.2067
    14.0941  14.0941  14.0941  14.0941

          k = 0.2176 0.7071 0.0000 ( 15420 PWs)   bands (ev):

   -13.2908 -13.2908 -13.2908 -13.2908 -13.1380 -13.1380 -13.1380 -13.1380
   -13.0593 -13.0593 -13.0593 -13.0593 -13.0165 -13.0165 -13.0165 -13.0165
   -12.8666 -12.8666 -12.8666 -12.8666   1.1257   1.1257   1.1257   1.1257
     5.7795   5.7795   5.7795   5.7795  10.4493  10.4493  10.4493  10.4493
    13.7549  13.7549  13.7549  13.7549

          k = 0.2448 0.7071 0.0000 ( 15420 PWs)   bands (ev):

   -13.2921 -13.2921 -13.2921 -13.2921 -13.1329 -13.1329 -13.1329 -13.1329
   -13.0603 -13.0603 -13.0603 -13.0603 -13.0207 -13.0207 -13.0207 -13.0207
   -12.8652 -12.8652 -12.8652 -12.8652   1.1306   1.1306   1.1306   1.1306
     5.7306   5.7306   5.7306   5.7306  10.7067  10.7067  10.7067  10.7067
    13.4161  13.4161  13.4161  13.4161

          k = 0.2720 0.7071 0.0000 ( 15410 PWs)   bands (ev):

   -13.2932 -13.2932 -13.2932 -13.2932 -13.1282 -13.1282 -13.1282 -13.1282
   -13.0614 -13.0614 -13.0614 -13.0614 -13.0243 -13.0243 -13.0243 -13.0243
   -12.8642 -12.8642 -12.8642 -12.8642   1.1348   1.1348   1.1348   1.1348
     5.6906   5.6906   5.6906   5.6906  10.9735  10.9735  10.9735  10.9735
    13.0850  13.0850  13.0850  13.0850

          k = 0.2992 0.7071 0.0000 ( 15396 PWs)   bands (ev):

   -13.2940 -13.2940 -13.2940 -13.2940 -13.1244 -13.1244 -13.1244 -13.1244
   -13.0625 -13.0625 -13.0625 -13.0625 -13.0270 -13.0270 -13.0270 -13.0270
   -12.8634 -12.8634 -12.8634 -12.8634   1.1379   1.1379   1.1379   1.1379
     5.6610   5.6610   5.6610   5.6610  11.2390  11.2390  11.2390  11.2390
    12.7729  12.7729  12.7729  12.7729

          k = 0.3264 0.7071 0.0000 ( 15404 PWs)   bands (ev):

   -13.2945 -13.2945 -13.2945 -13.2945 -13.1218 -13.1218 -13.1218 -13.1218
   -13.0633 -13.0633 -13.0633 -13.0633 -13.0287 -13.0287 -13.0287 -13.0287
   -12.8629 -12.8629 -12.8629 -12.8629   1.1399   1.1399   1.1399   1.1399
     5.6429   5.6429   5.6429   5.6429  11.4742  11.4742  11.4742  11.4742
    12.5096  12.5096  12.5096  12.5096

          k = 0.3536 0.7071 0.0000 ( 15368 PWs)   bands (ev):

   -13.2946 -13.2946 -13.2946 -13.2946 -13.1209 -13.1209 -13.1209 -13.1209
   -13.0636 -13.0636 -13.0636 -13.0636 -13.0293 -13.0293 -13.0293 -13.0293
   -12.8627 -12.8627 -12.8627 -12.8627   1.1406   1.1406   1.1406   1.1406
     5.6368   5.6368   5.6368   5.6368  11.5866  11.5866  11.5866  11.5866
    12.3878  12.3878  12.3878  12.3878

          k = 0.3536 0.6885 0.0186 ( 15396 PWs)   bands (ev):

   -13.2956 -13.2956 -13.2934 -13.2934 -13.1281 -13.1281 -13.1134 -13.1134
   -13.0690 -13.0690 -13.0583 -13.0583 -13.0356 -13.0356 -13.0233 -13.0233
   -12.8639 -12.8639 -12.8617 -12.8617   1.0130   1.0130   1.2689   1.2689
     5.5583   5.5583   5.7280   5.7280  11.4476  11.4476  11.6892  11.6892
    12.3275  12.3275  12.4981  12.4981

          k = 0.3536 0.6699 0.0372 ( 15392 PWs)   bands (ev):

   -13.2964 -13.2964 -13.2920 -13.2920 -13.1350 -13.1350 -13.1057 -13.1057
   -13.0743 -13.0743 -13.0535 -13.0535 -13.0417 -13.0417 -13.0176 -13.0176
   -12.8653 -12.8653 -12.8610 -12.8610   0.8875   0.8875   1.3962   1.3962
     5.4945   5.4945   5.8298   5.8298  11.2944  11.2944  11.7235  11.7235
    12.3508  12.3508  12.6337  12.6337

          k = 0.3536 0.6513 0.0558 ( 15390 PWs)   bands (ev):

   -13.2970 -13.2970 -13.2905 -13.2905 -13.1415 -13.1415 -13.0980 -13.0980
   -13.0790 -13.0790 -13.0530 -13.0530 -13.0438 -13.0438 -13.0124 -13.0124
   -12.8669 -12.8669 -12.8606 -12.8606   0.7652   0.7652   1.5209   1.5209
     5.4477   5.4477   5.9404   5.9404  11.1365  11.1365  11.6899  11.6899
    12.4587  12.4587  12.7812  12.7812

          k = 0.3536 0.6327 0.0744 ( 15392 PWs)   bands (ev):

   -13.2972 -13.2972 -13.2888 -13.2888 -13.1477 -13.1477 -13.0924 -13.0924
   -13.0814 -13.0814 -13.0589 -13.0589 -13.0398 -13.0398 -13.0075 -13.0075
   -12.8686 -12.8686 -12.8605 -12.8605   0.6471   0.6471   1.6409   1.6409
     5.4201   5.4201   6.0577   6.0577  10.9775  10.9775  11.6235  11.6235
    12.6168  12.6168  12.9309  12.9309

          k = 0.3536 0.6141 0.0930 ( 15398 PWs)   bands (ev):

   -13.2972 -13.2972 -13.2871 -13.2871 -13.1536 -13.1536 -13.0935 -13.0935
   -13.0766 -13.0766 -13.0662 -13.0662 -13.0347 -13.0347 -13.0031 -13.0031
   -12.8705 -12.8705 -12.8607 -12.8607   0.5341   0.5341   1.7542   1.7542
     5.4138   5.4138   6.1800   6.1800  10.8184  10.8184  11.5496  11.5496
    12.8004  12.8004  13.0709  13.0709

          k = 0.3536 0.5955 0.1116 ( 15406 PWs)   bands (ev):

   -13.2967 -13.2967 -13.2853 -13.2853 -13.1591 -13.1591 -13.0977 -13.0977
   -13.0738 -13.0738 -13.0684 -13.0684 -13.0295 -13.0295 -12.9990 -12.9990
   -12.8724 -12.8724 -12.8613 -12.8613   0.4269   0.4269   1.8589   1.8589
     5.4309   5.4309   6.3054   6.3054  10.6591  10.6591  11.4800  11.4800
    12.9980  12.9980  13.1814  13.1814

          k = 0.3536 0.5769 0.1303 ( 15402 PWs)   bands (ev):

   -13.2960 -13.2960 -13.2835 -13.2835 -13.1645 -13.1645 -13.1024 -13.1024
   -13.0814 -13.0814 -13.0594 -13.0594 -13.0243 -13.0243 -12.9954 -12.9954
   -12.8745 -12.8745 -12.8624 -12.8624   0.3260   0.3260   1.9533   1.9533
     5.4730   5.4730   6.4318   6.4318  10.4986  10.4986  11.4202  11.4202
    13.2037  13.2037  13.2294  13.2294

          k = 0.3536 0.5582 0.1489 ( 15408 PWs)   bands (ev):

   -13.2948 -13.2948 -13.2816 -13.2816 -13.1697 -13.1697 -13.1070 -13.1070
   -13.0890 -13.0890 -13.0502 -13.0502 -13.0193 -13.0193 -12.9921 -12.9921
   -12.8765 -12.8765 -12.8638 -12.8638   0.2319   0.2319   2.0361   2.0361
     5.5412   5.5412   6.5573   6.5573  10.3353  10.3353  11.3731  11.3731
    13.1788  13.1788  13.4136  13.4136

          k = 0.3536 0.5396 0.1675 ( 15406 PWs)   bands (ev):

   -13.2932 -13.2932 -13.2798 -13.2798 -13.1747 -13.1747 -13.1114 -13.1114
   -13.0964 -13.0964 -13.0410 -13.0410 -13.0144 -13.0144 -12.9891 -12.9891
   -12.8786 -12.8786 -12.8657 -12.8657   0.1450   0.1450   2.1068   2.1068
     5.6358   5.6358   6.6799   6.6799  10.1672  10.1672  11.3404  11.3404
    13.0278  13.0278  13.6236  13.6236

          k = 0.3536 0.5210 0.1861 ( 15422 PWs)   bands (ev):

   -13.2912 -13.2912 -13.2780 -13.2780 -13.1798 -13.1798 -13.1156 -13.1156
   -13.1035 -13.1035 -13.0318 -13.0318 -13.0098 -13.0098 -12.9864 -12.9864
   -12.8807 -12.8807 -12.8680 -12.8680   0.0656   0.0656   2.1654   2.1654
     5.7564   5.7564   6.7974   6.7974   9.9918   9.9918  11.3232  11.3232
    12.8159  12.8159  13.8280  13.8280

          k = 0.3536 0.5024 0.2047 ( 15426 PWs)   bands (ev):

   -13.2889 -13.2889 -13.2763 -13.2763 -13.1848 -13.1848 -13.1196 -13.1196
   -13.1100 -13.1100 -13.0229 -13.0229 -13.0054 -13.0054 -12.9839 -12.9839
   -12.8827 -12.8827 -12.8707 -12.8707  -0.0060  -0.0060   2.2125   2.2125
[...]
    10.6672  10.6672  11.0445  11.0445

          k = 0.1026 0.1026 0.0000 ( 15411 PWs)   bands (ev):

   -13.2483 -13.2483 -13.2442 -13.2442 -13.2372 -13.2372 -13.1762 -13.1762
   -13.1714 -13.1714 -12.9598 -12.9598 -12.9524 -12.9524 -12.9295 -12.9295
   -12.9269 -12.9269 -12.9117 -12.9117  -1.6282  -1.6282   6.1525   6.1525
     7.9210   7.9210   8.3531   8.3531   8.9954   8.9954  10.6754  10.6754
    10.7230  10.7230  11.2425  11.2425

          k = 0.1198 0.1198 0.0000 ( 15429 PWs)   bands (ev):

   -13.2508 -13.2508 -13.2461 -13.2461 -13.2362 -13.2362 -13.1736 -13.1736
   -13.1675 -13.1675 -12.9642 -12.9642 -12.9558 -12.9558 -12.9275 -12.9275
   -12.9270 -12.9270 -12.9085 -12.9085  -1.5832  -1.5832   5.9040   5.9040
     7.7631   7.7631   8.3156   8.3156   9.0828   9.0828  10.7278  10.7278
    10.7868  10.7868  11.4533  11.4533

          k = 0.1369 0.1369 0.0000 ( 15441 PWs)   bands (ev):

   -13.2533 -13.2533 -13.2481 -13.2481 -13.2347 -13.2347 -13.1709 -13.1709
   -13.1633 -13.1633 -12.9687 -12.9687 -12.9591 -12.9591 -12.9287 -12.9287
   -12.9242 -12.9242 -12.9055 -12.9055  -1.5316  -1.5316   5.6544   5.6544
     7.5969   7.5969   8.2722   8.2722   9.1632   9.1632  10.7881  10.7881
    10.8586  10.8586  11.6662  11.6662

          k = 0.1540 0.1540 0.0000 ( 15435 PWs)   bands (ev):

   -13.2558 -13.2558 -13.2505 -13.2505 -13.2329 -13.2329 -13.1681 -13.1681
   -13.1589 -13.1589 -12.9731 -12.9731 -12.9624 -12.9624 -12.9304 -12.9304
   -12.9211 -12.9211 -12.9026 -12.9026  -1.4735  -1.4735   5.4061   5.4061
     7.4256   7.4256   8.2227   8.2227   9.2382   9.2382  10.8563  10.8563
    10.9381  10.9381  11.8703  11.8703

          k = 0.1711 0.1711-0.0000 ( 15453 PWs)   bands (ev):

   -13.2583 -13.2583 -13.2530 -13.2530 -13.2306 -13.2306 -13.1653 -13.1653
   -13.1544 -13.1544 -12.9775 -12.9775 -12.9656 -12.9656 -12.9327 -12.9327
   -12.9177 -12.9177 -12.8998 -12.8998  -1.4089  -1.4089   5.1605   5.1605
     7.2517   7.2517   8.1673   8.1673   9.3092   9.3092  10.9324  10.9324
    11.0255  11.0255  12.0545  12.0545

          k = 0.1882 0.1882 0.0000 ( 15443 PWs)   bands (ev):

   -13.2606 -13.2606 -13.2558 -13.2558 -13.2279 -13.2279 -13.1625 -13.1625
   -13.1498 -13.1498 -12.9819 -12.9819 -12.9687 -12.9687 -12.9356 -12.9356
   -12.9141 -12.9141 -12.8972 -12.8972  -1.3382  -1.3382   4.9189   4.9189
     7.0776   7.0776   8.1062   8.1062   9.3772   9.3772  11.0162  11.0162
    11.1205  11.1205  12.2092  12.2092

          k = 0.2053 0.2053 0.0000 ( 15447 PWs)   bands (ev):

   -13.2629 -13.2629 -13.2588 -13.2588 -13.2248 -13.2248 -13.1598 -13.1598
   -13.1452 -13.1452 -12.9863 -12.9863 -12.9717 -12.9717 -12.9392 -12.9392
   -12.9102 -12.9102 -12.8948 -12.8948  -1.2614  -1.2614   4.6821   4.6821
     6.9049   6.9049   8.0396   8.0396   9.4425   9.4425  11.1078  11.1078
    11.2232  11.2232  12.3282  12.3282

          k = 0.2224 0.2224 0.0000 ( 15465 PWs)   bands (ev):

   -13.2650 -13.2650 -13.2619 -13.2619 -13.2212 -13.2212 -13.1571 -13.1571
   -13.1405 -13.1405 -12.9906 -12.9906 -12.9744 -12.9744 -12.9433 -12.9433
   -12.9062 -12.9062 -12.8925 -12.8925  -1.1788  -1.1788   4.4508   4.4508
     6.7352   6.7352   7.9679   7.9679   9.5051   9.5051  11.2071  11.2071
    11.3335  11.3335  12.4103  12.4103

          k = 0.2395 0.2395 0.0000 ( 15455 PWs)   bands (ev):

   -13.2670 -13.2670 -13.2651 -13.2651 -13.2172 -13.2172 -13.1544 -13.1544
   -13.1358 -13.1358 -12.9948 -12.9948 -12.9770 -12.9770 -12.9481 -12.9481
   -12.9020 -12.9020 -12.8905 -12.8905  -1.0906  -1.0906   4.2255   4.2255
     6.5699   6.5699   7.8915   7.8915   9.5646   9.5646  11.3139  11.3139
    11.4513  11.4513  12.4598  12.4598

          k = 0.2566 0.2566 0.0000 ( 15453 PWs)   bands (ev):

   -13.2688 -13.2688 -13.2685 -13.2685 -13.2128 -13.2128 -13.1517 -13.1517
   -13.1311 -13.1311 -12.9990 -12.9990 -12.9794 -12.9794 -12.9534 -12.9534
   -12.8977 -12.8977 -12.8885 -12.8885  -0.9973  -0.9973   4.0066   4.0066
     6.4101   6.4101   7.8110   7.8110   9.6202   9.6202  11.4281  11.4281
    11.5764  11.5764  12.4848  12.4848

          k = 0.2737 0.2737-0.0000 ( 15441 PWs)   bands (ev):

   -13.2718 -13.2718 -13.2706 -13.2706 -13.2081 -13.2081 -13.1491 -13.1491
   -13.1265 -13.1265 -13.0030 -13.0030 -12.9816 -12.9816 -12.9593 -12.9593
   -12.8934 -12.8934 -12.8868 -12.8868  -0.8991  -0.8991   3.7946   3.7946
     6.2569   6.2569   7.7269   7.7269   9.6708   9.6708  11.5498  11.5498
    11.7086  11.7086  12.4944  12.4944

          k = 0.2908 0.2908-0.0000 ( 15447 PWs)   bands (ev):

   -13.2752 -13.2752 -13.2721 -13.2721 -13.2031 -13.2031 -13.1463 -13.1463
   -13.1219 -13.1219 -13.0070 -13.0070 -12.9837 -12.9837 -12.9657 -12.9657
   -12.8892 -12.8892 -12.8852 -12.8852  -0.7964  -0.7964   3.5897   3.5897
     6.1111   6.1111   7.6399   7.6399   9.7152   9.7152  11.6787  11.6787
    11.8477  11.8477  12.4975  12.4975

          k = 0.3079 0.3079 0.0000 ( 15427 PWs)   bands (ev):

   -13.2785 -13.2785 -13.2735 -13.2735 -13.1980 -13.1980 -13.1434 -13.1434
   -13.1173 -13.1173 -13.0109 -13.0109 -12.9857 -12.9857 -12.9724 -12.9724
   -12.8850 -12.8850 -12.8837 -12.8837  -0.6898  -0.6898   3.3921   3.3921
     5.9738   5.9738   7.5507   7.5507   9.7521   9.7521  11.8147  11.8147
    11.9930  11.9930  12.5016  12.5016

          k = 0.3250 0.3250 0.0000 ( 15423 PWs)   bands (ev):

   -13.2818 -13.2818 -13.2748 -13.2748 -13.1929 -13.1929 -13.1402 -13.1402
   -13.1129 -13.1129 -13.0146 -13.0146 -12.9882 -12.9882 -12.9791 -12.9791
   -12.8824 -12.8824 -12.8809 -12.8809  -0.5797  -0.5797   3.2021   3.2021
     5.8457   5.8457   7.4599   7.4599   9.7803   9.7803  11.9577  11.9577
    12.1439  12.1439  12.5127  12.5127

          k = 0.3421 0.3421 0.0000 ( 15427 PWs)   bands (ev):

   -13.2849 -13.2849 -13.2759 -13.2759 -13.1880 -13.1880 -13.1366 -13.1366
   -13.1085 -13.1085 -13.0182 -13.0182 -12.9924 -12.9924 -12.9842 -12.9842
   -12.8813 -12.8813 -12.8771 -12.8771  -0.4669  -0.4669   3.0197   3.0197
     5.7277   5.7277   7.3682   7.3682   9.7989   9.7989  12.1075  12.1075
    12.2995  12.2995  12.5355  12.5355

          k = 0.3593 0.3593 0.0000 ( 15421 PWs)   bands (ev):

   -13.2878 -13.2878 -13.2769 -13.2769 -13.1834 -13.1834 -13.1324 -13.1324
   -13.1043 -13.1043 -13.0217 -13.0217 -12.9995 -12.9995 -12.9869 -12.9869
   -12.8803 -12.8803 -12.8735 -12.8735  -0.3519  -0.3519   2.8452   2.8452
     5.6207   5.6207   7.2764   7.2764   9.8073   9.8073  12.2639  12.2639
    12.4578  12.4578  12.5732  12.5732

          k = 0.3764 0.3764-0.0000 ( 15429 PWs)   bands (ev):

   -13.2904 -13.2904 -13.2778 -13.2778 -13.1793 -13.1793 -13.1274 -13.1274
   -13.1001 -13.1001 -13.0250 -13.0250 -13.0080 -13.0080 -12.9883 -12.9883
   -12.8794 -12.8794 -12.8702 -12.8702  -0.2356  -0.2356   2.6786   2.6786
     5.5255   5.5255   7.1850   7.1850   9.8056   9.8056  12.4268  12.4268
    12.6159  12.6159  12.6276  12.6276

          k = 0.3935 0.3935-0.0000 ( 15433 PWs)   bands (ev):

   -13.2928 -13.2928 -13.2786 -13.2786 -13.1757 -13.1757 -13.1216 -13.1216
   -13.0961 -13.0961 -13.0282 -13.0282 -13.0171 -13.0171 -12.9893 -12.9893
   -12.8786 -12.8786 -12.8672 -12.8672  -0.1189  -0.1189   2.5201   2.5201
     5.4430   5.4430   7.0948   7.0948   9.7943   9.7943  12.5959  12.5959
    12.6999  12.6999  12.7681  12.7681

          k = 0.4106 0.4106 0.0000 ( 15405 PWs)   bands (ev):

   -13.2949 -13.2949 -13.2792 -13.2792 -13.1729 -13.1729 -13.1151 -13.1151
   -13.0923 -13.0923 -13.0312 -13.0312 -13.0267 -13.0267 -12.9900 -12.9900
   -12.8780 -12.8780 -12.8646 -12.8646  -0.0027  -0.0027   2.3697   2.3697
     5.3740   5.3740   7.0062   7.0062   9.7744   9.7744  12.7709  12.7709
    12.7900  12.7900  12.9025  12.9025

          k = 0.4277 0.4277 0.0000 ( 15389 PWs)   bands (ev):

   -13.2966 -13.2966 -13.2797 -13.2797 -13.1706 -13.1706 -13.1077 -13.1077
   -13.0885 -13.0885 -13.0366 -13.0366 -13.0341 -13.0341 -12.9906 -12.9906
   -12.8775 -12.8775 -12.8624 -12.8624   0.1120   0.1120   2.2275   2.2275
     5.3195   5.3195   6.9199   6.9199   9.7472   9.7472  12.8974  12.8974
    12.9514  12.9514  12.9940  12.9940

          k = 0.4448 0.4448 0.0000 ( 15403 PWs)   bands (ev):

   -13.2980 -13.2980 -13.2802 -13.2802 -13.1689 -13.1689 -13.0997 -13.0997
   -13.0850 -13.0850 -13.0467 -13.0467 -13.0368 -13.0368 -12.9910 -12.9910
   -12.8770 -12.8770 -12.8607 -12.8607   0.2241   0.2241   2.0936   2.0936
     5.2802   5.2802   6.8364   6.8364   9.7141   9.7141  12.9954  12.9954
    13.0211  13.0211  13.1372  13.1372

          k = 0.4619 0.4619 0.0000 ( 15403 PWs)   bands (ev):

   -13.2989 -13.2989 -13.2805 -13.2805 -13.1676 -13.1676 -13.0912 -13.0912
   -13.0816 -13.0816 -13.0570 -13.0570 -13.0393 -13.0393 -12.9913 -12.9913
   -12.8767 -12.8767 -12.8595 -12.8595   0.3324   0.3324   1.9679   1.9679
     5.2571   5.2571   6.7561   6.7561   9.6768   9.6768  12.8624  12.8624
    13.1600  13.1600  13.3277  13.3277

          k = 0.4790 0.4790-0.0000 ( 15402 PWs)   bands (ev):

   -13.2994 -13.2994 -13.2808 -13.2808 -13.1667 -13.1667 -13.0824 -13.0824
   -13.0784 -13.0784 -13.0674 -13.0674 -13.0417 -13.0417 -12.9915 -12.9915
   -12.8764 -12.8764 -12.8587 -12.8587   0.4359   0.4359   1.8507   1.8507
     5.2506   5.2506   6.6794   6.6794   9.6367   9.6367  12.6142  12.6142
    13.3127  13.3127  13.5224  13.5224

          k = 0.4961 0.4961-0.0000 ( 15414 PWs)   bands (ev):

   -13.2995 -13.2995 -13.2810 -13.2810 -13.1660 -13.1660 -13.0779 -13.0779
   -13.0754 -13.0754 -13.0732 -13.0732 -13.0438 -13.0438 -12.9916 -12.9916
   -12.8762 -12.8762 -12.8584 -12.8584   0.5336   0.5336   1.7418   1.7418
     5.2612   5.2612   6.6068   6.6068   9.5951   9.5951  12.3046  12.3046
    13.4780  13.4780  13.7206  13.7206

          k = 0.5132 0.5132 0.0000 ( 15406 PWs)   bands (ev):

   -13.2991 -13.2991 -13.2812 -13.2812 -13.1656 -13.1656 -13.0882 -13.0882
   -13.0726 -13.0726 -13.0639 -13.0639 -13.0459 -13.0459 -12.9917 -12.9917
   -12.8761 -12.8761 -12.8586 -12.8586   0.6245   0.6245   1.6414   1.6414
     5.2892   5.2892   6.5387   6.5387   9.5533   9.5533  11.9698  11.9698
    13.6545  13.6545  13.9215  13.9215

          k = 0.5303 0.5303 0.0000 ( 15410 PWs)   bands (ev):

   -13.2983 -13.2983 -13.2813 -13.2813 -13.1654 -13.1654 -13.0984 -13.0984
   -13.0700 -13.0700 -13.0546 -13.0546 -13.0477 -13.0477 -12.9917 -12.9917
   -12.8760 -12.8760 -12.8593 -12.8593   0.7078   0.7078   1.5493   1.5493
     5.3343   5.3343   6.4752   6.4752   9.5121   9.5121  11.6282  11.6282
    13.8408  13.8408  14.1241  14.1241

          k = 0.5205 0.5205 0.0196 ( 15410 PWs)   bands (ev):

   -13.2987 -13.2987 -13.2812 -13.2812 -13.1659 -13.1659 -13.0922 -13.0922
   -13.0726 -13.0726 -13.0603 -13.0603 -13.0455 -13.0455 -12.9914 -12.9914
   -12.8761 -12.8761 -12.8590 -12.8590   0.6480   0.6480   1.6145   1.6145
     5.3116   5.3116   6.5132   6.5132   9.5374   9.5374  11.8245  11.8245
    13.6977  13.6977  13.9934  13.9934

          k = 0.5107 0.5107 0.0393 ( 15402 PWs)   bands (ev):

   -13.2988 -13.2988 -13.2809 -13.2809 -13.1670 -13.1670 -13.0854 -13.0854
   -13.0768 -13.0768 -13.0663 -13.0663 -13.0418 -13.0418 -12.9906 -12.9906
   -12.8765 -12.8765 -12.8590 -12.8590   0.5696   0.5696   1.6983   1.6983
     5.3058   5.3058   6.5568   6.5568   9.5662   9.5662  12.0159  12.0159
    13.5065  13.5065  13.8372  13.8372

          k = 0.5009 0.5009 0.0589 ( 15398 PWs)   bands (ev):

   -13.2986 -13.2986 -13.2805 -13.2805 -13.1687 -13.1687 -13.0816 -13.0816
   -13.0804 -13.0804 -13.0702 -13.0702 -13.0374 -13.0374 -12.9895 -12.9895
   -12.8770 -12.8770 -12.8594 -12.8594   0.4833   0.4833   1.7884   1.7884
     5.3188   5.3188   6.6057   6.6057   9.5970   9.5970  12.1866  12.1866
    13.3092  13.3092  13.6612  13.6612

          k = 0.4910 0.4910 0.0786 ( 15402 PWs)   bands (ev):

   -13.2980 -13.2980 -13.2799 -13.2799 -13.1707 -13.1707 -13.0868 -13.0868
   -13.0833 -13.0833 -13.0660 -13.0660 -13.0326 -13.0326 -12.9883 -12.9883
   -12.8777 -12.8777 -12.8601 -12.8601   0.3952   0.3952   1.8774   1.8774
     5.3517   5.3517   6.6593   6.6593   9.6277   9.6277  12.2966  12.2966
    13.1658  13.1658  13.4717  13.4717

          k = 0.4812 0.4812 0.0982 ( 15412 PWs)   bands (ev):

   -13.2971 -13.2971 -13.2792 -13.2792 -13.1730 -13.1730 -13.0921 -13.0921
   -13.0896 -13.0896 -13.0582 -13.0582 -13.0278 -13.0278 -12.9869 -12.9869
   -12.8786 -12.8786 -12.8613 -12.8613   0.3087   0.3087   1.9608   1.9608
     5.4058   5.4058   6.7172   6.7172   9.6551   9.6551  12.2827  12.2827
    13.1520  13.1520  13.2745  13.2745

          k = 0.4714 0.4714 0.1179 ( 15430 PWs)   bands (ev):

   -13.2958 -13.2958 -13.2784 -13.2784 -13.1756 -13.1756 -13.0973 -13.0973
   -13.0962 -13.0962 -13.0497 -13.0497 -13.0230 -13.0230 -12.9856 -12.9856
   -12.8796 -12.8796 -12.8628 -12.8628   0.2259   0.2259   2.0359   2.0359
     5.4816   5.4816   6.7785   6.7785   9.6749   9.6749  12.1506  12.1506
    13.0747  13.0747  13.2698  13.2698

          k = 0.4616 0.4616 0.1375 ( 15417 PWs)   bands (ev):

   -13.2942 -13.2942 -13.2775 -13.2775 -13.1785 -13.1785 -13.1026 -13.1026
   -13.1025 -13.1025 -13.0410 -13.0410 -13.0182 -13.0182 -12.9843 -12.9843
   -12.8808 -12.8808 -12.8647 -12.8647   0.1479   0.1479   2.1013   2.1013
     5.5790   5.5790   6.8426   6.8426   9.6808   9.6808  11.9731  11.9731
    12.8765  12.8765  13.4530  13.4530

          k = 0.4518 0.4518 0.1571 ( 15425 PWs)   bands (ev):

   -13.2923 -13.2923 -13.2765 -13.2765 -13.1818 -13.1818 -13.1086 -13.1086
   -13.1075 -13.1075 -13.0325 -13.0325 -13.0136 -13.0136 -12.9830 -12.9830
   -12.8821 -12.8821 -12.8669 -12.8669   0.0754   0.0754   2.1566   2.1566
     5.6975   5.6975   6.9085   6.9085   9.6652   9.6652  11.7977  11.7977
    12.6833  12.6833  13.6590  13.6590

          k = 0.4419 0.4419 0.1768 ( 15424 PWs)   bands (ev):

   -13.2900 -13.2900 -13.2755 -13.2755 -13.1853 -13.1853 -13.1141 -13.1141
   -13.1122 -13.1122 -13.0241 -13.0241 -13.0091 -13.0091 -12.9817 -12.9817
   -12.8835 -12.8835 -12.8695 -12.8695   0.0091   0.0091   2.2020   2.2020
     5.8358   5.8358   6.9751   6.9751   9.6192   9.6192  11.6484  11.6484
    12.4981  12.4981  13.8661  13.8661

          k = 0.4321 0.4321 0.1964 ( 15408 PWs)   bands (ev):

   -13.2875 -13.2875 -13.2744 -13.2744 -13.1892 -13.1892 -13.1190 -13.1190
   -13.1167 -13.1167 -13.0161 -13.0161 -13.0049 -13.0049 -12.9803 -12.9803
   -12.8849 -12.8849 -12.8723 -12.8723  -0.0508  -0.0508   2.2384   2.2384
     5.9922   5.9922   7.0412   7.0412   9.5358   9.5358  11.5383  11.5383
    12.3234  12.3234  14.0571  14.0571

          k = 0.4223 0.4223 0.2161 ( 15407 PWs)   bands (ev):

   -13.2847 -13.2847 -13.2732 -13.2732 -13.1933 -13.1933 -13.1233 -13.1233
   -13.1209 -13.1209 -13.0087 -13.0087 -13.0010 -13.0010 -12.9789 -12.9789
   -12.8863 -12.8863 -12.8754 -12.8754  -0.1041  -0.1041   2.2669   2.2669
     6.1646   6.1646   7.1055   7.1055   9.4128   9.4128  11.4717  11.4717
    12.1617  12.1617  14.2118  14.2118

          k = 0.4125 0.4125 0.2357 ( 15411 PWs)   bands (ev):

   -13.2817 -13.2817 -13.2722 -13.2722 -13.1976 -13.1976 -13.1268 -13.1268
   -13.1246 -13.1246 -13.0020 -13.0020 -12.9974 -12.9974 -12.9771 -12.9771
   -12.8877 -12.8877 -12.8787 -12.8787  -0.1505  -0.1505   2.2885   2.2885
     6.3506   6.3506   7.1662   7.1662   9.2540   9.2540  11.4452  11.4452
    12.0153  12.0153  14.3072  14.3072

          k = 0.4027 0.4027 0.2553 ( 15408 PWs)   bands (ev):

   -13.2787 -13.2787 -13.2712 -13.2712 -13.2019 -13.2019 -13.1297 -13.1297
   -13.1279 -13.1279 -12.9965 -12.9965 -12.9943 -12.9943 -12.9750 -12.9750
   -12.8890 -12.8890 -12.8820 -12.8820  -0.1899  -0.1899   2.3046   2.3046
     6.5470   6.5470   7.2219   7.2219   9.0676   9.0676  11.4499  11.4499
    11.8864  11.8864  14.3312  14.3312

          k = 0.3928 0.3928 0.2750 ( 15408 PWs)   bands (ev):

   -13.2757 -13.2757 -13.2703 -13.2703 -13.2061 -13.2061 -13.1320 -13.1320
   -13.1307 -13.1307 -12.9923 -12.9923 -12.9916 -12.9916 -12.9724 -12.9724
   -12.8902 -12.8902 -12.8852 -12.8852  -0.2223  -0.2223   2.3162   2.3162
     6.7499   6.7499   7.2707   7.2707   8.8643   8.8643  11.4748  11.4748
    11.7772  11.7772  14.2967  14.2967

          k = 0.3830 0.3830 0.2946 ( 15408 PWs)   bands (ev):

   -13.2729 -13.2729 -13.2695 -13.2695 -13.2098 -13.2098 -13.1338 -13.1338
   -13.1330 -13.1330 -12.9894 -12.9894 -12.9894 -12.9894 -12.9695 -12.9695
   -12.8912 -12.8912 -12.8881 -12.8881  -0.2475  -0.2475   2.3242   2.3242
     6.9532   6.9532   7.3109   7.3109   8.6555   8.6555  11.5087  11.5087
    11.6898  11.6898  14.2331  14.2331

          k = 0.3732 0.3732 0.3143 ( 15403 PWs)   bands (ev):

   -13.2706 -13.2706 -13.2690 -13.2690 -13.2129 -13.2129 -13.1350 -13.1350
   -13.1346 -13.1346 -12.9878 -12.9878 -12.9877 -12.9877 -12.9668 -12.9668
   -12.8919 -12.8919 -12.8904 -12.8904  -0.2656  -0.2656   2.3294   2.3294
     7.1454   7.1454   7.3409   7.3409   8.4569   8.4569  11.5417  11.5417
    11.6259  11.6259  14.1685  14.1685

          k = 0.3634 0.3634 0.3339 ( 15384 PWs)   bands (ev):

   -13.2691 -13.2691 -13.2686 -13.2686 -13.2149 -13.2149 -13.1357 -13.1357
   -13.1356 -13.1356 -12.9868 -12.9868 -12.9868 -12.9868 -12.9649 -12.9649
   -12.8924 -12.8924 -12.8920 -12.8920  -0.2765  -0.2765   2.3323   2.3323
     7.3006   7.3006   7.3595   7.3595   8.2970   8.2970  11.5653  11.5653
    11.5869  11.5869  14.1222  14.1222

          k = 0.3536 0.3536 0.3536 ( 15406 PWs)   bands (ev):

   -13.2685 -13.2685 -13.2685 -13.2685 -13.2156 -13.2156 -13.1359 -13.1359
   -13.1359 -13.1359 -12.9865 -12.9865 -12.9865 -12.9865 -12.9643 -12.9643
   -12.8925 -12.8925 -12.8925 -12.8925  -0.2801  -0.2801   2.3333   2.3333
     7.3657   7.3657   7.3657   7.3657   8.2301   8.2301  11.5738  11.5738
    11.5738  11.5738  14.1056  14.1056

     Writing output data file Sn.save
 
     init_run     :      0.97s CPU      1.74s WALL (       1 calls)
     electrons    :    115.62s CPU    128.15s WALL (       1 calls)

     Called by init_run:
     wfcinit      :      0.00s CPU      0.01s WALL (       1 calls)
     potinit      :      0.07s CPU      0.11s WALL (       1 calls)

     Called by electrons:
     c_bands      :    115.62s CPU    128.12s WALL (       1 calls)
     v_of_rho     :      0.01s CPU      0.01s WALL (       1 calls)
     v_h          :      0.00s CPU      0.00s WALL (       1 calls)
     v_xc         :      0.01s CPU      0.01s WALL (       1 calls)

     Called by c_bands:
     init_us_2    :      0.01s CPU      0.02s WALL (     134 calls)
     cegterg      :    107.66s CPU    118.69s WALL (     139 calls)

     Called by sum_band:

     Called by *egterg:
     h_psi        :     98.37s CPU    110.04s WALL (    2542 calls)
     g_psi        :      0.19s CPU      0.19s WALL (    2269 calls)
     cdiaghg      :      9.42s CPU      9.45s WALL (    2403 calls)
     cegterg:over :      3.70s CPU      3.75s WALL (    2269 calls)
     cegterg:upda :      1.38s CPU      1.38s WALL (    2269 calls)
     cegterg:last :      0.83s CPU      0.83s WALL (     629 calls)

     Called by h_psi:
     h_psi:vloc   :     96.22s CPU    107.79s WALL (    2542 calls)
     h_psi:vnl    :      2.03s CPU      2.12s WALL (    2542 calls)
     add_vuspsi   :      0.64s CPU      0.66s WALL (    2542 calls)

     General routines
     calbec       :      1.37s CPU      1.45s WALL (    2542 calls)
     fft          :      0.08s CPU      0.09s WALL (      13 calls)
     fftw         :     92.52s CPU    103.81s WALL (  272680 calls)
     davcio       :      0.04s CPU      0.31s WALL (     134 calls)
 
     Parallel routines
     fft_scatter  :     69.28s CPU     78.14s WALL (  272693 calls)
 
     PWSCF        :  2m 0.53s CPU     2m13.98s WALL

 
   This run was terminated on:  18:59:27  19Mar2020            

=------------------------------------------------------------------------------=
   JOB DONE.
=------------------------------------------------------------------------------=
