
     Program PWSCF v.5.4.0 starts on 27Feb2020 at 23:58:56 

     This program is part of the open-source Quantum ESPRESSO suite
     for quantum simulation of materials; please cite
         "P. Giannozzi et al., J. Phys.:Condens. Matter 21 395502 (2009);
          URL http://www.quantum-espresso.org", 
     in publications or presentations arising from this work. More details at
     http://www.quantum-espresso.org/quote

     Parallel version (MPI & OpenMP), running on      16 processor cores
     Number of MPI processes:                16
     Threads/MPI process:                     1
     R & G space division:  proc/nbgrp/npool/nimage =      16
     Waiting for input...
     Reading input from standard input
Warning: card &IONS ignored
Warning: card / ignored
Warning: card &CELL ignored
Warning: card / ignored

     Current dimensions of program PWSCF are:
     Max number of different atomic species (ntypx) = 10
     Max number of k-points (npk) =  40000
     Max angular momentum in pseudopotentials (lmaxx) =  3

     Subspace diagonalization in iterative solution of the eigenvalue problem:
     a serial algorithm will be used

 
     Parallelization info
     --------------------
     sticks:   dense  smooth     PW     G-vecs:    dense   smooth      PW
     Min          67      67     19                 1472     1472     237
     Max          68      68     20                 1475     1475     242
     Sum        1075    1075    313                23589    23589    3839
 

     Title: 
     Sn                                                                         


     bravais-lattice index     =            0
     lattice parameter (alat)  =       8.8993  a.u.
     unit-cell volume          =     498.3785 (a.u.)^3
     number of atoms/cell      =            2
     number of atomic types    =            1
     number of electrons       =        28.00
     number of Kohn-Sham states=           18
     kinetic-energy cutoff     =      50.0000  Ry
     charge density cutoff     =     200.0000  Ry
     convergence threshold     =      1.0E-06
     mixing beta               =       0.7000
     number of iterations used =            8  plain     mixing
     Exchange-correlation      = PBE ( 1  4  3  4 0 0)

     celldm(1)=   8.899346  celldm(2)=   0.000000  celldm(3)=   0.000000
     celldm(4)=   0.000000  celldm(5)=   0.000000  celldm(6)=   0.000000

     crystal axes: (cart. coord. in units of alat)
               a(1) = (   0.000000   0.707107   0.707107 )  
               a(2) = (   0.707107   0.000000   0.707107 )  
               a(3) = (   0.707107   0.707107   0.000000 )  

     reciprocal axes: (cart. coord. in units 2 pi/alat)
               b(1) = ( -0.707107  0.707107  0.707107 )  
               b(2) = (  0.707107 -0.707107  0.707107 )  
               b(3) = (  0.707107  0.707107 -0.707107 )  


     PseudoPot. # 1 for Sn read from file:
     ../PseudopotentialDatabase/Sn_ONCV_PBE-1.1.upf
     MD5 check sum: 7fc728ef37b8342e916bba54f6049344
     Pseudo is Norm-conserving, Zval = 14.0
     Generated using ONCVPSP code by D. R. Hamann
     Using radial grid of  602 points,  6 beta functions with: 
                l(1) =   0
                l(2) =   0
                l(3) =   1
                l(4) =   1
                l(5) =   2
                l(6) =   2

     atomic species   valence    mass     pseudopotential
        Sn            14.00   118.71000     Sn( 1.00)

     24 Sym. Ops. (no inversion) found
          (note: 24 additional sym.ops. were found but ignored
           their fractional translations are incommensurate with FFT grid)

                                    s                        frac. trans.

      isym =  1     identity                                     

 cryst.   s( 1) = (     1          0          0      )
                  (     0          1          0      )
                  (     0          0          1      )

 cart.    s( 1) = (  1.0000000  0.0000000  0.0000000 )
                  (  0.0000000  1.0000000  0.0000000 )
                  (  0.0000000  0.0000000  1.0000000 )


      isym =  2     180 deg rotation - cart. axis [0,0,1]        

 cryst.   s( 2) = (     0          1         -1      )
                  (     1          0         -1      )
                  (     0          0         -1      )

 cart.    s( 2) = ( -1.0000000  0.0000000  0.0000000 )
                  (  0.0000000 -1.0000000  0.0000000 )
                  (  0.0000000  0.0000000  1.0000000 )


      isym =  3     180 deg rotation - cart. axis [0,1,0]        

 cryst.   s( 3) = (     0         -1          1      )
                  (     0         -1          0      )
                  (     1         -1          0      )

 cart.    s( 3) = ( -1.0000000  0.0000000  0.0000000 )
                  (  0.0000000  1.0000000  0.0000000 )
                  (  0.0000000  0.0000000 -1.0000000 )


      isym =  4     180 deg rotation - cart. axis [1,0,0]        

 cryst.   s( 4) = (    -1          0          0      )
                  (    -1          0          1      )
                  (    -1          1          0      )

 cart.    s( 4) = (  1.0000000  0.0000000  0.0000000 )
                  (  0.0000000 -1.0000000  0.0000000 )
                  (  0.0000000  0.0000000 -1.0000000 )


      isym =  5     120 deg rotation - cart. axis [-1,-1,-1]     

 cryst.   s( 5) = (     0          0          1      )
                  (     1          0          0      )
                  (     0          1          0      )

 cart.    s( 5) = (  0.0000000  1.0000000  0.0000000 )
                  (  0.0000000  0.0000000  1.0000000 )
                  (  1.0000000  0.0000000  0.0000000 )


      isym =  6     120 deg rotation - cart. axis [-1,1,1]       

 cryst.   s( 6) = (     1         -1          0      )
                  (     0         -1          1      )
                  (     0         -1          0      )

 cart.    s( 6) = (  0.0000000 -1.0000000  0.0000000 )
                  (  0.0000000  0.0000000  1.0000000 )
                  ( -1.0000000  0.0000000  0.0000000 )


      isym =  7     120 deg rotation - cart. axis [1,1,-1]       

 cryst.   s( 7) = (    -1          1          0      )
                  (    -1          0          0      )
                  (    -1          0          1      )

 cart.    s( 7) = (  0.0000000  1.0000000  0.0000000 )
                  (  0.0000000  0.0000000 -1.0000000 )
                  ( -1.0000000  0.0000000  0.0000000 )


      isym =  8     120 deg rotation - cart. axis [1,-1,1]       

 cryst.   s( 8) = (     0          0         -1      )
                  (     0          1         -1      )
                  (     1          0         -1      )

 cart.    s( 8) = (  0.0000000 -1.0000000  0.0000000 )
                  (  0.0000000  0.0000000 -1.0000000 )
                  (  1.0000000  0.0000000  0.0000000 )


      isym =  9     120 deg rotation - cart. axis [1,1,1]        

 cryst.   s( 9) = (     0          1          0      )
                  (     0          0          1      )
                  (     1          0          0      )

 cart.    s( 9) = (  0.0000000  0.0000000  1.0000000 )
                  (  1.0000000  0.0000000  0.0000000 )
                  (  0.0000000  1.0000000  0.0000000 )


      isym = 10     120 deg rotation - cart. axis [-1,1,-1]      

 cryst.   s(10) = (    -1          0          1      )
                  (    -1          1          0      )
                  (    -1          0          0      )

 cart.    s(10) = (  0.0000000  0.0000000  1.0000000 )
                  ( -1.0000000  0.0000000  0.0000000 )
                  (  0.0000000 -1.0000000  0.0000000 )


      isym = 11     120 deg rotation - cart. axis [1,-1,-1]      

 cryst.   s(11) = (     1          0         -1      )
                  (     0          0         -1      )
                  (     0          1         -1      )

 cart.    s(11) = (  0.0000000  0.0000000 -1.0000000 )
                  ( -1.0000000  0.0000000  0.0000000 )
                  (  0.0000000  1.0000000  0.0000000 )


      isym = 12     120 deg rotation - cart. axis [-1,-1,1]      

 cryst.   s(12) = (     0         -1          0      )
                  (     1         -1          0      )
                  (     0         -1          1      )

 cart.    s(12) = (  0.0000000  0.0000000 -1.0000000 )
                  (  1.0000000  0.0000000  0.0000000 )
                  (  0.0000000 -1.0000000  0.0000000 )


      isym = 13     inv. 180 deg rotation - cart. axis [1,1,0]   

 cryst.   s(13) = (     1          0         -1      )
                  (     0          1         -1      )
                  (     0          0         -1      )

 cart.    s(13) = (  0.0000000 -1.0000000  0.0000000 )
                  ( -1.0000000  0.0000000  0.0000000 )
                  (  0.0000000  0.0000000  1.0000000 )


      isym = 14     inv. 180 deg rotation - cart. axis [1,-1,0]  

 cryst.   s(14) = (     0          1          0      )
                  (     1          0          0      )
                  (     0          0          1      )

 cart.    s(14) = (  0.0000000  1.0000000  0.0000000 )
                  (  1.0000000  0.0000000  0.0000000 )
                  (  0.0000000  0.0000000  1.0000000 )


      isym = 15     inv.  90 deg rotation - cart. axis [0,0,-1]  

 cryst.   s(15) = (     0         -1          0      )
                  (     0         -1          1      )
                  (     1         -1          0      )

 cart.    s(15) = (  0.0000000 -1.0000000  0.0000000 )
                  (  1.0000000  0.0000000  0.0000000 )
                  (  0.0000000  0.0000000 -1.0000000 )


      isym = 16     inv.  90 deg rotation - cart. axis [0,0,1]   

 cryst.   s(16) = (    -1          0          1      )
                  (    -1          0          0      )
                  (    -1          1          0      )

 cart.    s(16) = (  0.0000000  1.0000000  0.0000000 )
                  ( -1.0000000  0.0000000  0.0000000 )
                  (  0.0000000  0.0000000 -1.0000000 )


      isym = 17     inv. 180 deg rotation - cart. axis [1,0,1]   

 cryst.   s(17) = (     1         -1          0      )
                  (     0         -1          0      )
                  (     0         -1          1      )

 cart.    s(17) = (  0.0000000  0.0000000 -1.0000000 )
                  (  0.0000000  1.0000000  0.0000000 )
                  ( -1.0000000  0.0000000  0.0000000 )


      isym = 18     inv. 180 deg rotation - cart. axis [-1,0,1]  

 cryst.   s(18) = (     0          0          1      )
                  (     0          1          0      )
                  (     1          0          0      )

 cart.    s(18) = (  0.0000000  0.0000000  1.0000000 )
                  (  0.0000000  1.0000000  0.0000000 )
                  (  1.0000000  0.0000000  0.0000000 )


      isym = 19     inv.  90 deg rotation - cart. axis [0,1,0]   

 cryst.   s(19) = (     0          0         -1      )
                  (     1          0         -1      )
                  (     0          1         -1      )

 cart.    s(19) = (  0.0000000  0.0000000 -1.0000000 )
                  (  0.0000000 -1.0000000  0.0000000 )
                  (  1.0000000  0.0000000  0.0000000 )


      isym = 20     inv.  90 deg rotation - cart. axis [0,-1,0]  

 cryst.   s(20) = (    -1          1          0      )
                  (    -1          0          1      )
                  (    -1          0          0      )

 cart.    s(20) = (  0.0000000  0.0000000  1.0000000 )
                  (  0.0000000 -1.0000000  0.0000000 )
                  ( -1.0000000  0.0000000  0.0000000 )


      isym = 21     inv. 180 deg rotation - cart. axis [0,1,1]   

 cryst.   s(21) = (    -1          0          0      )
                  (    -1          1          0      )
                  (    -1          0          1      )

 cart.    s(21) = (  1.0000000  0.0000000  0.0000000 )
                  (  0.0000000  0.0000000 -1.0000000 )
                  (  0.0000000 -1.0000000  0.0000000 )


      isym = 22     inv. 180 deg rotation - cart. axis [0,1,-1]  

 cryst.   s(22) = (     1          0          0      )
                  (     0          0          1      )
                  (     0          1          0      )

 cart.    s(22) = (  1.0000000  0.0000000  0.0000000 )
                  (  0.0000000  0.0000000  1.0000000 )
                  (  0.0000000  1.0000000  0.0000000 )


      isym = 23     inv.  90 deg rotation - cart. axis [-1,0,0]  

 cryst.   s(23) = (     0          1         -1      )
                  (     0          0         -1      )
                  (     1          0         -1      )

 cart.    s(23) = ( -1.0000000  0.0000000  0.0000000 )
                  (  0.0000000  0.0000000 -1.0000000 )
                  (  0.0000000  1.0000000  0.0000000 )


      isym = 24     inv.  90 deg rotation - cart. axis [1,0,0]   

 cryst.   s(24) = (     0         -1          1      )
                  (     1         -1          0      )
                  (     0         -1          0      )

 cart.    s(24) = ( -1.0000000  0.0000000  0.0000000 )
                  (  0.0000000  0.0000000  1.0000000 )
                  (  0.0000000 -1.0000000  0.0000000 )


   Cartesian axes

     site n.     atom                  positions (alat units)
         1           Sn  tau(   1) = (   0.0000000   0.0000000   0.0000000  )
         2           Sn  tau(   2) = (   0.3535534   0.3535534   0.3535534  )

   Crystallographic axes

     site n.     atom                  positions (cryst. coord.)
         1           Sn  tau(   1) = (  0.0000000  0.0000000  0.0000000  )
         2           Sn  tau(   2) = (  0.2500000  0.2500000  0.2500000  )

     number of k points=    47  gaussian smearing, width (Ry)=  0.0001
                       cart. coord. in units 2pi/alat
        k(    1) = (   0.0000000   0.0000000   0.0000000), wk =   0.0020000
        k(    2) = (   0.0707107   0.0707107  -0.0707107), wk =   0.0160000
        k(    3) = (   0.1414214   0.1414214  -0.1414214), wk =   0.0160000
        k(    4) = (   0.2121320   0.2121320  -0.2121320), wk =   0.0160000
        k(    5) = (   0.2828427   0.2828427  -0.2828427), wk =   0.0160000
        k(    6) = (  -0.3535534  -0.3535534   0.3535534), wk =   0.0080000
        k(    7) = (   0.1414214   0.0000000   0.0000000), wk =   0.0120000
        k(    8) = (   0.2121320   0.0707107  -0.0707107), wk =   0.0480000
        k(    9) = (   0.2828427   0.1414214  -0.1414214), wk =   0.0480000
        k(   10) = (   0.3535534   0.2121320  -0.2121320), wk =   0.0480000
        k(   11) = (  -0.2828427  -0.4242641   0.4242641), wk =   0.0480000
        k(   12) = (  -0.2121320  -0.3535534   0.3535534), wk =   0.0480000
        k(   13) = (  -0.1414214  -0.2828427   0.2828427), wk =   0.0480000
        k(   14) = (  -0.0707107  -0.2121320   0.2121320), wk =   0.0480000
        k(   15) = (   0.0000000  -0.1414214   0.1414214), wk =   0.0240000
        k(   16) = (   0.2828427   0.0000000   0.0000000), wk =   0.0120000
        k(   17) = (   0.3535534   0.0707107  -0.0707107), wk =   0.0480000
        k(   18) = (   0.4242641   0.1414214  -0.1414214), wk =   0.0480000
        k(   19) = (  -0.2121320  -0.4949747   0.4949747), wk =   0.0480000
        k(   20) = (  -0.1414214  -0.4242641   0.4242641), wk =   0.0480000
        k(   21) = (  -0.0707107  -0.3535534   0.3535534), wk =   0.0480000
        k(   22) = (   0.0000000  -0.2828427   0.2828427), wk =   0.0240000
        k(   23) = (   0.4242641   0.0000000   0.0000000), wk =   0.0120000
        k(   24) = (   0.4949747   0.0707107  -0.0707107), wk =   0.0480000
        k(   25) = (  -0.1414214  -0.5656854   0.5656854), wk =   0.0480000
        k(   26) = (  -0.0707107  -0.4949747   0.4949747), wk =   0.0480000
        k(   27) = (  -0.0000000  -0.4242641   0.4242641), wk =   0.0240000
        k(   28) = (   0.5656854   0.0000000   0.0000000), wk =   0.0120000
        k(   29) = (  -0.0707107  -0.6363961   0.6363961), wk =   0.0480000
        k(   30) = (   0.0000000  -0.5656854   0.5656854), wk =   0.0240000
        k(   31) = (  -0.7071068   0.0000000   0.0000000), wk =   0.0060000
        k(   32) = (   0.2828427   0.1414214   0.0000000), wk =   0.0480000
        k(   33) = (   0.3535534   0.2121320  -0.0707107), wk =   0.0960000
        k(   34) = (  -0.2828427  -0.4242641   0.5656854), wk =   0.0960000
        k(   35) = (  -0.2121320  -0.3535534   0.4949747), wk =   0.0480000
        k(   36) = (   0.4242641   0.1414214  -0.0000000), wk =   0.0480000
        k(   37) = (  -0.2121320  -0.4949747   0.6363961), wk =   0.0960000
        k(   38) = (  -0.1414214  -0.4242641   0.5656854), wk =   0.0960000
        k(   39) = (  -0.0707107  -0.3535534   0.4949747), wk =   0.0960000
        k(   40) = (   0.0000000  -0.2828427   0.4242641), wk =   0.0480000
        k(   41) = (  -0.1414214  -0.5656854   0.7071068), wk =   0.0480000
        k(   42) = (  -0.0707107  -0.4949747   0.6363961), wk =   0.0960000
        k(   43) = (  -0.0000000  -0.4242641   0.5656854), wk =   0.0480000
        k(   44) = (  -0.7071068   0.1414214   0.0000000), wk =   0.0240000
        k(   45) = (  -0.1414214  -0.4242641   0.7071068), wk =   0.0480000
        k(   46) = (  -0.0707107  -0.3535534   0.6363961), wk =   0.0480000
        k(   47) = (  -0.7071068   0.2828427   0.0000000), wk =   0.0240000

                       cryst. coord.
        k(    1) = (   0.0000000   0.0000000   0.0000000), wk =   0.0020000
        k(    2) = (   0.0000000   0.0000000   0.1000000), wk =   0.0160000
        k(    3) = (   0.0000000   0.0000000   0.2000000), wk =   0.0160000
        k(    4) = (   0.0000000   0.0000000   0.3000000), wk =   0.0160000
        k(    5) = (   0.0000000   0.0000000   0.4000000), wk =   0.0160000
        k(    6) = (   0.0000000   0.0000000  -0.5000000), wk =   0.0080000
        k(    7) = (   0.0000000   0.1000000   0.1000000), wk =   0.0120000
        k(    8) = (   0.0000000   0.1000000   0.2000000), wk =   0.0480000
        k(    9) = (   0.0000000   0.1000000   0.3000000), wk =   0.0480000
        k(   10) = (   0.0000000   0.1000000   0.4000000), wk =   0.0480000
        k(   11) = (   0.0000000   0.1000000  -0.5000000), wk =   0.0480000
        k(   12) = (   0.0000000   0.1000000  -0.4000000), wk =   0.0480000
        k(   13) = (   0.0000000   0.1000000  -0.3000000), wk =   0.0480000
        k(   14) = (   0.0000000   0.1000000  -0.2000000), wk =   0.0480000
        k(   15) = (   0.0000000   0.1000000  -0.1000000), wk =   0.0240000
        k(   16) = (   0.0000000   0.2000000   0.2000000), wk =   0.0120000
        k(   17) = (   0.0000000   0.2000000   0.3000000), wk =   0.0480000
        k(   18) = (   0.0000000   0.2000000   0.4000000), wk =   0.0480000
        k(   19) = (   0.0000000   0.2000000  -0.5000000), wk =   0.0480000
        k(   20) = (   0.0000000   0.2000000  -0.4000000), wk =   0.0480000
        k(   21) = (   0.0000000   0.2000000  -0.3000000), wk =   0.0480000
        k(   22) = (   0.0000000   0.2000000  -0.2000000), wk =   0.0240000
        k(   23) = (   0.0000000   0.3000000   0.3000000), wk =   0.0120000
        k(   24) = (   0.0000000   0.3000000   0.4000000), wk =   0.0480000
        k(   25) = (   0.0000000   0.3000000  -0.5000000), wk =   0.0480000
        k(   26) = (   0.0000000   0.3000000  -0.4000000), wk =   0.0480000
        k(   27) = (   0.0000000   0.3000000  -0.3000000), wk =   0.0240000
        k(   28) = (   0.0000000   0.4000000   0.4000000), wk =   0.0120000
        k(   29) = (   0.0000000   0.4000000  -0.5000000), wk =   0.0480000
        k(   30) = (   0.0000000   0.4000000  -0.4000000), wk =   0.0240000
        k(   31) = (   0.0000000  -0.5000000  -0.5000000), wk =   0.0060000
        k(   32) = (   0.1000000   0.2000000   0.3000000), wk =   0.0480000
        k(   33) = (   0.1000000   0.2000000   0.4000000), wk =   0.0960000
        k(   34) = (   0.1000000   0.2000000  -0.5000000), wk =   0.0960000
        k(   35) = (   0.1000000   0.2000000  -0.4000000), wk =   0.0480000
        k(   36) = (   0.1000000   0.3000000   0.4000000), wk =   0.0480000
        k(   37) = (   0.1000000   0.3000000  -0.5000000), wk =   0.0960000
        k(   38) = (   0.1000000   0.3000000  -0.4000000), wk =   0.0960000
        k(   39) = (   0.1000000   0.3000000  -0.3000000), wk =   0.0960000
        k(   40) = (   0.1000000   0.3000000  -0.2000000), wk =   0.0480000
        k(   41) = (   0.1000000   0.4000000  -0.5000000), wk =   0.0480000
        k(   42) = (   0.1000000   0.4000000  -0.4000000), wk =   0.0960000
        k(   43) = (   0.1000000   0.4000000  -0.3000000), wk =   0.0480000
        k(   44) = (   0.1000000  -0.5000000  -0.4000000), wk =   0.0240000
        k(   45) = (   0.2000000   0.4000000  -0.4000000), wk =   0.0480000
        k(   46) = (   0.2000000   0.4000000  -0.3000000), wk =   0.0480000
        k(   47) = (   0.2000000  -0.5000000  -0.3000000), wk =   0.0240000

     Dense  grid:    23589 G-vectors     FFT dimensions: (  45,  45,  45)

     Largest allocated arrays     est. size (Mb)     dimensions
        Kohn-Sham Wavefunctions         0.05 Mb     (     187,   18)
        NL pseudopotentials             0.10 Mb     (     187,   36)
        Each V/rho on FFT grid          0.09 Mb     (    6075)
        Each G-vector array             0.01 Mb     (    1475)
        G-vector shells                 0.00 Mb     (     251)
     Largest temporary arrays     est. size (Mb)     dimensions
        Auxiliary wavefunctions         0.21 Mb     (     187,   72)
        Each subspace H/S matrix        0.08 Mb     (      72,   72)
        Each <psi_i|beta_j> matrix      0.01 Mb     (      36,   18)
        Arrays for rho mixing           0.74 Mb     (    6075,    8)

     Initial potential from superposition of free atoms

     starting charge   27.82674, renormalised to   28.00000
     Starting wfc are random

     total cpu time spent up to now is        0.8 secs

     Self-consistent Calculation

     iteration #  1     ecut=    50.00 Ry     beta=0.70
     Davidson diagonalization with overlap
     ethr =  1.00E-02,  avg # of iterations =  7.1

     Threshold (ethr) on eigenvalues was too large:
     Diagonalizing with lowered threshold

     Davidson diagonalization with overlap
     ethr =  1.07E-04,  avg # of iterations =  1.9

     total cpu time spent up to now is        6.5 secs

     total energy              =    -241.29468348 Ry
     Harris-Foulkes estimate   =    -241.30545259 Ry
     estimated scf accuracy    <       0.02991112 Ry

     iteration #  2     ecut=    50.00 Ry     beta=0.70
     Davidson diagonalization with overlap
     ethr =  1.07E-04,  avg # of iterations =  2.0

     total cpu time spent up to now is        8.2 secs

     total energy              =    -241.29859889 Ry
     Harris-Foulkes estimate   =    -241.29862831 Ry
     estimated scf accuracy    <       0.00152021 Ry

     iteration #  3     ecut=    50.00 Ry     beta=0.70
     Davidson diagonalization with overlap
     ethr =  5.43E-06,  avg # of iterations =  2.9

     total cpu time spent up to now is        9.7 secs

     total energy              =    -241.29873791 Ry
     Harris-Foulkes estimate   =    -241.29871097 Ry
     estimated scf accuracy    <       0.00009721 Ry

     iteration #  4     ecut=    50.00 Ry     beta=0.70
     Davidson diagonalization with overlap
     ethr =  3.47E-07,  avg # of iterations =  1.9

     total cpu time spent up to now is       11.1 secs

     total energy              =    -241.29874388 Ry
     Harris-Foulkes estimate   =    -241.29874354 Ry
     estimated scf accuracy    <       0.00000201 Ry

     iteration #  5     ecut=    50.00 Ry     beta=0.70
     Davidson diagonalization with overlap
     ethr =  7.18E-09,  avg # of iterations =  2.1

     total cpu time spent up to now is       12.6 secs

     End of self-consistent calculation

          k = 0.0000 0.0000 0.0000 (  2975 PWs)   bands (ev):

   -13.2649 -13.2649 -13.2649 -13.2111 -13.2111 -12.9641 -12.9641 -12.9641
   -12.9598 -12.9598  -1.7692   7.1742   8.4260   8.4260   8.4260  10.5001
    10.5001  10.5001

     occupation numbers 
     1.0000   1.0000   1.0000   1.0000   1.0000   1.0000   1.0000   1.0000
     1.0000   1.0000   1.0000   1.0000   0.0000   0.0000   0.0000   0.0000
     0.0000   0.0000

          k = 0.0707 0.0707-0.0707 (  2969 PWs)   bands (ev):

   -13.2706 -13.2706 -13.2628 -13.2032 -13.2032 -12.9789 -12.9789 -12.9666
   -12.9465 -12.9465  -1.6800   6.3248   8.2547   8.2547   8.7260  10.7256
    10.7256  10.8525

     occupation numbers 
     1.0000   1.0000   1.0000   1.0000   1.0000   1.0000   1.0000   1.0000
     1.0000   1.0000   1.0000   1.0000   0.8717   0.8717   0.0000   0.0000
     0.0000   0.0000

          k = 0.1414 0.1414-0.1414 (  2956 PWs)   bands (ev):

   -13.2806 -13.2806 -13.2572 -13.1876 -13.1876 -12.9944 -12.9944 -12.9733
   -12.9344 -12.9344  -1.4188   4.9985   7.9175   7.9175   8.6633  11.1583
    11.1583  11.9035

     occupation numbers 
     1.0000   1.0000   1.0000   1.0000   1.0000   1.0000   1.0000   1.0000
     1.0000   1.0000   1.0000   1.0000   1.0000   1.0000   0.0000   0.0000
     0.0000   0.0000

          k = 0.2121 0.2121-0.2121 (  2950 PWs)   bands (ev):

   -13.2885 -13.2885 -13.2500 -13.1736 -13.1736 -13.0060 -13.0060 -12.9818
   -12.9263 -12.9263  -1.0122   3.7401   7.6102   7.6102   8.4322  11.4558
    11.4558  13.2570

     occupation numbers 
     1.0000   1.0000   1.0000   1.0000   1.0000   1.0000   1.0000   1.0000
     1.0000   1.0000   1.0000   1.0000   1.0000   1.0000   0.0000   0.0000
     0.0000   0.0000

          k = 0.2828 0.2828-0.2828 (  2974 PWs)   bands (ev):

   -13.2929 -13.2929 -13.2439 -13.1652 -13.1652 -13.0123 -13.0123 -12.9890
   -12.9219 -12.9219  -0.5483   2.7411   7.4089   7.4089   8.2582  11.5394
    11.5394  14.1227

     occupation numbers 
     1.0000   1.0000   1.0000   1.0000   1.0000   1.0000   1.0000   1.0000
     1.0000   1.0000   1.0000   1.0000   1.0000   1.0000   0.0067   0.0000
     0.0000   0.0000

          k =-0.3536-0.3536 0.3536 (  2938 PWs)   bands (ev):

   -13.2942 -13.2942 -13.2415 -13.1626 -13.1626 -13.0141 -13.0141 -12.9918
   -12.9206 -12.9206  -0.2998   2.3109   7.3397   7.3397   8.1968  11.5431
    11.5431  14.0760

     occupation numbers 
     1.0000   1.0000   1.0000   1.0000   1.0000   1.0000   1.0000   1.0000
     1.0000   1.0000   1.0000   1.0000   1.0000   1.0000   1.0000   0.0000
     0.0000   0.0000

          k = 0.1414 0.0000 0.0000 (  2966 PWs)   bands (ev):

   -13.2696 -13.2696 -13.2685 -13.2048 -13.1951 -12.9965 -12.9658 -12.9578
   -12.9578 -12.9419  -1.6499   6.2071   7.9722   7.9722   9.3331  10.1693
    11.1065  11.1065

     occupation numbers 
     1.0000   1.0000   1.0000   1.0000   1.0000   1.0000   1.0000   1.0000
     1.0000   1.0000   1.0000   1.0000   1.0000   1.0000   0.0000   0.0000
     0.0000   0.0000

          k = 0.2121 0.0707-0.0707 (  2956 PWs)   bands (ev):

   -13.2814 -13.2770 -13.2619 -13.1936 -13.1782 -13.0157 -12.9803 -12.9601
   -12.9446 -12.9319  -1.4445   5.2263   7.5959   7.6126   9.5634  10.2797
    11.6285  11.8405

     occupation numbers 
     1.0000   1.0000   1.0000   1.0000   1.0000   1.0000   1.0000   1.0000
     1.0000   1.0000   1.0000   1.0000   1.0000   1.0000   0.0000   0.0000
     0.0000   0.0000

          k = 0.2828 0.1414-0.1414 (  2963 PWs)   bands (ev):

   -13.2929 -13.2856 -13.2505 -13.1790 -13.1624 -13.0294 -12.9955 -12.9725
   -12.9328 -12.9207  -1.0811   4.0430   7.1712   7.3280   9.3644  10.8259
    11.9696  12.6218

     occupation numbers 
     1.0000   1.0000   1.0000   1.0000   1.0000   1.0000   1.0000   1.0000
     1.0000   1.0000   1.0000   1.0000   1.0000   1.0000   0.0000   0.0000
     0.0000   0.0000

          k = 0.3536 0.2121-0.2121 (  2973 PWs)   bands (ev):

   -13.3006 -13.2920 -13.2382 -13.1663 -13.1542 -13.0336 -13.0083 -12.9873
   -12.9242 -12.9130  -0.6177   2.9854   6.8196   7.1760   9.1440  11.2083
    12.0053  13.4365

     occupation numbers 
     1.0000   1.0000   1.0000   1.0000   1.0000   1.0000   1.0000   1.0000
     1.0000   1.0000   1.0000   1.0000   1.0000   1.0000   0.0000   0.0000
     0.0000   0.0000

          k =-0.2828-0.4243 0.4243 (  2968 PWs)   bands (ev):

   -13.3037 -13.2959 -13.2299 -13.1572 -13.1551 -13.0271 -13.0186 -12.9994
   -12.9186 -12.9104  -0.2488   2.3350   6.6009   7.1740   9.0128  11.3779
    11.8819  14.1971

     occupation numbers 
     1.0000   1.0000   1.0000   1.0000   1.0000   1.0000   1.0000   1.0000
     1.0000   1.0000   1.0000   1.0000   1.0000   1.0000   0.0000   0.0000
     0.0000   0.0000

          k =-0.2121-0.3536 0.3536 (  2976 PWs)   bands (ev):

   -13.3020 -13.2972 -13.2297 -13.1620 -13.1533 -13.0250 -13.0144 -13.0035
   -12.9160 -12.9133  -0.3400   2.4844   6.5397   7.3190   8.9967  11.5176
    11.7250  14.2366

     occupation numbers 
     1.0000   1.0000   1.0000   1.0000   1.0000   1.0000   1.0000   1.0000
     1.0000   1.0000   1.0000   1.0000   1.0000   1.0000   0.0000   0.0000
     0.0000   0.0000

          k =-0.1414-0.2828 0.2828 (  2968 PWs)   bands (ev):

   -13.2958 -13.2952 -13.2378 -13.1719 -13.1575 -13.0240 -13.0079 -12.9900
   -12.9216 -12.9171  -0.7785   3.3137   6.6535   7.5897   9.0870  11.5117
    11.6130  13.3333

     occupation numbers 
     1.0000   1.0000   1.0000   1.0000   1.0000   1.0000   1.0000   1.0000
     1.0000   1.0000   1.0000   1.0000   1.0000   1.0000   0.0000   0.0000
     0.0000   0.0000

          k =-0.0707-0.2121 0.2121 (  2969 PWs)   bands (ev):

   -13.2892 -13.2857 -13.2499 -13.1839 -13.1707 -13.0140 -13.0000 -12.9714
   -12.9349 -12.9227  -1.2195   4.4281   6.9661   7.9351   9.2191  11.1553
    11.3566  12.4296

     occupation numbers 
     1.0000   1.0000   1.0000   1.0000   1.0000   1.0000   1.0000   1.0000
     1.0000   1.0000   1.0000   1.0000   1.0000   1.0000   0.0000   0.0000
     0.0000   0.0000

          k = 0.0000-0.1414 0.1414 (  2964 PWs)   bands (ev):

   -13.2798 -13.2745 -13.2601 -13.1966 -13.1886 -12.9975 -12.9877 -12.9570
   -12.9512 -12.9327  -1.5329   5.5543   7.5256   8.2310   9.1483  10.7751
    10.8474  11.6877

     occupation numbers 
     1.0000   1.0000   1.0000   1.0000   1.0000   1.0000   1.0000   1.0000
     1.0000   1.0000   1.0000   1.0000   1.0000   1.0000   0.0000   0.0000
     0.0000   0.0000

          k = 0.2828 0.0000 0.0000 (  2946 PWs)   bands (ev):

   -13.2809 -13.2809 -13.2683 -13.1866 -13.1588 -13.0418 -12.9833 -12.9420
   -12.9420 -12.9384  -1.2946   4.8359   7.2413   7.2413   9.6235  10.2559
    12.2846  12.2846

     occupation numbers 
     1.0000   1.0000   1.0000   1.0000   1.0000   1.0000   1.0000   1.0000
     1.0000   1.0000   1.0000   1.0000   1.0000   1.0000   0.0000   0.0000
     0.0000   0.0000

          k = 0.3536 0.0707-0.0707 (  2960 PWs)   bands (ev):

   -13.2934 -13.2882 -13.2558 -13.1724 -13.1391 -13.0630 -12.9978 -12.9569
   -12.9312 -12.9221  -0.9794   3.9932   6.7895   6.9503   9.6916  10.3769
    12.5936  12.7944

     occupation numbers 
     1.0000   1.0000   1.0000   1.0000   1.0000   1.0000   1.0000   1.0000
     1.0000   1.0000   1.0000   1.0000   1.0000   1.0000   0.0000   0.0000
     0.0000   0.0000

          k = 0.4243 0.1414-0.1414 (  2976 PWs)   bands (ev):

   -13.3066 -13.2949 -13.2355 -13.1570 -13.1274 -13.0732 -13.0144 -12.9797
   -12.9212 -12.9070  -0.5355   3.0606   6.2702   6.8008   9.7150  10.9428
    12.5470  12.9173

     occupation numbers 
     1.0000   1.0000   1.0000   1.0000   1.0000   1.0000   1.0000   1.0000
     1.0000   1.0000   1.0000   1.0000   1.0000   1.0000   0.0000   0.0000
     0.0000   0.0000

          k =-0.2121-0.4950 0.4950 (  2977 PWs)   bands (ev):

   -13.3150 -13.2998 -13.2168 -13.1432 -13.1294 -13.0678 -13.0304 -13.0008
   -12.9139 -12.8979  -0.0911   2.3242   5.8792   6.8131   9.6314  11.5395
    12.7511  13.0258

     occupation numbers 
     1.0000   1.0000   1.0000   1.0000   1.0000   1.0000   1.0000   1.0000
     1.0000   1.0000   1.0000   1.0000   1.0000   1.0000   0.0000   0.0000
     0.0000   0.0000

          k =-0.1414-0.4243 0.4243 (  2976 PWs)   bands (ev):

   -13.3167 -13.3022 -13.2078 -13.1432 -13.1341 -13.0487 -13.0425 -13.0128
   -12.9098 -12.8967  -0.0121   2.2095   5.6911   6.9839   9.6274  11.7580
    12.4742  13.9457

     occupation numbers 
     1.0000   1.0000   1.0000   1.0000   1.0000   1.0000   1.0000   1.0000
     1.0000   1.0000   1.0000   1.0000   1.0000   1.0000   0.0000   0.0000
     0.0000   0.0000

          k =-0.0707-0.3536 0.3536 (  2987 PWs)   bands (ev):

   -13.3111 -13.3015 -13.2136 -13.1608 -13.1360 -13.0442 -13.0215 -13.0137
   -12.9097 -12.9042  -0.3998   2.8111   5.7567   7.2866   9.6883  11.9295
    12.0973  13.0971

     occupation numbers 
     1.0000   1.0000   1.0000   1.0000   1.0000   1.0000   1.0000   1.0000
     1.0000   1.0000   1.0000   1.0000   1.0000   1.0000   0.0000   0.0000
     0.0000   0.0000

          k = 0.0000-0.2828 0.2828 (  2966 PWs)   bands (ev):

   -13.2993 -13.2971 -13.2315 -13.1742 -13.1507 -13.0326 -13.0102 -12.9904
   -12.9192 -12.9140  -0.8627   3.6562   6.1557   7.6539   9.6604  11.5855
    11.7478  12.4633

     occupation numbers 
     1.0000   1.0000   1.0000   1.0000   1.0000   1.0000   1.0000   1.0000
     1.0000   1.0000   1.0000   1.0000   1.0000   1.0000   0.0000   0.0000
     0.0000   0.0000

          k = 0.4243 0.0000 0.0000 (  2970 PWs)   bands (ev):

   -13.2938 -13.2938 -13.2560 -13.1583 -13.1135 -13.0931 -13.0106 -12.9515
   -12.9236 -12.9236  -0.7112   3.4874   6.6382   6.6382   9.2332  10.1978
    13.6010  13.6010

     occupation numbers 
     1.0000   1.0000   1.0000   1.0000   1.0000   1.0000   1.0000   1.0000
     1.0000   1.0000   1.0000   1.0000   1.0000   1.0000   0.0000   0.0000
     0.0000   0.0000

          k = 0.4950 0.0707-0.0707 (  2982 PWs)   bands (ev):

   -13.3046 -13.2994 -13.2372 -13.1413 -13.1138 -13.0936 -13.0278 -12.9730
   -12.9153 -12.9092  -0.2981   2.7727   6.2080   6.4645   9.3922  10.1761
    13.5495  14.0031

     occupation numbers 
     1.0000   1.0000   1.0000   1.0000   1.0000   1.0000   1.0000   1.0000
     1.0000   1.0000   1.0000   1.0000   1.0000   1.0000   0.0000   0.0000
     0.0000   0.0000

          k =-0.1414-0.5657 0.5657 (  2971 PWs)   bands (ev):

   -13.3170 -13.3036 -13.2114 -13.1243 -13.1192 -13.0869 -13.0464 -13.0005
   -12.9090 -12.8950   0.1825   2.0937   5.6669   6.4560   9.5060  10.9895
    13.2874  13.9019

     occupation numbers 
     1.0000   1.0000   1.0000   1.0000   1.0000   1.0000   1.0000   1.0000
     1.0000   1.0000   1.0000   1.0000   1.0000   1.0000   0.0000   0.0000
     0.0000   0.0000

          k =-0.0707-0.4950 0.4950 (  2976 PWs)   bands (ev):

   -13.3238 -13.3058 -13.1961 -13.1117 -13.1083 -13.0955 -13.0619 -13.0163
   -12.9056 -12.8880   0.4090   1.8183   5.3159   6.6135   9.5858  12.2277
    13.1765  13.5126

     occupation numbers 
     1.0000   1.0000   1.0000   1.0000   1.0000   1.0000   1.0000   1.0000
     1.0000   1.0000   1.0000   1.0000   1.0000   1.0000   0.0000   0.0000
     0.0000   0.0000

          k =-0.0000-0.4243 0.4243 (  2976 PWs)   bands (ev):

   -13.3218 -13.3053 -13.1973 -13.1360 -13.1162 -13.0618 -13.0608 -13.0181
   -12.9057 -12.8911   0.0689   2.2303   5.3091   6.9123   9.7218  12.8392
    12.8800  12.9424

     occupation numbers 
     1.0000   1.0000   1.0000   1.0000   1.0000   1.0000   1.0000   1.0000
     1.0000   1.0000   1.0000   1.0000   1.0000   1.0000   0.0000   0.0000
     0.0000   0.0000

          k = 0.5657 0.0000 0.0000 (  2970 PWs)   bands (ev):

   -13.3034 -13.3034 -13.2302 -13.1450 -13.1229 -13.0650 -13.0452 -12.9794
   -12.9095 -12.9095   0.0855   2.2193   6.2563   6.2563   9.0992   9.6614
    14.8831  14.8831

     occupation numbers 
     1.0000   1.0000   1.0000   1.0000   1.0000   1.0000   1.0000   1.0000
     1.0000   1.0000   1.0000   1.0000   1.0000   1.0000   0.0000   0.0000
     0.0000   0.0000

          k =-0.0707-0.6364 0.6364 (  2971 PWs)   bands (ev):

   -13.3113 -13.3061 -13.2062 -13.1619 -13.1040 -13.0646 -13.0481 -13.0044
   -12.9055 -12.9003   0.5755   1.6210   5.9090   6.2118   9.2923   9.8106
    14.7608  15.0491

     occupation numbers 
     1.0000   1.0000   1.0000   1.0000   1.0000   1.0000   1.0000   1.0000
     1.0000   1.0000   1.0000   1.0000   1.0000   1.0000   0.0000   0.0000
     0.0000   0.0000

          k = 0.0000-0.5657 0.5657 (  2978 PWs)   bands (ev):

   -13.3209 -13.3070 -13.1916 -13.1453 -13.0924 -13.0782 -13.0631 -13.0192
   -12.9041 -12.8903   0.8317   1.3628   5.4575   6.3372   9.4046  10.9063
    14.2113  14.5028

     occupation numbers 
     1.0000   1.0000   1.0000   1.0000   1.0000   1.0000   1.0000   1.0000
     1.0000   1.0000   1.0000   1.0000   1.0000   1.0000   0.0000   0.0000
     0.0000   0.0000

          k =-0.7071 0.0000 0.0000 (  2954 PWs)   bands (ev):

   -13.3069 -13.3069 -13.1922 -13.1921 -13.0840 -13.0838 -13.0187 -13.0187
   -12.9043 -12.9043   1.0727   1.0727   6.1263   6.1263   9.2476   9.2476
    15.6051  15.6051

     occupation numbers 
     1.0000   1.0000   1.0000   1.0000   1.0000   1.0000   1.0000   1.0000
     1.0000   1.0000   1.0000   1.0000   1.0000   1.0000   0.0000   0.0000
     0.0000   0.0000

          k = 0.2828 0.1414 0.0000 (  2960 PWs)   bands (ev):

   -13.2895 -13.2865 -13.2532 -13.1826 -13.1597 -13.0360 -12.9917 -12.9645
   -12.9351 -12.9231  -1.1851   4.4427   6.8180   7.5342   9.9367  10.2891
    12.0837  12.2988

     occupation numbers 
     1.0000   1.0000   1.0000   1.0000   1.0000   1.0000   1.0000   1.0000
     1.0000   1.0000   1.0000   1.0000   1.0000   1.0000   0.0000   0.0000
     0.0000   0.0000

          k = 0.3536 0.2121-0.0707 (  2967 PWs)   bands (ev):

   -13.3008 -13.2955 -13.2358 -13.1692 -13.1437 -13.0498 -13.0051 -12.9850
   -12.9208 -12.9130  -0.7797   3.4794   6.2982   7.2610   9.8794  10.8629
    12.3079  12.6360

     occupation numbers 
     1.0000   1.0000   1.0000   1.0000   1.0000   1.0000   1.0000   1.0000
     1.0000   1.0000   1.0000   1.0000   1.0000   1.0000   0.0000   0.0000
     0.0000   0.0000

          k =-0.2828-0.4243 0.5657 (  2987 PWs)   bands (ev):

   -13.3100 -13.2999 -13.2196 -13.1563 -13.1371 -13.0523 -13.0189 -13.0044
   -12.9136 -12.9038  -0.3108   2.6073   6.0262   7.0176   9.7471  11.2428
    12.4115  13.2989

     occupation numbers 
     1.0000   1.0000   1.0000   1.0000   1.0000   1.0000   1.0000   1.0000
     1.0000   1.0000   1.0000   1.0000   1.0000   1.0000   0.0000   0.0000
     0.0000   0.0000

          k =-0.2121-0.3536 0.4950 (  2976 PWs)   bands (ev):

   -13.3134 -13.3013 -13.2129 -13.1478 -13.1393 -13.0467 -13.0313 -13.0105
   -12.9116 -12.9001  -0.0528   2.2050   5.9431   6.9252   9.6952  11.2956
    12.4584  14.0503

     occupation numbers 
     1.0000   1.0000   1.0000   1.0000   1.0000   1.0000   1.0000   1.0000
     1.0000   1.0000   1.0000   1.0000   1.0000   1.0000   0.0000   0.0000
     0.0000   0.0000

          k = 0.4243 0.1414-0.0000 (  2970 PWs)   bands (ev):

   -13.2997 -13.2995 -13.2402 -13.1576 -13.1190 -13.0843 -13.0128 -12.9730
   -12.9170 -12.9142  -0.6173   3.2842   6.2615   6.7483   9.8860  10.3923
    12.5486  13.5034

     occupation numbers 
     1.0000   1.0000   1.0000   1.0000   1.0000   1.0000   1.0000   1.0000
     1.0000   1.0000   1.0000   1.0000   1.0000   1.0000   0.0000   0.0000
     0.0000   0.0000

          k =-0.2121-0.4950 0.6364 (  2990 PWs)   bands (ev):

   -13.3128 -13.3043 -13.2158 -13.1420 -13.1082 -13.0933 -13.0304 -12.9988
   -12.9089 -12.9002  -0.1483   2.5258   5.8036   6.5351  10.0650  10.9952
    12.3316  13.8048

     occupation numbers 
     1.0000   1.0000   1.0000   1.0000   1.0000   1.0000   1.0000   1.0000
     1.0000   1.0000   1.0000   1.0000   1.0000   1.0000   0.0000   0.0000
     0.0000   0.0000

          k =-0.1414-0.4243 0.5657 (  2985 PWs)   bands (ev):

   -13.3206 -13.3069 -13.1975 -13.1295 -13.1110 -13.0868 -13.0478 -13.0167
   -12.9051 -12.8916   0.2377   1.9975   5.5053   6.4965  10.0850  11.6517
    12.6987  13.5854

     occupation numbers 
     1.0000   1.0000   1.0000   1.0000   1.0000   1.0000   1.0000   1.0000
     1.0000   1.0000   1.0000   1.0000   1.0000   1.0000   0.0000   0.0000
     0.0000   0.0000

          k =-0.0707-0.3536 0.4950 (  2978 PWs)   bands (ev):

   -13.3203 -13.3070 -13.1962 -13.1370 -13.1141 -13.0762 -13.0465 -13.0197
   -12.9045 -12.8925   0.1138   2.1593   5.4354   6.6597  10.1726  11.6672
    12.7721  13.5429

     occupation numbers 
     1.0000   1.0000   1.0000   1.0000   1.0000   1.0000   1.0000   1.0000
     1.0000   1.0000   1.0000   1.0000   1.0000   1.0000   0.0000   0.0000
     0.0000   0.0000

          k = 0.0000-0.2828 0.4243 (  2981 PWs)   bands (ev):

   -13.3119 -13.3040 -13.2123 -13.1556 -13.1243 -13.0669 -13.0196 -13.0109
   -12.9075 -12.9029  -0.3461   2.8016   5.6768   6.9640  10.2261  11.2889
    12.2092  13.2486

     occupation numbers 
     1.0000   1.0000   1.0000   1.0000   1.0000   1.0000   1.0000   1.0000
     1.0000   1.0000   1.0000   1.0000   1.0000   1.0000   0.0000   0.0000
     0.0000   0.0000

          k =-0.1414-0.5657 0.7071 (  2971 PWs)   bands (ev):

   -13.3091 -13.3082 -13.2153 -13.1336 -13.1235 -13.0743 -13.0463 -12.9956
   -12.9040 -12.9036   0.1510   2.1496   5.9517   6.1918   9.7100  10.1019
    13.4970  14.7607

     occupation numbers 
     1.0000   1.0000   1.0000   1.0000   1.0000   1.0000   1.0000   1.0000
     1.0000   1.0000   1.0000   1.0000   1.0000   1.0000   0.0000   0.0000
     0.0000   0.0000

          k =-0.0707-0.4950 0.6364 (  2983 PWs)   bands (ev):

   -13.3196 -13.3106 -13.1884 -13.1368 -13.1065 -13.0703 -13.0655 -13.0221
   -12.9008 -12.8918   0.6194   1.6055   5.5419   6.1289   9.9303  10.9664
    13.2078  14.2607

     occupation numbers 
     1.0000   1.0000   1.0000   1.0000   1.0000   1.0000   1.0000   1.0000
     1.0000   1.0000   1.0000   1.0000   1.0000   1.0000   0.0000   0.0000
     0.0000   0.0000

          k =-0.0000-0.4243 0.5657 (  2985 PWs)   bands (ev):

   -13.3243 -13.3103 -13.1836 -13.1099 -13.1083 -13.0899 -13.0717 -13.0266
   -12.9008 -12.8872   0.5738   1.6631   5.2901   6.3185  10.0729  12.2471
    12.9825  13.0533

     occupation numbers 
     1.0000   1.0000   1.0000   1.0000   1.0000   1.0000   1.0000   1.0000
     1.0000   1.0000   1.0000   1.0000   1.0000   1.0000   0.0000   0.0000
     0.0000   0.0000

          k =-0.7071 0.1414 0.0000 (  2970 PWs)   bands (ev):

   -13.3120 -13.3120 -13.1787 -13.1786 -13.0849 -13.0847 -13.0314 -13.0313
   -12.8991 -12.8991   1.0880   1.0880   5.9236   5.9236   9.7917   9.7917
    14.6429  14.6429

     occupation numbers 
     1.0000   1.0000   1.0000   1.0000   1.0000   1.0000   1.0000   1.0000
     1.0000   1.0000   1.0000   1.0000   1.0000   1.0000   0.0000   0.0000
     0.0000   0.0000

          k =-0.1414-0.4243 0.7071 (  2992 PWs)   bands (ev):

   -13.3192 -13.3126 -13.1878 -13.1248 -13.1110 -13.0889 -13.0527 -13.0243
   -12.8988 -12.8929   0.3297   1.9489   5.4936   6.1755  10.9323  11.0804
    12.0787  14.0202

     occupation numbers 
     1.0000   1.0000   1.0000   1.0000   1.0000   1.0000   1.0000   1.0000
     1.0000   1.0000   1.0000   1.0000   1.0000   1.0000   0.0000   0.0000
     0.0000   0.0000

          k =-0.0707-0.3536 0.6364 (  2988 PWs)   bands (ev):

   -13.3227 -13.3147 -13.1729 -13.1199 -13.1083 -13.0846 -13.0681 -13.0359
   -12.8965 -12.8887   0.6485   1.5935   5.4037   6.0119  10.9741  11.6055
    12.5484  12.8683

     occupation numbers 
     1.0000   1.0000   1.0000   1.0000   1.0000   1.0000   1.0000   1.0000
     1.0000   1.0000   1.0000   1.0000   1.0000   1.0000   0.0000   0.0000
     0.0000   0.0000

          k =-0.7071 0.2828 0.0000 (  3000 PWs)   bands (ev):

   -13.3190 -13.3190 -13.1532 -13.1531 -13.0891 -13.0888 -13.0529 -13.0528
   -12.8921 -12.8920   1.1133   1.1133   5.6566   5.6566  11.0478  11.0478
    12.9227  12.9227

     occupation numbers 
     1.0000   1.0000   1.0000   1.0000   1.0000   1.0000   1.0000   1.0000
     1.0000   1.0000   1.0000   1.0000   1.0000   1.0000   0.0000   0.0000
     0.0000   0.0000

     the Fermi energy is     8.2558 ev

!    total energy              =    -241.29874430 Ry
     Harris-Foulkes estimate   =    -241.29874428 Ry
     estimated scf accuracy    <       0.00000006 Ry

     The total energy is the sum of the following terms:

     one-electron contribution =    -109.45215339 Ry
     hartree contribution      =      65.34293342 Ry
     xc contribution           =     -29.40818223 Ry
     ewald contribution        =    -167.78134160 Ry
     smearing contrib. (-TS)   =      -0.00000050 Ry

     convergence has been achieved in   5 iterations

     Writing output data file Sn.save
 
     init_run     :      0.61s CPU      0.69s WALL (       1 calls)
     electrons    :     11.51s CPU     11.84s WALL (       1 calls)

     Called by init_run:
     wfcinit      :      0.47s CPU      0.48s WALL (       1 calls)
     potinit      :      0.01s CPU      0.01s WALL (       1 calls)

     Called by electrons:
     c_bands      :     10.23s CPU     10.51s WALL (       6 calls)
     sum_band     :      1.22s CPU      1.25s WALL (       6 calls)
     v_of_rho     :      0.04s CPU      0.04s WALL (       6 calls)
     v_h          :      0.00s CPU      0.00s WALL (       6 calls)
     v_xc         :      0.04s CPU      0.04s WALL (       6 calls)
     mix_rho      :      0.00s CPU      0.00s WALL (       6 calls)

     Called by c_bands:
     init_us_2    :      0.06s CPU      0.07s WALL (     611 calls)
     cegterg      :      9.91s CPU     10.16s WALL (     282 calls)

     Called by sum_band:

     Called by *egterg:
     h_psi        :      7.88s CPU      8.09s WALL (    1171 calls)
     g_psi        :      0.03s CPU      0.03s WALL (     842 calls)
     cdiaghg      :      1.14s CPU      1.15s WALL (    1077 calls)
     cegterg:over :      0.59s CPU      0.60s WALL (     842 calls)
     cegterg:upda :      0.15s CPU      0.15s WALL (     842 calls)
     cegterg:last :      0.08s CPU      0.09s WALL (     341 calls)

     Called by h_psi:
     h_psi:vloc   :      7.32s CPU      7.52s WALL (    1171 calls)
     h_psi:vnl    :      0.54s CPU      0.55s WALL (    1171 calls)
     add_vuspsi   :      0.16s CPU      0.16s WALL (    1171 calls)

     General routines
     calbec       :      0.37s CPU      0.39s WALL (    1171 calls)
     fft          :      0.05s CPU      0.05s WALL (      67 calls)
     fftw         :      7.92s CPU      8.12s WALL (   37760 calls)
     davcio       :      0.00s CPU      0.03s WALL (      47 calls)
 
     Parallel routines
     fft_scatter  :      4.41s CPU      4.55s WALL (   37827 calls)
 
     PWSCF        :    12.30s CPU        12.83s WALL

 
   This run was terminated on:  23:59: 9  27Feb2020            

=------------------------------------------------------------------------------=
   JOB DONE.
=------------------------------------------------------------------------------=
