
     Program PWSCF v.5.4.0 starts on 28Feb2020 at  7: 9:55 

     This program is part of the open-source Quantum ESPRESSO suite
     for quantum simulation of materials; please cite
         "P. Giannozzi et al., J. Phys.:Condens. Matter 21 395502 (2009);
          URL http://www.quantum-espresso.org", 
     in publications or presentations arising from this work. More details at
     http://www.quantum-espresso.org/quote

     Parallel version (MPI & OpenMP), running on      16 processor cores
     Number of MPI processes:                16
     Threads/MPI process:                     1
     R & G space division:  proc/nbgrp/npool/nimage =      16
     Waiting for input...
     Reading input from standard input
Warning: card &IONS ignored
Warning: card / ignored
Warning: card &CELL ignored
Warning: card / ignored

     Current dimensions of program PWSCF are:
     Max number of different atomic species (ntypx) = 10
     Max number of k-points (npk) =  40000
     Max angular momentum in pseudopotentials (lmaxx) =  3

     Subspace diagonalization in iterative solution of the eigenvalue problem:
     a serial algorithm will be used

 
     Parallelization info
     --------------------
     sticks:   dense  smooth     PW     G-vecs:    dense   smooth      PW
     Min         101     101     28                 2670     2670     413
     Max         102     102     29                 2671     2671     415
     Sum        1627    1627    463                42735    42735    6615
 

     Title: 
     Sn                                                                         


     bravais-lattice index     =            0
     lattice parameter (alat)  =       8.5519  a.u.
     unit-cell volume          =     442.2589 (a.u.)^3
     number of atoms/cell      =            2
     number of atomic types    =            1
     number of electrons       =        28.00
     number of Kohn-Sham states=           18
     kinetic-energy cutoff     =      80.0000  Ry
     charge density cutoff     =     320.0000  Ry
     convergence threshold     =      1.0E-06
     mixing beta               =       0.7000
     number of iterations used =            8  plain     mixing
     Exchange-correlation      = PBE ( 1  4  3  4 0 0)

     celldm(1)=   8.551924  celldm(2)=   0.000000  celldm(3)=   0.000000
     celldm(4)=   0.000000  celldm(5)=   0.000000  celldm(6)=   0.000000

     crystal axes: (cart. coord. in units of alat)
               a(1) = (   0.000000   0.707107   0.707107 )  
               a(2) = (   0.707107   0.000000   0.707107 )  
               a(3) = (   0.707107   0.707107   0.000000 )  

     reciprocal axes: (cart. coord. in units 2 pi/alat)
               b(1) = ( -0.707107  0.707107  0.707107 )  
               b(2) = (  0.707107 -0.707107  0.707107 )  
               b(3) = (  0.707107  0.707107 -0.707107 )  


     PseudoPot. # 1 for Sn read from file:
     ../PseudopotentialDatabase/Sn_ONCV_PBE-1.2.upf
     MD5 check sum: 6680f7ee4d83b53e0fcd4167fcb72813
     Pseudo is Norm-conserving, Zval = 14.0
     Generated using ONCVPSP code by D. R. Hamann
     Using radial grid of  602 points,  6 beta functions with: 
                l(1) =   0
                l(2) =   0
                l(3) =   1
                l(4) =   1
                l(5) =   2
                l(6) =   2

     atomic species   valence    mass     pseudopotential
        Sn            14.00   118.71000     Sn( 1.00)

     24 Sym. Ops. (no inversion) found
          (note: 24 additional sym.ops. were found but ignored
           their fractional translations are incommensurate with FFT grid)

                                    s                        frac. trans.

      isym =  1     identity                                     

 cryst.   s( 1) = (     1          0          0      )
                  (     0          1          0      )
                  (     0          0          1      )

 cart.    s( 1) = (  1.0000000  0.0000000  0.0000000 )
                  (  0.0000000  1.0000000  0.0000000 )
                  (  0.0000000  0.0000000  1.0000000 )


      isym =  2     180 deg rotation - cart. axis [0,0,1]        

 cryst.   s( 2) = (     0          1         -1      )
                  (     1          0         -1      )
                  (     0          0         -1      )

 cart.    s( 2) = ( -1.0000000  0.0000000  0.0000000 )
                  (  0.0000000 -1.0000000  0.0000000 )
                  (  0.0000000  0.0000000  1.0000000 )


      isym =  3     180 deg rotation - cart. axis [0,1,0]        

 cryst.   s( 3) = (     0         -1          1      )
                  (     0         -1          0      )
                  (     1         -1          0      )

 cart.    s( 3) = ( -1.0000000  0.0000000  0.0000000 )
                  (  0.0000000  1.0000000  0.0000000 )
                  (  0.0000000  0.0000000 -1.0000000 )


      isym =  4     180 deg rotation - cart. axis [1,0,0]        

 cryst.   s( 4) = (    -1          0          0      )
                  (    -1          0          1      )
                  (    -1          1          0      )

 cart.    s( 4) = (  1.0000000  0.0000000  0.0000000 )
                  (  0.0000000 -1.0000000  0.0000000 )
                  (  0.0000000  0.0000000 -1.0000000 )


      isym =  5     120 deg rotation - cart. axis [-1,-1,-1]     

 cryst.   s( 5) = (     0          0          1      )
                  (     1          0          0      )
                  (     0          1          0      )

 cart.    s( 5) = (  0.0000000  1.0000000  0.0000000 )
                  (  0.0000000  0.0000000  1.0000000 )
                  (  1.0000000  0.0000000  0.0000000 )


      isym =  6     120 deg rotation - cart. axis [-1,1,1]       

 cryst.   s( 6) = (     1         -1          0      )
                  (     0         -1          1      )
                  (     0         -1          0      )

 cart.    s( 6) = (  0.0000000 -1.0000000  0.0000000 )
                  (  0.0000000  0.0000000  1.0000000 )
                  ( -1.0000000  0.0000000  0.0000000 )


      isym =  7     120 deg rotation - cart. axis [1,1,-1]       

 cryst.   s( 7) = (    -1          1          0      )
                  (    -1          0          0      )
                  (    -1          0          1      )

 cart.    s( 7) = (  0.0000000  1.0000000  0.0000000 )
                  (  0.0000000  0.0000000 -1.0000000 )
                  ( -1.0000000  0.0000000  0.0000000 )


      isym =  8     120 deg rotation - cart. axis [1,-1,1]       

 cryst.   s( 8) = (     0          0         -1      )
                  (     0          1         -1      )
                  (     1          0         -1      )

 cart.    s( 8) = (  0.0000000 -1.0000000  0.0000000 )
                  (  0.0000000  0.0000000 -1.0000000 )
                  (  1.0000000  0.0000000  0.0000000 )


      isym =  9     120 deg rotation - cart. axis [1,1,1]        

 cryst.   s( 9) = (     0          1          0      )
                  (     0          0          1      )
                  (     1          0          0      )

 cart.    s( 9) = (  0.0000000  0.0000000  1.0000000 )
                  (  1.0000000  0.0000000  0.0000000 )
                  (  0.0000000  1.0000000  0.0000000 )


      isym = 10     120 deg rotation - cart. axis [-1,1,-1]      

 cryst.   s(10) = (    -1          0          1      )
                  (    -1          1          0      )
                  (    -1          0          0      )

 cart.    s(10) = (  0.0000000  0.0000000  1.0000000 )
                  ( -1.0000000  0.0000000  0.0000000 )
                  (  0.0000000 -1.0000000  0.0000000 )


      isym = 11     120 deg rotation - cart. axis [1,-1,-1]      

 cryst.   s(11) = (     1          0         -1      )
                  (     0          0         -1      )
                  (     0          1         -1      )

 cart.    s(11) = (  0.0000000  0.0000000 -1.0000000 )
                  ( -1.0000000  0.0000000  0.0000000 )
                  (  0.0000000  1.0000000  0.0000000 )


      isym = 12     120 deg rotation - cart. axis [-1,-1,1]      

 cryst.   s(12) = (     0         -1          0      )
                  (     1         -1          0      )
                  (     0         -1          1      )

 cart.    s(12) = (  0.0000000  0.0000000 -1.0000000 )
                  (  1.0000000  0.0000000  0.0000000 )
                  (  0.0000000 -1.0000000  0.0000000 )


      isym = 13     inv. 180 deg rotation - cart. axis [1,1,0]   

 cryst.   s(13) = (     1          0         -1      )
                  (     0          1         -1      )
                  (     0          0         -1      )

 cart.    s(13) = (  0.0000000 -1.0000000  0.0000000 )
                  ( -1.0000000  0.0000000  0.0000000 )
                  (  0.0000000  0.0000000  1.0000000 )


      isym = 14     inv. 180 deg rotation - cart. axis [1,-1,0]  

 cryst.   s(14) = (     0          1          0      )
                  (     1          0          0      )
                  (     0          0          1      )

 cart.    s(14) = (  0.0000000  1.0000000  0.0000000 )
                  (  1.0000000  0.0000000  0.0000000 )
                  (  0.0000000  0.0000000  1.0000000 )


      isym = 15     inv.  90 deg rotation - cart. axis [0,0,-1]  

 cryst.   s(15) = (     0         -1          0      )
                  (     0         -1          1      )
                  (     1         -1          0      )

 cart.    s(15) = (  0.0000000 -1.0000000  0.0000000 )
                  (  1.0000000  0.0000000  0.0000000 )
                  (  0.0000000  0.0000000 -1.0000000 )


      isym = 16     inv.  90 deg rotation - cart. axis [0,0,1]   

 cryst.   s(16) = (    -1          0          1      )
                  (    -1          0          0      )
                  (    -1          1          0      )

 cart.    s(16) = (  0.0000000  1.0000000  0.0000000 )
                  ( -1.0000000  0.0000000  0.0000000 )
                  (  0.0000000  0.0000000 -1.0000000 )


      isym = 17     inv. 180 deg rotation - cart. axis [1,0,1]   

 cryst.   s(17) = (     1         -1          0      )
                  (     0         -1          0      )
                  (     0         -1          1      )

 cart.    s(17) = (  0.0000000  0.0000000 -1.0000000 )
                  (  0.0000000  1.0000000  0.0000000 )
                  ( -1.0000000  0.0000000  0.0000000 )


      isym = 18     inv. 180 deg rotation - cart. axis [-1,0,1]  

 cryst.   s(18) = (     0          0          1      )
                  (     0          1          0      )
                  (     1          0          0      )

 cart.    s(18) = (  0.0000000  0.0000000  1.0000000 )
                  (  0.0000000  1.0000000  0.0000000 )
                  (  1.0000000  0.0000000  0.0000000 )


      isym = 19     inv.  90 deg rotation - cart. axis [0,1,0]   

 cryst.   s(19) = (     0          0         -1      )
                  (     1          0         -1      )
                  (     0          1         -1      )

 cart.    s(19) = (  0.0000000  0.0000000 -1.0000000 )
                  (  0.0000000 -1.0000000  0.0000000 )
                  (  1.0000000  0.0000000  0.0000000 )


      isym = 20     inv.  90 deg rotation - cart. axis [0,-1,0]  

 cryst.   s(20) = (    -1          1          0      )
                  (    -1          0          1      )
                  (    -1          0          0      )

 cart.    s(20) = (  0.0000000  0.0000000  1.0000000 )
                  (  0.0000000 -1.0000000  0.0000000 )
                  ( -1.0000000  0.0000000  0.0000000 )


      isym = 21     inv. 180 deg rotation - cart. axis [0,1,1]   

 cryst.   s(21) = (    -1          0          0      )
                  (    -1          1          0      )
                  (    -1          0          1      )

 cart.    s(21) = (  1.0000000  0.0000000  0.0000000 )
                  (  0.0000000  0.0000000 -1.0000000 )
                  (  0.0000000 -1.0000000  0.0000000 )


      isym = 22     inv. 180 deg rotation - cart. axis [0,1,-1]  

 cryst.   s(22) = (     1          0          0      )
                  (     0          0          1      )
                  (     0          1          0      )

 cart.    s(22) = (  1.0000000  0.0000000  0.0000000 )
                  (  0.0000000  0.0000000  1.0000000 )
                  (  0.0000000  1.0000000  0.0000000 )


      isym = 23     inv.  90 deg rotation - cart. axis [-1,0,0]  

 cryst.   s(23) = (     0          1         -1      )
                  (     0          0         -1      )
                  (     1          0         -1      )

 cart.    s(23) = ( -1.0000000  0.0000000  0.0000000 )
                  (  0.0000000  0.0000000 -1.0000000 )
                  (  0.0000000  1.0000000  0.0000000 )


      isym = 24     inv.  90 deg rotation - cart. axis [1,0,0]   

 cryst.   s(24) = (     0         -1          1      )
                  (     1         -1          0      )
                  (     0         -1          0      )

 cart.    s(24) = ( -1.0000000  0.0000000  0.0000000 )
                  (  0.0000000  0.0000000  1.0000000 )
                  (  0.0000000 -1.0000000  0.0000000 )


   Cartesian axes

     site n.     atom                  positions (alat units)
         1           Sn  tau(   1) = (   0.0000000   0.0000000   0.0000000  )
         2           Sn  tau(   2) = (   0.3535534   0.3535534   0.3535534  )

   Crystallographic axes

     site n.     atom                  positions (cryst. coord.)
         1           Sn  tau(   1) = (  0.0000000  0.0000000  0.0000000  )
         2           Sn  tau(   2) = (  0.2500000  0.2500000  0.2500000  )

     number of k points=    47  gaussian smearing, width (Ry)=  0.0001
                       cart. coord. in units 2pi/alat
        k(    1) = (   0.0000000   0.0000000   0.0000000), wk =   0.0020000
        k(    2) = (   0.0707107   0.0707107  -0.0707107), wk =   0.0160000
        k(    3) = (   0.1414214   0.1414214  -0.1414214), wk =   0.0160000
        k(    4) = (   0.2121320   0.2121320  -0.2121320), wk =   0.0160000
        k(    5) = (   0.2828427   0.2828427  -0.2828427), wk =   0.0160000
        k(    6) = (  -0.3535534  -0.3535534   0.3535534), wk =   0.0080000
        k(    7) = (   0.1414214   0.0000000   0.0000000), wk =   0.0120000
        k(    8) = (   0.2121320   0.0707107  -0.0707107), wk =   0.0480000
        k(    9) = (   0.2828427   0.1414214  -0.1414214), wk =   0.0480000
        k(   10) = (   0.3535534   0.2121320  -0.2121320), wk =   0.0480000
        k(   11) = (  -0.2828427  -0.4242641   0.4242641), wk =   0.0480000
        k(   12) = (  -0.2121320  -0.3535534   0.3535534), wk =   0.0480000
        k(   13) = (  -0.1414214  -0.2828427   0.2828427), wk =   0.0480000
        k(   14) = (  -0.0707107  -0.2121320   0.2121320), wk =   0.0480000
        k(   15) = (   0.0000000  -0.1414214   0.1414214), wk =   0.0240000
        k(   16) = (   0.2828427   0.0000000   0.0000000), wk =   0.0120000
        k(   17) = (   0.3535534   0.0707107  -0.0707107), wk =   0.0480000
        k(   18) = (   0.4242641   0.1414214  -0.1414214), wk =   0.0480000
        k(   19) = (  -0.2121320  -0.4949747   0.4949747), wk =   0.0480000
        k(   20) = (  -0.1414214  -0.4242641   0.4242641), wk =   0.0480000
        k(   21) = (  -0.0707107  -0.3535534   0.3535534), wk =   0.0480000
        k(   22) = (   0.0000000  -0.2828427   0.2828427), wk =   0.0240000
        k(   23) = (   0.4242641   0.0000000   0.0000000), wk =   0.0120000
        k(   24) = (   0.4949747   0.0707107  -0.0707107), wk =   0.0480000
        k(   25) = (  -0.1414214  -0.5656854   0.5656854), wk =   0.0480000
        k(   26) = (  -0.0707107  -0.4949747   0.4949747), wk =   0.0480000
        k(   27) = (  -0.0000000  -0.4242641   0.4242641), wk =   0.0240000
        k(   28) = (   0.5656854   0.0000000   0.0000000), wk =   0.0120000
        k(   29) = (  -0.0707107  -0.6363961   0.6363961), wk =   0.0480000
        k(   30) = (   0.0000000  -0.5656854   0.5656854), wk =   0.0240000
        k(   31) = (  -0.7071068   0.0000000   0.0000000), wk =   0.0060000
        k(   32) = (   0.2828427   0.1414214   0.0000000), wk =   0.0480000
        k(   33) = (   0.3535534   0.2121320  -0.0707107), wk =   0.0960000
        k(   34) = (  -0.2828427  -0.4242641   0.5656854), wk =   0.0960000
        k(   35) = (  -0.2121320  -0.3535534   0.4949747), wk =   0.0480000
        k(   36) = (   0.4242641   0.1414214  -0.0000000), wk =   0.0480000
        k(   37) = (  -0.2121320  -0.4949747   0.6363961), wk =   0.0960000
        k(   38) = (  -0.1414214  -0.4242641   0.5656854), wk =   0.0960000
        k(   39) = (  -0.0707107  -0.3535534   0.4949747), wk =   0.0960000
        k(   40) = (   0.0000000  -0.2828427   0.4242641), wk =   0.0480000
        k(   41) = (  -0.1414214  -0.5656854   0.7071068), wk =   0.0480000
        k(   42) = (  -0.0707107  -0.4949747   0.6363961), wk =   0.0960000
        k(   43) = (  -0.0000000  -0.4242641   0.5656854), wk =   0.0480000
        k(   44) = (  -0.7071068   0.1414214   0.0000000), wk =   0.0240000
        k(   45) = (  -0.1414214  -0.4242641   0.7071068), wk =   0.0480000
        k(   46) = (  -0.0707107  -0.3535534   0.6363961), wk =   0.0480000
        k(   47) = (  -0.7071068   0.2828427   0.0000000), wk =   0.0240000

                       cryst. coord.
        k(    1) = (   0.0000000   0.0000000   0.0000000), wk =   0.0020000
        k(    2) = (   0.0000000   0.0000000   0.1000000), wk =   0.0160000
        k(    3) = (   0.0000000   0.0000000   0.2000000), wk =   0.0160000
        k(    4) = (   0.0000000   0.0000000   0.3000000), wk =   0.0160000
        k(    5) = (   0.0000000   0.0000000   0.4000000), wk =   0.0160000
        k(    6) = (   0.0000000   0.0000000  -0.5000000), wk =   0.0080000
        k(    7) = (   0.0000000   0.1000000   0.1000000), wk =   0.0120000
        k(    8) = (   0.0000000   0.1000000   0.2000000), wk =   0.0480000
        k(    9) = (   0.0000000   0.1000000   0.3000000), wk =   0.0480000
        k(   10) = (   0.0000000   0.1000000   0.4000000), wk =   0.0480000
        k(   11) = (   0.0000000   0.1000000  -0.5000000), wk =   0.0480000
        k(   12) = (   0.0000000   0.1000000  -0.4000000), wk =   0.0480000
        k(   13) = (   0.0000000   0.1000000  -0.3000000), wk =   0.0480000
        k(   14) = (   0.0000000   0.1000000  -0.2000000), wk =   0.0480000
        k(   15) = (   0.0000000   0.1000000  -0.1000000), wk =   0.0240000
        k(   16) = (   0.0000000   0.2000000   0.2000000), wk =   0.0120000
        k(   17) = (   0.0000000   0.2000000   0.3000000), wk =   0.0480000
        k(   18) = (   0.0000000   0.2000000   0.4000000), wk =   0.0480000
        k(   19) = (   0.0000000   0.2000000  -0.5000000), wk =   0.0480000
        k(   20) = (   0.0000000   0.2000000  -0.4000000), wk =   0.0480000
        k(   21) = (   0.0000000   0.2000000  -0.3000000), wk =   0.0480000
        k(   22) = (   0.0000000   0.2000000  -0.2000000), wk =   0.0240000
        k(   23) = (   0.0000000   0.3000000   0.3000000), wk =   0.0120000
        k(   24) = (   0.0000000   0.3000000   0.4000000), wk =   0.0480000
        k(   25) = (   0.0000000   0.3000000  -0.5000000), wk =   0.0480000
        k(   26) = (   0.0000000   0.3000000  -0.4000000), wk =   0.0480000
        k(   27) = (   0.0000000   0.3000000  -0.3000000), wk =   0.0240000
        k(   28) = (   0.0000000   0.4000000   0.4000000), wk =   0.0120000
        k(   29) = (   0.0000000   0.4000000  -0.5000000), wk =   0.0480000
        k(   30) = (   0.0000000   0.4000000  -0.4000000), wk =   0.0240000
        k(   31) = (   0.0000000  -0.5000000  -0.5000000), wk =   0.0060000
        k(   32) = (   0.1000000   0.2000000   0.3000000), wk =   0.0480000
        k(   33) = (   0.1000000   0.2000000   0.4000000), wk =   0.0960000
        k(   34) = (   0.1000000   0.2000000  -0.5000000), wk =   0.0960000
        k(   35) = (   0.1000000   0.2000000  -0.4000000), wk =   0.0480000
        k(   36) = (   0.1000000   0.3000000   0.4000000), wk =   0.0480000
        k(   37) = (   0.1000000   0.3000000  -0.5000000), wk =   0.0960000
        k(   38) = (   0.1000000   0.3000000  -0.4000000), wk =   0.0960000
        k(   39) = (   0.1000000   0.3000000  -0.3000000), wk =   0.0960000
        k(   40) = (   0.1000000   0.3000000  -0.2000000), wk =   0.0480000
        k(   41) = (   0.1000000   0.4000000  -0.5000000), wk =   0.0480000
        k(   42) = (   0.1000000   0.4000000  -0.4000000), wk =   0.0960000
        k(   43) = (   0.1000000   0.4000000  -0.3000000), wk =   0.0480000
        k(   44) = (   0.1000000  -0.5000000  -0.4000000), wk =   0.0240000
        k(   45) = (   0.2000000   0.4000000  -0.4000000), wk =   0.0480000
        k(   46) = (   0.2000000   0.4000000  -0.3000000), wk =   0.0480000
        k(   47) = (   0.2000000  -0.5000000  -0.3000000), wk =   0.0240000

     Dense  grid:    42735 G-vectors     FFT dimensions: (  50,  50,  50)

     Largest allocated arrays     est. size (Mb)     dimensions
        Kohn-Sham Wavefunctions         0.09 Mb     (     338,   18)
        NL pseudopotentials             0.19 Mb     (     338,   36)
        Each V/rho on FFT grid          0.15 Mb     (   10000)
        Each G-vector array             0.02 Mb     (    2671)
        G-vector shells                 0.00 Mb     (     382)
     Largest temporary arrays     est. size (Mb)     dimensions
        Auxiliary wavefunctions         0.37 Mb     (     338,   72)
        Each subspace H/S matrix        0.08 Mb     (      72,   72)
        Each <psi_i|beta_j> matrix      0.01 Mb     (      36,   18)
        Arrays for rho mixing           1.22 Mb     (   10000,    8)

     Initial potential from superposition of free atoms

     starting charge   27.82674, renormalised to   28.00000
     Starting wfc are random

     total cpu time spent up to now is        1.1 secs

     Self-consistent Calculation

     iteration #  1     ecut=    80.00 Ry     beta=0.70
     Davidson diagonalization with overlap
     ethr =  1.00E-02,  avg # of iterations =  7.1

     Threshold (ethr) on eigenvalues was too large:
     Diagonalizing with lowered threshold

     Davidson diagonalization with overlap
     ethr =  1.20E-04,  avg # of iterations =  1.7

     total cpu time spent up to now is        9.6 secs

     total energy              =    -241.28520659 Ry
     Harris-Foulkes estimate   =    -241.29690945 Ry
     estimated scf accuracy    <       0.03364039 Ry

     iteration #  2     ecut=    80.00 Ry     beta=0.70
     Davidson diagonalization with overlap
     ethr =  1.20E-04,  avg # of iterations =  2.0

     total cpu time spent up to now is       12.0 secs

     total energy              =    -241.28921219 Ry
     Harris-Foulkes estimate   =    -241.28921351 Ry
     estimated scf accuracy    <       0.00170044 Ry

     iteration #  3     ecut=    80.00 Ry     beta=0.70
     Davidson diagonalization with overlap
     ethr =  6.07E-06,  avg # of iterations =  2.6

     total cpu time spent up to now is       14.3 secs

     total energy              =    -241.28935413 Ry
     Harris-Foulkes estimate   =    -241.28932441 Ry
     estimated scf accuracy    <       0.00007965 Ry

     iteration #  4     ecut=    80.00 Ry     beta=0.70
     Davidson diagonalization with overlap
     ethr =  2.84E-07,  avg # of iterations =  2.0

     total cpu time spent up to now is       16.3 secs

     total energy              =    -241.28935901 Ry
     Harris-Foulkes estimate   =    -241.28935827 Ry
     estimated scf accuracy    <       0.00000139 Ry

     iteration #  5     ecut=    80.00 Ry     beta=0.70
     Davidson diagonalization with overlap
     ethr =  4.96E-09,  avg # of iterations =  2.1

     total cpu time spent up to now is       18.5 secs

     End of self-consistent calculation

          k = 0.0000 0.0000 0.0000 (  5329 PWs)   bands (ev):

   -11.8415 -11.8415 -11.8415 -11.7665 -11.7665 -11.4299 -11.4299 -11.4299
   -11.4091 -11.4091  -0.8721   9.6843  10.1067  10.1067  10.1067  12.2000
    12.2000  12.2000

     occupation numbers 
     1.0000   1.0000   1.0000   1.0000   1.0000   1.0000   1.0000   1.0000
     1.0000   1.0000   1.0000   1.0000   0.0836   0.0836   0.0836   0.0000
     0.0000   0.0000

          k = 0.0707 0.0707-0.0707 (  5327 PWs)   bands (ev):

   -11.8494 -11.8494 -11.8388 -11.7552 -11.7552 -11.4442 -11.4442 -11.4333
   -11.3967 -11.3967  -0.7710   8.3270   9.8988   9.8988  10.7330  12.4653
    12.4653  12.6928

     occupation numbers 
     1.0000   1.0000   1.0000   1.0000   1.0000   1.0000   1.0000   1.0000
     1.0000   1.0000   1.0000   1.0000   1.0000   1.0000   0.0000   0.0000
     0.0000   0.0000

          k = 0.1414 0.1414-0.1414 (  5327 PWs)   bands (ev):

   -11.8632 -11.8632 -11.8315 -11.7333 -11.7333 -11.4636 -11.4636 -11.4426
   -11.3820 -11.3820  -0.4738   6.7113   9.5024   9.5024  10.6192  12.9495
    12.9495  13.9895

     occupation numbers 
     1.0000   1.0000   1.0000   1.0000   1.0000   1.0000   1.0000   1.0000
     1.0000   1.0000   1.0000   1.0000   1.0000   1.0000   0.0000   0.0000
     0.0000   0.0000

          k = 0.2121 0.2121-0.2121 (  5333 PWs)   bands (ev):

   -11.8738 -11.8738 -11.8223 -11.7140 -11.7140 -11.4779 -11.4779 -11.4544
   -11.3722 -11.3722  -0.0069   5.2377   9.1488   9.1488  10.3553  13.2423
    13.2423  15.4651

     occupation numbers 
     1.0000   1.0000   1.0000   1.0000   1.0000   1.0000   1.0000   1.0000
     1.0000   1.0000   1.0000   1.0000   1.0000   1.0000   0.0000   0.0000
     0.0000   0.0000

          k = 0.2828 0.2828-0.2828 (  5327 PWs)   bands (ev):

   -11.8795 -11.8795 -11.8145 -11.7027 -11.7027 -11.4850 -11.4850 -11.4642
   -11.3672 -11.3672   0.5365   4.0712   8.9194   8.9194  10.1698  13.2897
    13.2897  15.7956

     occupation numbers 
     1.0000   1.0000   1.0000   1.0000   1.0000   1.0000   1.0000   1.0000
     1.0000   1.0000   1.0000   1.0000   1.0000   1.0000   0.0000   0.0000
     0.0000   0.0000

          k =-0.3536-0.3536 0.3536 (  5342 PWs)   bands (ev):

   -11.8812 -11.8812 -11.8115 -11.6993 -11.6993 -11.4868 -11.4868 -11.4680
   -11.3658 -11.3658   0.8372   3.5600   8.8407   8.8407  10.1056  13.2769
    13.2769  15.6970

     occupation numbers 
     1.0000   1.0000   1.0000   1.0000   1.0000   1.0000   1.0000   1.0000
     1.0000   1.0000   1.0000   1.0000   1.0000   1.0000   0.4373   0.0000
     0.0000   0.0000

          k = 0.1414 0.0000 0.0000 (  5341 PWs)   bands (ev):

   -11.8477 -11.8477 -11.8472 -11.7575 -11.7438 -11.4705 -11.4208 -11.4208
   -11.4176 -11.3890  -0.7370   8.2527   9.5548   9.5548  11.4563  11.8225
    12.9197  12.9197

     occupation numbers 
     1.0000   1.0000   1.0000   1.0000   1.0000   1.0000   1.0000   1.0000
     1.0000   1.0000   1.0000   1.0000   1.0000   1.0000   0.0000   0.0000
     0.0000   0.0000

          k = 0.2121 0.0707-0.0707 (  5322 PWs)   bands (ev):

   -11.8645 -11.8579 -11.8381 -11.7417 -11.7200 -11.4971 -11.4410 -11.4221
   -11.3991 -11.3772  -0.5036   7.0441   9.1354   9.1517  11.5921  12.0125
    13.5093  13.8001

     occupation numbers 
     1.0000   1.0000   1.0000   1.0000   1.0000   1.0000   1.0000   1.0000
     1.0000   1.0000   1.0000   1.0000   1.0000   1.0000   0.0000   0.0000
     0.0000   0.0000

          k = 0.2828 0.1414-0.1414 (  5338 PWs)   bands (ev):

   -11.8803 -11.8695 -11.8230 -11.7213 -11.6980 -11.5154 -11.4613 -11.4379
   -11.3831 -11.3634  -0.0882   5.6322   8.6926   8.8105  11.3203  12.5975
    13.8535  14.5481

     occupation numbers 
     1.0000   1.0000   1.0000   1.0000   1.0000   1.0000   1.0000   1.0000
     1.0000   1.0000   1.0000   1.0000   1.0000   1.0000   0.0000   0.0000
     0.0000   0.0000

          k = 0.3536 0.2121-0.2121 (  5353 PWs)   bands (ev):

   -11.8907 -11.8781 -11.8067 -11.7039 -11.6869 -11.5197 -11.4786 -11.4581
   -11.3713 -11.3538   0.4496   4.3898   8.3038   8.6406  11.0708  12.9431
    13.8359  15.3523

     occupation numbers 
     1.0000   1.0000   1.0000   1.0000   1.0000   1.0000   1.0000   1.0000
     1.0000   1.0000   1.0000   1.0000   1.0000   1.0000   0.0000   0.0000
     0.0000   0.0000

          k =-0.2828-0.4243 0.4243 (  5349 PWs)   bands (ev):

   -11.8947 -11.8835 -11.7955 -11.6915 -11.6887 -11.5089 -11.4932 -11.4751
   -11.3629 -11.3510   0.8907   3.6184   8.0537   8.6434  10.9311  13.0810
    13.6670  16.0371

     occupation numbers 
     1.0000   1.0000   1.0000   1.0000   1.0000   1.0000   1.0000   1.0000
     1.0000   1.0000   1.0000   1.0000   1.0000   1.0000   0.0000   0.0000
     0.0000   0.0000

          k =-0.2121-0.3536 0.3536 (  5342 PWs)   bands (ev):

   -11.8922 -11.8856 -11.7949 -11.6985 -11.6858 -11.5034 -11.4875 -11.4838
   -11.3584 -11.3557   0.7802   3.7970   7.9718   8.8146  10.9209  13.2338
    13.4953  16.1206

     occupation numbers 
     1.0000   1.0000   1.0000   1.0000   1.0000   1.0000   1.0000   1.0000
     1.0000   1.0000   1.0000   1.0000   1.0000   1.0000   0.0000   0.0000
     0.0000   0.0000

          k =-0.1414-0.2828 0.2828 (  5361 PWs)   bands (ev):

   -11.8836 -11.8832 -11.8056 -11.7119 -11.6912 -11.5039 -11.4838 -11.4598
   -11.3678 -11.3587   0.2620   4.7751   8.0785   9.1305  11.0320  13.2905
    13.3925  15.3880

     occupation numbers 
     1.0000   1.0000   1.0000   1.0000   1.0000   1.0000   1.0000   1.0000
     1.0000   1.0000   1.0000   1.0000   1.0000   1.0000   0.0000   0.0000
     0.0000   0.0000

          k =-0.0707-0.2121 0.2121 (  5336 PWs)   bands (ev):

   -11.8753 -11.8698 -11.8218 -11.7284 -11.7094 -11.4915 -11.4744 -11.4326
   -11.3867 -11.3653  -0.2466   6.0857   8.4021   9.5339  11.2096  12.9245
    13.2095  14.4355

     occupation numbers 
     1.0000   1.0000   1.0000   1.0000   1.0000   1.0000   1.0000   1.0000
     1.0000   1.0000   1.0000   1.0000   1.0000   1.0000   0.0000   0.0000
     0.0000   0.0000

          k = 0.0000-0.1414 0.1414 (  5322 PWs)   bands (ev):

   -11.8623 -11.8545 -11.8355 -11.7461 -11.7346 -11.4696 -11.4579 -11.4113
   -11.4104 -11.3783  -0.6040   7.4186   9.0228   9.8814  11.1950  12.5050
    12.6435  13.6536

     occupation numbers 
     1.0000   1.0000   1.0000   1.0000   1.0000   1.0000   1.0000   1.0000
     1.0000   1.0000   1.0000   1.0000   1.0000   1.0000   0.0000   0.0000
     0.0000   0.0000

          k = 0.2828 0.0000 0.0000 (  5337 PWs)   bands (ev):

   -11.8630 -11.8630 -11.8483 -11.7316 -11.6929 -11.5347 -11.4424 -11.3980
   -11.3980 -11.3840  -0.3340   6.6570   8.7030   8.7030  11.2139  12.3734
    14.2619  14.2619

     occupation numbers 
     1.0000   1.0000   1.0000   1.0000   1.0000   1.0000   1.0000   1.0000
     1.0000   1.0000   1.0000   1.0000   1.0000   1.0000   0.0000   0.0000
     0.0000   0.0000

          k = 0.3536 0.0707-0.0707 (  5353 PWs)   bands (ev):

   -11.8807 -11.8728 -11.8311 -11.7117 -11.6654 -11.5644 -11.4633 -11.4135
   -11.3823 -11.3664   0.0249   5.6674   8.1956   8.3698  11.3196  12.3783
    14.4628  14.8130

     occupation numbers 
     1.0000   1.0000   1.0000   1.0000   1.0000   1.0000   1.0000   1.0000
     1.0000   1.0000   1.0000   1.0000   1.0000   1.0000   0.0000   0.0000
     0.0000   0.0000

          k = 0.4243 0.1414-0.1414 (  5327 PWs)   bands (ev):

   -11.8989 -11.8820 -11.8034 -11.6902 -11.6493 -11.5779 -11.4869 -11.4448
   -11.3676 -11.3456   0.5358   4.5664   7.6189   8.2015  11.4452  12.9199
    14.3138  14.8888

     occupation numbers 
     1.0000   1.0000   1.0000   1.0000   1.0000   1.0000   1.0000   1.0000
     1.0000   1.0000   1.0000   1.0000   1.0000   1.0000   0.0000   0.0000
     0.0000   0.0000

          k =-0.2121-0.4950 0.4950 (  5355 PWs)   bands (ev):

   -11.9105 -11.8887 -11.7778 -11.6710 -11.6527 -11.5694 -11.5099 -11.4738
   -11.3564 -11.3331   1.0591   3.6917   7.1804   8.2196  11.4090  13.4945
    14.6606  14.8641

     occupation numbers 
     1.0000   1.0000   1.0000   1.0000   1.0000   1.0000   1.0000   1.0000
     1.0000   1.0000   1.0000   1.0000   1.0000   1.0000   0.0000   0.0000
     0.0000   0.0000

          k =-0.1414-0.4243 0.4243 (  5348 PWs)   bands (ev):

   -11.9127 -11.8925 -11.7654 -11.6721 -11.6581 -11.5429 -11.5282 -11.4896
   -11.3497 -11.3318   1.1563   3.5518   6.9569   8.4204  11.4565  13.6222
    14.3507  16.0642

     occupation numbers 
     1.0000   1.0000   1.0000   1.0000   1.0000   1.0000   1.0000   1.0000
     1.0000   1.0000   1.0000   1.0000   1.0000   1.0000   0.0000   0.0000
     0.0000   0.0000

          k =-0.0707-0.3536 0.3536 (  5338 PWs)   bands (ev):

   -11.9048 -11.8920 -11.7727 -11.6965 -11.6603 -11.5323 -11.5086 -11.4869
   -11.3485 -11.3430   0.6974   4.2667   7.0070   8.7740  11.5888  13.7812
    13.9590  15.1411

     occupation numbers 
     1.0000   1.0000   1.0000   1.0000   1.0000   1.0000   1.0000   1.0000
     1.0000   1.0000   1.0000   1.0000   1.0000   1.0000   0.0000   0.0000
     0.0000   0.0000

          k = 0.0000-0.2828 0.2828 (  5342 PWs)   bands (ev):

   -11.8885 -11.8861 -11.7968 -11.7151 -11.6810 -11.5173 -11.4904 -11.4565
   -11.3649 -11.3537   0.1618   5.2437   7.4443   9.2044  11.6457  13.4051
    13.6765  14.3154

     occupation numbers 
     1.0000   1.0000   1.0000   1.0000   1.0000   1.0000   1.0000   1.0000
     1.0000   1.0000   1.0000   1.0000   1.0000   1.0000   0.0000   0.0000
     0.0000   0.0000

          k = 0.4243 0.0000 0.0000 (  5373 PWs)   bands (ev):

   -11.8803 -11.8803 -11.8326 -11.6913 -11.6295 -11.6073 -11.4813 -11.4023
   -11.3715 -11.3715   0.3285   5.1165   8.0107   8.0107  10.7834  11.9861
    15.7385  15.7385

     occupation numbers 
     1.0000   1.0000   1.0000   1.0000   1.0000   1.0000   1.0000   1.0000
     1.0000   1.0000   1.0000   1.0000   1.0000   1.0000   0.0000   0.0000
     0.0000   0.0000

          k = 0.4950 0.0707-0.0707 (  5341 PWs)   bands (ev):

   -11.8956 -11.8879 -11.8067 -11.6673 -11.6362 -11.6018 -11.5059 -11.4336
   -11.3593 -11.3498   0.8005   4.2953   7.5110   7.8128  10.9726  11.9131
    15.6647  16.1505

     occupation numbers 
     1.0000   1.0000   1.0000   1.0000   1.0000   1.0000   1.0000   1.0000
     1.0000   1.0000   1.0000   1.0000   1.0000   1.0000   0.0000   0.0000
     0.0000   0.0000

          k =-0.1414-0.5657 0.5657 (  5336 PWs)   bands (ev):

   -11.9131 -11.8937 -11.7711 -11.6436 -11.6430 -11.5928 -11.5326 -11.4723
   -11.3497 -11.3293   1.3583   3.5085   6.8824   7.8054  11.1272  12.8166
    15.3481  15.9821

     occupation numbers 
     1.0000   1.0000   1.0000   1.0000   1.0000   1.0000   1.0000   1.0000
     1.0000   1.0000   1.0000   1.0000   1.0000   1.0000   0.0000   0.0000
     0.0000   0.0000

          k =-0.0707-0.4950 0.4950 (  5351 PWs)   bands (ev):

   -11.9225 -11.8970 -11.7499 -11.6258 -11.6247 -11.6078 -11.5554 -11.4939
   -11.3441 -11.3194   1.6333   3.1781   6.4718   7.9890  11.2531  14.2593
    15.1692  15.5439

     occupation numbers 
     1.0000   1.0000   1.0000   1.0000   1.0000   1.0000   1.0000   1.0000
     1.0000   1.0000   1.0000   1.0000   1.0000   1.0000   0.0000   0.0000
     0.0000   0.0000

          k =-0.0000-0.4243 0.4243 (  5334 PWs)   bands (ev):

   -11.9198 -11.8967 -11.7510 -11.6620 -11.6319 -11.5623 -11.5552 -11.4957
   -11.3435 -11.3240   1.2386   3.6460   6.4620   8.3365  11.4760  14.8488
    14.8498  15.1200

     occupation numbers 
     1.0000   1.0000   1.0000   1.0000   1.0000   1.0000   1.0000   1.0000
     1.0000   1.0000   1.0000   1.0000   1.0000   1.0000   0.0000   0.0000
     0.0000   0.0000

          k = 0.5657 0.0000 0.0000 (  5338 PWs)   bands (ev):

   -11.8932 -11.8932 -11.7979 -11.6801 -11.6410 -11.5618 -11.5305 -11.4416
   -11.3510 -11.3510   1.2350   3.6692   7.5740   7.5740  10.6350  11.2784
    17.1904  17.1904

     occupation numbers 
     1.0000   1.0000   1.0000   1.0000   1.0000   1.0000   1.0000   1.0000
     1.0000   1.0000   1.0000   1.0000   1.0000   1.0000   0.0000   0.0000
     0.0000   0.0000

          k =-0.0707-0.6364 0.6364 (  5353 PWs)   bands (ev):

   -11.9045 -11.8969 -11.7647 -11.7034 -11.6143 -11.5582 -11.5383 -11.4770
   -11.3450 -11.3372   1.7967   2.9873   7.1619   7.5238  10.8563  11.4464
    17.0734  17.3480

     occupation numbers 
     1.0000   1.0000   1.0000   1.0000   1.0000   1.0000   1.0000   1.0000
     1.0000   1.0000   1.0000   1.0000   1.0000   1.0000   0.0000   0.0000
     0.0000   0.0000

          k = 0.0000-0.5657 0.5657 (  5332 PWs)   bands (ev):

   -11.9184 -11.8984 -11.7443 -11.6792 -11.5978 -11.5781 -11.5601 -11.4976
   -11.3425 -11.3227   2.1084   2.6817   6.6261   7.6692  10.9998  12.6844
    16.4716  16.6992

     occupation numbers 
     1.0000   1.0000   1.0000   1.0000   1.0000   1.0000   1.0000   1.0000
     1.0000   1.0000   1.0000   1.0000   1.0000   1.0000   0.0000   0.0000
     0.0000   0.0000

          k =-0.7071 0.0000 0.0000 (  5346 PWs)   bands (ev):

   -11.8980 -11.8980 -11.7457 -11.7457 -11.5857 -11.5854 -11.4969 -11.4968
   -11.3433 -11.3433   2.3605   2.3605   7.4254   7.4254  10.7998  10.7998
    18.0588  18.0589

     occupation numbers 
     1.0000   1.0000   1.0000   1.0000   1.0000   1.0000   1.0000   1.0000
     1.0000   1.0000   1.0000   1.0000   1.0000   1.0000   0.0000   0.0000
     0.0000   0.0000

          k = 0.2828 0.1414 0.0000 (  5337 PWs)   bands (ev):

   -11.8758 -11.8708 -11.8266 -11.7263 -11.6940 -11.5256 -11.4571 -11.4243
   -11.3881 -11.3660  -0.2084   6.1573   8.2063   9.0727  11.9781  12.0268
    14.0263  14.1385

     occupation numbers 
     1.0000   1.0000   1.0000   1.0000   1.0000   1.0000   1.0000   1.0000
     1.0000   1.0000   1.0000   1.0000   1.0000   1.0000   0.0000   0.0000
     0.0000   0.0000

          k = 0.3536 0.2121-0.0707 (  5346 PWs)   bands (ev):

   -11.8909 -11.8833 -11.8030 -11.7078 -11.6715 -11.5444 -11.4751 -11.4533
   -11.3668 -11.3531   0.2566   5.0324   7.6328   8.7482  11.8560  12.6631
    14.0956  14.5710

     occupation numbers 
     1.0000   1.0000   1.0000   1.0000   1.0000   1.0000   1.0000   1.0000
     1.0000   1.0000   1.0000   1.0000   1.0000   1.0000   0.0000   0.0000
     0.0000   0.0000

          k =-0.2828-0.4243 0.5657 (  5358 PWs)   bands (ev):

   -11.9035 -11.8893 -11.7811 -11.6900 -11.6627 -11.5467 -11.4937 -11.4810
   -11.3555 -11.3415   0.8038   4.0021   7.3544   8.4571  11.7031  12.9572
    14.3074  15.2368

     occupation numbers 
     1.0000   1.0000   1.0000   1.0000   1.0000   1.0000   1.0000   1.0000
     1.0000   1.0000   1.0000   1.0000   1.0000   1.0000   0.0000   0.0000
     0.0000   0.0000

          k =-0.2121-0.3536 0.4950 (  5340 PWs)   bands (ev):

   -11.9081 -11.8911 -11.7722 -11.6784 -11.6659 -11.5389 -11.5119 -11.4877
   -11.3526 -11.3366   1.1137   3.5196   7.2728   8.3459  11.6462  12.9642
    14.3689  16.1167

     occupation numbers 
     1.0000   1.0000   1.0000   1.0000   1.0000   1.0000   1.0000   1.0000
     1.0000   1.0000   1.0000   1.0000   1.0000   1.0000   0.0000   0.0000
     0.0000   0.0000

          k = 0.4243 0.1414-0.0000 (  5354 PWs)   bands (ev):

   -11.8890 -11.8887 -11.8099 -11.6908 -11.6372 -11.5943 -11.4846 -11.4354
   -11.3617 -11.3556   0.4383   4.8663   7.5696   8.1416  11.5275  12.3117
    14.4036  15.6304

     occupation numbers 
     1.0000   1.0000   1.0000   1.0000   1.0000   1.0000   1.0000   1.0000
     1.0000   1.0000   1.0000   1.0000   1.0000   1.0000   0.0000   0.0000
     0.0000   0.0000

          k =-0.2121-0.4950 0.6364 (  5342 PWs)   bands (ev):

   -11.9073 -11.8952 -11.7764 -11.6691 -11.6230 -11.6054 -11.5099 -11.4711
   -11.3492 -11.3365   0.9797   3.9908   7.0502   7.8874  11.8054  12.9325
    14.1009  15.9401

     occupation numbers 
     1.0000   1.0000   1.0000   1.0000   1.0000   1.0000   1.0000   1.0000
     1.0000   1.0000   1.0000   1.0000   1.0000   1.0000   0.0000   0.0000
     0.0000   0.0000

          k =-0.1414-0.4243 0.5657 (  5341 PWs)   bands (ev):

   -11.9181 -11.8988 -11.7514 -11.6523 -11.6265 -11.5960 -11.5353 -11.4950
   -11.3434 -11.3243   1.4364   3.3664   6.7127   7.8413  11.8838  13.5660
    14.5664  15.6874

     occupation numbers 
     1.0000   1.0000   1.0000   1.0000   1.0000   1.0000   1.0000   1.0000
     1.0000   1.0000   1.0000   1.0000   1.0000   1.0000   0.0000   0.0000
     0.0000   0.0000

          k =-0.0707-0.3536 0.4950 (  5339 PWs)   bands (ev):

   -11.9176 -11.8992 -11.7493 -11.6632 -11.6296 -11.5811 -11.5353 -11.4986
   -11.3420 -11.3258   1.2915   3.5556   6.6231   8.0339  12.0468  13.4778
    14.7264  15.6882

     occupation numbers 
     1.0000   1.0000   1.0000   1.0000   1.0000   1.0000   1.0000   1.0000
     1.0000   1.0000   1.0000   1.0000   1.0000   1.0000   0.0000   0.0000
     0.0000   0.0000

          k = 0.0000-0.2828 0.4243 (  5331 PWs)   bands (ev):

   -11.9059 -11.8954 -11.7709 -11.6889 -11.6439 -11.5681 -11.4959 -11.4891
   -11.3455 -11.3412   0.7553   4.2946   6.8925   8.3932  12.2098  13.1070
    13.9432  15.3498

     occupation numbers 
     1.0000   1.0000   1.0000   1.0000   1.0000   1.0000   1.0000   1.0000
     1.0000   1.0000   1.0000   1.0000   1.0000   1.0000   0.0000   0.0000
     0.0000   0.0000

          k =-0.1414-0.5657 0.7071 (  5352 PWs)   bands (ev):

   -11.9015 -11.9005 -11.7764 -11.6636 -11.6422 -11.5749 -11.5322 -11.4655
   -11.3422 -11.3422   1.3145   3.5897   7.2135   7.4878  11.3315  11.8093
    15.5710  17.0762

     occupation numbers 
     1.0000   1.0000   1.0000   1.0000   1.0000   1.0000   1.0000   1.0000
     1.0000   1.0000   1.0000   1.0000   1.0000   1.0000   0.0000   0.0000
     0.0000   0.0000

          k =-0.0707-0.4950 0.6364 (  5340 PWs)   bands (ev):

   -11.9165 -11.9037 -11.7392 -11.6674 -11.6185 -11.5693 -11.5602 -11.5022
   -11.3376 -11.3248   1.8592   2.9678   6.7274   7.4150  11.6071  12.7723
    15.2155  16.4593

     occupation numbers 
     1.0000   1.0000   1.0000   1.0000   1.0000   1.0000   1.0000   1.0000
     1.0000   1.0000   1.0000   1.0000   1.0000   1.0000   0.0000   0.0000
     0.0000   0.0000

          k =-0.0000-0.4243 0.5657 (  5355 PWs)   bands (ev):

   -11.9232 -11.9035 -11.7324 -11.6293 -11.6222 -11.5958 -11.5700 -11.5079
   -11.3372 -11.3182   1.8187   3.0221   6.4315   7.6361  11.8107  14.2932
    14.9377  14.9779

     occupation numbers 
     1.0000   1.0000   1.0000   1.0000   1.0000   1.0000   1.0000   1.0000
     1.0000   1.0000   1.0000   1.0000   1.0000   1.0000   0.0000   0.0000
     0.0000   0.0000

          k =-0.7071 0.1414 0.0000 (  5358 PWs)   bands (ev):

   -11.9055 -11.9055 -11.7263 -11.7263 -11.5872 -11.5869 -11.5150 -11.5149
   -11.3355 -11.3355   2.3833   2.3833   7.1785   7.1785  11.4273  11.4273
    16.8879  16.8879

     occupation numbers 
     1.0000   1.0000   1.0000   1.0000   1.0000   1.0000   1.0000   1.0000
     1.0000   1.0000   1.0000   1.0000   1.0000   1.0000   0.0000   0.0000
     0.0000   0.0000

          k =-0.1414-0.4243 0.7071 (  5354 PWs)   bands (ev):

   -11.9160 -11.9070 -11.7378 -11.6452 -11.6309 -11.5946 -11.5428 -11.5056
   -11.3342 -11.3265   1.5303   3.3556   6.6747   7.4613  12.8834  12.9488
    13.7649  16.1957

     occupation numbers 
     1.0000   1.0000   1.0000   1.0000   1.0000   1.0000   1.0000   1.0000
     1.0000   1.0000   1.0000   1.0000   1.0000   1.0000   0.0000   0.0000
     0.0000   0.0000

          k =-0.0707-0.3536 0.6364 (  5342 PWs)   bands (ev):

   -11.9209 -11.9098 -11.7172 -11.6425 -11.6232 -11.5888 -11.5649 -11.5208
   -11.3311 -11.3203   1.9016   2.9510   6.5672   7.2691  12.9574  13.3965
    14.5036  14.7240

     occupation numbers 
     1.0000   1.0000   1.0000   1.0000   1.0000   1.0000   1.0000   1.0000
     1.0000   1.0000   1.0000   1.0000   1.0000   1.0000   0.0000   0.0000
     0.0000   0.0000

          k =-0.7071 0.2828 0.0000 (  5356 PWs)   bands (ev):

   -11.9158 -11.9158 -11.6899 -11.6898 -11.5945 -11.5942 -11.5446 -11.5444
   -11.3250 -11.3250   2.4216   2.4216   6.8559   6.8559  12.8895  12.8895
    14.8612  14.8612

     occupation numbers 
     1.0000   1.0000   1.0000   1.0000   1.0000   1.0000   1.0000   1.0000
     1.0000   1.0000   1.0000   1.0000   1.0000   1.0000   0.0000   0.0000
     0.0000   0.0000

     the Fermi energy is    10.1054 ev

!    total energy              =    -241.28935936 Ry
     Harris-Foulkes estimate   =    -241.28935933 Ry
     estimated scf accuracy    <       0.00000005 Ry

     The total energy is the sum of the following terms:

     one-electron contribution =     -98.69395945 Ry
     hartree contribution      =      61.53093239 Ry
     xc contribution           =     -29.52887344 Ry
     ewald contribution        =    -174.59745857 Ry
     smearing contrib. (-TS)   =      -0.00000029 Ry

     convergence has been achieved in   5 iterations

     Writing output data file Sn.save
 
     init_run     :      0.86s CPU      1.00s WALL (       1 calls)
     electrons    :     15.84s CPU     17.50s WALL (       1 calls)

     Called by init_run:
     wfcinit      :      0.68s CPU      0.77s WALL (       1 calls)
     potinit      :      0.02s CPU      0.02s WALL (       1 calls)

     Called by electrons:
     c_bands      :     14.03s CPU     15.54s WALL (       6 calls)
     sum_band     :      1.73s CPU      1.86s WALL (       6 calls)
     v_of_rho     :      0.07s CPU      0.07s WALL (       6 calls)
     v_h          :      0.01s CPU      0.01s WALL (       6 calls)
     v_xc         :      0.06s CPU      0.07s WALL (       6 calls)
     mix_rho      :      0.01s CPU      0.01s WALL (       6 calls)

     Called by c_bands:
     init_us_2    :      0.11s CPU      0.12s WALL (     611 calls)
     cegterg      :     13.44s CPU     14.92s WALL (     282 calls)

     Called by sum_band:

     Called by *egterg:
     h_psi        :     11.11s CPU     12.57s WALL (    1152 calls)
     g_psi        :      0.05s CPU      0.05s WALL (     823 calls)
     cdiaghg      :      1.12s CPU      1.13s WALL (    1058 calls)
     cegterg:over :      0.75s CPU      0.77s WALL (     823 calls)
     cegterg:upda :      0.27s CPU      0.28s WALL (     823 calls)
     cegterg:last :      0.16s CPU      0.16s WALL (     347 calls)

     Called by h_psi:
     h_psi:vloc   :     10.30s CPU     11.70s WALL (    1152 calls)
     h_psi:vnl    :      0.77s CPU      0.83s WALL (    1152 calls)
     add_vuspsi   :      0.28s CPU      0.30s WALL (    1152 calls)

     General routines
     calbec       :      0.48s CPU      0.53s WALL (    1152 calls)
     fft          :      0.06s CPU      0.06s WALL (      67 calls)
     fftw         :     10.82s CPU     12.21s WALL (   37672 calls)
     davcio       :      0.00s CPU      0.03s WALL (      47 calls)
 
     Parallel routines
     fft_scatter  :      4.71s CPU      5.34s WALL (   37739 calls)
 
     PWSCF        :    16.86s CPU        18.78s WALL

 
   This run was terminated on:   7:10:14  28Feb2020            

=------------------------------------------------------------------------------=
   JOB DONE.
=------------------------------------------------------------------------------=
