
     Program PWSCF v.5.4.0 starts on 16Mar2020 at 22:54:40 

     This program is part of the open-source Quantum ESPRESSO suite
     for quantum simulation of materials; please cite
         "P. Giannozzi et al., J. Phys.:Condens. Matter 21 395502 (2009);
          URL http://www.quantum-espresso.org", 
     in publications or presentations arising from this work. More details at
     http://www.quantum-espresso.org/quote

     Parallel version (MPI & OpenMP), running on      16 processor cores
     Number of MPI processes:                16
     Threads/MPI process:                     1
     R & G space division:  proc/nbgrp/npool/nimage =      16
     Waiting for input...
     Reading input from standard input
Warning: card &IONS ignored
Warning: card / ignored
Warning: card &CELL ignored
Warning: card / ignored

     Current dimensions of program PWSCF are:
     Max number of different atomic species (ntypx) = 10
     Max number of k-points (npk) =  40000
     Max angular momentum in pseudopotentials (lmaxx) =  3
               file Sn.pbe-dn-rrkjus_psl.1.0.0.UPF: wavefunction(s)  5S 4D renormalized
     Message from routine setup:
     At least one non s.o. pseudo

     Subspace diagonalization in iterative solution of the eigenvalue problem:
     a serial algorithm will be used

 
     Parallelization info
     --------------------
     sticks:   dense  smooth     PW     G-vecs:    dense   smooth      PW
     Min         109     109     31                 3022     3022     473
     Max         111     111     32                 3024     3024     477
     Sum        1759    1759    511                48359    48359    7583
 

     Title: 
     Sn                                                                         


     bravais-lattice index     =            0
     lattice parameter (alat)  =       8.9127  a.u.
     unit-cell volume          =     500.6268 (a.u.)^3
     number of atoms/cell      =            2
     number of atomic types    =            1
     number of electrons       =        28.00
     number of Kohn-Sham states=           36
     kinetic-energy cutoff     =      80.0000  Ry
     charge density cutoff     =     320.0000  Ry
     convergence threshold     =      1.0E-06
     mixing beta               =       0.7000
     number of iterations used =            8  plain     mixing
     Exchange-correlation      = PBE ( 1  4  3  4 0 0)
     Non magnetic calculation with spin-orbit


     celldm(1)=   8.912709  celldm(2)=   0.000000  celldm(3)=   0.000000
     celldm(4)=   0.000000  celldm(5)=   0.000000  celldm(6)=   0.000000

     crystal axes: (cart. coord. in units of alat)
               a(1) = (   0.000000   0.707107   0.707107 )  
               a(2) = (   0.707107   0.000000   0.707107 )  
               a(3) = (   0.707107   0.707107   0.000000 )  

     reciprocal axes: (cart. coord. in units 2 pi/alat)
               b(1) = ( -0.707107  0.707107  0.707107 )  
               b(2) = (  0.707107 -0.707107  0.707107 )  
               b(3) = (  0.707107  0.707107 -0.707107 )  


     PseudoPot. # 1 for Sn read from file:
     ../PseudopotentialDatabase/Sn.pbe-dn-rrkjus_psl.1.0.0.UPF
     MD5 check sum: 72e22d5a9e1ec4fde6a02e1f963898e9
     Pseudo is Ultrasoft + core correction, Zval = 14.0
     Generated using "atomic" code by A. Dal Corso  v.6.3
     Using radial grid of 1243 points,  6 beta functions with: 
                l(1) =   0
                l(2) =   0
                l(3) =   1
                l(4) =   1
                l(5) =   2
                l(6) =   2
     Q(r) pseudized with 0 coefficients 


     atomic species   valence    mass     pseudopotential
        Sn            14.00   118.71000     Sn( 1.00)

     24 Sym. Ops. (no inversion) found
          (note: 24 additional sym.ops. were found but ignored
           their fractional translations are incommensurate with FFT grid)

                                    s                        frac. trans.

      isym =  1     identity                                     

 cryst.   s( 1) = (     1          0          0      )
                  (     0          1          0      )
                  (     0          0          1      )

 cart.    s( 1) = (  1.0000000  0.0000000  0.0000000 )
                  (  0.0000000  1.0000000  0.0000000 )
                  (  0.0000000  0.0000000  1.0000000 )


      isym =  2     180 deg rotation - cart. axis [0,0,1]        

 cryst.   s( 2) = (     0          1         -1      )
                  (     1          0         -1      )
                  (     0          0         -1      )

 cart.    s( 2) = ( -1.0000000  0.0000000  0.0000000 )
                  (  0.0000000 -1.0000000  0.0000000 )
                  (  0.0000000  0.0000000  1.0000000 )


      isym =  3     180 deg rotation - cart. axis [0,1,0]        

 cryst.   s( 3) = (     0         -1          1      )
                  (     0         -1          0      )
                  (     1         -1          0      )

 cart.    s( 3) = ( -1.0000000  0.0000000  0.0000000 )
                  (  0.0000000  1.0000000  0.0000000 )
                  (  0.0000000  0.0000000 -1.0000000 )


      isym =  4     180 deg rotation - cart. axis [1,0,0]        

 cryst.   s( 4) = (    -1          0          0      )
                  (    -1          0          1      )
                  (    -1          1          0      )

 cart.    s( 4) = (  1.0000000  0.0000000  0.0000000 )
                  (  0.0000000 -1.0000000  0.0000000 )
                  (  0.0000000  0.0000000 -1.0000000 )


      isym =  5     120 deg rotation - cart. axis [-1,-1,-1]     

 cryst.   s( 5) = (     0          0          1      )
                  (     1          0          0      )
                  (     0          1          0      )

 cart.    s( 5) = (  0.0000000  1.0000000  0.0000000 )
                  (  0.0000000  0.0000000  1.0000000 )
                  (  1.0000000  0.0000000  0.0000000 )


      isym =  6     120 deg rotation - cart. axis [-1,1,1]       

 cryst.   s( 6) = (     1         -1          0      )
                  (     0         -1          1      )
                  (     0         -1          0      )

 cart.    s( 6) = (  0.0000000 -1.0000000  0.0000000 )
                  (  0.0000000  0.0000000  1.0000000 )
                  ( -1.0000000  0.0000000  0.0000000 )


      isym =  7     120 deg rotation - cart. axis [1,1,-1]       

 cryst.   s( 7) = (    -1          1          0      )
                  (    -1          0          0      )
                  (    -1          0          1      )

 cart.    s( 7) = (  0.0000000  1.0000000  0.0000000 )
                  (  0.0000000  0.0000000 -1.0000000 )
                  ( -1.0000000  0.0000000  0.0000000 )


      isym =  8     120 deg rotation - cart. axis [1,-1,1]       

 cryst.   s( 8) = (     0          0         -1      )
                  (     0          1         -1      )
                  (     1          0         -1      )

 cart.    s( 8) = (  0.0000000 -1.0000000  0.0000000 )
                  (  0.0000000  0.0000000 -1.0000000 )
                  (  1.0000000  0.0000000  0.0000000 )


      isym =  9     120 deg rotation - cart. axis [1,1,1]        

 cryst.   s( 9) = (     0          1          0      )
                  (     0          0          1      )
                  (     1          0          0      )

 cart.    s( 9) = (  0.0000000  0.0000000  1.0000000 )
                  (  1.0000000  0.0000000  0.0000000 )
                  (  0.0000000  1.0000000  0.0000000 )


      isym = 10     120 deg rotation - cart. axis [-1,1,-1]      

 cryst.   s(10) = (    -1          0          1      )
                  (    -1          1          0      )
                  (    -1          0          0      )

 cart.    s(10) = (  0.0000000  0.0000000  1.0000000 )
                  ( -1.0000000  0.0000000  0.0000000 )
                  (  0.0000000 -1.0000000  0.0000000 )


      isym = 11     120 deg rotation - cart. axis [1,-1,-1]      

 cryst.   s(11) = (     1          0         -1      )
                  (     0          0         -1      )
                  (     0          1         -1      )

 cart.    s(11) = (  0.0000000  0.0000000 -1.0000000 )
                  ( -1.0000000  0.0000000  0.0000000 )
                  (  0.0000000  1.0000000  0.0000000 )


      isym = 12     120 deg rotation - cart. axis [-1,-1,1]      

 cryst.   s(12) = (     0         -1          0      )
                  (     1         -1          0      )
                  (     0         -1          1      )

 cart.    s(12) = (  0.0000000  0.0000000 -1.0000000 )
                  (  1.0000000  0.0000000  0.0000000 )
                  (  0.0000000 -1.0000000  0.0000000 )


      isym = 13     inv. 180 deg rotation - cart. axis [1,1,0]   

 cryst.   s(13) = (     1          0         -1      )
                  (     0          1         -1      )
                  (     0          0         -1      )

 cart.    s(13) = (  0.0000000 -1.0000000  0.0000000 )
                  ( -1.0000000  0.0000000  0.0000000 )
                  (  0.0000000  0.0000000  1.0000000 )


      isym = 14     inv. 180 deg rotation - cart. axis [1,-1,0]  

 cryst.   s(14) = (     0          1          0      )
                  (     1          0          0      )
                  (     0          0          1      )

 cart.    s(14) = (  0.0000000  1.0000000  0.0000000 )
                  (  1.0000000  0.0000000  0.0000000 )
                  (  0.0000000  0.0000000  1.0000000 )


      isym = 15     inv.  90 deg rotation - cart. axis [0,0,-1]  

 cryst.   s(15) = (     0         -1          0      )
                  (     0         -1          1      )
                  (     1         -1          0      )

 cart.    s(15) = (  0.0000000 -1.0000000  0.0000000 )
                  (  1.0000000  0.0000000  0.0000000 )
                  (  0.0000000  0.0000000 -1.0000000 )


      isym = 16     inv.  90 deg rotation - cart. axis [0,0,1]   

 cryst.   s(16) = (    -1          0          1      )
                  (    -1          0          0      )
                  (    -1          1          0      )

 cart.    s(16) = (  0.0000000  1.0000000  0.0000000 )
                  ( -1.0000000  0.0000000  0.0000000 )
                  (  0.0000000  0.0000000 -1.0000000 )


      isym = 17     inv. 180 deg rotation - cart. axis [1,0,1]   

 cryst.   s(17) = (     1         -1          0      )
                  (     0         -1          0      )
                  (     0         -1          1      )

 cart.    s(17) = (  0.0000000  0.0000000 -1.0000000 )
                  (  0.0000000  1.0000000  0.0000000 )
                  ( -1.0000000  0.0000000  0.0000000 )


      isym = 18     inv. 180 deg rotation - cart. axis [-1,0,1]  

 cryst.   s(18) = (     0          0          1      )
                  (     0          1          0      )
                  (     1          0          0      )

 cart.    s(18) = (  0.0000000  0.0000000  1.0000000 )
                  (  0.0000000  1.0000000  0.0000000 )
                  (  1.0000000  0.0000000  0.0000000 )


      isym = 19     inv.  90 deg rotation - cart. axis [0,1,0]   

 cryst.   s(19) = (     0          0         -1      )
                  (     1          0         -1      )
                  (     0          1         -1      )

 cart.    s(19) = (  0.0000000  0.0000000 -1.0000000 )
                  (  0.0000000 -1.0000000  0.0000000 )
                  (  1.0000000  0.0000000  0.0000000 )


      isym = 20     inv.  90 deg rotation - cart. axis [0,-1,0]  

 cryst.   s(20) = (    -1          1          0      )
                  (    -1          0          1      )
                  (    -1          0          0      )

 cart.    s(20) = (  0.0000000  0.0000000  1.0000000 )
                  (  0.0000000 -1.0000000  0.0000000 )
                  ( -1.0000000  0.0000000  0.0000000 )


      isym = 21     inv. 180 deg rotation - cart. axis [0,1,1]   

 cryst.   s(21) = (    -1          0          0      )
                  (    -1          1          0      )
                  (    -1          0          1      )

 cart.    s(21) = (  1.0000000  0.0000000  0.0000000 )
                  (  0.0000000  0.0000000 -1.0000000 )
                  (  0.0000000 -1.0000000  0.0000000 )


      isym = 22     inv. 180 deg rotation - cart. axis [0,1,-1]  

 cryst.   s(22) = (     1          0          0      )
                  (     0          0          1      )
                  (     0          1          0      )

 cart.    s(22) = (  1.0000000  0.0000000  0.0000000 )
                  (  0.0000000  0.0000000  1.0000000 )
                  (  0.0000000  1.0000000  0.0000000 )


      isym = 23     inv.  90 deg rotation - cart. axis [-1,0,0]  

 cryst.   s(23) = (     0          1         -1      )
                  (     0          0         -1      )
                  (     1          0         -1      )

 cart.    s(23) = ( -1.0000000  0.0000000  0.0000000 )
                  (  0.0000000  0.0000000 -1.0000000 )
                  (  0.0000000  1.0000000  0.0000000 )


      isym = 24     inv.  90 deg rotation - cart. axis [1,0,0]   

 cryst.   s(24) = (     0         -1          1      )
                  (     1         -1          0      )
                  (     0         -1          0      )

 cart.    s(24) = ( -1.0000000  0.0000000  0.0000000 )
                  (  0.0000000  0.0000000  1.0000000 )
                  (  0.0000000 -1.0000000  0.0000000 )


   Cartesian axes

     site n.     atom                  positions (alat units)
         1           Sn  tau(   1) = (   0.0000000   0.0000000   0.0000000  )
         2           Sn  tau(   2) = (   0.3535534   0.3535534   0.3535534  )

   Crystallographic axes

     site n.     atom                  positions (cryst. coord.)
         1           Sn  tau(   1) = (  0.0000000  0.0000000  0.0000000  )
         2           Sn  tau(   2) = (  0.2500000  0.2500000  0.2500000  )

     number of k points=   145  gaussian smearing, width (Ry)=  0.0001
                       cart. coord. in units 2pi/alat
        k(    1) = (   0.0000000   0.0000000   0.0000000), wk =   0.0002441
        k(    2) = (   0.0441942   0.0441942  -0.0441942), wk =   0.0019531
        k(    3) = (   0.0883883   0.0883883  -0.0883883), wk =   0.0019531
        k(    4) = (   0.1325825   0.1325825  -0.1325825), wk =   0.0019531
        k(    5) = (   0.1767767   0.1767767  -0.1767767), wk =   0.0019531
        k(    6) = (   0.2209709   0.2209709  -0.2209709), wk =   0.0019531
        k(    7) = (   0.2651650   0.2651650  -0.2651650), wk =   0.0019531
        k(    8) = (   0.3093592   0.3093592  -0.3093592), wk =   0.0019531
        k(    9) = (  -0.3535534  -0.3535534   0.3535534), wk =   0.0009766
        k(   10) = (   0.0883883   0.0000000   0.0000000), wk =   0.0014648
        k(   11) = (   0.1325825   0.0441942  -0.0441942), wk =   0.0058594
        k(   12) = (   0.1767767   0.0883883  -0.0883883), wk =   0.0058594
        k(   13) = (   0.2209709   0.1325825  -0.1325825), wk =   0.0058594
        k(   14) = (   0.2651650   0.1767767  -0.1767767), wk =   0.0058594
        k(   15) = (   0.3093592   0.2209709  -0.2209709), wk =   0.0058594
        k(   16) = (   0.3535534   0.2651650  -0.2651650), wk =   0.0058594
        k(   17) = (  -0.3093592  -0.3977476   0.3977476), wk =   0.0058594
        k(   18) = (  -0.2651650  -0.3535534   0.3535534), wk =   0.0058594
        k(   19) = (  -0.2209709  -0.3093592   0.3093592), wk =   0.0058594
        k(   20) = (  -0.1767767  -0.2651650   0.2651650), wk =   0.0058594
        k(   21) = (  -0.1325825  -0.2209709   0.2209709), wk =   0.0058594
        k(   22) = (  -0.0883883  -0.1767767   0.1767767), wk =   0.0058594
        k(   23) = (  -0.0441942  -0.1325825   0.1325825), wk =   0.0058594
        k(   24) = (   0.0000000  -0.0883883   0.0883883), wk =   0.0029297
        k(   25) = (   0.1767767   0.0000000   0.0000000), wk =   0.0014648
        k(   26) = (   0.2209709   0.0441942  -0.0441942), wk =   0.0058594
        k(   27) = (   0.2651650   0.0883883  -0.0883883), wk =   0.0058594
        k(   28) = (   0.3093592   0.1325825  -0.1325825), wk =   0.0058594
        k(   29) = (   0.3535534   0.1767767  -0.1767767), wk =   0.0058594
        k(   30) = (   0.3977476   0.2209709  -0.2209709), wk =   0.0058594
        k(   31) = (  -0.2651650  -0.4419417   0.4419417), wk =   0.0058594
        k(   32) = (  -0.2209709  -0.3977476   0.3977476), wk =   0.0058594
        k(   33) = (  -0.1767767  -0.3535534   0.3535534), wk =   0.0058594
        k(   34) = (  -0.1325825  -0.3093592   0.3093592), wk =   0.0058594
        k(   35) = (  -0.0883883  -0.2651650   0.2651650), wk =   0.0058594
        k(   36) = (  -0.0441942  -0.2209709   0.2209709), wk =   0.0058594
        k(   37) = (   0.0000000  -0.1767767   0.1767767), wk =   0.0029297
        k(   38) = (   0.2651650   0.0000000   0.0000000), wk =   0.0014648
        k(   39) = (   0.3093592   0.0441942  -0.0441942), wk =   0.0058594
        k(   40) = (   0.3535534   0.0883883  -0.0883883), wk =   0.0058594
        k(   41) = (   0.3977476   0.1325825  -0.1325825), wk =   0.0058594
        k(   42) = (   0.4419417   0.1767767  -0.1767767), wk =   0.0058594
        k(   43) = (  -0.2209709  -0.4861359   0.4861359), wk =   0.0058594
        k(   44) = (  -0.1767767  -0.4419417   0.4419417), wk =   0.0058594
        k(   45) = (  -0.1325825  -0.3977476   0.3977476), wk =   0.0058594
        k(   46) = (  -0.0883883  -0.3535534   0.3535534), wk =   0.0058594
        k(   47) = (  -0.0441942  -0.3093592   0.3093592), wk =   0.0058594
        k(   48) = (   0.0000000  -0.2651650   0.2651650), wk =   0.0029297
        k(   49) = (   0.3535534   0.0000000   0.0000000), wk =   0.0014648
        k(   50) = (   0.3977476   0.0441942  -0.0441942), wk =   0.0058594
        k(   51) = (   0.4419417   0.0883883  -0.0883883), wk =   0.0058594
        k(   52) = (   0.4861359   0.1325825  -0.1325825), wk =   0.0058594
        k(   53) = (  -0.1767767  -0.5303301   0.5303301), wk =   0.0058594
        k(   54) = (  -0.1325825  -0.4861359   0.4861359), wk =   0.0058594
        k(   55) = (  -0.0883883  -0.4419417   0.4419417), wk =   0.0058594
        k(   56) = (  -0.0441942  -0.3977476   0.3977476), wk =   0.0058594
        k(   57) = (   0.0000000  -0.3535534   0.3535534), wk =   0.0029297
        k(   58) = (   0.4419417   0.0000000   0.0000000), wk =   0.0014648
        k(   59) = (   0.4861359   0.0441942  -0.0441942), wk =   0.0058594
        k(   60) = (   0.5303301   0.0883883  -0.0883883), wk =   0.0058594
        k(   61) = (  -0.1325825  -0.5745243   0.5745243), wk =   0.0058594
        k(   62) = (  -0.0883883  -0.5303301   0.5303301), wk =   0.0058594
        k(   63) = (  -0.0441942  -0.4861359   0.4861359), wk =   0.0058594
        k(   64) = (   0.0000000  -0.4419417   0.4419417), wk =   0.0029297
        k(   65) = (   0.5303301   0.0000000   0.0000000), wk =   0.0014648
        k(   66) = (   0.5745243   0.0441942  -0.0441942), wk =   0.0058594
        k(   67) = (  -0.0883883  -0.6187184   0.6187184), wk =   0.0058594
        k(   68) = (  -0.0441942  -0.5745243   0.5745243), wk =   0.0058594
        k(   69) = (   0.0000000  -0.5303301   0.5303301), wk =   0.0029297
        k(   70) = (   0.6187184   0.0000000   0.0000000), wk =   0.0014648
        k(   71) = (  -0.0441942  -0.6629126   0.6629126), wk =   0.0058594
        k(   72) = (   0.0000000  -0.6187184   0.6187184), wk =   0.0029297
        k(   73) = (  -0.7071068   0.0000000   0.0000000), wk =   0.0007324
        k(   74) = (   0.1767767   0.0883883   0.0000000), wk =   0.0058594
        k(   75) = (   0.2209709   0.1325825  -0.0441942), wk =   0.0117188
        k(   76) = (   0.2651650   0.1767767  -0.0883883), wk =   0.0117188
        k(   77) = (   0.3093592   0.2209709  -0.1325825), wk =   0.0117188
        k(   78) = (   0.3535534   0.2651650  -0.1767767), wk =   0.0117188
        k(   79) = (  -0.3093592  -0.3977476   0.4861359), wk =   0.0117188
        k(   80) = (  -0.2651650  -0.3535534   0.4419417), wk =   0.0058594
        k(   81) = (   0.2651650   0.0883883   0.0000000), wk =   0.0058594
        k(   82) = (   0.3093592   0.1325825  -0.0441942), wk =   0.0117188
        k(   83) = (   0.3535534   0.1767767  -0.0883883), wk =   0.0117188
        k(   84) = (   0.3977476   0.2209709  -0.1325825), wk =   0.0117188
        k(   85) = (  -0.2651650  -0.4419417   0.5303301), wk =   0.0117188
        k(   86) = (  -0.2209709  -0.3977476   0.4861359), wk =   0.0117188
        k(   87) = (  -0.1767767  -0.3535534   0.4419417), wk =   0.0117188
        k(   88) = (  -0.1325825  -0.3093592   0.3977476), wk =   0.0117188
        k(   89) = (  -0.0883883  -0.2651650   0.3535534), wk =   0.0117188
        k(   90) = (  -0.0441942  -0.2209709   0.3093592), wk =   0.0117188
        k(   91) = (   0.0000000  -0.1767767   0.2651650), wk =   0.0058594
        k(   92) = (   0.3535534   0.0883883   0.0000000), wk =   0.0058594
        k(   93) = (   0.3977476   0.1325825  -0.0441942), wk =   0.0117188
        k(   94) = (   0.4419417   0.1767767  -0.0883883), wk =   0.0117188
        k(   95) = (  -0.2209709  -0.4861359   0.5745243), wk =   0.0117188
        k(   96) = (  -0.1767767  -0.4419417   0.5303301), wk =   0.0117188
        k(   97) = (  -0.1325825  -0.3977476   0.4861359), wk =   0.0117188
        k(   98) = (  -0.0883883  -0.3535534   0.4419417), wk =   0.0117188
        k(   99) = (  -0.0441942  -0.3093592   0.3977476), wk =   0.0117188
        k(  100) = (   0.0000000  -0.2651650   0.3535534), wk =   0.0058594
        k(  101) = (   0.4419417   0.0883883   0.0000000), wk =   0.0058594
        k(  102) = (   0.4861359   0.1325825  -0.0441942), wk =   0.0117188
        k(  103) = (  -0.1767767  -0.5303301   0.6187184), wk =   0.0117188
        k(  104) = (  -0.1325825  -0.4861359   0.5745243), wk =   0.0117188
        k(  105) = (  -0.0883883  -0.4419417   0.5303301), wk =   0.0117188
        k(  106) = (  -0.0441942  -0.3977476   0.4861359), wk =   0.0117188
        k(  107) = (   0.0000000  -0.3535534   0.4419417), wk =   0.0058594
        k(  108) = (   0.5303301   0.0883883   0.0000000), wk =   0.0058594
        k(  109) = (  -0.1325825  -0.5745243   0.6629126), wk =   0.0117188
        k(  110) = (  -0.0883883  -0.5303301   0.6187184), wk =   0.0117188
        k(  111) = (  -0.0441942  -0.4861359   0.5745243), wk =   0.0117188
        k(  112) = (   0.0000000  -0.4419417   0.5303301), wk =   0.0058594
        k(  113) = (  -0.0883883  -0.6187184   0.7071068), wk =   0.0058594
        k(  114) = (  -0.0441942  -0.5745243   0.6629126), wk =   0.0117188
        k(  115) = (  -0.0000000  -0.5303301   0.6187184), wk =   0.0058594
        k(  116) = (  -0.7071068   0.0883883   0.0000000), wk =   0.0029297
        k(  117) = (   0.3535534   0.1767767   0.0000000), wk =   0.0058594
        k(  118) = (   0.3977476   0.2209709  -0.0441942), wk =   0.0117188
        k(  119) = (  -0.2651650  -0.4419417   0.6187184), wk =   0.0117188
        k(  120) = (  -0.2209709  -0.3977476   0.5745243), wk =   0.0117188
        k(  121) = (  -0.1767767  -0.3535534   0.5303301), wk =   0.0058594
        k(  122) = (   0.4419417   0.1767767   0.0000000), wk =   0.0058594
        k(  123) = (  -0.2209709  -0.4861359   0.6629126), wk =   0.0117188
        k(  124) = (  -0.1767767  -0.4419417   0.6187184), wk =   0.0117188
        k(  125) = (  -0.1325825  -0.3977476   0.5745243), wk =   0.0117188
        k(  126) = (  -0.0883883  -0.3535534   0.5303301), wk =   0.0117188
        k(  127) = (  -0.0441942  -0.3093592   0.4861359), wk =   0.0117188
        k(  128) = (   0.0000000  -0.2651650   0.4419417), wk =   0.0058594
        k(  129) = (  -0.1767767  -0.5303301   0.7071068), wk =   0.0058594
        k(  130) = (  -0.1325825  -0.4861359   0.6629126), wk =   0.0117188
        k(  131) = (  -0.0883883  -0.4419417   0.6187184), wk =   0.0117188
        k(  132) = (  -0.0441942  -0.3977476   0.5745243), wk =   0.0117188
        k(  133) = (   0.0000000  -0.3535534   0.5303301), wk =   0.0058594
        k(  134) = (  -0.0883883  -0.5303301   0.7071068), wk =   0.0058594
        k(  135) = (  -0.0441942  -0.4861359   0.6629126), wk =   0.0117188
        k(  136) = (   0.0000000  -0.4419417   0.6187184), wk =   0.0058594
        k(  137) = (  -0.7071068   0.1767767   0.0000000), wk =   0.0029297
        k(  138) = (  -0.1767767  -0.4419417   0.7071068), wk =   0.0058594
        k(  139) = (  -0.1325825  -0.3977476   0.6629126), wk =   0.0117188
        k(  140) = (  -0.0883883  -0.3535534   0.6187184), wk =   0.0058594
        k(  141) = (  -0.0883883  -0.4419417   0.7071068), wk =   0.0058594
        k(  142) = (  -0.0441942  -0.3977476   0.6629126), wk =   0.0117188
        k(  143) = (  -0.0000000  -0.3535534   0.6187184), wk =   0.0058594
        k(  144) = (  -0.7071068   0.2651650   0.0000000), wk =   0.0029297
        k(  145) = (  -0.7071068   0.3535534   0.0000000), wk =   0.0014648

                       cryst. coord.
        k(    1) = (   0.0000000   0.0000000   0.0000000), wk =   0.0002441
        k(    2) = (   0.0000000   0.0000000   0.0625000), wk =   0.0019531
        k(    3) = (   0.0000000   0.0000000   0.1250000), wk =   0.0019531
        k(    4) = (   0.0000000   0.0000000   0.1875000), wk =   0.0019531
        k(    5) = (   0.0000000   0.0000000   0.2500000), wk =   0.0019531
        k(    6) = (   0.0000000   0.0000000   0.3125000), wk =   0.0019531
        k(    7) = (   0.0000000   0.0000000   0.3750000), wk =   0.0019531
        k(    8) = (   0.0000000   0.0000000   0.4375000), wk =   0.0019531
        k(    9) = (   0.0000000   0.0000000  -0.5000000), wk =   0.0009766
        k(   10) = (   0.0000000   0.0625000   0.0625000), wk =   0.0014648
        k(   11) = (   0.0000000   0.0625000   0.1250000), wk =   0.0058594
        k(   12) = (   0.0000000   0.0625000   0.1875000), wk =   0.0058594
        k(   13) = (   0.0000000   0.0625000   0.2500000), wk =   0.0058594
        k(   14) = (   0.0000000   0.0625000   0.3125000), wk =   0.0058594
        k(   15) = (   0.0000000   0.0625000   0.3750000), wk =   0.0058594
        k(   16) = (   0.0000000   0.0625000   0.4375000), wk =   0.0058594
        k(   17) = (   0.0000000   0.0625000  -0.5000000), wk =   0.0058594
        k(   18) = (   0.0000000   0.0625000  -0.4375000), wk =   0.0058594
        k(   19) = (   0.0000000   0.0625000  -0.3750000), wk =   0.0058594
        k(   20) = (   0.0000000   0.0625000  -0.3125000), wk =   0.0058594
        k(   21) = (   0.0000000   0.0625000  -0.2500000), wk =   0.0058594
        k(   22) = (   0.0000000   0.0625000  -0.1875000), wk =   0.0058594
        k(   23) = (   0.0000000   0.0625000  -0.1250000), wk =   0.0058594
        k(   24) = (   0.0000000   0.0625000  -0.0625000), wk =   0.0029297
        k(   25) = (   0.0000000   0.1250000   0.1250000), wk =   0.0014648
        k(   26) = (   0.0000000   0.1250000   0.1875000), wk =   0.0058594
        k(   27) = (   0.0000000   0.1250000   0.2500000), wk =   0.0058594
        k(   28) = (   0.0000000   0.1250000   0.3125000), wk =   0.0058594
        k(   29) = (   0.0000000   0.1250000   0.3750000), wk =   0.0058594
        k(   30) = (   0.0000000   0.1250000   0.4375000), wk =   0.0058594
        k(   31) = (   0.0000000   0.1250000  -0.5000000), wk =   0.0058594
        k(   32) = (   0.0000000   0.1250000  -0.4375000), wk =   0.0058594
        k(   33) = (   0.0000000   0.1250000  -0.3750000), wk =   0.0058594
        k(   34) = (   0.0000000   0.1250000  -0.3125000), wk =   0.0058594
        k(   35) = (   0.0000000   0.1250000  -0.2500000), wk =   0.0058594
        k(   36) = (   0.0000000   0.1250000  -0.1875000), wk =   0.0058594
        k(   37) = (   0.0000000   0.1250000  -0.1250000), wk =   0.0029297
        k(   38) = (   0.0000000   0.1875000   0.1875000), wk =   0.0014648
        k(   39) = (   0.0000000   0.1875000   0.2500000), wk =   0.0058594
        k(   40) = (   0.0000000   0.1875000   0.3125000), wk =   0.0058594
        k(   41) = (   0.0000000   0.1875000   0.3750000), wk =   0.0058594
        k(   42) = (   0.0000000   0.1875000   0.4375000), wk =   0.0058594
        k(   43) = (   0.0000000   0.1875000  -0.5000000), wk =   0.0058594
        k(   44) = (   0.0000000   0.1875000  -0.4375000), wk =   0.0058594
        k(   45) = (   0.0000000   0.1875000  -0.3750000), wk =   0.0058594
        k(   46) = (   0.0000000   0.1875000  -0.3125000), wk =   0.0058594
        k(   47) = (   0.0000000   0.1875000  -0.2500000), wk =   0.0058594
        k(   48) = (   0.0000000   0.1875000  -0.1875000), wk =   0.0029297
        k(   49) = (   0.0000000   0.2500000   0.2500000), wk =   0.0014648
        k(   50) = (   0.0000000   0.2500000   0.3125000), wk =   0.0058594
        k(   51) = (   0.0000000   0.2500000   0.3750000), wk =   0.0058594
        k(   52) = (   0.0000000   0.2500000   0.4375000), wk =   0.0058594
        k(   53) = (   0.0000000   0.2500000  -0.5000000), wk =   0.0058594
        k(   54) = (   0.0000000   0.2500000  -0.4375000), wk =   0.0058594
        k(   55) = (   0.0000000   0.2500000  -0.3750000), wk =   0.0058594
        k(   56) = (   0.0000000   0.2500000  -0.3125000), wk =   0.0058594
        k(   57) = (   0.0000000   0.2500000  -0.2500000), wk =   0.0029297
        k(   58) = (   0.0000000   0.3125000   0.3125000), wk =   0.0014648
        k(   59) = (   0.0000000   0.3125000   0.3750000), wk =   0.0058594
        k(   60) = (   0.0000000   0.3125000   0.4375000), wk =   0.0058594
        k(   61) = (   0.0000000   0.3125000  -0.5000000), wk =   0.0058594
        k(   62) = (   0.0000000   0.3125000  -0.4375000), wk =   0.0058594
        k(   63) = (   0.0000000   0.3125000  -0.3750000), wk =   0.0058594
        k(   64) = (   0.0000000   0.3125000  -0.3125000), wk =   0.0029297
        k(   65) = (   0.0000000   0.3750000   0.3750000), wk =   0.0014648
        k(   66) = (   0.0000000   0.3750000   0.4375000), wk =   0.0058594
        k(   67) = (   0.0000000   0.3750000  -0.5000000), wk =   0.0058594
        k(   68) = (   0.0000000   0.3750000  -0.4375000), wk =   0.0058594
        k(   69) = (   0.0000000   0.3750000  -0.3750000), wk =   0.0029297
        k(   70) = (   0.0000000   0.4375000   0.4375000), wk =   0.0014648
        k(   71) = (   0.0000000   0.4375000  -0.5000000), wk =   0.0058594
        k(   72) = (   0.0000000   0.4375000  -0.4375000), wk =   0.0029297
        k(   73) = (   0.0000000  -0.5000000  -0.5000000), wk =   0.0007324
        k(   74) = (   0.0625000   0.1250000   0.1875000), wk =   0.0058594
        k(   75) = (   0.0625000   0.1250000   0.2500000), wk =   0.0117188
        k(   76) = (   0.0625000   0.1250000   0.3125000), wk =   0.0117188
        k(   77) = (   0.0625000   0.1250000   0.3750000), wk =   0.0117188
        k(   78) = (   0.0625000   0.1250000   0.4375000), wk =   0.0117188
        k(   79) = (   0.0625000   0.1250000  -0.5000000), wk =   0.0117188
        k(   80) = (   0.0625000   0.1250000  -0.4375000), wk =   0.0058594
        k(   81) = (   0.0625000   0.1875000   0.2500000), wk =   0.0058594
        k(   82) = (   0.0625000   0.1875000   0.3125000), wk =   0.0117188
        k(   83) = (   0.0625000   0.1875000   0.3750000), wk =   0.0117188
        k(   84) = (   0.0625000   0.1875000   0.4375000), wk =   0.0117188
        k(   85) = (   0.0625000   0.1875000  -0.5000000), wk =   0.0117188
        k(   86) = (   0.0625000   0.1875000  -0.4375000), wk =   0.0117188
        k(   87) = (   0.0625000   0.1875000  -0.3750000), wk =   0.0117188
        k(   88) = (   0.0625000   0.1875000  -0.3125000), wk =   0.0117188
        k(   89) = (   0.0625000   0.1875000  -0.2500000), wk =   0.0117188
        k(   90) = (   0.0625000   0.1875000  -0.1875000), wk =   0.0117188
        k(   91) = (   0.0625000   0.1875000  -0.1250000), wk =   0.0058594
        k(   92) = (   0.0625000   0.2500000   0.3125000), wk =   0.0058594
        k(   93) = (   0.0625000   0.2500000   0.3750000), wk =   0.0117188
        k(   94) = (   0.0625000   0.2500000   0.4375000), wk =   0.0117188
        k(   95) = (   0.0625000   0.2500000  -0.5000000), wk =   0.0117188
        k(   96) = (   0.0625000   0.2500000  -0.4375000), wk =   0.0117188
        k(   97) = (   0.0625000   0.2500000  -0.3750000), wk =   0.0117188
        k(   98) = (   0.0625000   0.2500000  -0.3125000), wk =   0.0117188
        k(   99) = (   0.0625000   0.2500000  -0.2500000), wk =   0.0117188
        k(  100) = (   0.0625000   0.2500000  -0.1875000), wk =   0.0058594
        k(  101) = (   0.0625000   0.3125000   0.3750000), wk =   0.0058594
        k(  102) = (   0.0625000   0.3125000   0.4375000), wk =   0.0117188
        k(  103) = (   0.0625000   0.3125000  -0.5000000), wk =   0.0117188
        k(  104) = (   0.0625000   0.3125000  -0.4375000), wk =   0.0117188
        k(  105) = (   0.0625000   0.3125000  -0.3750000), wk =   0.0117188
        k(  106) = (   0.0625000   0.3125000  -0.3125000), wk =   0.0117188
        k(  107) = (   0.0625000   0.3125000  -0.2500000), wk =   0.0058594
        k(  108) = (   0.0625000   0.3750000   0.4375000), wk =   0.0058594
        k(  109) = (   0.0625000   0.3750000  -0.5000000), wk =   0.0117188
        k(  110) = (   0.0625000   0.3750000  -0.4375000), wk =   0.0117188
        k(  111) = (   0.0625000   0.3750000  -0.3750000), wk =   0.0117188
        k(  112) = (   0.0625000   0.3750000  -0.3125000), wk =   0.0058594
        k(  113) = (   0.0625000   0.4375000  -0.5000000), wk =   0.0058594
        k(  114) = (   0.0625000   0.4375000  -0.4375000), wk =   0.0117188
        k(  115) = (   0.0625000   0.4375000  -0.3750000), wk =   0.0058594
        k(  116) = (   0.0625000  -0.5000000  -0.4375000), wk =   0.0029297
        k(  117) = (   0.1250000   0.2500000   0.3750000), wk =   0.0058594
        k(  118) = (   0.1250000   0.2500000   0.4375000), wk =   0.0117188
        k(  119) = (   0.1250000   0.2500000  -0.5000000), wk =   0.0117188
        k(  120) = (   0.1250000   0.2500000  -0.4375000), wk =   0.0117188
        k(  121) = (   0.1250000   0.2500000  -0.3750000), wk =   0.0058594
        k(  122) = (   0.1250000   0.3125000   0.4375000), wk =   0.0058594
        k(  123) = (   0.1250000   0.3125000  -0.5000000), wk =   0.0117188
        k(  124) = (   0.1250000   0.3125000  -0.4375000), wk =   0.0117188
        k(  125) = (   0.1250000   0.3125000  -0.3750000), wk =   0.0117188
        k(  126) = (   0.1250000   0.3125000  -0.3125000), wk =   0.0117188
        k(  127) = (   0.1250000   0.3125000  -0.2500000), wk =   0.0117188
        k(  128) = (   0.1250000   0.3125000  -0.1875000), wk =   0.0058594
        k(  129) = (   0.1250000   0.3750000  -0.5000000), wk =   0.0058594
        k(  130) = (   0.1250000   0.3750000  -0.4375000), wk =   0.0117188
        k(  131) = (   0.1250000   0.3750000  -0.3750000), wk =   0.0117188
        k(  132) = (   0.1250000   0.3750000  -0.3125000), wk =   0.0117188
        k(  133) = (   0.1250000   0.3750000  -0.2500000), wk =   0.0058594
        k(  134) = (   0.1250000   0.4375000  -0.4375000), wk =   0.0058594
        k(  135) = (   0.1250000   0.4375000  -0.3750000), wk =   0.0117188
        k(  136) = (   0.1250000   0.4375000  -0.3125000), wk =   0.0058594
        k(  137) = (   0.1250000  -0.5000000  -0.3750000), wk =   0.0029297
        k(  138) = (   0.1875000   0.3750000  -0.4375000), wk =   0.0058594
        k(  139) = (   0.1875000   0.3750000  -0.3750000), wk =   0.0117188
        k(  140) = (   0.1875000   0.3750000  -0.3125000), wk =   0.0058594
        k(  141) = (   0.1875000   0.4375000  -0.3750000), wk =   0.0058594
        k(  142) = (   0.1875000   0.4375000  -0.3125000), wk =   0.0117188
        k(  143) = (   0.1875000   0.4375000  -0.2500000), wk =   0.0058594
        k(  144) = (   0.1875000  -0.5000000  -0.3125000), wk =   0.0029297
        k(  145) = (   0.2500000  -0.5000000  -0.2500000), wk =   0.0014648

     Dense  grid:    48359 G-vectors     FFT dimensions: (  54,  54,  54)

     Largest allocated arrays     est. size (Mb)     dimensions
        Kohn-Sham Wavefunctions         0.43 Mb     (     774,   36)
        NL pseudopotentials             0.21 Mb     (     387,   36)
        Each V/rho on FFT grid          0.18 Mb     (   11664)
        Each G-vector array             0.02 Mb     (    3024)
        G-vector shells                 0.00 Mb     (     421)
     Largest temporary arrays     est. size (Mb)     dimensions
        Auxiliary wavefunctions         1.70 Mb     (     774,  144)
        Each subspace H/S matrix        0.32 Mb     (     144,  144)
        Each <psi_i|beta_j> matrix      0.04 Mb     (      36,   2,   36)
        Arrays for rho mixing           1.42 Mb     (   11664,    8)

     Initial potential from superposition of free atoms

     starting charge   27.99723, renormalised to   28.00000
     Starting wfc are   36 randomized atomic wfcs

     total cpu time spent up to now is       16.7 secs

     Self-consistent Calculation

     iteration #  1     ecut=    80.00 Ry     beta=0.70
     Davidson diagonalization with overlap
     ethr =  1.00E-02,  avg # of iterations =  3.4

     Threshold (ethr) on eigenvalues was too large:
     Diagonalizing with lowered threshold

     Davidson diagonalization with overlap
     ethr =  6.59E-05,  avg # of iterations =  3.3

     total cpu time spent up to now is      108.6 secs

     total energy              =    -326.06236455 Ry
     Harris-Foulkes estimate   =    -326.06544483 Ry
     estimated scf accuracy    <       0.02222931 Ry

     iteration #  2     ecut=    80.00 Ry     beta=0.70
     Davidson diagonalization with overlap
     ethr =  7.94E-05,  avg # of iterations =  1.0

     total cpu time spent up to now is      145.0 secs

     total energy              =    -326.06304922 Ry
     Harris-Foulkes estimate   =    -326.06309840 Ry
     estimated scf accuracy    <       0.00146759 Ry

     iteration #  3     ecut=    80.00 Ry     beta=0.70
     Davidson diagonalization with overlap
     ethr =  5.24E-06,  avg # of iterations =  2.7

     total cpu time spent up to now is      194.7 secs

     total energy              =    -326.06323774 Ry
     Harris-Foulkes estimate   =    -326.06325636 Ry
     estimated scf accuracy    <       0.00004926 Ry

     iteration #  4     ecut=    80.00 Ry     beta=0.70
     Davidson diagonalization with overlap
     ethr =  1.76E-07,  avg # of iterations =  2.0

     total cpu time spent up to now is      242.7 secs

     total energy              =    -326.06325126 Ry
     Harris-Foulkes estimate   =    -326.06324960 Ry
     estimated scf accuracy    <       0.00000300 Ry

     iteration #  5     ecut=    80.00 Ry     beta=0.70
     Davidson diagonalization with overlap
     ethr =  1.07E-08,  avg # of iterations =  2.0

     total cpu time spent up to now is      283.1 secs

     End of self-consistent calculation

          k = 0.0000 0.0000 0.0000 (  5985 PWs)   bands (ev):

   -14.6443 -14.6443 -14.6443 -14.6443 -14.6443 -14.6443 -14.5964 -14.5964
   -14.5964 -14.5964 -14.3472 -14.3472 -14.3472 -14.3472 -14.3471 -14.3471
   -14.3471 -14.3471 -14.3471 -14.3471  -3.1839  -3.1839   5.7040   5.7040
     6.9852   6.9852   6.9852   6.9852   6.9852   6.9852   9.0501   9.0501
     9.0501   9.0501   9.0501   9.0501

     occupation numbers 
     1.0000   1.0000   1.0000   1.0000   1.0000   1.0000   1.0000   1.0000
     1.0000   1.0000   1.0000   1.0000   1.0000   1.0000   1.0000   1.0000
     1.0000   1.0000   1.0000   1.0000   1.0000   1.0000   1.0000   1.0000
     0.0000   0.0000   0.0000   0.0000   0.0000   0.0000   0.0000   0.0000
     0.0000   0.0000   0.0000   0.0000

          k = 0.0442 0.0442-0.0442 (  6048 PWs)   bands (ev):

   -14.6469 -14.6469 -14.6469 -14.6469 -14.6434 -14.6434 -14.5929 -14.5929
   -14.5929 -14.5929 -14.3579 -14.3579 -14.3579 -14.3579 -14.3481 -14.3481
   -14.3370 -14.3370 -14.3370 -14.3370  -3.1491  -3.1491   5.3094   5.3094
     6.9128   6.9128   6.9128   6.9128   7.1671   7.1671   9.1449   9.1449
     9.1449   9.1449   9.1792   9.1792

     occupation numbers 
     1.0000   1.0000   1.0000   1.0000   1.0000   1.0000   1.0000   1.0000
     1.0000   1.0000   1.0000   1.0000   1.0000   1.0000   1.0000   1.0000
     1.0000   1.0000   1.0000   1.0000   1.0000   1.0000   1.0000   1.0000
     0.0240   0.0240   0.0240   0.0240   0.0000   0.0000   0.0000   0.0000
     0.0000   0.0000   0.0000   0.0000

          k = 0.0884 0.0884-0.0884 (  6051 PWs)   bands (ev):

   -14.6528 -14.6528 -14.6528 -14.6528 -14.6411 -14.6411 -14.5845 -14.5845
   -14.5845 -14.5845 -14.3685 -14.3685 -14.3685 -14.3685 -14.3509 -14.3509
   -14.3279 -14.3279 -14.3279 -14.3279  -3.0457  -3.0457   4.5489   4.5489
     6.7354   6.7354   6.7354   6.7354   7.2969   7.2969   9.3790   9.3790
     9.3790   9.3790   9.6116   9.6116

     occupation numbers 
     1.0000   1.0000   1.0000   1.0000   1.0000   1.0000   1.0000   1.0000
     1.0000   1.0000   1.0000   1.0000   1.0000   1.0000   1.0000   1.0000
     1.0000   1.0000   1.0000   1.0000   1.0000   1.0000   1.0000   1.0000
     1.0000   1.0000   1.0000   1.0000   0.0000   0.0000   0.0000   0.0000
     0.0000   0.0000   0.0000   0.0000

          k = 0.1326 0.1326-0.1326 (  6048 PWs)   bands (ev):

   -14.6591 -14.6591 -14.6591 -14.6591 -14.6375 -14.6375 -14.5746 -14.5746
   -14.5746 -14.5746 -14.3785 -14.3785 -14.3785 -14.3785 -14.3551 -14.3551
   -14.3202 -14.3202 -14.3202 -14.3202  -2.8764  -2.8764   3.7195   3.7195
     6.5207   6.5207   6.5207   6.5207   7.2338   7.2338   9.6544   9.6544
     9.6544   9.6544  10.2917  10.2917

     occupation numbers 
     1.0000   1.0000   1.0000   1.0000   1.0000   1.0000   1.0000   1.0000
     1.0000   1.0000   1.0000   1.0000   1.0000   1.0000   1.0000   1.0000
     1.0000   1.0000   1.0000   1.0000   1.0000   1.0000   1.0000   1.0000
     1.0000   1.0000   1.0000   1.0000   0.0000   0.0000   0.0000   0.0000
     0.0000   0.0000   0.0000   0.0000

          k = 0.1768 0.1768-0.1768 (  6057 PWs)   bands (ev):

   -14.6646 -14.6646 -14.6646 -14.6646 -14.6332 -14.6332 -14.5651 -14.5651
   -14.5651 -14.5651 -14.3869 -14.3869 -14.3869 -14.3869 -14.3602 -14.3602
   -14.3141 -14.3141 -14.3141 -14.3141  -2.6478  -2.6478   2.9081   2.9081
     6.3140   6.3140   6.3140   6.3140   7.0942   7.0942   9.8851   9.8851
     9.8851   9.8851  11.1004  11.1004

     occupation numbers 
     1.0000   1.0000   1.0000   1.0000   1.0000   1.0000   1.0000   1.0000
     1.0000   1.0000   1.0000   1.0000   1.0000   1.0000   1.0000   1.0000
     1.0000   1.0000   1.0000   1.0000   1.0000   1.0000   1.0000   1.0000
     1.0000   1.0000   1.0000   1.0000   0.0000   0.0000   0.0000   0.0000
     0.0000   0.0000   0.0000   0.0000

          k = 0.2210 0.2210-0.2210 (  6057 PWs)   bands (ev):

   -14.6687 -14.6687 -14.6687 -14.6687 -14.6287 -14.6287 -14.5575 -14.5575
   -14.5575 -14.5575 -14.3934 -14.3934 -14.3934 -14.3934 -14.3655 -14.3655
   -14.3095 -14.3095 -14.3095 -14.3095  -2.3728  -2.3728   2.1602   2.1602
     6.1392   6.1392   6.1392   6.1392   6.9525   6.9525  10.0250  10.0250
    10.0250  10.0250  11.9650  11.9650

     occupation numbers 
     1.0000   1.0000   1.0000   1.0000   1.0000   1.0000   1.0000   1.0000
     1.0000   1.0000   1.0000   1.0000   1.0000   1.0000   1.0000   1.0000
     1.0000   1.0000   1.0000   1.0000   1.0000   1.0000   1.0000   1.0000
     1.0000   1.0000   1.0000   1.0000   0.0000   0.0000   0.0000   0.0000
     0.0000   0.0000   0.0000   0.0000

          k = 0.2652 0.2652-0.2652 (  6077 PWs)   bands (ev):

   -14.6714 -14.6714 -14.6714 -14.6714 -14.6249 -14.6249 -14.5521 -14.5521
   -14.5521 -14.5521 -14.3978 -14.3978 -14.3978 -14.3978 -14.3700 -14.3700
   -14.3065 -14.3065 -14.3065 -14.3065  -2.0795  -2.0795   1.5203   1.5203
     6.0085   6.0085   6.0085   6.0085   6.8399   6.8399  10.0823  10.0823
    10.0823  10.0823  12.6271  12.6271

     occupation numbers 
     1.0000   1.0000   1.0000   1.0000   1.0000   1.0000   1.0000   1.0000
     1.0000   1.0000   1.0000   1.0000   1.0000   1.0000   1.0000   1.0000
     1.0000   1.0000   1.0000   1.0000   1.0000   1.0000   1.0000   1.0000
     1.0000   1.0000   1.0000   1.0000   1.0000   1.0000   0.0000   0.0000
     0.0000   0.0000   0.0000   0.0000

          k = 0.3094 0.3094-0.3094 (  6056 PWs)   bands (ev):

   -14.6730 -14.6730 -14.6730 -14.6730 -14.6222 -14.6222 -14.5490 -14.5490
   -14.5490 -14.5490 -14.4002 -14.4002 -14.4002 -14.4002 -14.3731 -14.3731
   -14.3047 -14.3047 -14.3047 -14.3047  -1.8280  -1.8280   1.0578   1.0578
     5.9281   5.9281   5.9281   5.9281   6.7691   6.7691  10.0948  10.0948
    10.0948  10.0948  12.6518  12.6518

     occupation numbers 
     1.0000   1.0000   1.0000   1.0000   1.0000   1.0000   1.0000   1.0000
     1.0000   1.0000   1.0000   1.0000   1.0000   1.0000   1.0000   1.0000
     1.0000   1.0000   1.0000   1.0000   1.0000   1.0000   1.0000   1.0000
     1.0000   1.0000   1.0000   1.0000   1.0000   1.0000   0.0000   0.0000
     0.0000   0.0000   0.0000   0.0000

          k =-0.3536-0.3536 0.3536 (  6062 PWs)   bands (ev):

   -14.6734 -14.6734 -14.6734 -14.6734 -14.6213 -14.6213 -14.5480 -14.5480
   -14.5480 -14.5480 -14.4009 -14.4009 -14.4009 -14.4009 -14.3742 -14.3742
   -14.3042 -14.3042 -14.3042 -14.3042  -1.7217  -1.7217   0.8807   0.8807
     5.9010   5.9010   5.9010   5.9010   6.7451   6.7451  10.0952  10.0952
    10.0952  10.0952  12.6267  12.6267

     occupation numbers 
     1.0000   1.0000   1.0000   1.0000   1.0000   1.0000   1.0000   1.0000
     1.0000   1.0000   1.0000   1.0000   1.0000   1.0000   1.0000   1.0000
     1.0000   1.0000   1.0000   1.0000   1.0000   1.0000   1.0000   1.0000
     1.0000   1.0000   1.0000   1.0000   1.0000   1.0000   0.0000   0.0000
     0.0000   0.0000   0.0000   0.0000

          k = 0.0884 0.0000 0.0000 (  6038 PWs)   bands (ev):

   -14.6465 -14.6465 -14.6461 -14.6461 -14.6461 -14.6461 -14.5939 -14.5939
   -14.5893 -14.5893 -14.3670 -14.3670 -14.3495 -14.3495 -14.3446 -14.3446
   -14.3446 -14.3446 -14.3329 -14.3329  -3.1375  -3.1375   5.2294   5.2294
     6.7801   6.7801   6.7801   6.7801   7.4405   7.4405   8.9053   8.9053
     9.3147   9.3147   9.3147   9.3147

     occupation numbers 
     1.0000   1.0000   1.0000   1.0000   1.0000   1.0000   1.0000   1.0000
     1.0000   1.0000   1.0000   1.0000   1.0000   1.0000   1.0000   1.0000
     1.0000   1.0000   1.0000   1.0000   1.0000   1.0000   1.0000   1.0000
     1.0000   1.0000   1.0000   1.0000   0.0000   0.0000   0.0000   0.0000
     0.0000   0.0000   0.0000   0.0000

          k = 0.1326 0.0442-0.0442 (  6057 PWs)   bands (ev):

   -14.6526 -14.6526 -14.6499 -14.6499 -14.6440 -14.6440 -14.5887 -14.5887
   -14.5807 -14.5807 -14.3784 -14.3784 -14.3585 -14.3585 -14.3448 -14.3448
   -14.3361 -14.3361 -14.3259 -14.3259  -3.0567  -3.0567   4.6656   4.6656
     6.5723   6.5723   6.6035   6.6035   7.6932   7.6932   8.9041   8.9041
     9.5976   9.5976   9.6713   9.6713

     occupation numbers 
     1.0000   1.0000   1.0000   1.0000   1.0000   1.0000   1.0000   1.0000
     1.0000   1.0000   1.0000   1.0000   1.0000   1.0000   1.0000   1.0000
     1.0000   1.0000   1.0000   1.0000   1.0000   1.0000   1.0000   1.0000
     1.0000   1.0000   1.0000   1.0000   0.0000   0.0000   0.0000   0.0000
     0.0000   0.0000   0.0000   0.0000

          k = 0.1768 0.0884-0.0884 (  6045 PWs)   bands (ev):

   -14.6599 -14.6599 -14.6557 -14.6557 -14.6399 -14.6399 -14.5801 -14.5801
   -14.5702 -14.5702 -14.3891 -14.3891 -14.3686 -14.3686 -14.3488 -14.3488
   -14.3273 -14.3273 -14.3181 -14.3181  -2.9090  -2.9090   3.9122   3.9122
     6.3500   6.3500   6.3862   6.3862   7.7117   7.7117   9.1310   9.1310
     9.9033   9.9033  10.2228  10.2229

     occupation numbers 
     1.0000   1.0000   1.0000   1.0000   1.0000   1.0000   1.0000   1.0000
     1.0000   1.0000   1.0000   1.0000   1.0000   1.0000   1.0000   1.0000
     1.0000   1.0000   1.0000   1.0000   1.0000   1.0000   1.0000   1.0000
     1.0000   1.0000   1.0000   1.0000   0.0000   0.0000   0.0000   0.0000
     0.0000   0.0000   0.0000   0.0000

          k = 0.2210 0.1326-0.1326 (  6053 PWs)   bands (ev):

   -14.6665 -14.6665 -14.6614 -14.6614 -14.6346 -14.6346 -14.5707 -14.5707
   -14.5601 -14.5601 -14.3982 -14.3982 -14.3780 -14.3780 -14.3549 -14.3549
   -14.3198 -14.3198 -14.3112 -14.3112  -2.6992  -2.6992   3.1242   3.1242
     6.1457   6.1457   6.1497   6.1497   7.5970   7.5970   9.4435   9.4435
    10.1510  10.1510  10.8676  10.8676

     occupation numbers 
     1.0000   1.0000   1.0000   1.0000   1.0000   1.0000   1.0000   1.0000
     1.0000   1.0000   1.0000   1.0000   1.0000   1.0000   1.0000   1.0000
     1.0000   1.0000   1.0000   1.0000   1.0000   1.0000   1.0000   1.0000
     1.0000   1.0000   1.0000   1.0000   0.0000   0.0000   0.0000   0.0000
     0.0000   0.0000   0.0000   0.0000

          k = 0.2652 0.1768-0.1768 (  6054 PWs)   bands (ev):

   -14.6717 -14.6717 -14.6663 -14.6663 -14.6286 -14.6286 -14.5622 -14.5622
   -14.5519 -14.5519 -14.4046 -14.4046 -14.3862 -14.3862 -14.3620 -14.3620
   -14.3137 -14.3137 -14.3057 -14.3057  -2.4375  -2.4375   2.3706   2.3706
     5.9205   5.9205   5.9905   5.9905   7.4518   7.4518   9.7042   9.7042
    10.2894  10.2894  11.5464  11.5464

     occupation numbers 
     1.0000   1.0000   1.0000   1.0000   1.0000   1.0000   1.0000   1.0000
     1.0000   1.0000   1.0000   1.0000   1.0000   1.0000   1.0000   1.0000
     1.0000   1.0000   1.0000   1.0000   1.0000   1.0000   1.0000   1.0000
     1.0000   1.0000   1.0000   1.0000   0.0000   0.0000   0.0000   0.0000
     0.0000   0.0000   0.0000   0.0000

          k = 0.3094 0.2210-0.2210 (  6068 PWs)   bands (ev):

   -14.6753 -14.6753 -14.6699 -14.6699 -14.6229 -14.6229 -14.5551 -14.5551
   -14.5467 -14.5467 -14.4077 -14.4077 -14.3930 -14.3930 -14.3691 -14.3691
   -14.3091 -14.3091 -14.3019 -14.3019  -2.1454  -2.1454   1.7003   1.7003
     5.7321   5.7321   5.8821   5.8821   7.3224   7.3224   9.8636   9.8636
    10.3214  10.3214  12.2151  12.2151

     occupation numbers 
     1.0000   1.0000   1.0000   1.0000   1.0000   1.0000   1.0000   1.0000
     1.0000   1.0000   1.0000   1.0000   1.0000   1.0000   1.0000   1.0000
     1.0000   1.0000   1.0000   1.0000   1.0000   1.0000   1.0000   1.0000
     1.0000   1.0000   1.0000   1.0000   0.0000   0.0000   0.0000   0.0000
     0.0000   0.0000   0.0000   0.0000

          k = 0.3536 0.2652-0.2652 (  6053 PWs)   bands (ev):

   -14.6774 -14.6774 -14.6725 -14.6725 -14.6184 -14.6184 -14.5496 -14.5496
   -14.5446 -14.5446 -14.4076 -14.4076 -14.3985 -14.3985 -14.3751 -14.3751
   -14.3056 -14.3056 -14.2999 -14.2999  -1.8698  -1.8698   1.1743   1.1743
     5.5916   5.5916   5.8291   5.8291   7.2281   7.2281   9.9507   9.9507
    10.2883  10.2883  12.6471  12.6471

     occupation numbers 
     1.0000   1.0000   1.0000   1.0000   1.0000   1.0000   1.0000   1.0000
     1.0000   1.0000   1.0000   1.0000   1.0000   1.0000   1.0000   1.0000
     1.0000   1.0000   1.0000   1.0000   1.0000   1.0000   1.0000   1.0000
     1.0000   1.0000   1.0000   1.0000   0.0000   0.0000   0.0000   0.0000
     0.0000   0.0000   0.0000   0.0000

          k =-0.3094-0.3977 0.3977 (  6060 PWs)   bands (ev):

   -14.6779 -14.6779 -14.6741 -14.6741 -14.6159 -14.6159 -14.5459 -14.5459
   -14.5452 -14.5452 -14.4049 -14.4049 -14.4027 -14.4027 -14.3789 -14.3789
   -14.3033 -14.3033 -14.2995 -14.2995  -1.7020  -1.7020   0.8915   0.8915
     5.5049   5.5049   5.8328   5.8328   7.1772   7.1772  10.0116  10.0116
    10.2307  10.2307  12.7406  12.7406

     occupation numbers 
     1.0000   1.0000   1.0000   1.0000   1.0000   1.0000   1.0000   1.0000
     1.0000   1.0000   1.0000   1.0000   1.0000   1.0000   1.0000   1.0000
     1.0000   1.0000   1.0000   1.0000   1.0000   1.0000   1.0000   1.0000
     1.0000   1.0000   1.0000   1.0000   0.0000   0.0000   0.0000   0.0000
     0.0000   0.0000   0.0000   0.0000

          k =-0.2652-0.3536 0.3536 (  6070 PWs)   bands (ev):

   -14.6771 -14.6771 -14.6748 -14.6748 -14.6160 -14.6160 -14.5478 -14.5478
   -14.5442 -14.5442 -14.4053 -14.4053 -14.4010 -14.4010 -14.3793 -14.3793
   -14.3023 -14.3023 -14.3008 -14.3008  -1.7390  -1.7390   0.9518   0.9518
     5.4757   5.4757   5.8922   5.8922   7.1729   7.1729  10.0714  10.0714
    10.1683  10.1683  12.7535  12.7535

     occupation numbers 
     1.0000   1.0000   1.0000   1.0000   1.0000   1.0000   1.0000   1.0000
     1.0000   1.0000   1.0000   1.0000   1.0000   1.0000   1.0000   1.0000
     1.0000   1.0000   1.0000   1.0000   1.0000   1.0000   1.0000   1.0000
     1.0000   1.0000   1.0000   1.0000   0.0000   0.0000   0.0000   0.0000
     0.0000   0.0000   0.0000   0.0000

          k =-0.2210-0.3094 0.3094 (  6063 PWs)   bands (ev):

   -14.6748 -14.6748 -14.6744 -14.6744 -14.6186 -14.6186 -14.5520 -14.5520
   -14.5449 -14.5449 -14.4059 -14.4059 -14.3969 -14.3969 -14.3758 -14.3758
   -14.3038 -14.3038 -14.3025 -14.3025  -1.9558  -1.9558   1.3295   1.3295
     5.5062   5.5062   6.0042   6.0042   7.2146   7.2146  10.0976  10.0976
    10.1270  10.1270  12.6399  12.6399

     occupation numbers 
     1.0000   1.0000   1.0000   1.0000   1.0000   1.0000   1.0000   1.0000
     1.0000   1.0000   1.0000   1.0000   1.0000   1.0000   1.0000   1.0000
     1.0000   1.0000   1.0000   1.0000   1.0000   1.0000   1.0000   1.0000
     1.0000   1.0000   1.0000   1.0000   0.0000   0.0000   0.0000   0.0000
     0.0000   0.0000   0.0000   0.0000

          k =-0.1768-0.2652 0.2652 (  6060 PWs)   bands (ev):

   -14.6726 -14.6726 -14.6713 -14.6713 -14.6233 -14.6233 -14.5577 -14.5577
   -14.5486 -14.5486 -14.4037 -14.4037 -14.3926 -14.3926 -14.3692 -14.3692
   -14.3084 -14.3084 -14.3042 -14.3042  -2.2446  -2.2446   1.9123   1.9123
     5.5979   5.5979   6.1632   6.1632   7.2977   7.2977   9.9939   9.9939
    10.1443  10.1443  12.0690  12.0691

     occupation numbers 
     1.0000   1.0000   1.0000   1.0000   1.0000   1.0000   1.0000   1.0000
     1.0000   1.0000   1.0000   1.0000   1.0000   1.0000   1.0000   1.0000
     1.0000   1.0000   1.0000   1.0000   1.0000   1.0000   1.0000   1.0000
     1.0000   1.0000   1.0000   1.0000   0.0000   0.0000   0.0000   0.0000
     0.0000   0.0000   0.0000   0.0000

          k =-0.1326-0.2210 0.2210 (  6046 PWs)   bands (ev):

   -14.6694 -14.6694 -14.6664 -14.6664 -14.6291 -14.6291 -14.5648 -14.5648
   -14.5554 -14.5554 -14.3984 -14.3984 -14.3870 -14.3870 -14.3611 -14.3611
   -14.3146 -14.3146 -14.3075 -14.3075  -2.5300  -2.5300   2.6149   2.6149
     5.7512   5.7512   6.3591   6.3591   7.4103   7.4103   9.8262   9.8262
    10.0561  10.0561  11.3393  11.3393

     occupation numbers 
     1.0000   1.0000   1.0000   1.0000   1.0000   1.0000   1.0000   1.0000
     1.0000   1.0000   1.0000   1.0000   1.0000   1.0000   1.0000   1.0000
     1.0000   1.0000   1.0000   1.0000   1.0000   1.0000   1.0000   1.0000
     1.0000   1.0000   1.0000   1.0000   0.0000   0.0000   0.0000   0.0000
     0.0000   0.0000   0.0000   0.0000

          k =-0.0884-0.1768 0.1768 (  6060 PWs)   bands (ev):

   -14.6645 -14.6645 -14.6603 -14.6603 -14.6350 -14.6350 -14.5733 -14.5733
   -14.5648 -14.5648 -14.3904 -14.3904 -14.3799 -14.3799 -14.3531 -14.3531
   -14.3223 -14.3223 -14.3126 -14.3126  -2.7759  -2.7759   3.3825   3.3825
     5.9660   5.9660   6.5744   6.5744   7.5232   7.5232   9.5903   9.5903
     9.8002   9.8002  10.6848  10.6848

     occupation numbers 
     1.0000   1.0000   1.0000   1.0000   1.0000   1.0000   1.0000   1.0000
     1.0000   1.0000   1.0000   1.0000   1.0000   1.0000   1.0000   1.0000
     1.0000   1.0000   1.0000   1.0000   1.0000   1.0000   1.0000   1.0000
     1.0000   1.0000   1.0000   1.0000   0.0000   0.0000   0.0000   0.0000
     0.0000   0.0000   0.0000   0.0000

          k =-0.0442-0.1326 0.1326 (  6051 PWs)   bands (ev):

   -14.6584 -14.6584 -14.6536 -14.6536 -14.6401 -14.6401 -14.5822 -14.5822
   -14.5755 -14.5755 -14.3804 -14.3804 -14.3713 -14.3713 -14.3462 -14.3462
   -14.3314 -14.3314 -14.3193 -14.3193  -2.9657  -2.9657   4.1615   4.1615
     6.2414   6.2414   6.7767   6.7767   7.5669   7.5669   9.3363   9.3363
     9.4438   9.4438  10.1135  10.1135

     occupation numbers 
     1.0000   1.0000   1.0000   1.0000   1.0000   1.0000   1.0000   1.0000
     1.0000   1.0000   1.0000   1.0000   1.0000   1.0000   1.0000   1.0000
     1.0000   1.0000   1.0000   1.0000   1.0000   1.0000   1.0000   1.0000
     1.0000   1.0000   1.0000   1.0000   0.0000   0.0000   0.0000   0.0000
     0.0000   0.0000   0.0000   0.0000

          k = 0.0000-0.0884 0.0884 (  6039 PWs)   bands (ev):

   -14.6519 -14.6519 -14.6480 -14.6480 -14.6433 -14.6433 -14.5897 -14.5897
   -14.5857 -14.5857 -14.3692 -14.3692 -14.3623 -14.3623 -14.3420 -14.3420
   -14.3402 -14.3402 -14.3276 -14.3276  -3.0914  -3.0914   4.8643   4.8643
     6.5763   6.5763   6.9100   6.9100   7.4272   7.4272   9.1574   9.1574
     9.1963   9.1963   9.5914   9.5914

     occupation numbers 
     1.0000   1.0000   1.0000   1.0000   1.0000   1.0000   1.0000   1.0000
     1.0000   1.0000   1.0000   1.0000   1.0000   1.0000   1.0000   1.0000
     1.0000   1.0000   1.0000   1.0000   1.0000   1.0000   1.0000   1.0000
     1.0000   1.0000   0.8013   0.8013   0.0000   0.0000   0.0000   0.0000
     0.0000   0.0000   0.0000   0.0000

          k = 0.1768 0.0000 0.0000 (  6058 PWs)   bands (ev):

   -14.6512 -14.6512 -14.6512 -14.6512 -14.6497 -14.6497 -14.5867 -14.5867
   -14.5717 -14.5717 -14.3917 -14.3917 -14.3565 -14.3565 -14.3376 -14.3376
   -14.3376 -14.3376 -14.3249 -14.3249  -2.9986  -2.9986   4.4160   4.4160
     6.3499   6.3499   6.3499   6.3499   8.1615   8.1615   8.5848   8.5848
     9.9214   9.9214   9.9214   9.9214

     occupation numbers 
     1.0000   1.0000   1.0000   1.0000   1.0000   1.0000   1.0000   1.0000
     1.0000   1.0000   1.0000   1.0000   1.0000   1.0000   1.0000   1.0000
     1.0000   1.0000   1.0000   1.0000   1.0000   1.0000   1.0000   1.0000
     1.0000   1.0000   1.0000   1.0000   0.0000   0.0000   0.0000   0.0000
     0.0000   0.0000   0.0000   0.0000

          k = 0.2210 0.0442-0.0442 (  6052 PWs)   bands (ev):

   -14.6590 -14.6590 -14.6556 -14.6556 -14.6454 -14.6454 -14.5800 -14.5800
   -14.5606 -14.5606 -14.4046 -14.4046 -14.3642 -14.3642 -14.3381 -14.3381
   -14.3305 -14.3305 -14.3193 -14.3193  -2.8727  -2.8727   3.8730   3.8730
     6.1068   6.1068   6.1227   6.1227   8.3443   8.3443   8.5798   8.5798
    10.2679  10.2679  10.3497  10.3497

     occupation numbers 
     1.0000   1.0000   1.0000   1.0000   1.0000   1.0000   1.0000   1.0000
     1.0000   1.0000   1.0000   1.0000   1.0000   1.0000   1.0000   1.0000
     1.0000   1.0000   1.0000   1.0000   1.0000   1.0000   1.0000   1.0000
     1.0000   1.0000   1.0000   1.0000   0.0000   0.0000   0.0000   0.0000
     0.0000   0.0000   0.0000   0.0000

          k = 0.2652 0.0884-0.0884 (  6054 PWs)   bands (ev):

   -14.6673 -14.6673 -14.6609 -14.6609 -14.6384 -14.6384 -14.5712 -14.5712
   -14.5495 -14.5495 -14.4156 -14.4156 -14.3739 -14.3739 -14.3450 -14.3450
   -14.3225 -14.3225 -14.3108 -14.3108  -2.6828  -2.6828   3.1972   3.1972
     5.8264   5.8264   5.9234   5.9234   8.2709   8.2709   8.8734   8.8734
    10.5571  10.5571  10.7846  10.7846

     occupation numbers 
     1.0000   1.0000   1.0000   1.0000   1.0000   1.0000   1.0000   1.0000
     1.0000   1.0000   1.0000   1.0000   1.0000   1.0000   1.0000   1.0000
     1.0000   1.0000   1.0000   1.0000   1.0000   1.0000   1.0000   1.0000
     1.0000   1.0000   1.0000   1.0000   0.0000   0.0000   0.0000   0.0000
     0.0000   0.0000   0.0000   0.0000

          k = 0.3094 0.1326-0.1326 (  6054 PWs)   bands (ev):

   -14.6746 -14.6746 -14.6660 -14.6660 -14.6297 -14.6297 -14.5620 -14.5620
   -14.5404 -14.5404 -14.4236 -14.4236 -14.3835 -14.3835 -14.3547 -14.3547
   -14.3154 -14.3154 -14.3030 -14.3030  -2.4366  -2.4366   2.4955   2.4955
     5.5433   5.5433   5.7700   5.7700   8.1294   8.1294   9.2573   9.2573
    10.7262  10.7262  11.1070  11.1070

     occupation numbers 
     1.0000   1.0000   1.0000   1.0000   1.0000   1.0000   1.0000   1.0000
     1.0000   1.0000   1.0000   1.0000   1.0000   1.0000   1.0000   1.0000
     1.0000   1.0000   1.0000   1.0000   1.0000   1.0000   1.0000   1.0000
     1.0000   1.0000   1.0000   1.0000   0.0000   0.0000   0.0000   0.0000
     0.0000   0.0000   0.0000   0.0000

          k = 0.3536 0.1768-0.1768 (  6061 PWs)   bands (ev):

   -14.6804 -14.6804 -14.6702 -14.6702 -14.6205 -14.6205 -14.5535 -14.5535
   -14.5347 -14.5347 -14.4273 -14.4273 -14.3925 -14.3925 -14.3654 -14.3654
   -14.3094 -14.3094 -14.2967 -14.2967  -2.1506  -2.1506   1.8346   1.8346
     5.2922   5.2922   5.6718   5.6718   7.9865   7.9865   9.5825   9.5825
    10.7634  10.7634  11.4661  11.4661

     occupation numbers 
     1.0000   1.0000   1.0000   1.0000   1.0000   1.0000   1.0000   1.0000
     1.0000   1.0000   1.0000   1.0000   1.0000   1.0000   1.0000   1.0000
     1.0000   1.0000   1.0000   1.0000   1.0000   1.0000   1.0000   1.0000
     1.0000   1.0000   1.0000   1.0000   0.0000   0.0000   0.0000   0.0000
     0.0000   0.0000   0.0000   0.0000

          k = 0.3977 0.2210-0.2210 (  6055 PWs)   bands (ev):

   -14.6844 -14.6844 -14.6735 -14.6735 -14.6122 -14.6122 -14.5460 -14.5460
   -14.5332 -14.5332 -14.4263 -14.4263 -14.4006 -14.4006 -14.3756 -14.3756
   -14.3047 -14.3047 -14.2924 -14.2924  -1.8603  -1.8603   1.2765   1.2765
     5.0911   5.0911   5.6332   5.6332   7.8703   7.8703   9.7822   9.7822
    10.7081  10.7081  11.9841  11.9841

     occupation numbers 
     1.0000   1.0000   1.0000   1.0000   1.0000   1.0000   1.0000   1.0000
     1.0000   1.0000   1.0000   1.0000   1.0000   1.0000   1.0000   1.0000
     1.0000   1.0000   1.0000   1.0000   1.0000   1.0000   1.0000   1.0000
     1.0000   1.0000   1.0000   1.0000   0.0000   0.0000   0.0000   0.0000
     0.0000   0.0000   0.0000   0.0000

          k =-0.2652-0.4419 0.4419 (  6059 PWs)   bands (ev):

   -14.6864 -14.6864 -14.6760 -14.6760 -14.6060 -14.6060 -14.5399 -14.5399
   -14.5356 -14.5356 -14.4207 -14.4207 -14.4077 -14.4077 -14.3840 -14.3840
   -14.3011 -14.3011 -14.2905 -14.2905  -1.6420  -1.6420   0.9113   0.9113
     4.9490   4.9490   5.6553   5.6553   7.7937   7.7937   9.9017   9.9017
    10.6087  10.6087  12.5527  12.5527

     occupation numbers 
     1.0000   1.0000   1.0000   1.0000   1.0000   1.0000   1.0000   1.0000
     1.0000   1.0000   1.0000   1.0000   1.0000   1.0000   1.0000   1.0000
     1.0000   1.0000   1.0000   1.0000   1.0000   1.0000   1.0000   1.0000
     1.0000   1.0000   1.0000   1.0000   0.0000   0.0000   0.0000   0.0000
     0.0000   0.0000   0.0000   0.0000

          k =-0.2210-0.3977 0.3977 (  6065 PWs)   bands (ev):

   -14.6862 -14.6862 -14.6775 -14.6775 -14.6033 -14.6033 -14.5408 -14.5408
   -14.5357 -14.5357 -14.4133 -14.4133 -14.4116 -14.4116 -14.3896 -14.3896
   -14.2989 -14.2989 -14.2910 -14.2910  -1.6066  -1.6066   0.8560   0.8560
     4.8720   4.8720   5.7362   5.7362   7.7612   7.7612  10.0013  10.0013
    10.4932  10.4932  12.8591  12.8591

     occupation numbers 
     1.0000   1.0000   1.0000   1.0000   1.0000   1.0000   1.0000   1.0000
     1.0000   1.0000   1.0000   1.0000   1.0000   1.0000   1.0000   1.0000
     1.0000   1.0000   1.0000   1.0000   1.0000   1.0000   1.0000   1.0000
     1.0000   1.0000   1.0000   1.0000   0.0000   0.0000   0.0000   0.0000
     0.0000   0.0000   0.0000   0.0000

          k =-0.1768-0.3536 0.3536 (  6059 PWs)   bands (ev):

   -14.6840 -14.6840 -14.6779 -14.6779 -14.6049 -14.6049 -14.5472 -14.5472
   -14.5343 -14.5343 -14.4163 -14.4163 -14.4013 -14.4013 -14.3905 -14.3905
   -14.2981 -14.2981 -14.2941 -14.2941  -1.7786  -1.7786   1.1354   1.1354
     4.8656   4.8656   5.8714   5.8714   7.7719   7.7719  10.1026  10.1026
    10.3646  10.3646  12.6038  12.6038

     occupation numbers 
     1.0000   1.0000   1.0000   1.0000   1.0000   1.0000   1.0000   1.0000
     1.0000   1.0000   1.0000   1.0000   1.0000   1.0000   1.0000   1.0000
     1.0000   1.0000   1.0000   1.0000   1.0000   1.0000   1.0000   1.0000
     1.0000   1.0000   1.0000   1.0000   0.0000   0.0000   0.0000   0.0000
     0.0000   0.0000   0.0000   0.0000

          k =-0.1326-0.3094 0.3094 (  6053 PWs)   bands (ev):

   -14.6797 -14.6797 -14.6769 -14.6769 -14.6104 -14.6104 -14.5541 -14.5541
   -14.5367 -14.5367 -14.4157 -14.4157 -14.3958 -14.3958 -14.3822 -14.3822
   -14.2997 -14.2997 -14.2989 -14.2989  -2.0567  -2.0567   1.6422   1.6422
     4.9362   4.9362   6.0528   6.0528   7.8185   7.8185  10.1830  10.1830
    10.2046  10.2046  11.9510  11.9510

     occupation numbers 
     1.0000   1.0000   1.0000   1.0000   1.0000   1.0000   1.0000   1.0000
     1.0000   1.0000   1.0000   1.0000   1.0000   1.0000   1.0000   1.0000
     1.0000   1.0000   1.0000   1.0000   1.0000   1.0000   1.0000   1.0000
     1.0000   1.0000   1.0000   1.0000   0.0000   0.0000   0.0000   0.0000
     0.0000   0.0000   0.0000   0.0000

          k =-0.0884-0.2652 0.2652 (  6050 PWs)   bands (ev):

   -14.6744 -14.6744 -14.6737 -14.6737 -14.6186 -14.6186 -14.5611 -14.5611
   -14.5431 -14.5431 -14.4110 -14.4110 -14.3920 -14.3920 -14.3692 -14.3692
   -14.3076 -14.3076 -14.3014 -14.3014  -2.3491  -2.3491   2.2702   2.2702
     5.0932   5.0932   6.2665   6.2665   7.8823   7.8824   9.9899   9.9899
    10.1503  10.1503  11.3414  11.3414

     occupation numbers 
     1.0000   1.0000   1.0000   1.0000   1.0000   1.0000   1.0000   1.0000
     1.0000   1.0000   1.0000   1.0000   1.0000   1.0000   1.0000   1.0000
     1.0000   1.0000   1.0000   1.0000   1.0000   1.0000   1.0000   1.0000
     1.0000   1.0000   1.0000   1.0000   0.0000   0.0000   0.0000   0.0000
     0.0000   0.0000   0.0000   0.0000

          k =-0.0442-0.2210 0.2210 (  6046 PWs)   bands (ev):

   -14.6703 -14.6703 -14.6665 -14.6665 -14.6276 -14.6276 -14.5685 -14.5685
   -14.5528 -14.5528 -14.4028 -14.4028 -14.3865 -14.3865 -14.3565 -14.3565
   -14.3173 -14.3173 -14.3057 -14.3057  -2.6101  -2.6101   2.9460   2.9460
     5.3514   5.3514   6.4888   6.4888   7.9192   7.9192   9.7270   9.7271
     9.8905   9.8905  10.9581  10.9581

     occupation numbers 
     1.0000   1.0000   1.0000   1.0000   1.0000   1.0000   1.0000   1.0000
     1.0000   1.0000   1.0000   1.0000   1.0000   1.0000   1.0000   1.0000
     1.0000   1.0000   1.0000   1.0000   1.0000   1.0000   1.0000   1.0000
     1.0000   1.0000   1.0000   1.0000   0.0000   0.0000   0.0000   0.0000
     0.0000   0.0000   0.0000   0.0000

          k = 0.0000-0.1768 0.1768 (  6047 PWs)   bands (ev):

   -14.6647 -14.6647 -14.6589 -14.6589 -14.6355 -14.6355 -14.5760 -14.5760
   -14.5642 -14.5642 -14.3922 -14.3922 -14.3792 -14.3792 -14.3466 -14.3466
   -14.3276 -14.3276 -14.3118 -14.3118  -2.8189  -2.8189   3.6016   3.6016
     5.7318   5.7318   6.6788   6.6788   7.8382   7.8382   9.4771   9.4771
     9.5757   9.5757  10.6171  10.6171

     occupation numbers 
     1.0000   1.0000   1.0000   1.0000   1.0000   1.0000   1.0000   1.0000
     1.0000   1.0000   1.0000   1.0000   1.0000   1.0000   1.0000   1.0000
     1.0000   1.0000   1.0000   1.0000   1.0000   1.0000   1.0000   1.0000
     1.0000   1.0000   1.0000   1.0000   0.0000   0.0000   0.0000   0.0000
     0.0000   0.0000   0.0000   0.0000

          k = 0.2652 0.0000 0.0000 (  6058 PWs)   bands (ev):

   -14.6585 -14.6585 -14.6585 -14.6585 -14.6498 -14.6498 -14.5749 -14.5749
   -14.5482 -14.5482 -14.4201 -14.4201 -14.3677 -14.3677 -14.3274 -14.3274
   -14.3274 -14.3274 -14.3234 -14.3234  -2.7684  -2.7684   3.5609   3.5609
     5.8912   5.8912   5.8912   5.8912   8.2435   8.2435   8.7242   8.7242
    10.6689  10.6689  10.6689  10.6689

     occupation numbers 
     1.0000   1.0000   1.0000   1.0000   1.0000   1.0000   1.0000   1.0000
     1.0000   1.0000   1.0000   1.0000   1.0000   1.0000   1.0000   1.0000
     1.0000   1.0000   1.0000   1.0000   1.0000   1.0000   1.0000   1.0000
     1.0000   1.0000   1.0000   1.0000   0.0000   0.0000   0.0000   0.0000
     0.0000   0.0000   0.0000   0.0000

          k = 0.3094 0.0442-0.0442 (  6047 PWs)   bands (ev):

   -14.6660 -14.6660 -14.6630 -14.6630 -14.6438 -14.6438 -14.5668 -14.5668
   -14.5356 -14.5356 -14.4340 -14.4340 -14.3760 -14.3760 -14.3339 -14.3339
   -14.3208 -14.3208 -14.3142 -14.3142  -2.5987  -2.5987   3.0561   3.0561
     5.6318   5.6318   5.6882   5.6882   8.2286   8.2286   8.8263   8.8263
    10.9973  10.9973  11.0256  11.0257

     occupation numbers 
     1.0000   1.0000   1.0000   1.0000   1.0000   1.0000   1.0000   1.0000
     1.0000   1.0000   1.0000   1.0000   1.0000   1.0000   1.0000   1.0000
     1.0000   1.0000   1.0000   1.0000   1.0000   1.0000   1.0000   1.0000
     1.0000   1.0000   1.0000   1.0000   0.0000   0.0000   0.0000   0.0000
     0.0000   0.0000   0.0000   0.0000

          k = 0.3536 0.0884-0.0884 (  6057 PWs)   bands (ev):

   -14.6749 -14.6749 -14.6677 -14.6677 -14.6334 -14.6334 -14.5575 -14.5575
   -14.5248 -14.5248 -14.4448 -14.4448 -14.3859 -14.3859 -14.3458 -14.3458
   -14.3139 -14.3139 -14.3036 -14.3036  -2.3696  -2.3696   2.4645   2.4645
     5.3122   5.3122   5.5324   5.5324   8.3223   8.3223   8.9715   8.9715
    11.0675  11.0675  11.2611  11.2611

     occupation numbers 
     1.0000   1.0000   1.0000   1.0000   1.0000   1.0000   1.0000   1.0000
     1.0000   1.0000   1.0000   1.0000   1.0000   1.0000   1.0000   1.0000
     1.0000   1.0000   1.0000   1.0000   1.0000   1.0000   1.0000   1.0000
     1.0000   1.0000   1.0000   1.0000   0.0000   0.0000   0.0000   0.0000
     0.0000   0.0000   0.0000   0.0000

          k = 0.3977 0.1326-0.1326 (  6053 PWs)   bands (ev):

   -14.6829 -14.6829 -14.6720 -14.6720 -14.6212 -14.6212 -14.5480 -14.5480
   -14.5174 -14.5174 -14.4512 -14.4512 -14.3960 -14.3960 -14.3595 -14.3595
   -14.3075 -14.3075 -14.2944 -14.2944  -2.0933  -2.0933   1.8626   1.8626
     4.9937   4.9937   5.4337   5.4337   8.2924   8.2924   9.3548   9.3548
    11.0739  11.0739  11.3393  11.3393

     occupation numbers 
     1.0000   1.0000   1.0000   1.0000   1.0000   1.0000   1.0000   1.0000
     1.0000   1.0000   1.0000   1.0000   1.0000   1.0000   1.0000   1.0000
     1.0000   1.0000   1.0000   1.0000   1.0000   1.0000   1.0000   1.0000
     1.0000   1.0000   1.0000   1.0000   0.0000   0.0000   0.0000   0.0000
     0.0000   0.0000   0.0000   0.0000

          k = 0.4419 0.1768-0.1768 (  6051 PWs)   bands (ev):

   -14.6892 -14.6892 -14.6756 -14.6756 -14.6090 -14.6090 -14.5390 -14.5390
   -14.5152 -14.5152 -14.4517 -14.4517 -14.4060 -14.4060 -14.3733 -14.3733
   -14.3022 -14.3022 -14.2873 -14.2873  -1.7965  -1.7965   1.3145   1.3145
     4.7199   4.7199   5.3972   5.3972   8.2151   8.2151   9.7721   9.7721
    11.2518  11.2518  11.2898  11.2898

     occupation numbers 
     1.0000   1.0000   1.0000   1.0000   1.0000   1.0000   1.0000   1.0000
     1.0000   1.0000   1.0000   1.0000   1.0000   1.0000   1.0000   1.0000
     1.0000   1.0000   1.0000   1.0000   1.0000   1.0000   1.0000   1.0000
     1.0000   1.0000   1.0000   1.0000   0.0000   0.0000   0.0000   0.0000
     0.0000   0.0000   0.0000   0.0000

          k =-0.2210-0.4861 0.4861 (  6058 PWs)   bands (ev):

   -14.6932 -14.6932 -14.6784 -14.6784 -14.5987 -14.5987 -14.5309 -14.5309
   -14.5183 -14.5183 -14.4462 -14.4462 -14.4153 -14.4153 -14.3852 -14.3852
   -14.2981 -14.2981 -14.2829 -14.2829  -1.5396  -1.5396   0.9020   0.9020
     4.5115   4.5115   5.4243   5.4243   8.1567   8.1567  10.0300  10.0300
    11.1679  11.1680  11.7312  11.7312

     occupation numbers 
     1.0000   1.0000   1.0000   1.0000   1.0000   1.0000   1.0000   1.0000
     1.0000   1.0000   1.0000   1.0000   1.0000   1.0000   1.0000   1.0000
     1.0000   1.0000   1.0000   1.0000   1.0000   1.0000   1.0000   1.0000
     1.0000   1.0000   1.0000   1.0000   0.0000   0.0000   0.0000   0.0000
     0.0000   0.0000   0.0000   0.0000

          k =-0.1768-0.4419 0.4419 (  6052 PWs)   bands (ev):

   -14.6947 -14.6947 -14.6804 -14.6804 -14.5921 -14.5921 -14.5259 -14.5259
   -14.5247 -14.5247 -14.4356 -14.4356 -14.4231 -14.4231 -14.3936 -14.3936
   -14.2953 -14.2953 -14.2815 -14.2815  -1.4345  -1.4345   0.7473   0.7473
     4.3800   4.3800   5.5130   5.5130   8.1349   8.1349  10.1648  10.1648
    11.0112  11.0112  12.3677  12.3677

     occupation numbers 
     1.0000   1.0000   1.0000   1.0000   1.0000   1.0000   1.0000   1.0000
     1.0000   1.0000   1.0000   1.0000   1.0000   1.0000   1.0000   1.0000
     1.0000   1.0000   1.0000   1.0000   1.0000   1.0000   1.0000   1.0000
     1.0000   1.0000   1.0000   1.0000   0.0000   0.0000   0.0000   0.0000
     0.0000   0.0000   0.0000   0.0000

          k =-0.1326-0.3977 0.3977 (  6051 PWs)   bands (ev):

   -14.6934 -14.6934 -14.6812 -14.6812 -14.5907 -14.5907 -14.5361 -14.5361
   -14.5215 -14.5215 -14.4280 -14.4280 -14.4209 -14.4209 -14.3981 -14.3981
   -14.2940 -14.2940 -14.2834 -14.2834  -1.5539  -1.5539   0.9246   0.9246
     4.3353   4.3353   5.6584   5.6584   8.1488   8.1488  10.2736  10.2736
    10.8277  10.8277  12.4764  12.4764

     occupation numbers 
     1.0000   1.0000   1.0000   1.0000   1.0000   1.0000   1.0000   1.0000
     1.0000   1.0000   1.0000   1.0000   1.0000   1.0000   1.0000   1.0000
     1.0000   1.0000   1.0000   1.0000   1.0000   1.0000   1.0000   1.0000
     1.0000   1.0000   1.0000   1.0000   0.0000   0.0000   0.0000   0.0000
     0.0000   0.0000   0.0000   0.0000

          k =-0.0884-0.3536 0.3536 (  6047 PWs)   bands (ev):

   -14.6894 -14.6894 -14.6807 -14.6807 -14.5950 -14.5950 -14.5464 -14.5464
   -14.5232 -14.5232 -14.4283 -14.4283 -14.4036 -14.4036 -14.3990 -14.3990
   -14.2944 -14.2944 -14.2886 -14.2886  -1.8158  -1.8158   1.3436   1.3436
     4.3897   4.3897   5.8512   5.8512   8.1848   8.1848  10.3830  10.3830
    10.6024  10.6024  11.8072  11.8072

     occupation numbers 
     1.0000   1.0000   1.0000   1.0000   1.0000   1.0000   1.0000   1.0000
     1.0000   1.0000   1.0000   1.0000   1.0000   1.0000   1.0000   1.0000
     1.0000   1.0000   1.0000   1.0000   1.0000   1.0000   1.0000   1.0000
     1.0000   1.0000   1.0000   1.0000   0.0000   0.0000   0.0000   0.0000
     0.0000   0.0000   0.0000   0.0000

          k =-0.0442-0.3094 0.3094 (  6053 PWs)   bands (ev):

   -14.6831 -14.6831 -14.6787 -14.6787 -14.6044 -14.6044 -14.5551 -14.5551
   -14.5300 -14.5300 -14.4233 -14.4233 -14.3970 -14.3970 -14.3856 -14.3856
   -14.2967 -14.2967 -14.2964 -14.2964  -2.1117  -2.1117   1.8758   1.8758
     4.5617   4.5617   6.0750   6.0750   8.2095   8.2095  10.3196  10.3196
    10.4142  10.4142  11.1938  11.1938

     occupation numbers 
     1.0000   1.0000   1.0000   1.0000   1.0000   1.0000   1.0000   1.0000
     1.0000   1.0000   1.0000   1.0000   1.0000   1.0000   1.0000   1.0000
     1.0000   1.0000   1.0000   1.0000   1.0000   1.0000   1.0000   1.0000
     1.0000   1.0000   1.0000   1.0000   0.0000   0.0000   0.0000   0.0000
     0.0000   0.0000   0.0000   0.0000

          k = 0.0000-0.2652 0.2652 (  6057 PWs)   bands (ev):

   -14.6752 -14.6752 -14.6749 -14.6749 -14.6163 -14.6163 -14.5623 -14.5623
   -14.5405 -14.5405 -14.4143 -14.4143 -14.3926 -14.3926 -14.3690 -14.3690
   -14.3070 -14.3070 -14.3003 -14.3003  -2.3848  -2.3848   2.4312   2.4312
     4.8760   4.8760   6.3025   6.3025   8.1526   8.1526  10.0024  10.0024
    10.1577  10.1577  11.0039  11.0039

     occupation numbers 
     1.0000   1.0000   1.0000   1.0000   1.0000   1.0000   1.0000   1.0000
     1.0000   1.0000   1.0000   1.0000   1.0000   1.0000   1.0000   1.0000
     1.0000   1.0000   1.0000   1.0000   1.0000   1.0000   1.0000   1.0000
     1.0000   1.0000   1.0000   1.0000   0.0000   0.0000   0.0000   0.0000
     0.0000   0.0000   0.0000   0.0000

          k = 0.3536 0.0000 0.0000 (  6030 PWs)   bands (ev):

   -14.6666 -14.6666 -14.6666 -14.6666 -14.6451 -14.6451 -14.5591 -14.5591
   -14.5210 -14.5210 -14.4511 -14.4511 -14.3829 -14.3829 -14.3284 -14.3284
   -14.3159 -14.3159 -14.3159 -14.3159  -2.4488  -2.4488   2.7119   2.7119
     5.4787   5.4787   5.4787   5.4787   7.9583   7.9583   8.8923   8.8923
    11.4754  11.4754  11.4754  11.4755

     occupation numbers 
     1.0000   1.0000   1.0000   1.0000   1.0000   1.0000   1.0000   1.0000
     1.0000   1.0000   1.0000   1.0000   1.0000   1.0000   1.0000   1.0000
     1.0000   1.0000   1.0000   1.0000   1.0000   1.0000   1.0000   1.0000
     1.0000   1.0000   1.0000   1.0000   0.0000   0.0000   0.0000   0.0000
     0.0000   0.0000   0.0000   0.0000

          k = 0.3977 0.0442-0.0442 (  6054 PWs)   bands (ev):

   -14.6734 -14.6734 -14.6708 -14.6708 -14.6370 -14.6370 -14.5497 -14.5497
   -14.5078 -14.5078 -14.4654 -14.4654 -14.3924 -14.3924 -14.3386 -14.3386
   -14.3099 -14.3099 -14.3062 -14.3062  -2.2374  -2.2374   2.2456   2.2456
     5.2279   5.2279   5.3153   5.3153   7.9822   7.9822   8.8578   8.8578
    11.6154  11.6154  11.8171  11.8171

     occupation numbers 
     1.0000   1.0000   1.0000   1.0000   1.0000   1.0000   1.0000   1.0000
     1.0000   1.0000   1.0000   1.0000   1.0000   1.0000   1.0000   1.0000
     1.0000   1.0000   1.0000   1.0000   1.0000   1.0000   1.0000   1.0000
     1.0000   1.0000   1.0000   1.0000   0.0000   0.0000   0.0000   0.0000
     0.0000   0.0000   0.0000   0.0000

          k = 0.4419 0.0884-0.0884 (  6061 PWs)   bands (ev):

   -14.6822 -14.6822 -14.6747 -14.6747 -14.6237 -14.6237 -14.5395 -14.5395
   -14.4978 -14.4978 -14.4752 -14.4752 -14.4030 -14.4030 -14.3537 -14.3537
   -14.3040 -14.3040 -14.2953 -14.2953  -1.9735  -1.9735   1.7326   1.7326
     4.8909   4.8909   5.2093   5.2093   8.1284   8.1284   8.9918   8.9918
    11.4851  11.4852  11.9812  11.9813

     occupation numbers 
     1.0000   1.0000   1.0000   1.0000   1.0000   1.0000   1.0000   1.0000
     1.0000   1.0000   1.0000   1.0000   1.0000   1.0000   1.0000   1.0000
     1.0000   1.0000   1.0000   1.0000   1.0000   1.0000   1.0000   1.0000
     1.0000   1.0000   1.0000   1.0000   0.0000   0.0000   0.0000   0.0000
     0.0000   0.0000   0.0000   0.0000

          k = 0.4861 0.1326-0.1326 (  6052 PWs)   bands (ev):

   -14.6903 -14.6903 -14.6782 -14.6782 -14.6086 -14.6086 -14.5294 -14.5294
   -14.4942 -14.4942 -14.4779 -14.4779 -14.4139 -14.4139 -14.3702 -14.3702
   -14.2989 -14.2989 -14.2859 -14.2859  -1.6765  -1.6765   1.2323   1.2323
     4.5525   4.5525   5.1666   5.1666   8.1709   8.1709   9.4518   9.4518
    11.3595  11.3595  11.9717  11.9717

     occupation numbers 
     1.0000   1.0000   1.0000   1.0000   1.0000   1.0000   1.0000   1.0000
     1.0000   1.0000   1.0000   1.0000   1.0000   1.0000   1.0000   1.0000
     1.0000   1.0000   1.0000   1.0000   1.0000   1.0000   1.0000   1.0000
     1.0000   1.0000   1.0000   1.0000   0.0000   0.0000   0.0000   0.0000
     0.0000   0.0000   0.0000   0.0000

          k =-0.1768-0.5303 0.5303 (  6053 PWs)   bands (ev):

   -14.6965 -14.6965 -14.6809 -14.6809 -14.5949 -14.5949 -14.5199 -14.5199
   -14.4966 -14.4966 -14.4740 -14.4740 -14.4247 -14.4247 -14.3851 -14.3851
   -14.2949 -14.2949 -14.2790 -14.2790  -1.3925  -1.3925   0.8125   0.8125
     4.2697   4.2697   5.1891   5.1891   8.1671   8.1671  10.0719  10.0719
    11.3423  11.3423  11.8473  11.8473

     occupation numbers 
     1.0000   1.0000   1.0000   1.0000   1.0000   1.0000   1.0000   1.0000
     1.0000   1.0000   1.0000   1.0000   1.0000   1.0000   1.0000   1.0000
     1.0000   1.0000   1.0000   1.0000   1.0000   1.0000   1.0000   1.0000
     1.0000   1.0000   1.0000   1.0000   0.0000   0.0000   0.0000   0.0000
     0.0000   0.0000   0.0000   0.0000

[...]

   -14.6971 -14.6971 -14.6866 -14.6866 -14.5825 -14.5825 -14.5203 -14.5203
   -14.4918 -14.4918 -14.4755 -14.4755 -14.4273 -14.4273 -14.3980 -14.3980
   -14.2886 -14.2886 -14.2783 -14.2783  -1.3174  -1.3174   0.7487   0.7487
     4.1561   4.1561   5.0138   5.0138   8.8243   8.8243   9.9101   9.9101
    10.8420  10.8420  12.3821  12.3821

     occupation numbers 
     1.0000   1.0000   1.0000   1.0000   1.0000   1.0000   1.0000   1.0000
     1.0000   1.0000   1.0000   1.0000   1.0000   1.0000   1.0000   1.0000
     1.0000   1.0000   1.0000   1.0000   1.0000   1.0000   1.0000   1.0000
     1.0000   1.0000   1.0000   1.0000   0.0000   0.0000   0.0000   0.0000
     0.0000   0.0000   0.0000   0.0000

          k =-0.1326-0.3977 0.5745 (  6042 PWs)   bands (ev):

   -14.7003 -14.7003 -14.6876 -14.6876 -14.5744 -14.5744 -14.5142 -14.5142
   -14.4936 -14.4936 -14.4713 -14.4713 -14.4368 -14.4368 -14.4054 -14.4054
   -14.2872 -14.2872 -14.2747 -14.2747  -1.1357  -1.1357   0.5151   0.5151
     4.0354   4.0354   4.9965   4.9965   8.8439   8.8439  10.0854  10.0854
    11.3632  11.3632  12.0483  12.0483

     occupation numbers 
     1.0000   1.0000   1.0000   1.0000   1.0000   1.0000   1.0000   1.0000
     1.0000   1.0000   1.0000   1.0000   1.0000   1.0000   1.0000   1.0000
     1.0000   1.0000   1.0000   1.0000   1.0000   1.0000   1.0000   1.0000
     1.0000   1.0000   1.0000   1.0000   0.0000   0.0000   0.0000   0.0000
     0.0000   0.0000   0.0000   0.0000

          k =-0.0884-0.3536 0.5303 (  6041 PWs)   bands (ev):

   -14.7002 -14.7002 -14.6877 -14.6877 -14.5738 -14.5738 -14.5171 -14.5171
   -14.4951 -14.4951 -14.4671 -14.4671 -14.4362 -14.4362 -14.4065 -14.4065
   -14.2871 -14.2871 -14.2750 -14.2750  -1.1903  -1.1903   0.5844   0.5844
     4.0023   4.0023   5.0656   5.0656   8.8892   8.8892  10.0771  10.0771
    11.4270  11.4270  12.0095  12.0095

     occupation numbers 
     1.0000   1.0000   1.0000   1.0000   1.0000   1.0000   1.0000   1.0000
     1.0000   1.0000   1.0000   1.0000   1.0000   1.0000   1.0000   1.0000
     1.0000   1.0000   1.0000   1.0000   1.0000   1.0000   1.0000   1.0000
     1.0000   1.0000   1.0000   1.0000   0.0000   0.0000   0.0000   0.0000
     0.0000   0.0000   0.0000   0.0000

          k =-0.0442-0.3094 0.4861 (  6046 PWs)   bands (ev):

   -14.6969 -14.6969 -14.6866 -14.6866 -14.5808 -14.5808 -14.5276 -14.5276
   -14.4974 -14.4974 -14.4647 -14.4647 -14.4231 -14.4231 -14.4021 -14.4021
   -14.2883 -14.2883 -14.2792 -14.2792  -1.4340  -1.4340   0.9038   0.9038
     4.0736   4.0736   5.2082   5.2082   8.9411   8.9411   9.9614   9.9614
    10.8490  10.8490  12.2361  12.2361

     occupation numbers 
     1.0000   1.0000   1.0000   1.0000   1.0000   1.0000   1.0000   1.0000
     1.0000   1.0000   1.0000   1.0000   1.0000   1.0000   1.0000   1.0000
     1.0000   1.0000   1.0000   1.0000   1.0000   1.0000   1.0000   1.0000
     1.0000   1.0000   1.0000   1.0000   0.0000   0.0000   0.0000   0.0000
     0.0000   0.0000   0.0000   0.0000

          k = 0.0000-0.2652 0.4419 (  6045 PWs)   bands (ev):

   -14.6908 -14.6908 -14.6843 -14.6843 -14.5935 -14.5935 -14.5384 -14.5384
   -14.5049 -14.5049 -14.4586 -14.4586 -14.4082 -14.4082 -14.3915 -14.3915
   -14.2910 -14.2910 -14.2866 -14.2866  -1.7322  -1.7322   1.3231   1.3231
     4.2685   4.2685   5.3986   5.3986   8.9407   8.9407   9.6070   9.6070
    10.6726  10.6726  12.0098  12.0098

     occupation numbers 
     1.0000   1.0000   1.0000   1.0000   1.0000   1.0000   1.0000   1.0000
     1.0000   1.0000   1.0000   1.0000   1.0000   1.0000   1.0000   1.0000
     1.0000   1.0000   1.0000   1.0000   1.0000   1.0000   1.0000   1.0000
     1.0000   1.0000   1.0000   1.0000   0.0000   0.0000   0.0000   0.0000
     0.0000   0.0000   0.0000   0.0000

          k =-0.1768-0.5303 0.7071 (  6053 PWs)   bands (ev):

   -14.6890 -14.6890 -14.6872 -14.6872 -14.5972 -14.5972 -14.5188 -14.5188
   -14.4996 -14.4996 -14.4738 -14.4738 -14.4246 -14.4246 -14.3810 -14.3810
   -14.2882 -14.2882 -14.2870 -14.2870  -1.4407  -1.4407   0.9415   0.9415
     4.4389   4.4389   4.8696   4.8696   8.5857   8.5857   8.9411   8.9411
    11.3606  11.3606  12.9707  12.9707

     occupation numbers 
     1.0000   1.0000   1.0000   1.0000   1.0000   1.0000   1.0000   1.0000
     1.0000   1.0000   1.0000   1.0000   1.0000   1.0000   1.0000   1.0000
     1.0000   1.0000   1.0000   1.0000   1.0000   1.0000   1.0000   1.0000
     1.0000   1.0000   1.0000   1.0000   0.0000   0.0000   0.0000   0.0000
     0.0000   0.0000   0.0000   0.0000

          k =-0.1326-0.4861 0.6629 (  6051 PWs)   bands (ev):

   -14.6958 -14.6958 -14.6895 -14.6895 -14.5799 -14.5799 -14.5086 -14.5086
   -14.5044 -14.5044 -14.4676 -14.4676 -14.4369 -14.4369 -14.3983 -14.3983
   -14.2853 -14.2853 -14.2792 -14.2792  -1.1367  -1.1367   0.5574   0.5574
     4.2092   4.2092   4.7480   4.7480   8.7517   8.7517   9.4159   9.4159
    11.1858  11.1858  12.9240  12.9240

     occupation numbers 
     1.0000   1.0000   1.0000   1.0000   1.0000   1.0000   1.0000   1.0000
     1.0000   1.0000   1.0000   1.0000   1.0000   1.0000   1.0000   1.0000
     1.0000   1.0000   1.0000   1.0000   1.0000   1.0000   1.0000   1.0000
     1.0000   1.0000   1.0000   1.0000   0.0000   0.0000   0.0000   0.0000
     0.0000   0.0000   0.0000   0.0000

          k =-0.0884-0.4419 0.6187 (  6041 PWs)   bands (ev):

   -14.7008 -14.7008 -14.6905 -14.6905 -14.5672 -14.5672 -14.5042 -14.5042
   -14.4967 -14.4967 -14.4696 -14.4696 -14.4481 -14.4481 -14.4101 -14.4101
   -14.2839 -14.2839 -14.2737 -14.2737  -0.8988  -0.8988   0.2817   0.2817
     4.0113   4.0113   4.7385   4.7385   8.8069   8.8069  10.1428  10.1428
    11.0825  11.0825  12.3446  12.3446

     occupation numbers 
     1.0000   1.0000   1.0000   1.0000   1.0000   1.0000   1.0000   1.0000
     1.0000   1.0000   1.0000   1.0000   1.0000   1.0000   1.0000   1.0000
     1.0000   1.0000   1.0000   1.0000   1.0000   1.0000   1.0000   1.0000
     1.0000   1.0000   1.0000   1.0000   0.0000   0.0000   0.0000   0.0000
     0.0000   0.0000   0.0000   0.0000

          k =-0.0442-0.3977 0.5745 (  6042 PWs)   bands (ev):

   -14.7027 -14.7027 -14.6905 -14.6905 -14.5640 -14.5640 -14.5008 -14.5008
   -14.4882 -14.4882 -14.4776 -14.4776 -14.4525 -14.4525 -14.4130 -14.4130
   -14.2838 -14.2838 -14.2719 -14.2719  -0.9008  -0.9008   0.2866   0.2866
     3.8986   3.8986   4.8275   4.8275   8.8839   8.8839  10.6111  10.6111
    11.2985  11.2985  11.6157  11.6157

     occupation numbers 
     1.0000   1.0000   1.0000   1.0000   1.0000   1.0000   1.0000   1.0000
     1.0000   1.0000   1.0000   1.0000   1.0000   1.0000   1.0000   1.0000
     1.0000   1.0000   1.0000   1.0000   1.0000   1.0000   1.0000   1.0000
     1.0000   1.0000   1.0000   1.0000   0.0000   0.0000   0.0000   0.0000
     0.0000   0.0000   0.0000   0.0000

          k = 0.0000-0.3536 0.5303 (  6045 PWs)   bands (ev):

   -14.7013 -14.7013 -14.6893 -14.6893 -14.5692 -14.5692 -14.5128 -14.5128
   -14.4853 -14.4853 -14.4772 -14.4772 -14.4419 -14.4419 -14.4096 -14.4096
   -14.2851 -14.2851 -14.2739 -14.2739  -1.1363  -1.1363   0.5557   0.5557
     3.9110   3.9110   4.9930   4.9930   8.9622   8.9622  10.4694  10.4694
    10.9217  10.9217  12.1006  12.1006

     occupation numbers 
     1.0000   1.0000   1.0000   1.0000   1.0000   1.0000   1.0000   1.0000
     1.0000   1.0000   1.0000   1.0000   1.0000   1.0000   1.0000   1.0000
     1.0000   1.0000   1.0000   1.0000   1.0000   1.0000   1.0000   1.0000
     1.0000   1.0000   1.0000   1.0000   0.0000   0.0000   0.0000   0.0000
     0.0000   0.0000   0.0000   0.0000

          k =-0.0884-0.5303 0.7071 (  6044 PWs)   bands (ev):

   -14.6924 -14.6924 -14.6913 -14.6913 -14.5781 -14.5781 -14.5283 -14.5283
   -14.4958 -14.4958 -14.4475 -14.4475 -14.4471 -14.4471 -14.3993 -14.3993
   -14.2831 -14.2831 -14.2820 -14.2820  -0.9142  -0.9142   0.2899   0.2899
     4.3654   4.3654   4.5795   4.5795   8.5542   8.5542   8.7623   8.7623
    12.0341  12.0341  13.2596  13.2596

     occupation numbers 
     1.0000   1.0000   1.0000   1.0000   1.0000   1.0000   1.0000   1.0000
     1.0000   1.0000   1.0000   1.0000   1.0000   1.0000   1.0000   1.0000
     1.0000   1.0000   1.0000   1.0000   1.0000   1.0000   1.0000   1.0000
     1.0000   1.0000   1.0000   1.0000   0.0000   0.0000   0.0000   0.0000
     0.0000   0.0000   0.0000   0.0000

          k =-0.0442-0.4861 0.6629 (  6036 PWs)   bands (ev):

   -14.6981 -14.6981 -14.6923 -14.6923 -14.5613 -14.5613 -14.5291 -14.5291
   -14.4853 -14.4853 -14.4602 -14.4602 -14.4451 -14.4451 -14.4153 -14.4153
   -14.2818 -14.2818 -14.2760 -14.2760  -0.6304  -0.6304  -0.0102  -0.0102
     4.1554   4.1554   4.5381   4.5381   8.6993   8.6993   9.3636   9.3636
    11.8515  11.8515  12.5617  12.5617

     occupation numbers 
     1.0000   1.0000   1.0000   1.0000   1.0000   1.0000   1.0000   1.0000
     1.0000   1.0000   1.0000   1.0000   1.0000   1.0000   1.0000   1.0000
     1.0000   1.0000   1.0000   1.0000   1.0000   1.0000   1.0000   1.0000
     1.0000   1.0000   1.0000   1.0000   0.0000   0.0000   0.0000   0.0000
     0.0000   0.0000   0.0000   0.0000

          k = 0.0000-0.4419 0.6187 (  6039 PWs)   bands (ev):

   -14.7020 -14.7020 -14.6920 -14.6920 -14.5583 -14.5583 -14.5131 -14.5131
   -14.4844 -14.4844 -14.4644 -14.4644 -14.4585 -14.4585 -14.4177 -14.4177
   -14.2821 -14.2821 -14.2722 -14.2722  -0.6327  -0.6327   0.0012   0.0012
     3.9625   3.9625   4.6428   4.6428   8.7867   8.7867  10.1813  10.1813
    11.6930  11.6930  11.7043  11.7043

     occupation numbers 
     1.0000   1.0000   1.0000   1.0000   1.0000   1.0000   1.0000   1.0000
     1.0000   1.0000   1.0000   1.0000   1.0000   1.0000   1.0000   1.0000
     1.0000   1.0000   1.0000   1.0000   1.0000   1.0000   1.0000   1.0000
     1.0000   1.0000   1.0000   1.0000   0.0000   0.0000   0.0000   0.0000
     0.0000   0.0000   0.0000   0.0000

          k =-0.7071 0.1768 0.0000 (  6042 PWs)   bands (ev):

   -14.6932 -14.6932 -14.6932 -14.6932 -14.5548 -14.5548 -14.5548 -14.5548
   -14.4717 -14.4717 -14.4716 -14.4716 -14.4218 -14.4218 -14.4218 -14.4218
   -14.2808 -14.2808 -14.2808 -14.2808  -0.3331  -0.3331  -0.3331  -0.3331
     4.4111   4.4111   4.4111   4.4111   8.6174   8.6174   8.6174   8.6174
    12.7562  12.7562  12.7562  12.7562

     occupation numbers 
     1.0000   1.0000   1.0000   1.0000   1.0000   1.0000   1.0000   1.0000
     1.0000   1.0000   1.0000   1.0000   1.0000   1.0000   1.0000   1.0000
     1.0000   1.0000   1.0000   1.0000   1.0000   1.0000   1.0000   1.0000
     1.0000   1.0000   1.0000   1.0000   0.0000   0.0000   0.0000   0.0000
     0.0000   0.0000   0.0000   0.0000

          k =-0.1768-0.4419 0.7071 (  6045 PWs)   bands (ev):

   -14.6959 -14.6959 -14.6896 -14.6896 -14.5792 -14.5792 -14.5192 -14.5192
   -14.4860 -14.4860 -14.4820 -14.4820 -14.4285 -14.4285 -14.4007 -14.4007
   -14.2853 -14.2853 -14.2797 -14.2797  -1.3070  -1.3070   0.7686   0.7686
     4.1303   4.1303   4.9058   4.9058   9.3400   9.3400   9.4705   9.4705
    10.6262  10.6262  12.7001  12.7001

     occupation numbers 
     1.0000   1.0000   1.0000   1.0000   1.0000   1.0000   1.0000   1.0000
     1.0000   1.0000   1.0000   1.0000   1.0000   1.0000   1.0000   1.0000
     1.0000   1.0000   1.0000   1.0000   1.0000   1.0000   1.0000   1.0000
     1.0000   1.0000   1.0000   1.0000   0.0000   0.0000   0.0000   0.0000
     0.0000   0.0000   0.0000   0.0000

          k =-0.1326-0.3977 0.6629 (  6038 PWs)   bands (ev):

   -14.7002 -14.7002 -14.6917 -14.6917 -14.5656 -14.5656 -14.5086 -14.5086
   -14.4910 -14.4910 -14.4757 -14.4757 -14.4428 -14.4428 -14.4123 -14.4123
   -14.2828 -14.2828 -14.2746 -14.2746  -1.0234  -1.0234   0.4296   0.4296
     4.0030   4.0030   4.7504   4.7504   9.3654   9.3654   9.9635   9.9635
    10.7376  10.7376  12.2307  12.2307

     occupation numbers 
     1.0000   1.0000   1.0000   1.0000   1.0000   1.0000   1.0000   1.0000
     1.0000   1.0000   1.0000   1.0000   1.0000   1.0000   1.0000   1.0000
     1.0000   1.0000   1.0000   1.0000   1.0000   1.0000   1.0000   1.0000
     1.0000   1.0000   1.0000   1.0000   0.0000   0.0000   0.0000   0.0000
     0.0000   0.0000   0.0000   0.0000

          k =-0.0884-0.3536 0.6187 (  6030 PWs)   bands (ev):

   -14.7018 -14.7018 -14.6923 -14.6923 -14.5602 -14.5602 -14.5047 -14.5047
   -14.4889 -14.4889 -14.4764 -14.4764 -14.4493 -14.4493 -14.4165 -14.4165
   -14.2821 -14.2821 -14.2728 -14.2728  -0.8854  -0.8854   0.2721   0.2721
     3.9626   3.9626   4.6935   4.6935   9.3650   9.3650  10.0877  10.0877
    11.2600  11.2600  11.5509  11.5509

     occupation numbers 
     1.0000   1.0000   1.0000   1.0000   1.0000   1.0000   1.0000   1.0000
     1.0000   1.0000   1.0000   1.0000   1.0000   1.0000   1.0000   1.0000
     1.0000   1.0000   1.0000   1.0000   1.0000   1.0000   1.0000   1.0000
     1.0000   1.0000   1.0000   1.0000   0.0000   0.0000   0.0000   0.0000
     0.0000   0.0000   0.0000   0.0000

          k =-0.0884-0.4419 0.7071 (  6038 PWs)   bands (ev):

   -14.6982 -14.6982 -14.6944 -14.6944 -14.5607 -14.5607 -14.5130 -14.5130
   -14.4973 -14.4973 -14.4582 -14.4582 -14.4509 -14.4509 -14.4158 -14.4158
   -14.2799 -14.2799 -14.2763 -14.2763  -0.8308  -0.8308   0.2197   0.2197
     4.1205   4.1205   4.5120   4.5120   9.4119   9.4119   9.4548   9.4548
    11.0065  11.0065  12.3992  12.3992

     occupation numbers 
     1.0000   1.0000   1.0000   1.0000   1.0000   1.0000   1.0000   1.0000
     1.0000   1.0000   1.0000   1.0000   1.0000   1.0000   1.0000   1.0000
     1.0000   1.0000   1.0000   1.0000   1.0000   1.0000   1.0000   1.0000
     1.0000   1.0000   1.0000   1.0000   0.0000   0.0000   0.0000   0.0000
     0.0000   0.0000   0.0000   0.0000

          k =-0.0442-0.3977 0.6629 (  6031 PWs)   bands (ev):

   -14.7009 -14.7009 -14.6957 -14.6957 -14.5483 -14.5483 -14.5146 -14.5146
   -14.4882 -14.4882 -14.4640 -14.4640 -14.4547 -14.4547 -14.4263 -14.4263
   -14.2785 -14.2785 -14.2733 -14.2733  -0.6108  -0.6108  -0.0097  -0.0097
     4.0390   4.0390   4.4318   4.4318   9.4920   9.4920  10.1632  10.1632
    10.9260  10.9260  11.5416  11.5416

     occupation numbers 
     1.0000   1.0000   1.0000   1.0000   1.0000   1.0000   1.0000   1.0000
     1.0000   1.0000   1.0000   1.0000   1.0000   1.0000   1.0000   1.0000
     1.0000   1.0000   1.0000   1.0000   1.0000   1.0000   1.0000   1.0000
     1.0000   1.0000   1.0000   1.0000   0.0000   0.0000   0.0000   0.0000
     0.0000   0.0000   0.0000   0.0000

          k =-0.0000-0.3536 0.6187 (  6031 PWs)   bands (ev):

   -14.7017 -14.7017 -14.6947 -14.6947 -14.5521 -14.5521 -14.5044 -14.5044
   -14.4945 -14.4945 -14.4634 -14.4634 -14.4589 -14.4589 -14.4229 -14.4229
   -14.2796 -14.2796 -14.2726 -14.2726  -0.7328  -0.7328   0.1203   0.1203
     3.9737   3.9737   4.5358   4.5358   9.5428   9.5428  10.3443  10.3443
    10.8153  10.8153  11.4460  11.4460

     occupation numbers 
     1.0000   1.0000   1.0000   1.0000   1.0000   1.0000   1.0000   1.0000
     1.0000   1.0000   1.0000   1.0000   1.0000   1.0000   1.0000   1.0000
     1.0000   1.0000   1.0000   1.0000   1.0000   1.0000   1.0000   1.0000
     1.0000   1.0000   1.0000   1.0000   0.0000   0.0000   0.0000   0.0000
     0.0000   0.0000   0.0000   0.0000

          k =-0.7071 0.2652 0.0000 (  6040 PWs)   bands (ev):

   -14.6976 -14.6976 -14.6976 -14.6976 -14.5383 -14.5383 -14.5383 -14.5383
   -14.4742 -14.4742 -14.4742 -14.4742 -14.4356 -14.4356 -14.4356 -14.4356
   -14.2765 -14.2765 -14.2765 -14.2765  -0.3172  -0.3172  -0.3172  -0.3172
     4.2471   4.2471   4.2471   4.2471   9.4229   9.4229   9.4229   9.4229
    11.6754  11.6754  11.6754  11.6754

     occupation numbers 
     1.0000   1.0000   1.0000   1.0000   1.0000   1.0000   1.0000   1.0000
     1.0000   1.0000   1.0000   1.0000   1.0000   1.0000   1.0000   1.0000
     1.0000   1.0000   1.0000   1.0000   1.0000   1.0000   1.0000   1.0000
     1.0000   1.0000   1.0000   1.0000   0.0000   0.0000   0.0000   0.0000
     0.0000   0.0000   0.0000   0.0000

          k =-0.7071 0.3536 0.0000 (  6032 PWs)   bands (ev):

   -14.6993 -14.6993 -14.6993 -14.6993 -14.5300 -14.5300 -14.5300 -14.5300
   -14.4765 -14.4765 -14.4765 -14.4765 -14.4416 -14.4416 -14.4416 -14.4416
   -14.2748 -14.2748 -14.2748 -14.2748  -0.3106  -0.3106  -0.3106  -0.3106
     4.1849   4.1849   4.1849   4.1849  10.0885  10.0885  10.0885  10.0885
    10.9131  10.9131  10.9131  10.9131

     occupation numbers 
     1.0000   1.0000   1.0000   1.0000   1.0000   1.0000   1.0000   1.0000
     1.0000   1.0000   1.0000   1.0000   1.0000   1.0000   1.0000   1.0000
     1.0000   1.0000   1.0000   1.0000   1.0000   1.0000   1.0000   1.0000
     1.0000   1.0000   1.0000   1.0000   0.0000   0.0000   0.0000   0.0000
     0.0000   0.0000   0.0000   0.0000

     the Fermi energy is     6.9109 ev

!    total energy              =    -326.06325184 Ry
     Harris-Foulkes estimate   =    -326.06325171 Ry
     estimated scf accuracy    <       0.00000011 Ry

     The total energy is the sum of the following terms:

     one-electron contribution =    -157.90796514 Ry
     hartree contribution      =      95.60071197 Ry
     xc contribution           =     -96.22620319 Ry
     ewald contribution        =    -167.52979533 Ry
     smearing contrib. (-TS)   =      -0.00000015 Ry

     convergence has been achieved in   5 iterations

     Writing output data file Sn.save
 
     init_run     :     12.65s CPU     15.39s WALL (       1 calls)
     electrons    :    249.02s CPU    266.38s WALL (       1 calls)

     Called by init_run:
     wfcinit      :     12.33s CPU     13.46s WALL (       1 calls)
     potinit      :      0.05s CPU      0.08s WALL (       1 calls)

     Called by electrons:
     c_bands      :    209.70s CPU    224.59s WALL (       6 calls)
     sum_band     :     39.12s CPU     41.51s WALL (       6 calls)
     v_of_rho     :      0.08s CPU      0.11s WALL (       6 calls)
     v_h          :      0.01s CPU      0.01s WALL (       6 calls)
     v_xc         :      0.07s CPU      0.09s WALL (       6 calls)
     newd         :      0.09s CPU      0.15s WALL (       6 calls)
     mix_rho      :      0.02s CPU      0.05s WALL (       6 calls)

     Called by c_bands:
     init_us_2    :      0.39s CPU      0.44s WALL (    1885 calls)
     cegterg      :    206.13s CPU    220.70s WALL (     870 calls)

     Called by sum_band:
     sum_band:bec :      0.12s CPU      0.13s WALL (     870 calls)
     addusdens    :      0.12s CPU      0.15s WALL (       6 calls)

     Called by *egterg:
     h_psi        :    182.52s CPU    194.06s WALL (    3111 calls)
     s_psi        :      2.43s CPU      2.44s WALL (    3111 calls)
     g_psi        :      0.50s CPU      0.51s WALL (    2096 calls)
     cdiaghg      :     11.65s CPU     12.03s WALL (    2821 calls)
     cegterg:over :      8.29s CPU      8.33s WALL (    2096 calls)
     cegterg:upda :      4.12s CPU      4.14s WALL (    2096 calls)
     cegterg:last :      2.31s CPU      2.32s WALL (     870 calls)

     Called by h_psi:
     h_psi:vloc   :    175.64s CPU    186.97s WALL (    3111 calls)
     h_psi:vnl    :      6.47s CPU      6.63s WALL (    3111 calls)
     add_vuspsi   :      2.52s CPU      2.54s WALL (    3111 calls)

     General routines
     calbec       :      5.27s CPU      5.44s WALL (    3981 calls)
     fft          :      0.10s CPU      0.71s WALL (     116 calls)
     fftw         :    197.75s CPU    210.51s WALL (  393440 calls)
     davcio       :      0.06s CPU      0.77s WALL (     145 calls)
 
     Parallel routines
     fft_scatter  :    124.26s CPU    132.52s WALL (  393556 calls)
 
     PWSCF        :  4m22.62s CPU     4m44.46s WALL

 
   This run was terminated on:  22:59:24  16Mar2020            

=------------------------------------------------------------------------------=
   JOB DONE.
=------------------------------------------------------------------------------=
