
     Program PWSCF v.5.4.0 starts on 15Mar2020 at 19:56:54 

     This program is part of the open-source Quantum ESPRESSO suite
     for quantum simulation of materials; please cite
         "P. Giannozzi et al., J. Phys.:Condens. Matter 21 395502 (2009);
          URL http://www.quantum-espresso.org", 
     in publications or presentations arising from this work. More details at
     http://www.quantum-espresso.org/quote

     Parallel version (MPI & OpenMP), running on      16 processor cores
     Number of MPI processes:                16
     Threads/MPI process:                     1
     R & G space division:  proc/nbgrp/npool/nimage =      16
     Waiting for input...
     Reading input from standard input
Warning: card &IONS ignored
Warning: card / ignored
Warning: card &CELL ignored
Warning: card / ignored

     Current dimensions of program PWSCF are:
     Max number of different atomic species (ntypx) = 10
     Max number of k-points (npk) =  40000
     Max angular momentum in pseudopotentials (lmaxx) =  3
               file Sn.pbe-dn-rrkjus_psl.1.0.0.UPF: wavefunction(s)  5S 4D renormalized
     Message from routine setup:
     At least one non s.o. pseudo

     Subspace diagonalization in iterative solution of the eigenvalue problem:
     a serial algorithm will be used

 
     Parallelization info
     --------------------
     sticks:   dense  smooth     PW     G-vecs:    dense   smooth      PW
     Min          74      74     22                 1722     1722     279
     Max          76      76     23                 1725     1725     281
     Sum        1201    1201    361                27581    27581    4477
 

     Title: 
     Sn                                                                         


     bravais-lattice index     =            0
     lattice parameter (alat)  =       8.9127  a.u.
     unit-cell volume          =     500.6268 (a.u.)^3
     number of atoms/cell      =            2
     number of atomic types    =            1
     number of electrons       =        28.00
     number of Kohn-Sham states=           36
     kinetic-energy cutoff     =      55.0000  Ry
     charge density cutoff     =     220.0000  Ry
     convergence threshold     =      1.0E-06
     mixing beta               =       0.7000
     number of iterations used =            8  plain     mixing
     Exchange-correlation      = PBE ( 1  4  3  4 0 0)
     Non magnetic calculation with spin-orbit


     celldm(1)=   8.912709  celldm(2)=   0.000000  celldm(3)=   0.000000
     celldm(4)=   0.000000  celldm(5)=   0.000000  celldm(6)=   0.000000

     crystal axes: (cart. coord. in units of alat)
               a(1) = (   0.000000   0.707107   0.707107 )  
               a(2) = (   0.707107   0.000000   0.707107 )  
               a(3) = (   0.707107   0.707107   0.000000 )  

     reciprocal axes: (cart. coord. in units 2 pi/alat)
               b(1) = ( -0.707107  0.707107  0.707107 )  
               b(2) = (  0.707107 -0.707107  0.707107 )  
               b(3) = (  0.707107  0.707107 -0.707107 )  


     PseudoPot. # 1 for Sn read from file:
     ../PseudopotentialDatabase/Sn.pbe-dn-rrkjus_psl.1.0.0.UPF
     MD5 check sum: 72e22d5a9e1ec4fde6a02e1f963898e9
     Pseudo is Ultrasoft + core correction, Zval = 14.0
     Generated using "atomic" code by A. Dal Corso  v.6.3
     Using radial grid of 1243 points,  6 beta functions with: 
                l(1) =   0
                l(2) =   0
                l(3) =   1
                l(4) =   1
                l(5) =   2
                l(6) =   2
     Q(r) pseudized with 0 coefficients 


     atomic species   valence    mass     pseudopotential
        Sn            14.00   118.71000     Sn( 1.00)

     24 Sym. Ops. (no inversion) found
          (note: 24 additional sym.ops. were found but ignored
           their fractional translations are incommensurate with FFT grid)

                                    s                        frac. trans.

      isym =  1     identity                                     

 cryst.   s( 1) = (     1          0          0      )
                  (     0          1          0      )
                  (     0          0          1      )

 cart.    s( 1) = (  1.0000000  0.0000000  0.0000000 )
                  (  0.0000000  1.0000000  0.0000000 )
                  (  0.0000000  0.0000000  1.0000000 )


      isym =  2     180 deg rotation - cart. axis [0,0,1]        

 cryst.   s( 2) = (     0          1         -1      )
                  (     1          0         -1      )
                  (     0          0         -1      )

 cart.    s( 2) = ( -1.0000000  0.0000000  0.0000000 )
                  (  0.0000000 -1.0000000  0.0000000 )
                  (  0.0000000  0.0000000  1.0000000 )


      isym =  3     180 deg rotation - cart. axis [0,1,0]        

 cryst.   s( 3) = (     0         -1          1      )
                  (     0         -1          0      )
                  (     1         -1          0      )

 cart.    s( 3) = ( -1.0000000  0.0000000  0.0000000 )
                  (  0.0000000  1.0000000  0.0000000 )
                  (  0.0000000  0.0000000 -1.0000000 )


      isym =  4     180 deg rotation - cart. axis [1,0,0]        

 cryst.   s( 4) = (    -1          0          0      )
                  (    -1          0          1      )
                  (    -1          1          0      )

 cart.    s( 4) = (  1.0000000  0.0000000  0.0000000 )
                  (  0.0000000 -1.0000000  0.0000000 )
                  (  0.0000000  0.0000000 -1.0000000 )


      isym =  5     120 deg rotation - cart. axis [-1,-1,-1]     

 cryst.   s( 5) = (     0          0          1      )
                  (     1          0          0      )
                  (     0          1          0      )

 cart.    s( 5) = (  0.0000000  1.0000000  0.0000000 )
                  (  0.0000000  0.0000000  1.0000000 )
                  (  1.0000000  0.0000000  0.0000000 )


      isym =  6     120 deg rotation - cart. axis [-1,1,1]       

 cryst.   s( 6) = (     1         -1          0      )
                  (     0         -1          1      )
                  (     0         -1          0      )

 cart.    s( 6) = (  0.0000000 -1.0000000  0.0000000 )
                  (  0.0000000  0.0000000  1.0000000 )
                  ( -1.0000000  0.0000000  0.0000000 )


      isym =  7     120 deg rotation - cart. axis [1,1,-1]       

 cryst.   s( 7) = (    -1          1          0      )
                  (    -1          0          0      )
                  (    -1          0          1      )

 cart.    s( 7) = (  0.0000000  1.0000000  0.0000000 )
                  (  0.0000000  0.0000000 -1.0000000 )
                  ( -1.0000000  0.0000000  0.0000000 )


      isym =  8     120 deg rotation - cart. axis [1,-1,1]       

 cryst.   s( 8) = (     0          0         -1      )
                  (     0          1         -1      )
                  (     1          0         -1      )

 cart.    s( 8) = (  0.0000000 -1.0000000  0.0000000 )
                  (  0.0000000  0.0000000 -1.0000000 )
                  (  1.0000000  0.0000000  0.0000000 )


      isym =  9     120 deg rotation - cart. axis [1,1,1]        

 cryst.   s( 9) = (     0          1          0      )
                  (     0          0          1      )
                  (     1          0          0      )

 cart.    s( 9) = (  0.0000000  0.0000000  1.0000000 )
                  (  1.0000000  0.0000000  0.0000000 )
                  (  0.0000000  1.0000000  0.0000000 )


      isym = 10     120 deg rotation - cart. axis [-1,1,-1]      

 cryst.   s(10) = (    -1          0          1      )
                  (    -1          1          0      )
                  (    -1          0          0      )

 cart.    s(10) = (  0.0000000  0.0000000  1.0000000 )
                  ( -1.0000000  0.0000000  0.0000000 )
                  (  0.0000000 -1.0000000  0.0000000 )


      isym = 11     120 deg rotation - cart. axis [1,-1,-1]      

 cryst.   s(11) = (     1          0         -1      )
                  (     0          0         -1      )
                  (     0          1         -1      )

 cart.    s(11) = (  0.0000000  0.0000000 -1.0000000 )
                  ( -1.0000000  0.0000000  0.0000000 )
                  (  0.0000000  1.0000000  0.0000000 )


      isym = 12     120 deg rotation - cart. axis [-1,-1,1]      

 cryst.   s(12) = (     0         -1          0      )
                  (     1         -1          0      )
                  (     0         -1          1      )

 cart.    s(12) = (  0.0000000  0.0000000 -1.0000000 )
                  (  1.0000000  0.0000000  0.0000000 )
                  (  0.0000000 -1.0000000  0.0000000 )


      isym = 13     inv. 180 deg rotation - cart. axis [1,1,0]   

 cryst.   s(13) = (     1          0         -1      )
                  (     0          1         -1      )
                  (     0          0         -1      )

 cart.    s(13) = (  0.0000000 -1.0000000  0.0000000 )
                  ( -1.0000000  0.0000000  0.0000000 )
                  (  0.0000000  0.0000000  1.0000000 )


      isym = 14     inv. 180 deg rotation - cart. axis [1,-1,0]  

 cryst.   s(14) = (     0          1          0      )
                  (     1          0          0      )
                  (     0          0          1      )

 cart.    s(14) = (  0.0000000  1.0000000  0.0000000 )
                  (  1.0000000  0.0000000  0.0000000 )
                  (  0.0000000  0.0000000  1.0000000 )


      isym = 15     inv.  90 deg rotation - cart. axis [0,0,-1]  

 cryst.   s(15) = (     0         -1          0      )
                  (     0         -1          1      )
                  (     1         -1          0      )

 cart.    s(15) = (  0.0000000 -1.0000000  0.0000000 )
                  (  1.0000000  0.0000000  0.0000000 )
                  (  0.0000000  0.0000000 -1.0000000 )


      isym = 16     inv.  90 deg rotation - cart. axis [0,0,1]   

 cryst.   s(16) = (    -1          0          1      )
                  (    -1          0          0      )
                  (    -1          1          0      )

 cart.    s(16) = (  0.0000000  1.0000000  0.0000000 )
                  ( -1.0000000  0.0000000  0.0000000 )
                  (  0.0000000  0.0000000 -1.0000000 )


      isym = 17     inv. 180 deg rotation - cart. axis [1,0,1]   

 cryst.   s(17) = (     1         -1          0      )
                  (     0         -1          0      )
                  (     0         -1          1      )

 cart.    s(17) = (  0.0000000  0.0000000 -1.0000000 )
                  (  0.0000000  1.0000000  0.0000000 )
                  ( -1.0000000  0.0000000  0.0000000 )


      isym = 18     inv. 180 deg rotation - cart. axis [-1,0,1]  

 cryst.   s(18) = (     0          0          1      )
                  (     0          1          0      )
                  (     1          0          0      )

 cart.    s(18) = (  0.0000000  0.0000000  1.0000000 )
                  (  0.0000000  1.0000000  0.0000000 )
                  (  1.0000000  0.0000000  0.0000000 )


      isym = 19     inv.  90 deg rotation - cart. axis [0,1,0]   

 cryst.   s(19) = (     0          0         -1      )
                  (     1          0         -1      )
                  (     0          1         -1      )

 cart.    s(19) = (  0.0000000  0.0000000 -1.0000000 )
                  (  0.0000000 -1.0000000  0.0000000 )
                  (  1.0000000  0.0000000  0.0000000 )


      isym = 20     inv.  90 deg rotation - cart. axis [0,-1,0]  

 cryst.   s(20) = (    -1          1          0      )
                  (    -1          0          1      )
                  (    -1          0          0      )

 cart.    s(20) = (  0.0000000  0.0000000  1.0000000 )
                  (  0.0000000 -1.0000000  0.0000000 )
                  ( -1.0000000  0.0000000  0.0000000 )


      isym = 21     inv. 180 deg rotation - cart. axis [0,1,1]   

 cryst.   s(21) = (    -1          0          0      )
                  (    -1          1          0      )
                  (    -1          0          1      )

 cart.    s(21) = (  1.0000000  0.0000000  0.0000000 )
                  (  0.0000000  0.0000000 -1.0000000 )
                  (  0.0000000 -1.0000000  0.0000000 )


      isym = 22     inv. 180 deg rotation - cart. axis [0,1,-1]  

 cryst.   s(22) = (     1          0          0      )
                  (     0          0          1      )
                  (     0          1          0      )

 cart.    s(22) = (  1.0000000  0.0000000  0.0000000 )
                  (  0.0000000  0.0000000  1.0000000 )
                  (  0.0000000  1.0000000  0.0000000 )


      isym = 23     inv.  90 deg rotation - cart. axis [-1,0,0]  

 cryst.   s(23) = (     0          1         -1      )
                  (     0          0         -1      )
                  (     1          0         -1      )

 cart.    s(23) = ( -1.0000000  0.0000000  0.0000000 )
                  (  0.0000000  0.0000000 -1.0000000 )
                  (  0.0000000  1.0000000  0.0000000 )


      isym = 24     inv.  90 deg rotation - cart. axis [1,0,0]   

 cryst.   s(24) = (     0         -1          1      )
                  (     1         -1          0      )
                  (     0         -1          0      )

 cart.    s(24) = ( -1.0000000  0.0000000  0.0000000 )
                  (  0.0000000  0.0000000  1.0000000 )
                  (  0.0000000 -1.0000000  0.0000000 )


   Cartesian axes

     site n.     atom                  positions (alat units)
         1           Sn  tau(   1) = (   0.0000000   0.0000000   0.0000000  )
         2           Sn  tau(   2) = (   0.3535534   0.3535534   0.3535534  )

   Crystallographic axes

     site n.     atom                  positions (cryst. coord.)
         1           Sn  tau(   1) = (  0.0000000  0.0000000  0.0000000  )
         2           Sn  tau(   2) = (  0.2500000  0.2500000  0.2500000  )

     number of k points=   145  gaussian smearing, width (Ry)=  0.0001
                       cart. coord. in units 2pi/alat
        k(    1) = (   0.0000000   0.0000000   0.0000000), wk =   0.0002441
        k(    2) = (   0.0441942   0.0441942  -0.0441942), wk =   0.0019531
        k(    3) = (   0.0883883   0.0883883  -0.0883883), wk =   0.0019531
        k(    4) = (   0.1325825   0.1325825  -0.1325825), wk =   0.0019531
        k(    5) = (   0.1767767   0.1767767  -0.1767767), wk =   0.0019531
        k(    6) = (   0.2209709   0.2209709  -0.2209709), wk =   0.0019531
        k(    7) = (   0.2651650   0.2651650  -0.2651650), wk =   0.0019531
        k(    8) = (   0.3093592   0.3093592  -0.3093592), wk =   0.0019531
        k(    9) = (  -0.3535534  -0.3535534   0.3535534), wk =   0.0009766
        k(   10) = (   0.0883883   0.0000000   0.0000000), wk =   0.0014648
        k(   11) = (   0.1325825   0.0441942  -0.0441942), wk =   0.0058594
        k(   12) = (   0.1767767   0.0883883  -0.0883883), wk =   0.0058594
        k(   13) = (   0.2209709   0.1325825  -0.1325825), wk =   0.0058594
        k(   14) = (   0.2651650   0.1767767  -0.1767767), wk =   0.0058594
        k(   15) = (   0.3093592   0.2209709  -0.2209709), wk =   0.0058594
        k(   16) = (   0.3535534   0.2651650  -0.2651650), wk =   0.0058594
        k(   17) = (  -0.3093592  -0.3977476   0.3977476), wk =   0.0058594
        k(   18) = (  -0.2651650  -0.3535534   0.3535534), wk =   0.0058594
        k(   19) = (  -0.2209709  -0.3093592   0.3093592), wk =   0.0058594
        k(   20) = (  -0.1767767  -0.2651650   0.2651650), wk =   0.0058594
        k(   21) = (  -0.1325825  -0.2209709   0.2209709), wk =   0.0058594
        k(   22) = (  -0.0883883  -0.1767767   0.1767767), wk =   0.0058594
        k(   23) = (  -0.0441942  -0.1325825   0.1325825), wk =   0.0058594
        k(   24) = (   0.0000000  -0.0883883   0.0883883), wk =   0.0029297
        k(   25) = (   0.1767767   0.0000000   0.0000000), wk =   0.0014648
        k(   26) = (   0.2209709   0.0441942  -0.0441942), wk =   0.0058594
        k(   27) = (   0.2651650   0.0883883  -0.0883883), wk =   0.0058594
        k(   28) = (   0.3093592   0.1325825  -0.1325825), wk =   0.0058594
        k(   29) = (   0.3535534   0.1767767  -0.1767767), wk =   0.0058594
        k(   30) = (   0.3977476   0.2209709  -0.2209709), wk =   0.0058594
        k(   31) = (  -0.2651650  -0.4419417   0.4419417), wk =   0.0058594
        k(   32) = (  -0.2209709  -0.3977476   0.3977476), wk =   0.0058594
        k(   33) = (  -0.1767767  -0.3535534   0.3535534), wk =   0.0058594
        k(   34) = (  -0.1325825  -0.3093592   0.3093592), wk =   0.0058594
        k(   35) = (  -0.0883883  -0.2651650   0.2651650), wk =   0.0058594
        k(   36) = (  -0.0441942  -0.2209709   0.2209709), wk =   0.0058594
        k(   37) = (   0.0000000  -0.1767767   0.1767767), wk =   0.0029297
        k(   38) = (   0.2651650   0.0000000   0.0000000), wk =   0.0014648
        k(   39) = (   0.3093592   0.0441942  -0.0441942), wk =   0.0058594
        k(   40) = (   0.3535534   0.0883883  -0.0883883), wk =   0.0058594
        k(   41) = (   0.3977476   0.1325825  -0.1325825), wk =   0.0058594
        k(   42) = (   0.4419417   0.1767767  -0.1767767), wk =   0.0058594
        k(   43) = (  -0.2209709  -0.4861359   0.4861359), wk =   0.0058594
        k(   44) = (  -0.1767767  -0.4419417   0.4419417), wk =   0.0058594
        k(   45) = (  -0.1325825  -0.3977476   0.3977476), wk =   0.0058594
        k(   46) = (  -0.0883883  -0.3535534   0.3535534), wk =   0.0058594
        k(   47) = (  -0.0441942  -0.3093592   0.3093592), wk =   0.0058594
        k(   48) = (   0.0000000  -0.2651650   0.2651650), wk =   0.0029297
        k(   49) = (   0.3535534   0.0000000   0.0000000), wk =   0.0014648
        k(   50) = (   0.3977476   0.0441942  -0.0441942), wk =   0.0058594
        k(   51) = (   0.4419417   0.0883883  -0.0883883), wk =   0.0058594
        k(   52) = (   0.4861359   0.1325825  -0.1325825), wk =   0.0058594
        k(   53) = (  -0.1767767  -0.5303301   0.5303301), wk =   0.0058594
        k(   54) = (  -0.1325825  -0.4861359   0.4861359), wk =   0.0058594
        k(   55) = (  -0.0883883  -0.4419417   0.4419417), wk =   0.0058594
        k(   56) = (  -0.0441942  -0.3977476   0.3977476), wk =   0.0058594
        k(   57) = (   0.0000000  -0.3535534   0.3535534), wk =   0.0029297
        k(   58) = (   0.4419417   0.0000000   0.0000000), wk =   0.0014648
        k(   59) = (   0.4861359   0.0441942  -0.0441942), wk =   0.0058594
        k(   60) = (   0.5303301   0.0883883  -0.0883883), wk =   0.0058594
        k(   61) = (  -0.1325825  -0.5745243   0.5745243), wk =   0.0058594
        k(   62) = (  -0.0883883  -0.5303301   0.5303301), wk =   0.0058594
        k(   63) = (  -0.0441942  -0.4861359   0.4861359), wk =   0.0058594
        k(   64) = (   0.0000000  -0.4419417   0.4419417), wk =   0.0029297
        k(   65) = (   0.5303301   0.0000000   0.0000000), wk =   0.0014648
        k(   66) = (   0.5745243   0.0441942  -0.0441942), wk =   0.0058594
        k(   67) = (  -0.0883883  -0.6187184   0.6187184), wk =   0.0058594
        k(   68) = (  -0.0441942  -0.5745243   0.5745243), wk =   0.0058594
        k(   69) = (   0.0000000  -0.5303301   0.5303301), wk =   0.0029297
        k(   70) = (   0.6187184   0.0000000   0.0000000), wk =   0.0014648
        k(   71) = (  -0.0441942  -0.6629126   0.6629126), wk =   0.0058594
        k(   72) = (   0.0000000  -0.6187184   0.6187184), wk =   0.0029297
        k(   73) = (  -0.7071068   0.0000000   0.0000000), wk =   0.0007324
        k(   74) = (   0.1767767   0.0883883   0.0000000), wk =   0.0058594
        k(   75) = (   0.2209709   0.1325825  -0.0441942), wk =   0.0117188
        k(   76) = (   0.2651650   0.1767767  -0.0883883), wk =   0.0117188
        k(   77) = (   0.3093592   0.2209709  -0.1325825), wk =   0.0117188
        k(   78) = (   0.3535534   0.2651650  -0.1767767), wk =   0.0117188
        k(   79) = (  -0.3093592  -0.3977476   0.4861359), wk =   0.0117188
        k(   80) = (  -0.2651650  -0.3535534   0.4419417), wk =   0.0058594
        k(   81) = (   0.2651650   0.0883883   0.0000000), wk =   0.0058594
        k(   82) = (   0.3093592   0.1325825  -0.0441942), wk =   0.0117188
        k(   83) = (   0.3535534   0.1767767  -0.0883883), wk =   0.0117188
        k(   84) = (   0.3977476   0.2209709  -0.1325825), wk =   0.0117188
        k(   85) = (  -0.2651650  -0.4419417   0.5303301), wk =   0.0117188
        k(   86) = (  -0.2209709  -0.3977476   0.4861359), wk =   0.0117188
        k(   87) = (  -0.1767767  -0.3535534   0.4419417), wk =   0.0117188
        k(   88) = (  -0.1325825  -0.3093592   0.3977476), wk =   0.0117188
        k(   89) = (  -0.0883883  -0.2651650   0.3535534), wk =   0.0117188
        k(   90) = (  -0.0441942  -0.2209709   0.3093592), wk =   0.0117188
        k(   91) = (   0.0000000  -0.1767767   0.2651650), wk =   0.0058594
        k(   92) = (   0.3535534   0.0883883   0.0000000), wk =   0.0058594
        k(   93) = (   0.3977476   0.1325825  -0.0441942), wk =   0.0117188
        k(   94) = (   0.4419417   0.1767767  -0.0883883), wk =   0.0117188
        k(   95) = (  -0.2209709  -0.4861359   0.5745243), wk =   0.0117188
        k(   96) = (  -0.1767767  -0.4419417   0.5303301), wk =   0.0117188
        k(   97) = (  -0.1325825  -0.3977476   0.4861359), wk =   0.0117188
        k(   98) = (  -0.0883883  -0.3535534   0.4419417), wk =   0.0117188
        k(   99) = (  -0.0441942  -0.3093592   0.3977476), wk =   0.0117188
        k(  100) = (   0.0000000  -0.2651650   0.3535534), wk =   0.0058594
        k(  101) = (   0.4419417   0.0883883   0.0000000), wk =   0.0058594
        k(  102) = (   0.4861359   0.1325825  -0.0441942), wk =   0.0117188
        k(  103) = (  -0.1767767  -0.5303301   0.6187184), wk =   0.0117188
        k(  104) = (  -0.1325825  -0.4861359   0.5745243), wk =   0.0117188
        k(  105) = (  -0.0883883  -0.4419417   0.5303301), wk =   0.0117188
        k(  106) = (  -0.0441942  -0.3977476   0.4861359), wk =   0.0117188
        k(  107) = (   0.0000000  -0.3535534   0.4419417), wk =   0.0058594
        k(  108) = (   0.5303301   0.0883883   0.0000000), wk =   0.0058594
        k(  109) = (  -0.1325825  -0.5745243   0.6629126), wk =   0.0117188
        k(  110) = (  -0.0883883  -0.5303301   0.6187184), wk =   0.0117188
        k(  111) = (  -0.0441942  -0.4861359   0.5745243), wk =   0.0117188
        k(  112) = (   0.0000000  -0.4419417   0.5303301), wk =   0.0058594
        k(  113) = (  -0.0883883  -0.6187184   0.7071068), wk =   0.0058594
        k(  114) = (  -0.0441942  -0.5745243   0.6629126), wk =   0.0117188
        k(  115) = (  -0.0000000  -0.5303301   0.6187184), wk =   0.0058594
        k(  116) = (  -0.7071068   0.0883883   0.0000000), wk =   0.0029297
        k(  117) = (   0.3535534   0.1767767   0.0000000), wk =   0.0058594
        k(  118) = (   0.3977476   0.2209709  -0.0441942), wk =   0.0117188
        k(  119) = (  -0.2651650  -0.4419417   0.6187184), wk =   0.0117188
        k(  120) = (  -0.2209709  -0.3977476   0.5745243), wk =   0.0117188
        k(  121) = (  -0.1767767  -0.3535534   0.5303301), wk =   0.0058594
        k(  122) = (   0.4419417   0.1767767   0.0000000), wk =   0.0058594
        k(  123) = (  -0.2209709  -0.4861359   0.6629126), wk =   0.0117188
        k(  124) = (  -0.1767767  -0.4419417   0.6187184), wk =   0.0117188
        k(  125) = (  -0.1325825  -0.3977476   0.5745243), wk =   0.0117188
        k(  126) = (  -0.0883883  -0.3535534   0.5303301), wk =   0.0117188
        k(  127) = (  -0.0441942  -0.3093592   0.4861359), wk =   0.0117188
        k(  128) = (   0.0000000  -0.2651650   0.4419417), wk =   0.0058594
        k(  129) = (  -0.1767767  -0.5303301   0.7071068), wk =   0.0058594
        k(  130) = (  -0.1325825  -0.4861359   0.6629126), wk =   0.0117188
        k(  131) = (  -0.0883883  -0.4419417   0.6187184), wk =   0.0117188
        k(  132) = (  -0.0441942  -0.3977476   0.5745243), wk =   0.0117188
        k(  133) = (   0.0000000  -0.3535534   0.5303301), wk =   0.0058594
        k(  134) = (  -0.0883883  -0.5303301   0.7071068), wk =   0.0058594
        k(  135) = (  -0.0441942  -0.4861359   0.6629126), wk =   0.0117188
        k(  136) = (   0.0000000  -0.4419417   0.6187184), wk =   0.0058594
        k(  137) = (  -0.7071068   0.1767767   0.0000000), wk =   0.0029297
        k(  138) = (  -0.1767767  -0.4419417   0.7071068), wk =   0.0058594
        k(  139) = (  -0.1325825  -0.3977476   0.6629126), wk =   0.0117188
        k(  140) = (  -0.0883883  -0.3535534   0.6187184), wk =   0.0058594
        k(  141) = (  -0.0883883  -0.4419417   0.7071068), wk =   0.0058594
        k(  142) = (  -0.0441942  -0.3977476   0.6629126), wk =   0.0117188
        k(  143) = (  -0.0000000  -0.3535534   0.6187184), wk =   0.0058594
        k(  144) = (  -0.7071068   0.2651650   0.0000000), wk =   0.0029297
        k(  145) = (  -0.7071068   0.3535534   0.0000000), wk =   0.0014648

                       cryst. coord.
        k(    1) = (   0.0000000   0.0000000   0.0000000), wk =   0.0002441
        k(    2) = (   0.0000000   0.0000000   0.0625000), wk =   0.0019531
        k(    3) = (   0.0000000   0.0000000   0.1250000), wk =   0.0019531
        k(    4) = (   0.0000000   0.0000000   0.1875000), wk =   0.0019531
        k(    5) = (   0.0000000   0.0000000   0.2500000), wk =   0.0019531
        k(    6) = (   0.0000000   0.0000000   0.3125000), wk =   0.0019531
        k(    7) = (   0.0000000   0.0000000   0.3750000), wk =   0.0019531
        k(    8) = (   0.0000000   0.0000000   0.4375000), wk =   0.0019531
        k(    9) = (   0.0000000   0.0000000  -0.5000000), wk =   0.0009766
        k(   10) = (   0.0000000   0.0625000   0.0625000), wk =   0.0014648
        k(   11) = (   0.0000000   0.0625000   0.1250000), wk =   0.0058594
        k(   12) = (   0.0000000   0.0625000   0.1875000), wk =   0.0058594
        k(   13) = (   0.0000000   0.0625000   0.2500000), wk =   0.0058594
        k(   14) = (   0.0000000   0.0625000   0.3125000), wk =   0.0058594
        k(   15) = (   0.0000000   0.0625000   0.3750000), wk =   0.0058594
        k(   16) = (   0.0000000   0.0625000   0.4375000), wk =   0.0058594
        k(   17) = (   0.0000000   0.0625000  -0.5000000), wk =   0.0058594
        k(   18) = (   0.0000000   0.0625000  -0.4375000), wk =   0.0058594
        k(   19) = (   0.0000000   0.0625000  -0.3750000), wk =   0.0058594
        k(   20) = (   0.0000000   0.0625000  -0.3125000), wk =   0.0058594
        k(   21) = (   0.0000000   0.0625000  -0.2500000), wk =   0.0058594
        k(   22) = (   0.0000000   0.0625000  -0.1875000), wk =   0.0058594
        k(   23) = (   0.0000000   0.0625000  -0.1250000), wk =   0.0058594
        k(   24) = (   0.0000000   0.0625000  -0.0625000), wk =   0.0029297
        k(   25) = (   0.0000000   0.1250000   0.1250000), wk =   0.0014648
        k(   26) = (   0.0000000   0.1250000   0.1875000), wk =   0.0058594
        k(   27) = (   0.0000000   0.1250000   0.2500000), wk =   0.0058594
        k(   28) = (   0.0000000   0.1250000   0.3125000), wk =   0.0058594
        k(   29) = (   0.0000000   0.1250000   0.3750000), wk =   0.0058594
        k(   30) = (   0.0000000   0.1250000   0.4375000), wk =   0.0058594
        k(   31) = (   0.0000000   0.1250000  -0.5000000), wk =   0.0058594
        k(   32) = (   0.0000000   0.1250000  -0.4375000), wk =   0.0058594
        k(   33) = (   0.0000000   0.1250000  -0.3750000), wk =   0.0058594
        k(   34) = (   0.0000000   0.1250000  -0.3125000), wk =   0.0058594
        k(   35) = (   0.0000000   0.1250000  -0.2500000), wk =   0.0058594
        k(   36) = (   0.0000000   0.1250000  -0.1875000), wk =   0.0058594
        k(   37) = (   0.0000000   0.1250000  -0.1250000), wk =   0.0029297
        k(   38) = (   0.0000000   0.1875000   0.1875000), wk =   0.0014648
        k(   39) = (   0.0000000   0.1875000   0.2500000), wk =   0.0058594
        k(   40) = (   0.0000000   0.1875000   0.3125000), wk =   0.0058594
        k(   41) = (   0.0000000   0.1875000   0.3750000), wk =   0.0058594
        k(   42) = (   0.0000000   0.1875000   0.4375000), wk =   0.0058594
        k(   43) = (   0.0000000   0.1875000  -0.5000000), wk =   0.0058594
        k(   44) = (   0.0000000   0.1875000  -0.4375000), wk =   0.0058594
        k(   45) = (   0.0000000   0.1875000  -0.3750000), wk =   0.0058594
        k(   46) = (   0.0000000   0.1875000  -0.3125000), wk =   0.0058594
        k(   47) = (   0.0000000   0.1875000  -0.2500000), wk =   0.0058594
        k(   48) = (   0.0000000   0.1875000  -0.1875000), wk =   0.0029297
        k(   49) = (   0.0000000   0.2500000   0.2500000), wk =   0.0014648
        k(   50) = (   0.0000000   0.2500000   0.3125000), wk =   0.0058594
        k(   51) = (   0.0000000   0.2500000   0.3750000), wk =   0.0058594
        k(   52) = (   0.0000000   0.2500000   0.4375000), wk =   0.0058594
        k(   53) = (   0.0000000   0.2500000  -0.5000000), wk =   0.0058594
        k(   54) = (   0.0000000   0.2500000  -0.4375000), wk =   0.0058594
        k(   55) = (   0.0000000   0.2500000  -0.3750000), wk =   0.0058594
        k(   56) = (   0.0000000   0.2500000  -0.3125000), wk =   0.0058594
        k(   57) = (   0.0000000   0.2500000  -0.2500000), wk =   0.0029297
        k(   58) = (   0.0000000   0.3125000   0.3125000), wk =   0.0014648
        k(   59) = (   0.0000000   0.3125000   0.3750000), wk =   0.0058594
        k(   60) = (   0.0000000   0.3125000   0.4375000), wk =   0.0058594
        k(   61) = (   0.0000000   0.3125000  -0.5000000), wk =   0.0058594
        k(   62) = (   0.0000000   0.3125000  -0.4375000), wk =   0.0058594
        k(   63) = (   0.0000000   0.3125000  -0.3750000), wk =   0.0058594
        k(   64) = (   0.0000000   0.3125000  -0.3125000), wk =   0.0029297
        k(   65) = (   0.0000000   0.3750000   0.3750000), wk =   0.0014648
        k(   66) = (   0.0000000   0.3750000   0.4375000), wk =   0.0058594
        k(   67) = (   0.0000000   0.3750000  -0.5000000), wk =   0.0058594
        k(   68) = (   0.0000000   0.3750000  -0.4375000), wk =   0.0058594
        k(   69) = (   0.0000000   0.3750000  -0.3750000), wk =   0.0029297
        k(   70) = (   0.0000000   0.4375000   0.4375000), wk =   0.0014648
        k(   71) = (   0.0000000   0.4375000  -0.5000000), wk =   0.0058594
        k(   72) = (   0.0000000   0.4375000  -0.4375000), wk =   0.0029297
        k(   73) = (   0.0000000  -0.5000000  -0.5000000), wk =   0.0007324
        k(   74) = (   0.0625000   0.1250000   0.1875000), wk =   0.0058594
        k(   75) = (   0.0625000   0.1250000   0.2500000), wk =   0.0117188
        k(   76) = (   0.0625000   0.1250000   0.3125000), wk =   0.0117188
        k(   77) = (   0.0625000   0.1250000   0.3750000), wk =   0.0117188
        k(   78) = (   0.0625000   0.1250000   0.4375000), wk =   0.0117188
        k(   79) = (   0.0625000   0.1250000  -0.5000000), wk =   0.0117188
        k(   80) = (   0.0625000   0.1250000  -0.4375000), wk =   0.0058594
        k(   81) = (   0.0625000   0.1875000   0.2500000), wk =   0.0058594
        k(   82) = (   0.0625000   0.1875000   0.3125000), wk =   0.0117188
        k(   83) = (   0.0625000   0.1875000   0.3750000), wk =   0.0117188
        k(   84) = (   0.0625000   0.1875000   0.4375000), wk =   0.0117188
        k(   85) = (   0.0625000   0.1875000  -0.5000000), wk =   0.0117188
        k(   86) = (   0.0625000   0.1875000  -0.4375000), wk =   0.0117188
        k(   87) = (   0.0625000   0.1875000  -0.3750000), wk =   0.0117188
        k(   88) = (   0.0625000   0.1875000  -0.3125000), wk =   0.0117188
        k(   89) = (   0.0625000   0.1875000  -0.2500000), wk =   0.0117188
        k(   90) = (   0.0625000   0.1875000  -0.1875000), wk =   0.0117188
        k(   91) = (   0.0625000   0.1875000  -0.1250000), wk =   0.0058594
        k(   92) = (   0.0625000   0.2500000   0.3125000), wk =   0.0058594
        k(   93) = (   0.0625000   0.2500000   0.3750000), wk =   0.0117188
        k(   94) = (   0.0625000   0.2500000   0.4375000), wk =   0.0117188
        k(   95) = (   0.0625000   0.2500000  -0.5000000), wk =   0.0117188
        k(   96) = (   0.0625000   0.2500000  -0.4375000), wk =   0.0117188
        k(   97) = (   0.0625000   0.2500000  -0.3750000), wk =   0.0117188
        k(   98) = (   0.0625000   0.2500000  -0.3125000), wk =   0.0117188
        k(   99) = (   0.0625000   0.2500000  -0.2500000), wk =   0.0117188
        k(  100) = (   0.0625000   0.2500000  -0.1875000), wk =   0.0058594
        k(  101) = (   0.0625000   0.3125000   0.3750000), wk =   0.0058594
        k(  102) = (   0.0625000   0.3125000   0.4375000), wk =   0.0117188
        k(  103) = (   0.0625000   0.3125000  -0.5000000), wk =   0.0117188
        k(  104) = (   0.0625000   0.3125000  -0.4375000), wk =   0.0117188
        k(  105) = (   0.0625000   0.3125000  -0.3750000), wk =   0.0117188
        k(  106) = (   0.0625000   0.3125000  -0.3125000), wk =   0.0117188
        k(  107) = (   0.0625000   0.3125000  -0.2500000), wk =   0.0058594
        k(  108) = (   0.0625000   0.3750000   0.4375000), wk =   0.0058594
        k(  109) = (   0.0625000   0.3750000  -0.5000000), wk =   0.0117188
        k(  110) = (   0.0625000   0.3750000  -0.4375000), wk =   0.0117188
        k(  111) = (   0.0625000   0.3750000  -0.3750000), wk =   0.0117188
        k(  112) = (   0.0625000   0.3750000  -0.3125000), wk =   0.0058594
        k(  113) = (   0.0625000   0.4375000  -0.5000000), wk =   0.0058594
        k(  114) = (   0.0625000   0.4375000  -0.4375000), wk =   0.0117188
        k(  115) = (   0.0625000   0.4375000  -0.3750000), wk =   0.0058594
        k(  116) = (   0.0625000  -0.5000000  -0.4375000), wk =   0.0029297
        k(  117) = (   0.1250000   0.2500000   0.3750000), wk =   0.0058594
        k(  118) = (   0.1250000   0.2500000   0.4375000), wk =   0.0117188
        k(  119) = (   0.1250000   0.2500000  -0.5000000), wk =   0.0117188
        k(  120) = (   0.1250000   0.2500000  -0.4375000), wk =   0.0117188
        k(  121) = (   0.1250000   0.2500000  -0.3750000), wk =   0.0058594
        k(  122) = (   0.1250000   0.3125000   0.4375000), wk =   0.0058594
        k(  123) = (   0.1250000   0.3125000  -0.5000000), wk =   0.0117188
        k(  124) = (   0.1250000   0.3125000  -0.4375000), wk =   0.0117188
        k(  125) = (   0.1250000   0.3125000  -0.3750000), wk =   0.0117188
        k(  126) = (   0.1250000   0.3125000  -0.3125000), wk =   0.0117188
        k(  127) = (   0.1250000   0.3125000  -0.2500000), wk =   0.0117188
        k(  128) = (   0.1250000   0.3125000  -0.1875000), wk =   0.0058594
        k(  129) = (   0.1250000   0.3750000  -0.5000000), wk =   0.0058594
        k(  130) = (   0.1250000   0.3750000  -0.4375000), wk =   0.0117188
        k(  131) = (   0.1250000   0.3750000  -0.3750000), wk =   0.0117188
        k(  132) = (   0.1250000   0.3750000  -0.3125000), wk =   0.0117188
        k(  133) = (   0.1250000   0.3750000  -0.2500000), wk =   0.0058594
        k(  134) = (   0.1250000   0.4375000  -0.4375000), wk =   0.0058594
        k(  135) = (   0.1250000   0.4375000  -0.3750000), wk =   0.0117188
        k(  136) = (   0.1250000   0.4375000  -0.3125000), wk =   0.0058594
        k(  137) = (   0.1250000  -0.5000000  -0.3750000), wk =   0.0029297
        k(  138) = (   0.1875000   0.3750000  -0.4375000), wk =   0.0058594
        k(  139) = (   0.1875000   0.3750000  -0.3750000), wk =   0.0117188
        k(  140) = (   0.1875000   0.3750000  -0.3125000), wk =   0.0058594
        k(  141) = (   0.1875000   0.4375000  -0.3750000), wk =   0.0058594
        k(  142) = (   0.1875000   0.4375000  -0.3125000), wk =   0.0117188
        k(  143) = (   0.1875000   0.4375000  -0.2500000), wk =   0.0058594
        k(  144) = (   0.1875000  -0.5000000  -0.3125000), wk =   0.0029297
        k(  145) = (   0.2500000  -0.5000000  -0.2500000), wk =   0.0014648

     Dense  grid:    27581 G-vectors     FFT dimensions: (  45,  45,  45)

     Largest allocated arrays     est. size (Mb)     dimensions
        Kohn-Sham Wavefunctions         0.24 Mb     (     446,   36)
        NL pseudopotentials             0.12 Mb     (     223,   36)
        Each V/rho on FFT grid          0.09 Mb     (    6075)
        Each G-vector array             0.01 Mb     (    1725)
        G-vector shells                 0.00 Mb     (     281)
     Largest temporary arrays     est. size (Mb)     dimensions
        Auxiliary wavefunctions         0.98 Mb     (     446,  144)
        Each subspace H/S matrix        0.32 Mb     (     144,  144)
        Each <psi_i|beta_j> matrix      0.04 Mb     (      36,   2,   36)
        Arrays for rho mixing           0.74 Mb     (    6075,    8)

     Check: negative/imaginary core charge=   -0.000002    0.000000

     Initial potential from superposition of free atoms

     starting charge   27.99723, renormalised to   28.00000
     Starting wfc are   36 randomized atomic wfcs

     total cpu time spent up to now is       11.4 secs

     Self-consistent Calculation

     iteration #  1     ecut=    55.00 Ry     beta=0.70
     Davidson diagonalization with overlap
     ethr =  1.00E-02,  avg # of iterations =  3.4

     Threshold (ethr) on eigenvalues was too large:
     Diagonalizing with lowered threshold

     Davidson diagonalization with overlap
     ethr =  6.61E-05,  avg # of iterations =  3.3

     total cpu time spent up to now is       76.8 secs

     total energy              =    -326.04630980 Ry
     Harris-Foulkes estimate   =    -326.04925781 Ry
     estimated scf accuracy    <       0.02237304 Ry

     iteration #  2     ecut=    55.00 Ry     beta=0.70
     Davidson diagonalization with overlap
     ethr =  7.99E-05,  avg # of iterations =  1.0

     total cpu time spent up to now is      101.9 secs

     total energy              =    -326.04701631 Ry
     Harris-Foulkes estimate   =    -326.04706075 Ry
     estimated scf accuracy    <       0.00149368 Ry

     iteration #  3     ecut=    55.00 Ry     beta=0.70
     Davidson diagonalization with overlap
     ethr =  5.33E-06,  avg # of iterations =  2.7

     total cpu time spent up to now is      138.2 secs

     total energy              =    -326.04721795 Ry
     Harris-Foulkes estimate   =    -326.04723940 Ry
     estimated scf accuracy    <       0.00005481 Ry

     iteration #  4     ecut=    55.00 Ry     beta=0.70
     Davidson diagonalization with overlap
     ethr =  1.96E-07,  avg # of iterations =  2.0

     total cpu time spent up to now is      171.7 secs

     total energy              =    -326.04723293 Ry
     Harris-Foulkes estimate   =    -326.04723090 Ry
     estimated scf accuracy    <       0.00000303 Ry

     iteration #  5     ecut=    55.00 Ry     beta=0.70
     Davidson diagonalization with overlap
     ethr =  1.08E-08,  avg # of iterations =  2.0

     total cpu time spent up to now is      200.9 secs

     End of self-consistent calculation

          k = 0.0000 0.0000 0.0000 (  3479 PWs)   bands (ev):

   -14.6402 -14.6402 -14.6402 -14.6402 -14.6402 -14.6402 -14.5917 -14.5917
   -14.5917 -14.5917 -14.3428 -14.3428 -14.3428 -14.3428 -14.3420 -14.3420
   -14.3420 -14.3420 -14.3420 -14.3420  -3.1822  -3.1822   5.7063   5.7063
     6.9863   6.9863   6.9863   6.9863   6.9863   6.9863   9.0513   9.0513
     9.0513   9.0513   9.0513   9.0513

     occupation numbers 
     1.0000   1.0000   1.0000   1.0000   1.0000   1.0000   1.0000   1.0000
     1.0000   1.0000   1.0000   1.0000   1.0000   1.0000   1.0000   1.0000
     1.0000   1.0000   1.0000   1.0000   1.0000   1.0000   1.0000   1.0000
     0.0000   0.0000   0.0000   0.0000   0.0000   0.0000   0.0000   0.0000
     0.0000   0.0000   0.0000   0.0000

          k = 0.0442 0.0442-0.0442 (  3467 PWs)   bands (ev):

   -14.6428 -14.6428 -14.6428 -14.6428 -14.6394 -14.6394 -14.5880 -14.5880
   -14.5880 -14.5880 -14.3531 -14.3531 -14.3531 -14.3531 -14.3427 -14.3427
   -14.3321 -14.3321 -14.3321 -14.3321  -3.1475  -3.1475   5.3115   5.3115
     6.9138   6.9138   6.9138   6.9138   7.1684   7.1684   9.1461   9.1461
     9.1461   9.1461   9.1807   9.1807

     occupation numbers 
     1.0000   1.0000   1.0000   1.0000   1.0000   1.0000   1.0000   1.0000
     1.0000   1.0000   1.0000   1.0000   1.0000   1.0000   1.0000   1.0000
     1.0000   1.0000   1.0000   1.0000   1.0000   1.0000   1.0000   1.0000
     0.0235   0.0235   0.0235   0.0235   0.0000   0.0000   0.0000   0.0000
     0.0000   0.0000   0.0000   0.0000

          k = 0.0884 0.0884-0.0884 (  3467 PWs)   bands (ev):

   -14.6486 -14.6486 -14.6486 -14.6486 -14.6370 -14.6370 -14.5797 -14.5797
   -14.5797 -14.5797 -14.3638 -14.3638 -14.3638 -14.3638 -14.3458 -14.3458
   -14.3228 -14.3228 -14.3228 -14.3228  -3.0440  -3.0440   4.5508   4.5508
     6.7364   6.7364   6.7364   6.7364   7.2985   7.2985   9.3802   9.3802
     9.3802   9.3802   9.6133   9.6133

     occupation numbers 
     1.0000   1.0000   1.0000   1.0000   1.0000   1.0000   1.0000   1.0000
     1.0000   1.0000   1.0000   1.0000   1.0000   1.0000   1.0000   1.0000
     1.0000   1.0000   1.0000   1.0000   1.0000   1.0000   1.0000   1.0000
     1.0000   1.0000   1.0000   1.0000   0.0000   0.0000   0.0000   0.0000
     0.0000   0.0000   0.0000   0.0000

          k = 0.1326 0.1326-0.1326 (  3467 PWs)   bands (ev):

   -14.6549 -14.6549 -14.6549 -14.6549 -14.6334 -14.6334 -14.5699 -14.5699
   -14.5699 -14.5699 -14.3735 -14.3735 -14.3735 -14.3735 -14.3503 -14.3503
   -14.3151 -14.3151 -14.3151 -14.3151  -2.8748  -2.8748   3.7213   3.7213
     6.5217   6.5217   6.5217   6.5217   7.2356   7.2356   9.6556   9.6556
     9.6556   9.6556  10.2937  10.2937

     occupation numbers 
     1.0000   1.0000   1.0000   1.0000   1.0000   1.0000   1.0000   1.0000
     1.0000   1.0000   1.0000   1.0000   1.0000   1.0000   1.0000   1.0000
     1.0000   1.0000   1.0000   1.0000   1.0000   1.0000   1.0000   1.0000
     1.0000   1.0000   1.0000   1.0000   0.0000   0.0000   0.0000   0.0000
     0.0000   0.0000   0.0000   0.0000

          k = 0.1768 0.1768-0.1768 (  3455 PWs)   bands (ev):

   -14.6603 -14.6603 -14.6603 -14.6603 -14.6286 -14.6286 -14.5606 -14.5606
   -14.5606 -14.5606 -14.3820 -14.3820 -14.3820 -14.3820 -14.3550 -14.3550
   -14.3088 -14.3088 -14.3088 -14.3088  -2.6461  -2.6461   2.9099   2.9099
     6.3151   6.3151   6.3151   6.3151   7.0962   7.0962   9.8864   9.8864
     9.8864   9.8864  11.1027  11.1027

     occupation numbers 
     1.0000   1.0000   1.0000   1.0000   1.0000   1.0000   1.0000   1.0000
     1.0000   1.0000   1.0000   1.0000   1.0000   1.0000   1.0000   1.0000
     1.0000   1.0000   1.0000   1.0000   1.0000   1.0000   1.0000   1.0000
     1.0000   1.0000   1.0000   1.0000   0.0000   0.0000   0.0000   0.0000
     0.0000   0.0000   0.0000   0.0000

          k = 0.2210 0.2210-0.2210 (  3446 PWs)   bands (ev):

   -14.6643 -14.6643 -14.6643 -14.6643 -14.6242 -14.6242 -14.5527 -14.5527
   -14.5527 -14.5527 -14.3886 -14.3886 -14.3886 -14.3886 -14.3603 -14.3603
   -14.3041 -14.3041 -14.3041 -14.3041  -2.3711  -2.3711   2.1619   2.1619
     6.1403   6.1403   6.1403   6.1403   6.9546   6.9546  10.0264  10.0264
    10.0264  10.0264  11.9673  11.9673

     occupation numbers 
     1.0000   1.0000   1.0000   1.0000   1.0000   1.0000   1.0000   1.0000
     1.0000   1.0000   1.0000   1.0000   1.0000   1.0000   1.0000   1.0000
     1.0000   1.0000   1.0000   1.0000   1.0000   1.0000   1.0000   1.0000
     1.0000   1.0000   1.0000   1.0000   0.0000   0.0000   0.0000   0.0000
     0.0000   0.0000   0.0000   0.0000

          k = 0.2652 0.2652-0.2652 (  3452 PWs)   bands (ev):

   -14.6670 -14.6670 -14.6670 -14.6670 -14.6203 -14.6203 -14.5475 -14.5475
   -14.5475 -14.5475 -14.3929 -14.3929 -14.3929 -14.3929 -14.3650 -14.3650
   -14.3012 -14.3012 -14.3012 -14.3012  -2.0778  -2.0778   1.5220   1.5220
     6.0095   6.0095   6.0095   6.0095   6.8421   6.8421  10.0837  10.0837
    10.0837  10.0837  12.6303  12.6303

     occupation numbers 
     1.0000   1.0000   1.0000   1.0000   1.0000   1.0000   1.0000   1.0000
     1.0000   1.0000   1.0000   1.0000   1.0000   1.0000   1.0000   1.0000
     1.0000   1.0000   1.0000   1.0000   1.0000   1.0000   1.0000   1.0000
     1.0000   1.0000   1.0000   1.0000   1.0000   1.0000   0.0000   0.0000
     0.0000   0.0000   0.0000   0.0000

          k = 0.3094 0.3094-0.3094 (  3444 PWs)   bands (ev):

   -14.6683 -14.6683 -14.6683 -14.6683 -14.6174 -14.6174 -14.5446 -14.5446
   -14.5446 -14.5446 -14.3952 -14.3952 -14.3952 -14.3952 -14.3675 -14.3675
   -14.2996 -14.2996 -14.2996 -14.2996  -1.8263  -1.8263   1.0595   1.0595
     5.9291   5.9291   5.9291   5.9291   6.7714   6.7714  10.0963  10.0963
    10.0963  10.0963  12.6559  12.6559

     occupation numbers 
     1.0000   1.0000   1.0000   1.0000   1.0000   1.0000   1.0000   1.0000
     1.0000   1.0000   1.0000   1.0000   1.0000   1.0000   1.0000   1.0000
     1.0000   1.0000   1.0000   1.0000   1.0000   1.0000   1.0000   1.0000
     1.0000   1.0000   1.0000   1.0000   1.0000   1.0000   0.0000   0.0000
     0.0000   0.0000   0.0000   0.0000

          k =-0.3536-0.3536 0.3536 (  3444 PWs)   bands (ev):

   -14.6689 -14.6689 -14.6689 -14.6689 -14.6169 -14.6169 -14.5435 -14.5435
   -14.5435 -14.5435 -14.3960 -14.3960 -14.3960 -14.3960 -14.3688 -14.3688
   -14.2987 -14.2987 -14.2987 -14.2987  -1.7201  -1.7201   0.8824   0.8824
     5.9020   5.9020   5.9020   5.9020   6.7473   6.7473  10.0966  10.0966
    10.0966  10.0966  12.6309  12.6309

     occupation numbers 
     1.0000   1.0000   1.0000   1.0000   1.0000   1.0000   1.0000   1.0000
     1.0000   1.0000   1.0000   1.0000   1.0000   1.0000   1.0000   1.0000
     1.0000   1.0000   1.0000   1.0000   1.0000   1.0000   1.0000   1.0000
     1.0000   1.0000   1.0000   1.0000   1.0000   1.0000   0.0000   0.0000
     0.0000   0.0000   0.0000   0.0000

          k = 0.0884 0.0000 0.0000 (  3471 PWs)   bands (ev):

   -14.6424 -14.6424 -14.6421 -14.6421 -14.6421 -14.6421 -14.5892 -14.5892
   -14.5844 -14.5844 -14.3622 -14.3622 -14.3451 -14.3451 -14.3393 -14.3393
   -14.3393 -14.3393 -14.3281 -14.3281  -3.1358  -3.1358   5.2315   5.2315
     6.7812   6.7812   6.7812   6.7812   7.4418   7.4418   8.9067   8.9067
     9.3159   9.3159   9.3159   9.3159

     occupation numbers 
     1.0000   1.0000   1.0000   1.0000   1.0000   1.0000   1.0000   1.0000
     1.0000   1.0000   1.0000   1.0000   1.0000   1.0000   1.0000   1.0000
     1.0000   1.0000   1.0000   1.0000   1.0000   1.0000   1.0000   1.0000
     1.0000   1.0000   1.0000   1.0000   0.0000   0.0000   0.0000   0.0000
     0.0000   0.0000   0.0000   0.0000

          k = 0.1326 0.0442-0.0442 (  3461 PWs)   bands (ev):

   -14.6485 -14.6485 -14.6458 -14.6458 -14.6399 -14.6399 -14.5838 -14.5838
   -14.5759 -14.5759 -14.3734 -14.3734 -14.3538 -14.3538 -14.3395 -14.3395
   -14.3309 -14.3309 -14.3209 -14.3209  -3.0550  -3.0550   4.6675   4.6675
     6.5733   6.5733   6.6046   6.6046   7.6947   7.6947   8.9057   8.9057
     9.5988   9.5988   9.6726   9.6726

     occupation numbers 
     1.0000   1.0000   1.0000   1.0000   1.0000   1.0000   1.0000   1.0000
     1.0000   1.0000   1.0000   1.0000   1.0000   1.0000   1.0000   1.0000
     1.0000   1.0000   1.0000   1.0000   1.0000   1.0000   1.0000   1.0000
     1.0000   1.0000   1.0000   1.0000   0.0000   0.0000   0.0000   0.0000
     0.0000   0.0000   0.0000   0.0000

          k = 0.1768 0.0884-0.0884 (  3472 PWs)   bands (ev):

   -14.6559 -14.6559 -14.6515 -14.6515 -14.6358 -14.6358 -14.5753 -14.5753
   -14.5657 -14.5657 -14.3842 -14.3842 -14.3639 -14.3639 -14.3439 -14.3439
   -14.3222 -14.3222 -14.3130 -14.3130  -2.9073  -2.9073   3.9140   3.9140
     6.3511   6.3511   6.3874   6.3874   7.7132   7.7132   9.1326   9.1326
     9.9045   9.9045  10.2245  10.2245

     occupation numbers 
     1.0000   1.0000   1.0000   1.0000   1.0000   1.0000   1.0000   1.0000
     1.0000   1.0000   1.0000   1.0000   1.0000   1.0000   1.0000   1.0000
     1.0000   1.0000   1.0000   1.0000   1.0000   1.0000   1.0000   1.0000
     1.0000   1.0000   1.0000   1.0000   0.0000   0.0000   0.0000   0.0000
     0.0000   0.0000   0.0000   0.0000

          k = 0.2210 0.1326-0.1326 (  3455 PWs)   bands (ev):

   -14.6623 -14.6623 -14.6572 -14.6572 -14.6301 -14.6301 -14.5660 -14.5660
   -14.5555 -14.5555 -14.3932 -14.3932 -14.3733 -14.3733 -14.3498 -14.3498
   -14.3145 -14.3145 -14.3059 -14.3059  -2.6975  -2.6975   3.1259   3.1259
     6.1470   6.1470   6.1508   6.1508   7.5987   7.5987   9.4450   9.4450
    10.1522  10.1522  10.8696  10.8696

     occupation numbers 
     1.0000   1.0000   1.0000   1.0000   1.0000   1.0000   1.0000   1.0000
     1.0000   1.0000   1.0000   1.0000   1.0000   1.0000   1.0000   1.0000
     1.0000   1.0000   1.0000   1.0000   1.0000   1.0000   1.0000   1.0000
     1.0000   1.0000   1.0000   1.0000   0.0000   0.0000   0.0000   0.0000
     0.0000   0.0000   0.0000   0.0000

          k = 0.2652 0.1768-0.1768 (  3458 PWs)   bands (ev):

   -14.6675 -14.6675 -14.6619 -14.6619 -14.6241 -14.6241 -14.5575 -14.5575
   -14.5473 -14.5473 -14.3997 -14.3997 -14.3816 -14.3816 -14.3570 -14.3570
   -14.3085 -14.3085 -14.3004 -14.3004  -2.4358  -2.4358   2.3723   2.3723
     5.9218   5.9218   5.9916   5.9916   7.4536   7.4536   9.7057   9.7057
    10.2908  10.2908  11.5486  11.5487

     occupation numbers 
     1.0000   1.0000   1.0000   1.0000   1.0000   1.0000   1.0000   1.0000
     1.0000   1.0000   1.0000   1.0000   1.0000   1.0000   1.0000   1.0000
     1.0000   1.0000   1.0000   1.0000   1.0000   1.0000   1.0000   1.0000
     1.0000   1.0000   1.0000   1.0000   0.0000   0.0000   0.0000   0.0000
     0.0000   0.0000   0.0000   0.0000

          k = 0.3094 0.2210-0.2210 (  3454 PWs)   bands (ev):

   -14.6709 -14.6709 -14.6654 -14.6654 -14.6184 -14.6184 -14.5504 -14.5504
   -14.5421 -14.5421 -14.4029 -14.4029 -14.3882 -14.3882 -14.3641 -14.3641
   -14.3038 -14.3038 -14.2966 -14.2966  -2.1437  -2.1437   1.7020   1.7020
     5.7335   5.7335   5.8832   5.8832   7.3243   7.3243   9.8652   9.8652
    10.3228  10.3228  12.2177  12.2177

     occupation numbers 
     1.0000   1.0000   1.0000   1.0000   1.0000   1.0000   1.0000   1.0000
     1.0000   1.0000   1.0000   1.0000   1.0000   1.0000   1.0000   1.0000
     1.0000   1.0000   1.0000   1.0000   1.0000   1.0000   1.0000   1.0000
     1.0000   1.0000   1.0000   1.0000   0.0000   0.0000   0.0000   0.0000
     0.0000   0.0000   0.0000   0.0000

          k = 0.3536 0.2652-0.2652 (  3445 PWs)   bands (ev):

   -14.6729 -14.6729 -14.6679 -14.6679 -14.6137 -14.6137 -14.5450 -14.5450
   -14.5400 -14.5400 -14.4027 -14.4027 -14.3936 -14.3936 -14.3700 -14.3700
   -14.3003 -14.3003 -14.2944 -14.2944  -1.8681  -1.8681   1.1760   1.1760
     5.5930   5.5930   5.8301   5.8301   7.2300   7.2300   9.9523   9.9523
    10.2898  10.2898  12.6504  12.6504

     occupation numbers 
     1.0000   1.0000   1.0000   1.0000   1.0000   1.0000   1.0000   1.0000
     1.0000   1.0000   1.0000   1.0000   1.0000   1.0000   1.0000   1.0000
     1.0000   1.0000   1.0000   1.0000   1.0000   1.0000   1.0000   1.0000
     1.0000   1.0000   1.0000   1.0000   0.0000   0.0000   0.0000   0.0000
     0.0000   0.0000   0.0000   0.0000

          k =-0.3094-0.3977 0.3977 (  3447 PWs)   bands (ev):

   -14.6734 -14.6734 -14.6695 -14.6695 -14.6116 -14.6116 -14.5415 -14.5415
   -14.5409 -14.5409 -14.4000 -14.4000 -14.3977 -14.3977 -14.3735 -14.3735
   -14.2979 -14.2979 -14.2941 -14.2941  -1.7003  -1.7003   0.8933   0.8933
     5.5063   5.5063   5.8338   5.8338   7.1792   7.1792  10.0133  10.0133
    10.2322  10.2322  12.7444  12.7444

     occupation numbers 
     1.0000   1.0000   1.0000   1.0000   1.0000   1.0000   1.0000   1.0000
     1.0000   1.0000   1.0000   1.0000   1.0000   1.0000   1.0000   1.0000
     1.0000   1.0000   1.0000   1.0000   1.0000   1.0000   1.0000   1.0000
     1.0000   1.0000   1.0000   1.0000   0.0000   0.0000   0.0000   0.0000
     0.0000   0.0000   0.0000   0.0000

          k =-0.2652-0.3536 0.3536 (  3444 PWs)   bands (ev):

   -14.6725 -14.6725 -14.6702 -14.6702 -14.6115 -14.6115 -14.5432 -14.5432
   -14.5396 -14.5396 -14.4004 -14.4004 -14.3961 -14.3961 -14.3738 -14.3738
   -14.2971 -14.2971 -14.2955 -14.2955  -1.7373  -1.7373   0.9535   0.9535
     5.4770   5.4770   5.8932   5.8932   7.1748   7.1748  10.0731  10.0731
    10.1698  10.1698  12.7572  12.7572

     occupation numbers 
     1.0000   1.0000   1.0000   1.0000   1.0000   1.0000   1.0000   1.0000
     1.0000   1.0000   1.0000   1.0000   1.0000   1.0000   1.0000   1.0000
     1.0000   1.0000   1.0000   1.0000   1.0000   1.0000   1.0000   1.0000
     1.0000   1.0000   1.0000   1.0000   0.0000   0.0000   0.0000   0.0000
     0.0000   0.0000   0.0000   0.0000

          k =-0.2210-0.3094 0.3094 (  3450 PWs)   bands (ev):

   -14.6703 -14.6703 -14.6699 -14.6699 -14.6140 -14.6140 -14.5475 -14.5475
   -14.5403 -14.5403 -14.4010 -14.4010 -14.3921 -14.3921 -14.3708 -14.3708
   -14.2985 -14.2985 -14.2971 -14.2971  -1.9541  -1.9541   1.3312   1.3312
     5.5075   5.5075   6.0053   6.0053   7.2165   7.2165  10.0990  10.0990
    10.1286  10.1286  12.6430  12.6430

     occupation numbers 
     1.0000   1.0000   1.0000   1.0000   1.0000   1.0000   1.0000   1.0000
     1.0000   1.0000   1.0000   1.0000   1.0000   1.0000   1.0000   1.0000
     1.0000   1.0000   1.0000   1.0000   1.0000   1.0000   1.0000   1.0000
     1.0000   1.0000   1.0000   1.0000   0.0000   0.0000   0.0000   0.0000
     0.0000   0.0000   0.0000   0.0000

          k =-0.1768-0.2652 0.2652 (  3437 PWs)   bands (ev):

   -14.6681 -14.6681 -14.6668 -14.6668 -14.6187 -14.6187 -14.5528 -14.5528
   -14.5439 -14.5439 -14.3986 -14.3986 -14.3876 -14.3876 -14.3641 -14.3641
   -14.3030 -14.3030 -14.2987 -14.2987  -2.2429  -2.2429   1.9140   1.9140
     5.5992   5.5992   6.1642   6.1642   7.2996   7.2996   9.9953   9.9953
    10.1459  10.1459  12.0715  12.0715

     occupation numbers 
     1.0000   1.0000   1.0000   1.0000   1.0000   1.0000   1.0000   1.0000
     1.0000   1.0000   1.0000   1.0000   1.0000   1.0000   1.0000   1.0000
     1.0000   1.0000   1.0000   1.0000   1.0000   1.0000   1.0000   1.0000
     1.0000   1.0000   1.0000   1.0000   0.0000   0.0000   0.0000   0.0000
     0.0000   0.0000   0.0000   0.0000

          k =-0.1326-0.2210 0.2210 (  3451 PWs)   bands (ev):

   -14.6652 -14.6652 -14.6621 -14.6621 -14.6246 -14.6246 -14.5601 -14.5601
   -14.5507 -14.5507 -14.3934 -14.3934 -14.3821 -14.3821 -14.3560 -14.3560
   -14.3093 -14.3093 -14.3022 -14.3022  -2.5283  -2.5283   2.6167   2.6167
     5.7525   5.7525   6.3601   6.3601   7.4122   7.4122   9.8275   9.8275
    10.0576  10.0576  11.3415  11.3415

     occupation numbers 
     1.0000   1.0000   1.0000   1.0000   1.0000   1.0000   1.0000   1.0000
     1.0000   1.0000   1.0000   1.0000   1.0000   1.0000   1.0000   1.0000
     1.0000   1.0000   1.0000   1.0000   1.0000   1.0000   1.0000   1.0000
     1.0000   1.0000   1.0000   1.0000   0.0000   0.0000   0.0000   0.0000
     0.0000   0.0000   0.0000   0.0000

          k =-0.0884-0.1768 0.1768 (  3460 PWs)   bands (ev):

   -14.6603 -14.6603 -14.6561 -14.6561 -14.6307 -14.6307 -14.5685 -14.5685
   -14.5603 -14.5603 -14.3854 -14.3854 -14.3751 -14.3751 -14.3481 -14.3481
   -14.3170 -14.3170 -14.3074 -14.3074  -2.7742  -2.7742   3.3843   3.3843
     5.9672   5.9672   6.5755   6.5755   7.5249   7.5249   9.5916   9.5916
     9.8019   9.8019  10.6866  10.6866

     occupation numbers 
     1.0000   1.0000   1.0000   1.0000   1.0000   1.0000   1.0000   1.0000
     1.0000   1.0000   1.0000   1.0000   1.0000   1.0000   1.0000   1.0000
     1.0000   1.0000   1.0000   1.0000   1.0000   1.0000   1.0000   1.0000
     1.0000   1.0000   1.0000   1.0000   0.0000   0.0000   0.0000   0.0000
     0.0000   0.0000   0.0000   0.0000

          k =-0.0442-0.1326 0.1326 (  3466 PWs)   bands (ev):

   -14.6543 -14.6543 -14.6494 -14.6494 -14.6360 -14.6360 -14.5774 -14.5774
   -14.5709 -14.5709 -14.3754 -14.3754 -14.3665 -14.3665 -14.3413 -14.3413
   -14.3262 -14.3262 -14.3142 -14.3142  -2.9640  -2.9640   4.1633   4.1633
     6.2426   6.2426   6.7777   6.7777   7.5684   7.5684   9.3375   9.3376
     9.4455   9.4455  10.1149  10.1149

     occupation numbers 
     1.0000   1.0000   1.0000   1.0000   1.0000   1.0000   1.0000   1.0000
     1.0000   1.0000   1.0000   1.0000   1.0000   1.0000   1.0000   1.0000
     1.0000   1.0000   1.0000   1.0000   1.0000   1.0000   1.0000   1.0000
     1.0000   1.0000   1.0000   1.0000   0.0000   0.0000   0.0000   0.0000
     0.0000   0.0000   0.0000   0.0000

          k = 0.0000-0.0884 0.0884 (  3467 PWs)   bands (ev):

   -14.6477 -14.6477 -14.6440 -14.6440 -14.6393 -14.6393 -14.5849 -14.5849
   -14.5809 -14.5809 -14.3644 -14.3644 -14.3575 -14.3575 -14.3367 -14.3367
   -14.3352 -14.3352 -14.3226 -14.3226  -3.0897  -3.0897   4.8662   4.8662
     6.5774   6.5774   6.9111   6.9111   7.4287   7.4287   9.1586   9.1586
     9.1979   9.1979   9.5926   9.5926

     occupation numbers 
     1.0000   1.0000   1.0000   1.0000   1.0000   1.0000   1.0000   1.0000
     1.0000   1.0000   1.0000   1.0000   1.0000   1.0000   1.0000   1.0000
     1.0000   1.0000   1.0000   1.0000   1.0000   1.0000   1.0000   1.0000
     1.0000   1.0000   0.8020   0.8020   0.0000   0.0000   0.0000   0.0000
     0.0000   0.0000   0.0000   0.0000

          k = 0.1768 0.0000 0.0000 (  3459 PWs)   bands (ev):

   -14.6471 -14.6471 -14.6471 -14.6471 -14.6455 -14.6455 -14.5817 -14.5817
   -14.5673 -14.5673 -14.3866 -14.3866 -14.3519 -14.3519 -14.3322 -14.3322
   -14.3322 -14.3322 -14.3198 -14.3198  -2.9969  -2.9969   4.4179   4.4179
     6.3510   6.3510   6.3510   6.3510   8.1630   8.1630   8.5867   8.5867
     9.9226   9.9226   9.9226   9.9226

     occupation numbers 
     1.0000   1.0000   1.0000   1.0000   1.0000   1.0000   1.0000   1.0000
     1.0000   1.0000   1.0000   1.0000   1.0000   1.0000   1.0000   1.0000
     1.0000   1.0000   1.0000   1.0000   1.0000   1.0000   1.0000   1.0000
     1.0000   1.0000   1.0000   1.0000   0.0000   0.0000   0.0000   0.0000
     0.0000   0.0000   0.0000   0.0000

          k = 0.2210 0.0442-0.0442 (  3472 PWs)   bands (ev):

   -14.6549 -14.6549 -14.6515 -14.6515 -14.6413 -14.6413 -14.5751 -14.5751
   -14.5561 -14.5561 -14.3996 -14.3996 -14.3597 -14.3597 -14.3332 -14.3332
   -14.3253 -14.3253 -14.3142 -14.3142  -2.8710  -2.8710   3.8748   3.8748
     6.1079   6.1079   6.1238   6.1238   8.3458   8.3458   8.5817   8.5817
    10.2691  10.2691  10.3510  10.3510

     occupation numbers 
     1.0000   1.0000   1.0000   1.0000   1.0000   1.0000   1.0000   1.0000
     1.0000   1.0000   1.0000   1.0000   1.0000   1.0000   1.0000   1.0000
     1.0000   1.0000   1.0000   1.0000   1.0000   1.0000   1.0000   1.0000
     1.0000   1.0000   1.0000   1.0000   0.0000   0.0000   0.0000   0.0000
     0.0000   0.0000   0.0000   0.0000

          k = 0.2652 0.0884-0.0884 (  3457 PWs)   bands (ev):

   -14.6630 -14.6630 -14.6568 -14.6568 -14.6339 -14.6339 -14.5663 -14.5663
   -14.5449 -14.5449 -14.4106 -14.4106 -14.3692 -14.3692 -14.3400 -14.3400
   -14.3173 -14.3173 -14.3056 -14.3056  -2.6811  -2.6811   3.1989   3.1989
     5.8277   5.8277   5.9245   5.9245   8.2726   8.2726   8.8752   8.8752
    10.5583  10.5583  10.7863  10.7864

     occupation numbers 
     1.0000   1.0000   1.0000   1.0000   1.0000   1.0000   1.0000   1.0000
     1.0000   1.0000   1.0000   1.0000   1.0000   1.0000   1.0000   1.0000
     1.0000   1.0000   1.0000   1.0000   1.0000   1.0000   1.0000   1.0000
     1.0000   1.0000   1.0000   1.0000   0.0000   0.0000   0.0000   0.0000
     0.0000   0.0000   0.0000   0.0000

          k = 0.3094 0.1326-0.1326 (  3456 PWs)   bands (ev):

   -14.6704 -14.6704 -14.6616 -14.6616 -14.6251 -14.6251 -14.5573 -14.5573
   -14.5359 -14.5359 -14.4186 -14.4186 -14.3788 -14.3788 -14.3497 -14.3497
   -14.3102 -14.3102 -14.2977 -14.2977  -2.4349  -2.4349   2.4972   2.4972
     5.5446   5.5446   5.7711   5.7711   8.1312   8.1312   9.2589   9.2589
    10.7275  10.7275  11.1093  11.1093

     occupation numbers 
     1.0000   1.0000   1.0000   1.0000   1.0000   1.0000   1.0000   1.0000
     1.0000   1.0000   1.0000   1.0000   1.0000   1.0000   1.0000   1.0000
     1.0000   1.0000   1.0000   1.0000   1.0000   1.0000   1.0000   1.0000
     1.0000   1.0000   1.0000   1.0000   0.0000   0.0000   0.0000   0.0000
     0.0000   0.0000   0.0000   0.0000

          k = 0.3536 0.1768-0.1768 (  3452 PWs)   bands (ev):

   -14.6761 -14.6761 -14.6657 -14.6657 -14.6160 -14.6160 -14.5487 -14.5487
   -14.5301 -14.5301 -14.4224 -14.4224 -14.3878 -14.3878 -14.3604 -14.3604
   -14.3041 -14.3041 -14.2914 -14.2914  -2.1489  -2.1489   1.8363   1.8363
     5.2936   5.2936   5.6729   5.6729   7.9883   7.9883   9.5842   9.5842
    10.7648  10.7648  11.4687  11.4687

     occupation numbers 
     1.0000   1.0000   1.0000   1.0000   1.0000   1.0000   1.0000   1.0000
     1.0000   1.0000   1.0000   1.0000   1.0000   1.0000   1.0000   1.0000
     1.0000   1.0000   1.0000   1.0000   1.0000   1.0000   1.0000   1.0000
     1.0000   1.0000   1.0000   1.0000   0.0000   0.0000   0.0000   0.0000
     0.0000   0.0000   0.0000   0.0000

          k = 0.3977 0.2210-0.2210 (  3463 PWs)   bands (ev):

   -14.6801 -14.6801 -14.6692 -14.6692 -14.6077 -14.6077 -14.5414 -14.5414
   -14.5288 -14.5288 -14.4216 -14.4216 -14.3959 -14.3959 -14.3706 -14.3706
   -14.2994 -14.2994 -14.2871 -14.2871  -1.8587  -1.8587   1.2782   1.2782
     5.0925   5.0925   5.6343   5.6343   7.8721   7.8721   9.7840   9.7840
    10.7095  10.7095  11.9868  11.9868

     occupation numbers 
     1.0000   1.0000   1.0000   1.0000   1.0000   1.0000   1.0000   1.0000
     1.0000   1.0000   1.0000   1.0000   1.0000   1.0000   1.0000   1.0000
     1.0000   1.0000   1.0000   1.0000   1.0000   1.0000   1.0000   1.0000
     1.0000   1.0000   1.0000   1.0000   0.0000   0.0000   0.0000   0.0000
     0.0000   0.0000   0.0000   0.0000

          k =-0.2652-0.4419 0.4419 (  3450 PWs)   bands (ev):

   -14.6819 -14.6819 -14.6715 -14.6715 -14.6014 -14.6014 -14.5354 -14.5354
   -14.5311 -14.5311 -14.4160 -14.4160 -14.4030 -14.4030 -14.3789 -14.3789
   -14.2956 -14.2956 -14.2850 -14.2850  -1.6403  -1.6403   0.9130   0.9130
     4.9505   4.9505   5.6563   5.6563   7.7955   7.7955   9.9036   9.9036
    10.6101  10.6101  12.5554  12.5554

     occupation numbers 
     1.0000   1.0000   1.0000   1.0000   1.0000   1.0000   1.0000   1.0000
     1.0000   1.0000   1.0000   1.0000   1.0000   1.0000   1.0000   1.0000
     1.0000   1.0000   1.0000   1.0000   1.0000   1.0000   1.0000   1.0000
     1.0000   1.0000   1.0000   1.0000   0.0000   0.0000   0.0000   0.0000
     0.0000   0.0000   0.0000   0.0000

          k =-0.2210-0.3977 0.3977 (  3446 PWs)   bands (ev):

   -14.6817 -14.6817 -14.6730 -14.6730 -14.5988 -14.5988 -14.5363 -14.5363
   -14.5312 -14.5312 -14.4084 -14.4084 -14.4067 -14.4067 -14.3843 -14.3843
   -14.2936 -14.2936 -14.2856 -14.2856  -1.6049  -1.6049   0.8578   0.8578
     4.8735   4.8735   5.7372   5.7372   7.7630   7.7630  10.0032  10.0032
    10.4947  10.4947  12.8619  12.8619

     occupation numbers 
     1.0000   1.0000   1.0000   1.0000   1.0000   1.0000   1.0000   1.0000
     1.0000   1.0000   1.0000   1.0000   1.0000   1.0000   1.0000   1.0000
     1.0000   1.0000   1.0000   1.0000   1.0000   1.0000   1.0000   1.0000
     1.0000   1.0000   1.0000   1.0000   0.0000   0.0000   0.0000   0.0000
     0.0000   0.0000   0.0000   0.0000

          k =-0.1768-0.3536 0.3536 (  3443 PWs)   bands (ev):

   -14.6795 -14.6795 -14.6734 -14.6734 -14.6002 -14.6002 -14.5425 -14.5425
   -14.5298 -14.5298 -14.4114 -14.4114 -14.3965 -14.3965 -14.3854 -14.3854
   -14.2927 -14.2927 -14.2886 -14.2886  -1.7769  -1.7769   1.1371   1.1371
     4.8671   4.8671   5.8724   5.8724   7.7737   7.7737  10.1046  10.1046
    10.3660  10.3660  12.6063  12.6063

     occupation numbers 
     1.0000   1.0000   1.0000   1.0000   1.0000   1.0000   1.0000   1.0000
     1.0000   1.0000   1.0000   1.0000   1.0000   1.0000   1.0000   1.0000
     1.0000   1.0000   1.0000   1.0000   1.0000   1.0000   1.0000   1.0000
     1.0000   1.0000   1.0000   1.0000   0.0000   0.0000   0.0000   0.0000
     0.0000   0.0000   0.0000   0.0000

          k =-0.1326-0.3094 0.3094 (  3456 PWs)   bands (ev):

   -14.6753 -14.6753 -14.6727 -14.6727 -14.6058 -14.6058 -14.5494 -14.5494
   -14.5322 -14.5322 -14.4108 -14.4108 -14.3909 -14.3909 -14.3773 -14.3773
   -14.2944 -14.2944 -14.2935 -14.2935  -2.0550  -2.0550   1.6439   1.6439
     4.9377   4.9377   6.0538   6.0538   7.8202   7.8202  10.1850  10.1850
    10.2060  10.2060  11.9535  11.9535

     occupation numbers 
     1.0000   1.0000   1.0000   1.0000   1.0000   1.0000   1.0000   1.0000
     1.0000   1.0000   1.0000   1.0000   1.0000   1.0000   1.0000   1.0000
     1.0000   1.0000   1.0000   1.0000   1.0000   1.0000   1.0000   1.0000
     1.0000   1.0000   1.0000   1.0000   0.0000   0.0000   0.0000   0.0000
     0.0000   0.0000   0.0000   0.0000

          k =-0.0884-0.2652 0.2652 (  3447 PWs)   bands (ev):

   -14.6702 -14.6702 -14.6693 -14.6693 -14.6140 -14.6140 -14.5563 -14.5563
   -14.5384 -14.5384 -14.4060 -14.4060 -14.3871 -14.3871 -14.3642 -14.3642
   -14.3023 -14.3023 -14.2960 -14.2960  -2.3474  -2.3474   2.2719   2.2719
     5.0946   5.0946   6.2675   6.2675   7.8840   7.8840   9.9912   9.9912
    10.1522  10.1522  11.3437  11.3437

     occupation numbers 
     1.0000   1.0000   1.0000   1.0000   1.0000   1.0000   1.0000   1.0000
     1.0000   1.0000   1.0000   1.0000   1.0000   1.0000   1.0000   1.0000
     1.0000   1.0000   1.0000   1.0000   1.0000   1.0000   1.0000   1.0000
     1.0000   1.0000   1.0000   1.0000   0.0000   0.0000   0.0000   0.0000
     0.0000   0.0000   0.0000   0.0000

          k =-0.0442-0.2210 0.2210 (  3455 PWs)   bands (ev):

   -14.6662 -14.6662 -14.6622 -14.6622 -14.6231 -14.6231 -14.5637 -14.5637
   -14.5482 -14.5482 -14.3977 -14.3977 -14.3816 -14.3816 -14.3516 -14.3516
   -14.3119 -14.3119 -14.3005 -14.3005  -2.6084  -2.6084   2.9478   2.9478
     5.3527   5.3527   6.4898   6.4898   7.9208   7.9208   9.7283   9.7283
     9.8925   9.8925  10.9600  10.9600

     occupation numbers 
     1.0000   1.0000   1.0000   1.0000   1.0000   1.0000   1.0000   1.0000
     1.0000   1.0000   1.0000   1.0000   1.0000   1.0000   1.0000   1.0000
     1.0000   1.0000   1.0000   1.0000   1.0000   1.0000   1.0000   1.0000
     1.0000   1.0000   1.0000   1.0000   0.0000   0.0000   0.0000   0.0000
     0.0000   0.0000   0.0000   0.0000

          k = 0.0000-0.1768 0.1768 (  3465 PWs)   bands (ev):

   -14.6605 -14.6605 -14.6547 -14.6547 -14.6312 -14.6312 -14.5711 -14.5711
   -14.5597 -14.5597 -14.3872 -14.3872 -14.3744 -14.3744 -14.3418 -14.3418
   -14.3223 -14.3223 -14.3066 -14.3066  -2.8173  -2.8173   3.6034   3.6034
     5.7330   5.7330   6.6798   6.6798   7.8398   7.8398   9.4783   9.4783
     9.5778   9.5778  10.6186  10.6186

     occupation numbers 
     1.0000   1.0000   1.0000   1.0000   1.0000   1.0000   1.0000   1.0000
     1.0000   1.0000   1.0000   1.0000   1.0000   1.0000   1.0000   1.0000
     1.0000   1.0000   1.0000   1.0000   1.0000   1.0000   1.0000   1.0000
     1.0000   1.0000   1.0000   1.0000   0.0000   0.0000   0.0000   0.0000
     0.0000   0.0000   0.0000   0.0000

          k = 0.2652 0.0000 0.0000 (  3475 PWs)   bands (ev):

   -14.6545 -14.6545 -14.6545 -14.6545 -14.6458 -14.6458 -14.5700 -14.5700
   -14.5437 -14.5437 -14.4152 -14.4152 -14.3633 -14.3633 -14.3223 -14.3223
   -14.3223 -14.3223 -14.3184 -14.3184  -2.7667  -2.7667   3.5627   3.5627
     5.8923   5.8923   5.8923   5.8923   8.2457   8.2457   8.7258   8.7258
    10.6701  10.6701  10.6701  10.6701

     occupation numbers 
     1.0000   1.0000   1.0000   1.0000   1.0000   1.0000   1.0000   1.0000
     1.0000   1.0000   1.0000   1.0000   1.0000   1.0000   1.0000   1.0000
     1.0000   1.0000   1.0000   1.0000   1.0000   1.0000   1.0000   1.0000
     1.0000   1.0000   1.0000   1.0000   0.0000   0.0000   0.0000   0.0000
     0.0000   0.0000   0.0000   0.0000

          k = 0.3094 0.0442-0.0442 (  3467 PWs)   bands (ev):

   -14.6618 -14.6618 -14.6588 -14.6588 -14.6395 -14.6395 -14.5619 -14.5619
   -14.5310 -14.5310 -14.4292 -14.4292 -14.3715 -14.3715 -14.3290 -14.3290
   -14.3157 -14.3157 -14.3091 -14.3091  -2.5970  -2.5970   3.0579   3.0579
     5.6330   5.6330   5.6893   5.6893   8.2308   8.2308   8.8280   8.8280
    10.9988  10.9988  11.0269  11.0269

     occupation numbers 
     1.0000   1.0000   1.0000   1.0000   1.0000   1.0000   1.0000   1.0000
     1.0000   1.0000   1.0000   1.0000   1.0000   1.0000   1.0000   1.0000
     1.0000   1.0000   1.0000   1.0000   1.0000   1.0000   1.0000   1.0000
     1.0000   1.0000   1.0000   1.0000   0.0000   0.0000   0.0000   0.0000
     0.0000   0.0000   0.0000   0.0000

          k = 0.3536 0.0884-0.0884 (  3462 PWs)   bands (ev):

   -14.6706 -14.6706 -14.6634 -14.6634 -14.6291 -14.6291 -14.5525 -14.5525
   -14.5204 -14.5204 -14.4401 -14.4401 -14.3811 -14.3811 -14.3409 -14.3409
   -14.3087 -14.3087 -14.2983 -14.2983  -2.3679  -2.3679   2.4662   2.4662
     5.3135   5.3135   5.5334   5.5334   8.3245   8.3245   8.9732   8.9732
    11.0695  11.0696  11.2624  11.2624

     occupation numbers 
     1.0000   1.0000   1.0000   1.0000   1.0000   1.0000   1.0000   1.0000
     1.0000   1.0000   1.0000   1.0000   1.0000   1.0000   1.0000   1.0000
     1.0000   1.0000   1.0000   1.0000   1.0000   1.0000   1.0000   1.0000
     1.0000   1.0000   1.0000   1.0000   0.0000   0.0000   0.0000   0.0000
     0.0000   0.0000   0.0000   0.0000

          k = 0.3977 0.1326-0.1326 (  3457 PWs)   bands (ev):

   -14.6785 -14.6785 -14.6676 -14.6676 -14.6167 -14.6167 -14.5431 -14.5431
   -14.5129 -14.5129 -14.4464 -14.4464 -14.3913 -14.3913 -14.3546 -14.3546
   -14.3022 -14.3022 -14.2891 -14.2891  -2.0917  -2.0917   1.8643   1.8643
     4.9951   4.9951   5.4348   5.4348   8.2944   8.2944   9.3564   9.3564
    11.0765  11.0765  11.3407  11.3407

     occupation numbers 
     1.0000   1.0000   1.0000   1.0000   1.0000   1.0000   1.0000   1.0000
     1.0000   1.0000   1.0000   1.0000   1.0000   1.0000   1.0000   1.0000
     1.0000   1.0000   1.0000   1.0000   1.0000   1.0000   1.0000   1.0000
     1.0000   1.0000   1.0000   1.0000   0.0000   0.0000   0.0000   0.0000
     0.0000   0.0000   0.0000   0.0000

          k = 0.4419 0.1768-0.1768 (  3455 PWs)   bands (ev):

   -14.6849 -14.6849 -14.6711 -14.6711 -14.6044 -14.6044 -14.5341 -14.5341
   -14.5106 -14.5106 -14.4470 -14.4470 -14.4013 -14.4013 -14.3683 -14.3683
   -14.2968 -14.2968 -14.2820 -14.2820  -1.7949  -1.7949   1.3162   1.3162
     4.7213   4.7213   5.3983   5.3983   8.2171   8.2171   9.7737   9.7737
    11.2545  11.2545  11.2912  11.2912

     occupation numbers 
     1.0000   1.0000   1.0000   1.0000   1.0000   1.0000   1.0000   1.0000
     1.0000   1.0000   1.0000   1.0000   1.0000   1.0000   1.0000   1.0000
     1.0000   1.0000   1.0000   1.0000   1.0000   1.0000   1.0000   1.0000
     1.0000   1.0000   1.0000   1.0000   0.0000   0.0000   0.0000   0.0000
     0.0000   0.0000   0.0000   0.0000

          k =-0.2210-0.4861 0.4861 (  3450 PWs)   bands (ev):

   -14.6889 -14.6889 -14.6739 -14.6739 -14.5941 -14.5941 -14.5262 -14.5262
   -14.5137 -14.5137 -14.4414 -14.4414 -14.4106 -14.4106 -14.3802 -14.3802
   -14.2926 -14.2926 -14.2775 -14.2775  -1.5380  -1.5380   0.9037   0.9037
     4.5130   4.5130   5.4253   5.4253   8.1587   8.1587  10.0318  10.0318
    11.1694  11.1694  11.7338  11.7338

     occupation numbers 
     1.0000   1.0000   1.0000   1.0000   1.0000   1.0000   1.0000   1.0000
     1.0000   1.0000   1.0000   1.0000   1.0000   1.0000   1.0000   1.0000
     1.0000   1.0000   1.0000   1.0000   1.0000   1.0000   1.0000   1.0000
     1.0000   1.0000   1.0000   1.0000   0.0000   0.0000   0.0000   0.0000
     0.0000   0.0000   0.0000   0.0000

          k =-0.1768-0.4419 0.4419 (  3439 PWs)   bands (ev):

   -14.6902 -14.6902 -14.6757 -14.6757 -14.5875 -14.5875 -14.5212 -14.5212
   -14.5201 -14.5201 -14.4305 -14.4305 -14.4183 -14.4183 -14.3885 -14.3885
   -14.2899 -14.2899 -14.2759 -14.2759  -1.4328  -1.4328   0.7490   0.7490
     4.3816   4.3816   5.5141   5.5141   8.1369   8.1369  10.1668  10.1668
    11.0126  11.0126  12.3700  12.3700

     occupation numbers 
     1.0000   1.0000   1.0000   1.0000   1.0000   1.0000   1.0000   1.0000
     1.0000   1.0000   1.0000   1.0000   1.0000   1.0000   1.0000   1.0000
     1.0000   1.0000   1.0000   1.0000   1.0000   1.0000   1.0000   1.0000
     1.0000   1.0000   1.0000   1.0000   0.0000   0.0000   0.0000   0.0000
     0.0000   0.0000   0.0000   0.0000

          k =-0.1326-0.3977 0.3977 (  3447 PWs)   bands (ev):

   -14.6889 -14.6889 -14.6768 -14.6768 -14.5860 -14.5860 -14.5313 -14.5313
   -14.5170 -14.5170 -14.4232 -14.4232 -14.4158 -14.4158 -14.3932 -14.3932
   -14.2886 -14.2886 -14.2779 -14.2779  -1.5522  -1.5522   0.9263   0.9263
     4.3368   4.3368   5.6595   5.6595   8.1507   8.1507  10.2758  10.2758
    10.8290  10.8290  12.4785  12.4785

     occupation numbers 
     1.0000   1.0000   1.0000   1.0000   1.0000   1.0000   1.0000   1.0000
     1.0000   1.0000   1.0000   1.0000   1.0000   1.0000   1.0000   1.0000
     1.0000   1.0000   1.0000   1.0000   1.0000   1.0000   1.0000   1.0000
     1.0000   1.0000   1.0000   1.0000   0.0000   0.0000   0.0000   0.0000
     0.0000   0.0000   0.0000   0.0000

          k =-0.0884-0.3536 0.3536 (  3449 PWs)   bands (ev):

   -14.6849 -14.6849 -14.6765 -14.6765 -14.5903 -14.5903 -14.5416 -14.5416
   -14.5187 -14.5187 -14.4235 -14.4235 -14.3986 -14.3986 -14.3941 -14.3941
   -14.2890 -14.2890 -14.2831 -14.2831  -1.8141  -1.8141   1.3453   1.3453
     4.3912   4.3912   5.8522   5.8522   8.1866   8.1866  10.3852  10.3852
    10.6037  10.6037  11.8096  11.8096

     occupation numbers 
     1.0000   1.0000   1.0000   1.0000   1.0000   1.0000   1.0000   1.0000
     1.0000   1.0000   1.0000   1.0000   1.0000   1.0000   1.0000   1.0000
     1.0000   1.0000   1.0000   1.0000   1.0000   1.0000   1.0000   1.0000
     1.0000   1.0000   1.0000   1.0000   0.0000   0.0000   0.0000   0.0000
     0.0000   0.0000   0.0000   0.0000

          k =-0.0442-0.3094 0.3094 (  3456 PWs)   bands (ev):

   -14.6786 -14.6786 -14.6746 -14.6746 -14.5998 -14.5998 -14.5504 -14.5504
   -14.5254 -14.5254 -14.4185 -14.4185 -14.3921 -14.3921 -14.3807 -14.3807
   -14.2913 -14.2913 -14.2911 -14.2911  -2.1100  -2.1100   1.8775   1.8775
     4.5632   4.5632   6.0761   6.0761   8.2112   8.2112  10.3209  10.3209
    10.4164  10.4164  11.1962  11.1962

     occupation numbers 
     1.0000   1.0000   1.0000   1.0000   1.0000   1.0000   1.0000   1.0000
     1.0000   1.0000   1.0000   1.0000   1.0000   1.0000   1.0000   1.0000
     1.0000   1.0000   1.0000   1.0000   1.0000   1.0000   1.0000   1.0000
     1.0000   1.0000   1.0000   1.0000   0.0000   0.0000   0.0000   0.0000
     0.0000   0.0000   0.0000   0.0000

          k = 0.0000-0.2652 0.2652 (  3459 PWs)   bands (ev):

   -14.6712 -14.6712 -14.6706 -14.6706 -14.6119 -14.6119 -14.5575 -14.5575
   -14.5359 -14.5359 -14.4092 -14.4092 -14.3879 -14.3879 -14.3640 -14.3640
   -14.3017 -14.3017 -14.2950 -14.2950  -2.3831  -2.3831   2.4329   2.4329
     4.8774   4.8774   6.3036   6.3036   8.1541   8.1541  10.0037  10.0037
    10.1600  10.1600  11.0060  11.0060

     occupation numbers 
     1.0000   1.0000   1.0000   1.0000   1.0000   1.0000   1.0000   1.0000
     1.0000   1.0000   1.0000   1.0000   1.0000   1.0000   1.0000   1.0000
     1.0000   1.0000   1.0000   1.0000   1.0000   1.0000   1.0000   1.0000
     1.0000   1.0000   1.0000   1.0000   0.0000   0.0000   0.0000   0.0000
     0.0000   0.0000   0.0000   0.0000

          k = 0.3536 0.0000 0.0000 (  3479 PWs)   bands (ev):

   -14.6624 -14.6624 -14.6624 -14.6624 -14.6409 -14.6409 -14.5543 -14.5543
   -14.5166 -14.5166 -14.4465 -14.4465 -14.3785 -14.3785 -14.3237 -14.3237
   -14.3108 -14.3108 -14.3108 -14.3108  -2.4472  -2.4472   2.7137   2.7137
     5.4798   5.4798   5.4798   5.4798   7.9606   7.9606   8.8941   8.8941
    11.4767  11.4767  11.4767  11.4767

     occupation numbers 
     1.0000   1.0000   1.0000   1.0000   1.0000   1.0000   1.0000   1.0000
     1.0000   1.0000   1.0000   1.0000   1.0000   1.0000   1.0000   1.0000
     1.0000   1.0000   1.0000   1.0000   1.0000   1.0000   1.0000   1.0000
     1.0000   1.0000   1.0000   1.0000   0.0000   0.0000   0.0000   0.0000
     0.0000   0.0000   0.0000   0.0000

          k = 0.3977 0.0442-0.0442 (  3461 PWs)   bands (ev):

   -14.6690 -14.6690 -14.6663 -14.6663 -14.6327 -14.6327 -14.5446 -14.5446
   -14.5035 -14.5035 -14.4606 -14.4606 -14.3877 -14.3877 -14.3338 -14.3338
   -14.3046 -14.3046 -14.3008 -14.3008  -2.2357  -2.2357   2.2473   2.2473
     5.2291   5.2291   5.3164   5.3164   7.9846   7.9846   8.8598   8.8598
    11.6171  11.6171  11.8183  11.8183

     occupation numbers 
     1.0000   1.0000   1.0000   1.0000   1.0000   1.0000   1.0000   1.0000
     1.0000   1.0000   1.0000   1.0000   1.0000   1.0000   1.0000   1.0000
     1.0000   1.0000   1.0000   1.0000   1.0000   1.0000   1.0000   1.0000
     1.0000   1.0000   1.0000   1.0000   0.0000   0.0000   0.0000   0.0000
     0.0000   0.0000   0.0000   0.0000

          k = 0.4419 0.0884-0.0884 (  3454 PWs)   bands (ev):

   -14.6778 -14.6778 -14.6702 -14.6702 -14.6192 -14.6192 -14.5347 -14.5347
   -14.4934 -14.4934 -14.4704 -14.4704 -14.3980 -14.3980 -14.3489 -14.3489
   -14.2986 -14.2986 -14.2900 -14.2900  -1.9718  -1.9718   1.7344   1.7344
     4.8922   4.8922   5.2104   5.2104   8.1307   8.1307   8.9937   8.9937
    11.4872  11.4873  11.9825  11.9825

     occupation numbers 
     1.0000   1.0000   1.0000   1.0000   1.0000   1.0000   1.0000   1.0000
     1.0000   1.0000   1.0000   1.0000   1.0000   1.0000   1.0000   1.0000
     1.0000   1.0000   1.0000   1.0000   1.0000   1.0000   1.0000   1.0000
     1.0000   1.0000   1.0000   1.0000   0.0000   0.0000   0.0000   0.0000
     0.0000   0.0000   0.0000   0.0000

          k = 0.4861 0.1326-0.1326 (  3451 PWs)   bands (ev):

   -14.6859 -14.6859 -14.6736 -14.6736 -14.6041 -14.6041 -14.5245 -14.5245
   -14.4896 -14.4896 -14.4732 -14.4732 -14.4091 -14.4091 -14.3653 -14.3653
   -14.2934 -14.2934 -14.2805 -14.2805  -1.6749  -1.6749   1.2340   1.2340
     4.5539   4.5539   5.1677   5.1677   8.1732   8.1732   9.4536   9.4536
    11.3619  11.3620  11.9730  11.9730

     occupation numbers 
     1.0000   1.0000   1.0000   1.0000   1.0000   1.0000   1.0000   1.0000
     1.0000   1.0000   1.0000   1.0000   1.0000   1.0000   1.0000   1.0000
     1.0000   1.0000   1.0000   1.0000   1.0000   1.0000   1.0000   1.0000
     1.0000   1.0000   1.0000   1.0000   0.0000   0.0000   0.0000   0.0000
     0.0000   0.0000   0.0000   0.0000

          k =-0.1768-0.5303 0.5303 (  3447 PWs)   bands (ev):

   -14.6922 -14.6922 -14.6764 -14.6764 -14.5903 -14.5903 -14.5150 -14.5150
   -14.4919 -14.4919 -14.4692 -14.4692 -14.4199 -14.4199 -14.3803 -14.3803
   -14.2892 -14.2892 -14.2736 -14.2736  -1.3908  -1.3908   0.8142   0.8142
     4.2712   4.2712   5.1901   5.1901   8.1694   8.1694  10.0736  10.0736
    11.3450  11.3450  11.8487  11.8487

     occupation numbers 
     1.0000   1.0000   1.0000   1.0000   1.0000   1.0000   1.0000   1.0000
     1.0000   1.0000   1.0000   1.0000   1.0000   1.0000   1.0000   1.0000
     1.0000   1.0000   1.0000   1.0000   1.0000   1.0000   1.0000   1.0000
     1.0000   1.0000   1.0000   1.0000   0.0000   0.0000   0.0000   0.0000
[...]

   -14.6927 -14.6927 -14.6822 -14.6822 -14.5780 -14.5780 -14.5155 -14.5155
   -14.4871 -14.4871 -14.4707 -14.4707 -14.4225 -14.4225 -14.3929 -14.3929
   -14.2832 -14.2832 -14.2729 -14.2729  -1.3157  -1.3157   0.7504   0.7504
     4.1576   4.1576   5.0150   5.0150   8.8263   8.8263   9.9118   9.9118
    10.8446  10.8446  12.3835  12.3835

     occupation numbers 
     1.0000   1.0000   1.0000   1.0000   1.0000   1.0000   1.0000   1.0000
     1.0000   1.0000   1.0000   1.0000   1.0000   1.0000   1.0000   1.0000
     1.0000   1.0000   1.0000   1.0000   1.0000   1.0000   1.0000   1.0000
     1.0000   1.0000   1.0000   1.0000   0.0000   0.0000   0.0000   0.0000
     0.0000   0.0000   0.0000   0.0000

          k =-0.1326-0.3977 0.5745 (  3439 PWs)   bands (ev):

   -14.6960 -14.6960 -14.6832 -14.6832 -14.5697 -14.5697 -14.5094 -14.5094
   -14.4889 -14.4889 -14.4663 -14.4663 -14.4319 -14.4319 -14.4004 -14.4004
   -14.2817 -14.2817 -14.2691 -14.2691  -1.1340  -1.1340   0.5168   0.5168
     4.0369   4.0369   4.9978   4.9978   8.8458   8.8458  10.0875  10.0875
    11.3653  11.3653  12.0499  12.0500

     occupation numbers 
     1.0000   1.0000   1.0000   1.0000   1.0000   1.0000   1.0000   1.0000
     1.0000   1.0000   1.0000   1.0000   1.0000   1.0000   1.0000   1.0000
     1.0000   1.0000   1.0000   1.0000   1.0000   1.0000   1.0000   1.0000
     1.0000   1.0000   1.0000   1.0000   0.0000   0.0000   0.0000   0.0000
     0.0000   0.0000   0.0000   0.0000

          k =-0.0884-0.3536 0.5303 (  3449 PWs)   bands (ev):

   -14.6960 -14.6960 -14.6833 -14.6833 -14.5692 -14.5692 -14.5123 -14.5123
   -14.4904 -14.4904 -14.4622 -14.4622 -14.4313 -14.4313 -14.4016 -14.4016
   -14.2817 -14.2817 -14.2695 -14.2695  -1.1886  -1.1886   0.5861   0.5861
     4.0038   4.0038   5.0669   5.0669   8.8910   8.8910  10.0793  10.0793
    11.4290  11.4290  12.0111  12.0111

     occupation numbers 
     1.0000   1.0000   1.0000   1.0000   1.0000   1.0000   1.0000   1.0000
     1.0000   1.0000   1.0000   1.0000   1.0000   1.0000   1.0000   1.0000
     1.0000   1.0000   1.0000   1.0000   1.0000   1.0000   1.0000   1.0000
     1.0000   1.0000   1.0000   1.0000   0.0000   0.0000   0.0000   0.0000
     0.0000   0.0000   0.0000   0.0000

          k =-0.0442-0.3094 0.4861 (  3451 PWs)   bands (ev):

   -14.6925 -14.6925 -14.6824 -14.6824 -14.5762 -14.5762 -14.5228 -14.5228
   -14.4928 -14.4928 -14.4599 -14.4599 -14.4180 -14.4180 -14.3972 -14.3972
   -14.2830 -14.2830 -14.2737 -14.2737  -1.4323  -1.4323   0.9055   0.9055
     4.0751   4.0751   5.2094   5.2094   8.9427   8.9427   9.9634   9.9634
    10.8515  10.8515  12.2374  12.2374

     occupation numbers 
     1.0000   1.0000   1.0000   1.0000   1.0000   1.0000   1.0000   1.0000
     1.0000   1.0000   1.0000   1.0000   1.0000   1.0000   1.0000   1.0000
     1.0000   1.0000   1.0000   1.0000   1.0000   1.0000   1.0000   1.0000
     1.0000   1.0000   1.0000   1.0000   0.0000   0.0000   0.0000   0.0000
     0.0000   0.0000   0.0000   0.0000

          k = 0.0000-0.2652 0.4419 (  3445 PWs)   bands (ev):

   -14.6863 -14.6863 -14.6800 -14.6800 -14.5888 -14.5888 -14.5336 -14.5336
   -14.5003 -14.5003 -14.4538 -14.4538 -14.4033 -14.4033 -14.3863 -14.3863
   -14.2857 -14.2857 -14.2810 -14.2810  -1.7305  -1.7305   1.3248   1.3248
     4.2699   4.2699   5.3998   5.3998   8.9422   8.9422   9.6090   9.6090
    10.6753  10.6753  12.0112  12.0112

     occupation numbers 
     1.0000   1.0000   1.0000   1.0000   1.0000   1.0000   1.0000   1.0000
     1.0000   1.0000   1.0000   1.0000   1.0000   1.0000   1.0000   1.0000
     1.0000   1.0000   1.0000   1.0000   1.0000   1.0000   1.0000   1.0000
     1.0000   1.0000   1.0000   1.0000   0.0000   0.0000   0.0000   0.0000
     0.0000   0.0000   0.0000   0.0000

          k =-0.1768-0.5303 0.7071 (  3439 PWs)   bands (ev):

   -14.6845 -14.6845 -14.6827 -14.6827 -14.5927 -14.5927 -14.5139 -14.5139
   -14.4948 -14.4948 -14.4691 -14.4691 -14.4196 -14.4196 -14.3759 -14.3759
   -14.2828 -14.2828 -14.2814 -14.2814  -1.4390  -1.4390   0.9432   0.9432
     4.4403   4.4403   4.8708   4.8708   8.5880   8.5880   8.9432   8.9432
    11.3628  11.3628  12.9720  12.9720

     occupation numbers 
     1.0000   1.0000   1.0000   1.0000   1.0000   1.0000   1.0000   1.0000
     1.0000   1.0000   1.0000   1.0000   1.0000   1.0000   1.0000   1.0000
     1.0000   1.0000   1.0000   1.0000   1.0000   1.0000   1.0000   1.0000
     1.0000   1.0000   1.0000   1.0000   0.0000   0.0000   0.0000   0.0000
     0.0000   0.0000   0.0000   0.0000

          k =-0.1326-0.4861 0.6629 (  3441 PWs)   bands (ev):

   -14.6913 -14.6913 -14.6851 -14.6851 -14.5753 -14.5753 -14.5037 -14.5037
   -14.4995 -14.4995 -14.4628 -14.4628 -14.4320 -14.4320 -14.3932 -14.3932
   -14.2798 -14.2798 -14.2737 -14.2737  -1.1351  -1.1351   0.5591   0.5591
     4.2106   4.2106   4.7493   4.7493   8.7539   8.7539   9.4179   9.4179
    11.1881  11.1881  12.9253  12.9253

     occupation numbers 
     1.0000   1.0000   1.0000   1.0000   1.0000   1.0000   1.0000   1.0000
     1.0000   1.0000   1.0000   1.0000   1.0000   1.0000   1.0000   1.0000
     1.0000   1.0000   1.0000   1.0000   1.0000   1.0000   1.0000   1.0000
     1.0000   1.0000   1.0000   1.0000   0.0000   0.0000   0.0000   0.0000
     0.0000   0.0000   0.0000   0.0000

          k =-0.0884-0.4419 0.6187 (  3435 PWs)   bands (ev):

   -14.6964 -14.6964 -14.6860 -14.6860 -14.5625 -14.5625 -14.4992 -14.4992
   -14.4918 -14.4918 -14.4648 -14.4648 -14.4432 -14.4432 -14.4052 -14.4052
   -14.2782 -14.2782 -14.2681 -14.2681  -0.8971  -0.8971   0.2834   0.2834
     4.0128   4.0128   4.7398   4.7398   8.8090   8.8090  10.1445  10.1445
    11.0850  11.0850  12.3463  12.3463

     occupation numbers 
     1.0000   1.0000   1.0000   1.0000   1.0000   1.0000   1.0000   1.0000
     1.0000   1.0000   1.0000   1.0000   1.0000   1.0000   1.0000   1.0000
     1.0000   1.0000   1.0000   1.0000   1.0000   1.0000   1.0000   1.0000
     1.0000   1.0000   1.0000   1.0000   0.0000   0.0000   0.0000   0.0000
     0.0000   0.0000   0.0000   0.0000

          k =-0.0442-0.3977 0.5745 (  3442 PWs)   bands (ev):

   -14.6984 -14.6984 -14.6861 -14.6861 -14.5593 -14.5593 -14.4959 -14.4959
   -14.4833 -14.4833 -14.4728 -14.4728 -14.4475 -14.4475 -14.4081 -14.4081
   -14.2783 -14.2783 -14.2663 -14.2663  -0.8991  -0.8991   0.2883   0.2883
     3.9001   3.9001   4.8288   4.8288   8.8859   8.8859  10.6129  10.6129
    11.3008  11.3008  11.6179  11.6179

     occupation numbers 
     1.0000   1.0000   1.0000   1.0000   1.0000   1.0000   1.0000   1.0000
     1.0000   1.0000   1.0000   1.0000   1.0000   1.0000   1.0000   1.0000
     1.0000   1.0000   1.0000   1.0000   1.0000   1.0000   1.0000   1.0000
     1.0000   1.0000   1.0000   1.0000   0.0000   0.0000   0.0000   0.0000
     0.0000   0.0000   0.0000   0.0000

          k = 0.0000-0.3536 0.5303 (  3451 PWs)   bands (ev):

   -14.6969 -14.6969 -14.6851 -14.6851 -14.5646 -14.5646 -14.5081 -14.5081
   -14.4807 -14.4807 -14.4723 -14.4723 -14.4368 -14.4368 -14.4048 -14.4048
   -14.2797 -14.2797 -14.2685 -14.2685  -1.1346  -1.1346   0.5574   0.5574
     3.9126   3.9126   4.9943   4.9943   8.9640   8.9640  10.4711  10.4711
    10.9243  10.9243  12.1023  12.1023

     occupation numbers 
     1.0000   1.0000   1.0000   1.0000   1.0000   1.0000   1.0000   1.0000
     1.0000   1.0000   1.0000   1.0000   1.0000   1.0000   1.0000   1.0000
     1.0000   1.0000   1.0000   1.0000   1.0000   1.0000   1.0000   1.0000
     1.0000   1.0000   1.0000   1.0000   0.0000   0.0000   0.0000   0.0000
     0.0000   0.0000   0.0000   0.0000

          k =-0.0884-0.5303 0.7071 (  3435 PWs)   bands (ev):

   -14.6880 -14.6880 -14.6867 -14.6867 -14.5735 -14.5735 -14.5235 -14.5235
   -14.4909 -14.4909 -14.4424 -14.4424 -14.4422 -14.4422 -14.3942 -14.3942
   -14.2774 -14.2774 -14.2764 -14.2764  -0.9125  -0.9125   0.2916   0.2916
     4.3667   4.3667   4.5808   4.5808   8.5565   8.5565   8.7646   8.7646
    12.0361  12.0361  13.2610  13.2610

     occupation numbers 
     1.0000   1.0000   1.0000   1.0000   1.0000   1.0000   1.0000   1.0000
     1.0000   1.0000   1.0000   1.0000   1.0000   1.0000   1.0000   1.0000
     1.0000   1.0000   1.0000   1.0000   1.0000   1.0000   1.0000   1.0000
     1.0000   1.0000   1.0000   1.0000   0.0000   0.0000   0.0000   0.0000
     0.0000   0.0000   0.0000   0.0000

          k =-0.0442-0.4861 0.6629 (  3430 PWs)   bands (ev):

   -14.6936 -14.6936 -14.6878 -14.6878 -14.5565 -14.5565 -14.5243 -14.5243
   -14.4803 -14.4803 -14.4551 -14.4551 -14.4402 -14.4402 -14.4103 -14.4103
   -14.2761 -14.2761 -14.2704 -14.2704  -0.6288  -0.6288  -0.0085  -0.0085
     4.1568   4.1568   4.5394   4.5394   8.7016   8.7016   9.3657   9.3657
    11.8536  11.8536  12.5635  12.5635

     occupation numbers 
     1.0000   1.0000   1.0000   1.0000   1.0000   1.0000   1.0000   1.0000
     1.0000   1.0000   1.0000   1.0000   1.0000   1.0000   1.0000   1.0000
     1.0000   1.0000   1.0000   1.0000   1.0000   1.0000   1.0000   1.0000
     1.0000   1.0000   1.0000   1.0000   0.0000   0.0000   0.0000   0.0000
     0.0000   0.0000   0.0000   0.0000

          k = 0.0000-0.4419 0.6187 (  3433 PWs)   bands (ev):

   -14.6976 -14.6976 -14.6874 -14.6874 -14.5535 -14.5535 -14.5081 -14.5081
   -14.4795 -14.4795 -14.4594 -14.4594 -14.4537 -14.4537 -14.4127 -14.4127
   -14.2765 -14.2765 -14.2665 -14.2665  -0.6310  -0.6310   0.0029   0.0029
     3.9640   3.9640   4.6440   4.6440   8.7888   8.7888  10.1832  10.1832
    11.6952  11.6952  11.7065  11.7065

     occupation numbers 
     1.0000   1.0000   1.0000   1.0000   1.0000   1.0000   1.0000   1.0000
     1.0000   1.0000   1.0000   1.0000   1.0000   1.0000   1.0000   1.0000
     1.0000   1.0000   1.0000   1.0000   1.0000   1.0000   1.0000   1.0000
     1.0000   1.0000   1.0000   1.0000   0.0000   0.0000   0.0000   0.0000
     0.0000   0.0000   0.0000   0.0000

          k =-0.7071 0.1768 0.0000 (  3422 PWs)   bands (ev):

   -14.6886 -14.6886 -14.6886 -14.6886 -14.5500 -14.5500 -14.5500 -14.5500
   -14.4666 -14.4666 -14.4666 -14.4666 -14.4167 -14.4167 -14.4167 -14.4167
   -14.2749 -14.2749 -14.2749 -14.2749  -0.3314  -0.3314  -0.3314  -0.3314
     4.4124   4.4124   4.4124   4.4124   8.6197   8.6197   8.6197   8.6197
    12.7581  12.7581  12.7581  12.7581

     occupation numbers 
     1.0000   1.0000   1.0000   1.0000   1.0000   1.0000   1.0000   1.0000
     1.0000   1.0000   1.0000   1.0000   1.0000   1.0000   1.0000   1.0000
     1.0000   1.0000   1.0000   1.0000   1.0000   1.0000   1.0000   1.0000
     1.0000   1.0000   1.0000   1.0000   0.0000   0.0000   0.0000   0.0000
     0.0000   0.0000   0.0000   0.0000

          k =-0.1768-0.4419 0.7071 (  3445 PWs)   bands (ev):

   -14.6914 -14.6914 -14.6852 -14.6852 -14.5746 -14.5746 -14.5143 -14.5143
   -14.4811 -14.4811 -14.4773 -14.4773 -14.4236 -14.4236 -14.3956 -14.3956
   -14.2799 -14.2799 -14.2743 -14.2743  -1.3053  -1.3053   0.7703   0.7703
     4.1318   4.1318   4.9070   4.9070   9.3416   9.3416   9.4726   9.4726
    10.6289  10.6289  12.7014  12.7014

     occupation numbers 
     1.0000   1.0000   1.0000   1.0000   1.0000   1.0000   1.0000   1.0000
     1.0000   1.0000   1.0000   1.0000   1.0000   1.0000   1.0000   1.0000
     1.0000   1.0000   1.0000   1.0000   1.0000   1.0000   1.0000   1.0000
     1.0000   1.0000   1.0000   1.0000   0.0000   0.0000   0.0000   0.0000
     0.0000   0.0000   0.0000   0.0000

          k =-0.1326-0.3977 0.6629 (  3436 PWs)   bands (ev):

   -14.6958 -14.6958 -14.6872 -14.6872 -14.5609 -14.5609 -14.5038 -14.5038
   -14.4860 -14.4860 -14.4710 -14.4710 -14.4376 -14.4376 -14.4072 -14.4072
   -14.2772 -14.2772 -14.2691 -14.2691  -1.0217  -1.0217   0.4313   0.4313
     4.0045   4.0045   4.7517   4.7517   9.3671   9.3671   9.9654   9.9654
    10.7402  10.7402  12.2325  12.2325

     occupation numbers 
     1.0000   1.0000   1.0000   1.0000   1.0000   1.0000   1.0000   1.0000
     1.0000   1.0000   1.0000   1.0000   1.0000   1.0000   1.0000   1.0000
     1.0000   1.0000   1.0000   1.0000   1.0000   1.0000   1.0000   1.0000
     1.0000   1.0000   1.0000   1.0000   0.0000   0.0000   0.0000   0.0000
     0.0000   0.0000   0.0000   0.0000

          k =-0.0884-0.3536 0.6187 (  3438 PWs)   bands (ev):

   -14.6975 -14.6975 -14.6879 -14.6879 -14.5555 -14.5555 -14.4997 -14.4997
   -14.4841 -14.4841 -14.4716 -14.4716 -14.4444 -14.4444 -14.4115 -14.4115
   -14.2765 -14.2765 -14.2671 -14.2671  -0.8838  -0.8838   0.2738   0.2738
     3.9641   3.9641   4.6948   4.6948   9.3667   9.3667  10.0899  10.0899
    11.2621  11.2621  11.5532  11.5532

     occupation numbers 
     1.0000   1.0000   1.0000   1.0000   1.0000   1.0000   1.0000   1.0000
     1.0000   1.0000   1.0000   1.0000   1.0000   1.0000   1.0000   1.0000
     1.0000   1.0000   1.0000   1.0000   1.0000   1.0000   1.0000   1.0000
     1.0000   1.0000   1.0000   1.0000   0.0000   0.0000   0.0000   0.0000
     0.0000   0.0000   0.0000   0.0000

          k =-0.0884-0.4419 0.7071 (  3428 PWs)   bands (ev):

   -14.6937 -14.6937 -14.6899 -14.6899 -14.5560 -14.5560 -14.5080 -14.5080
   -14.4923 -14.4923 -14.4533 -14.4533 -14.4458 -14.4458 -14.4108 -14.4108
   -14.2742 -14.2742 -14.2706 -14.2706  -0.8291  -0.8291   0.2213   0.2213
     4.1220   4.1220   4.5134   4.5134   9.4140   9.4140   9.4567   9.4567
    11.0089  11.0089  12.4011  12.4011

     occupation numbers 
     1.0000   1.0000   1.0000   1.0000   1.0000   1.0000   1.0000   1.0000
     1.0000   1.0000   1.0000   1.0000   1.0000   1.0000   1.0000   1.0000
     1.0000   1.0000   1.0000   1.0000   1.0000   1.0000   1.0000   1.0000
     1.0000   1.0000   1.0000   1.0000   0.0000   0.0000   0.0000   0.0000
     0.0000   0.0000   0.0000   0.0000

          k =-0.0442-0.3977 0.6629 (  3430 PWs)   bands (ev):

   -14.6964 -14.6964 -14.6912 -14.6912 -14.5433 -14.5433 -14.5097 -14.5097
   -14.4832 -14.4832 -14.4591 -14.4591 -14.4499 -14.4499 -14.4213 -14.4213
   -14.2728 -14.2728 -14.2676 -14.2676  -0.6092  -0.6092  -0.0080  -0.0080
     4.0405   4.0405   4.4331   4.4331   9.4939   9.4939  10.1648  10.1648
    10.9287  10.9287  11.5439  11.5439

     occupation numbers 
     1.0000   1.0000   1.0000   1.0000   1.0000   1.0000   1.0000   1.0000
     1.0000   1.0000   1.0000   1.0000   1.0000   1.0000   1.0000   1.0000
     1.0000   1.0000   1.0000   1.0000   1.0000   1.0000   1.0000   1.0000
     1.0000   1.0000   1.0000   1.0000   0.0000   0.0000   0.0000   0.0000
     0.0000   0.0000   0.0000   0.0000

          k =-0.0000-0.3536 0.6187 (  3436 PWs)   bands (ev):

   -14.6973 -14.6973 -14.6902 -14.6902 -14.5473 -14.5473 -14.4994 -14.4994
   -14.4896 -14.4896 -14.4586 -14.4586 -14.4538 -14.4538 -14.4180 -14.4180
   -14.2740 -14.2740 -14.2670 -14.2670  -0.7311  -0.7311   0.1220   0.1220
     3.9751   3.9751   4.5371   4.5371   9.5445   9.5445  10.3460  10.3460
    10.8179  10.8179  11.4483  11.4483

     occupation numbers 
     1.0000   1.0000   1.0000   1.0000   1.0000   1.0000   1.0000   1.0000
     1.0000   1.0000   1.0000   1.0000   1.0000   1.0000   1.0000   1.0000
     1.0000   1.0000   1.0000   1.0000   1.0000   1.0000   1.0000   1.0000
     1.0000   1.0000   1.0000   1.0000   0.0000   0.0000   0.0000   0.0000
     0.0000   0.0000   0.0000   0.0000

          k =-0.7071 0.2652 0.0000 (  3426 PWs)   bands (ev):

   -14.6930 -14.6930 -14.6930 -14.6930 -14.5334 -14.5334 -14.5334 -14.5334
   -14.4692 -14.4692 -14.4692 -14.4692 -14.4306 -14.4306 -14.4306 -14.4306
   -14.2708 -14.2708 -14.2708 -14.2708  -0.3156  -0.3156  -0.3156  -0.3156
     4.2485   4.2485   4.2485   4.2485   9.4250   9.4250   9.4250   9.4250
    11.6776  11.6776  11.6776  11.6776

     occupation numbers 
     1.0000   1.0000   1.0000   1.0000   1.0000   1.0000   1.0000   1.0000
     1.0000   1.0000   1.0000   1.0000   1.0000   1.0000   1.0000   1.0000
     1.0000   1.0000   1.0000   1.0000   1.0000   1.0000   1.0000   1.0000
     1.0000   1.0000   1.0000   1.0000   0.0000   0.0000   0.0000   0.0000
     0.0000   0.0000   0.0000   0.0000

          k =-0.7071 0.3536 0.0000 (  3448 PWs)   bands (ev):

   -14.6949 -14.6949 -14.6949 -14.6949 -14.5252 -14.5252 -14.5252 -14.5252
   -14.4715 -14.4715 -14.4715 -14.4715 -14.4370 -14.4370 -14.4370 -14.4370
   -14.2693 -14.2693 -14.2693 -14.2693  -0.3089  -0.3089  -0.3089  -0.3089
     4.1863   4.1863   4.1863   4.1863  10.0900  10.0900  10.0900  10.0900
    10.9158  10.9158  10.9158  10.9158

     occupation numbers 
     1.0000   1.0000   1.0000   1.0000   1.0000   1.0000   1.0000   1.0000
     1.0000   1.0000   1.0000   1.0000   1.0000   1.0000   1.0000   1.0000
     1.0000   1.0000   1.0000   1.0000   1.0000   1.0000   1.0000   1.0000
     1.0000   1.0000   1.0000   1.0000   0.0000   0.0000   0.0000   0.0000
     0.0000   0.0000   0.0000   0.0000

     the Fermi energy is     6.9119 ev

!    total energy              =    -326.04723351 Ry
     Harris-Foulkes estimate   =    -326.04723336 Ry
     estimated scf accuracy    <       0.00000012 Ry

     The total energy is the sum of the following terms:

     one-electron contribution =    -157.88545287 Ry
     hartree contribution      =      95.59094889 Ry
     xc contribution           =     -96.22293403 Ry
     ewald contribution        =    -167.52979536 Ry
     smearing contrib. (-TS)   =      -0.00000015 Ry

     convergence has been achieved in   5 iterations

     Writing output data file Sn.save
 
     init_run     :     10.17s CPU     10.67s WALL (       1 calls)
     electrons    :    185.15s CPU    189.53s WALL (       1 calls)

     Called by init_run:
     wfcinit      :      9.90s CPU     10.11s WALL (       1 calls)
     potinit      :      0.03s CPU      0.03s WALL (       1 calls)

     Called by electrons:
     c_bands      :    157.58s CPU    161.46s WALL (       6 calls)
     sum_band     :     27.45s CPU     27.87s WALL (       6 calls)
     v_of_rho     :      0.06s CPU      0.06s WALL (       6 calls)
     v_h          :      0.01s CPU      0.01s WALL (       6 calls)
     v_xc         :      0.05s CPU      0.05s WALL (       6 calls)
     newd         :      0.05s CPU      0.08s WALL (       6 calls)
     mix_rho      :      0.02s CPU      0.03s WALL (       6 calls)

     Called by c_bands:
     init_us_2    :      0.21s CPU      0.26s WALL (    1885 calls)
     cegterg      :    155.56s CPU    159.21s WALL (     870 calls)

     Called by sum_band:
     sum_band:bec :      0.12s CPU      0.12s WALL (     870 calls)
     addusdens    :      0.07s CPU      0.08s WALL (       6 calls)

     Called by *egterg:
     h_psi        :    137.98s CPU    140.05s WALL (    3103 calls)
     s_psi        :      1.52s CPU      1.54s WALL (    3103 calls)
     g_psi        :      0.29s CPU      0.30s WALL (    2088 calls)
     cdiaghg      :     11.44s CPU     11.68s WALL (    2813 calls)
     cegterg:over :      5.60s CPU      5.63s WALL (    2088 calls)
     cegterg:upda :      2.35s CPU      2.37s WALL (    2088 calls)
     cegterg:last :      1.32s CPU      1.33s WALL (     870 calls)

     Called by h_psi:
     h_psi:vloc   :    132.97s CPU    134.97s WALL (    3103 calls)
     h_psi:vnl    :      4.73s CPU      4.77s WALL (    3103 calls)
     add_vuspsi   :      1.64s CPU      1.66s WALL (    3103 calls)

     General routines
     calbec       :      4.07s CPU      4.11s WALL (    3973 calls)
     fft          :      0.09s CPU      0.13s WALL (     116 calls)
     fftw         :    152.57s CPU    154.84s WALL (  392912 calls)
     davcio       :      0.03s CPU      0.51s WALL (     145 calls)
 
     Parallel routines
     fft_scatter  :    116.64s CPU    118.54s WALL (  393028 calls)
 
     PWSCF        :  3m16.07s CPU     3m21.83s WALL

 
   This run was terminated on:  20: 0:16  15Mar2020            

=------------------------------------------------------------------------------=
   JOB DONE.
=------------------------------------------------------------------------------=
