
     Program PWSCF v.5.4.0 starts on 15Mar2020 at 19:56:34 

     This program is part of the open-source Quantum ESPRESSO suite
     for quantum simulation of materials; please cite
         "P. Giannozzi et al., J. Phys.:Condens. Matter 21 395502 (2009);
          URL http://www.quantum-espresso.org", 
     in publications or presentations arising from this work. More details at
     http://www.quantum-espresso.org/quote

     Parallel version (MPI & OpenMP), running on      16 processor cores
     Number of MPI processes:                16
     Threads/MPI process:                     1
     R & G space division:  proc/nbgrp/npool/nimage =      16
     Waiting for input...
     Reading input from standard input
Warning: card &IONS ignored
Warning: card / ignored
Warning: card &CELL ignored
Warning: card / ignored

     Current dimensions of program PWSCF are:
     Max number of different atomic species (ntypx) = 10
     Max number of k-points (npk) =  40000
     Max angular momentum in pseudopotentials (lmaxx) =  3
               file Sn.pbe-dn-kjpaw_psl.1.0.0.UPF: wavefunction(s)  5S 5P 4D renormalized
     Message from routine setup:
     At least one non s.o. pseudo

     Subspace diagonalization in iterative solution of the eigenvalue problem:
     a serial algorithm will be used

 
     Parallelization info
     --------------------
     sticks:   dense  smooth     PW     G-vecs:    dense   smooth      PW
     Min          74      74     22                 1722     1722     279
     Max          76      76     23                 1725     1725     281
     Sum        1201    1201    361                27581    27581    4477
 

     Title: 
     Sn                                                                         


     bravais-lattice index     =            0
     lattice parameter (alat)  =       8.9127  a.u.
     unit-cell volume          =     500.6268 (a.u.)^3
     number of atoms/cell      =            2
     number of atomic types    =            1
     number of electrons       =        28.00
     number of Kohn-Sham states=           36
     kinetic-energy cutoff     =      55.0000  Ry
     charge density cutoff     =     220.0000  Ry
     convergence threshold     =      1.0E-06
     mixing beta               =       0.7000
     number of iterations used =            8  plain     mixing
     Exchange-correlation      =  SLA  PW   PBX  PBC ( 1  4  3  4 0 0)
     Non magnetic calculation with spin-orbit


     celldm(1)=   8.912709  celldm(2)=   0.000000  celldm(3)=   0.000000
     celldm(4)=   0.000000  celldm(5)=   0.000000  celldm(6)=   0.000000

     crystal axes: (cart. coord. in units of alat)
               a(1) = (   0.000000   0.707107   0.707107 )  
               a(2) = (   0.707107   0.000000   0.707107 )  
               a(3) = (   0.707107   0.707107   0.000000 )  

     reciprocal axes: (cart. coord. in units 2 pi/alat)
               b(1) = ( -0.707107  0.707107  0.707107 )  
               b(2) = (  0.707107 -0.707107  0.707107 )  
               b(3) = (  0.707107  0.707107 -0.707107 )  


     PseudoPot. # 1 for Sn read from file:
     ../PseudopotentialDatabase/Sn.pbe-dn-kjpaw_psl.1.0.0.UPF
     MD5 check sum: 67f11dec737d427557dc41ea34975807
     Pseudo is Projector augmented-wave + core cor, Zval = 14.0
     Generated using "atomic" code by A. Dal Corso  v.6.3
     Shape of augmentation charge: PSQ
     Using radial grid of 1243 points,  6 beta functions with: 
                l(1) =   0
                l(2) =   0
                l(3) =   1
                l(4) =   1
                l(5) =   2
                l(6) =   2
     Q(r) pseudized with 0 coefficients 


     atomic species   valence    mass     pseudopotential
        Sn            14.00   118.71000     Sn( 1.00)

     24 Sym. Ops. (no inversion) found
          (note: 24 additional sym.ops. were found but ignored
           their fractional translations are incommensurate with FFT grid)

                                    s                        frac. trans.

      isym =  1     identity                                     

 cryst.   s( 1) = (     1          0          0      )
                  (     0          1          0      )
                  (     0          0          1      )

 cart.    s( 1) = (  1.0000000  0.0000000  0.0000000 )
                  (  0.0000000  1.0000000  0.0000000 )
                  (  0.0000000  0.0000000  1.0000000 )


      isym =  2     180 deg rotation - cart. axis [0,0,1]        

 cryst.   s( 2) = (     0          1         -1      )
                  (     1          0         -1      )
                  (     0          0         -1      )

 cart.    s( 2) = ( -1.0000000  0.0000000  0.0000000 )
                  (  0.0000000 -1.0000000  0.0000000 )
                  (  0.0000000  0.0000000  1.0000000 )


      isym =  3     180 deg rotation - cart. axis [0,1,0]        

 cryst.   s( 3) = (     0         -1          1      )
                  (     0         -1          0      )
                  (     1         -1          0      )

 cart.    s( 3) = ( -1.0000000  0.0000000  0.0000000 )
                  (  0.0000000  1.0000000  0.0000000 )
                  (  0.0000000  0.0000000 -1.0000000 )


      isym =  4     180 deg rotation - cart. axis [1,0,0]        

 cryst.   s( 4) = (    -1          0          0      )
                  (    -1          0          1      )
                  (    -1          1          0      )

 cart.    s( 4) = (  1.0000000  0.0000000  0.0000000 )
                  (  0.0000000 -1.0000000  0.0000000 )
                  (  0.0000000  0.0000000 -1.0000000 )


      isym =  5     120 deg rotation - cart. axis [-1,-1,-1]     

 cryst.   s( 5) = (     0          0          1      )
                  (     1          0          0      )
                  (     0          1          0      )

 cart.    s( 5) = (  0.0000000  1.0000000  0.0000000 )
                  (  0.0000000  0.0000000  1.0000000 )
                  (  1.0000000  0.0000000  0.0000000 )


      isym =  6     120 deg rotation - cart. axis [-1,1,1]       

 cryst.   s( 6) = (     1         -1          0      )
                  (     0         -1          1      )
                  (     0         -1          0      )

 cart.    s( 6) = (  0.0000000 -1.0000000  0.0000000 )
                  (  0.0000000  0.0000000  1.0000000 )
                  ( -1.0000000  0.0000000  0.0000000 )


      isym =  7     120 deg rotation - cart. axis [1,1,-1]       

 cryst.   s( 7) = (    -1          1          0      )
                  (    -1          0          0      )
                  (    -1          0          1      )

 cart.    s( 7) = (  0.0000000  1.0000000  0.0000000 )
                  (  0.0000000  0.0000000 -1.0000000 )
                  ( -1.0000000  0.0000000  0.0000000 )


      isym =  8     120 deg rotation - cart. axis [1,-1,1]       

 cryst.   s( 8) = (     0          0         -1      )
                  (     0          1         -1      )
                  (     1          0         -1      )

 cart.    s( 8) = (  0.0000000 -1.0000000  0.0000000 )
                  (  0.0000000  0.0000000 -1.0000000 )
                  (  1.0000000  0.0000000  0.0000000 )


      isym =  9     120 deg rotation - cart. axis [1,1,1]        

 cryst.   s( 9) = (     0          1          0      )
                  (     0          0          1      )
                  (     1          0          0      )

 cart.    s( 9) = (  0.0000000  0.0000000  1.0000000 )
                  (  1.0000000  0.0000000  0.0000000 )
                  (  0.0000000  1.0000000  0.0000000 )


      isym = 10     120 deg rotation - cart. axis [-1,1,-1]      

 cryst.   s(10) = (    -1          0          1      )
                  (    -1          1          0      )
                  (    -1          0          0      )

 cart.    s(10) = (  0.0000000  0.0000000  1.0000000 )
                  ( -1.0000000  0.0000000  0.0000000 )
                  (  0.0000000 -1.0000000  0.0000000 )


      isym = 11     120 deg rotation - cart. axis [1,-1,-1]      

 cryst.   s(11) = (     1          0         -1      )
                  (     0          0         -1      )
                  (     0          1         -1      )

 cart.    s(11) = (  0.0000000  0.0000000 -1.0000000 )
                  ( -1.0000000  0.0000000  0.0000000 )
                  (  0.0000000  1.0000000  0.0000000 )


      isym = 12     120 deg rotation - cart. axis [-1,-1,1]      

 cryst.   s(12) = (     0         -1          0      )
                  (     1         -1          0      )
                  (     0         -1          1      )

 cart.    s(12) = (  0.0000000  0.0000000 -1.0000000 )
                  (  1.0000000  0.0000000  0.0000000 )
                  (  0.0000000 -1.0000000  0.0000000 )


      isym = 13     inv. 180 deg rotation - cart. axis [1,1,0]   

 cryst.   s(13) = (     1          0         -1      )
                  (     0          1         -1      )
                  (     0          0         -1      )

 cart.    s(13) = (  0.0000000 -1.0000000  0.0000000 )
                  ( -1.0000000  0.0000000  0.0000000 )
                  (  0.0000000  0.0000000  1.0000000 )


      isym = 14     inv. 180 deg rotation - cart. axis [1,-1,0]  

 cryst.   s(14) = (     0          1          0      )
                  (     1          0          0      )
                  (     0          0          1      )

 cart.    s(14) = (  0.0000000  1.0000000  0.0000000 )
                  (  1.0000000  0.0000000  0.0000000 )
                  (  0.0000000  0.0000000  1.0000000 )


      isym = 15     inv.  90 deg rotation - cart. axis [0,0,-1]  

 cryst.   s(15) = (     0         -1          0      )
                  (     0         -1          1      )
                  (     1         -1          0      )

 cart.    s(15) = (  0.0000000 -1.0000000  0.0000000 )
                  (  1.0000000  0.0000000  0.0000000 )
                  (  0.0000000  0.0000000 -1.0000000 )


      isym = 16     inv.  90 deg rotation - cart. axis [0,0,1]   

 cryst.   s(16) = (    -1          0          1      )
                  (    -1          0          0      )
                  (    -1          1          0      )

 cart.    s(16) = (  0.0000000  1.0000000  0.0000000 )
                  ( -1.0000000  0.0000000  0.0000000 )
                  (  0.0000000  0.0000000 -1.0000000 )


      isym = 17     inv. 180 deg rotation - cart. axis [1,0,1]   

 cryst.   s(17) = (     1         -1          0      )
                  (     0         -1          0      )
                  (     0         -1          1      )

 cart.    s(17) = (  0.0000000  0.0000000 -1.0000000 )
                  (  0.0000000  1.0000000  0.0000000 )
                  ( -1.0000000  0.0000000  0.0000000 )


      isym = 18     inv. 180 deg rotation - cart. axis [-1,0,1]  

 cryst.   s(18) = (     0          0          1      )
                  (     0          1          0      )
                  (     1          0          0      )

 cart.    s(18) = (  0.0000000  0.0000000  1.0000000 )
                  (  0.0000000  1.0000000  0.0000000 )
                  (  1.0000000  0.0000000  0.0000000 )


      isym = 19     inv.  90 deg rotation - cart. axis [0,1,0]   

 cryst.   s(19) = (     0          0         -1      )
                  (     1          0         -1      )
                  (     0          1         -1      )

 cart.    s(19) = (  0.0000000  0.0000000 -1.0000000 )
                  (  0.0000000 -1.0000000  0.0000000 )
                  (  1.0000000  0.0000000  0.0000000 )


      isym = 20     inv.  90 deg rotation - cart. axis [0,-1,0]  

 cryst.   s(20) = (    -1          1          0      )
                  (    -1          0          1      )
                  (    -1          0          0      )

 cart.    s(20) = (  0.0000000  0.0000000  1.0000000 )
                  (  0.0000000 -1.0000000  0.0000000 )
                  ( -1.0000000  0.0000000  0.0000000 )


      isym = 21     inv. 180 deg rotation - cart. axis [0,1,1]   

 cryst.   s(21) = (    -1          0          0      )
                  (    -1          1          0      )
                  (    -1          0          1      )

 cart.    s(21) = (  1.0000000  0.0000000  0.0000000 )
                  (  0.0000000  0.0000000 -1.0000000 )
                  (  0.0000000 -1.0000000  0.0000000 )


      isym = 22     inv. 180 deg rotation - cart. axis [0,1,-1]  

 cryst.   s(22) = (     1          0          0      )
                  (     0          0          1      )
                  (     0          1          0      )

 cart.    s(22) = (  1.0000000  0.0000000  0.0000000 )
                  (  0.0000000  0.0000000  1.0000000 )
                  (  0.0000000  1.0000000  0.0000000 )


      isym = 23     inv.  90 deg rotation - cart. axis [-1,0,0]  

 cryst.   s(23) = (     0          1         -1      )
                  (     0          0         -1      )
                  (     1          0         -1      )

 cart.    s(23) = ( -1.0000000  0.0000000  0.0000000 )
                  (  0.0000000  0.0000000 -1.0000000 )
                  (  0.0000000  1.0000000  0.0000000 )


      isym = 24     inv.  90 deg rotation - cart. axis [1,0,0]   

 cryst.   s(24) = (     0         -1          1      )
                  (     1         -1          0      )
                  (     0         -1          0      )

 cart.    s(24) = ( -1.0000000  0.0000000  0.0000000 )
                  (  0.0000000  0.0000000  1.0000000 )
                  (  0.0000000 -1.0000000  0.0000000 )


   Cartesian axes

     site n.     atom                  positions (alat units)
         1           Sn  tau(   1) = (   0.0000000   0.0000000   0.0000000  )
         2           Sn  tau(   2) = (   0.3535534   0.3535534   0.3535534  )

   Crystallographic axes

     site n.     atom                  positions (cryst. coord.)
         1           Sn  tau(   1) = (  0.0000000  0.0000000  0.0000000  )
         2           Sn  tau(   2) = (  0.2500000  0.2500000  0.2500000  )

     number of k points=   145  gaussian smearing, width (Ry)=  0.0001
                       cart. coord. in units 2pi/alat
        k(    1) = (   0.0000000   0.0000000   0.0000000), wk =   0.0002441
        k(    2) = (   0.0441942   0.0441942  -0.0441942), wk =   0.0019531
        k(    3) = (   0.0883883   0.0883883  -0.0883883), wk =   0.0019531
        k(    4) = (   0.1325825   0.1325825  -0.1325825), wk =   0.0019531
        k(    5) = (   0.1767767   0.1767767  -0.1767767), wk =   0.0019531
        k(    6) = (   0.2209709   0.2209709  -0.2209709), wk =   0.0019531
        k(    7) = (   0.2651650   0.2651650  -0.2651650), wk =   0.0019531
        k(    8) = (   0.3093592   0.3093592  -0.3093592), wk =   0.0019531
        k(    9) = (  -0.3535534  -0.3535534   0.3535534), wk =   0.0009766
        k(   10) = (   0.0883883   0.0000000   0.0000000), wk =   0.0014648
        k(   11) = (   0.1325825   0.0441942  -0.0441942), wk =   0.0058594
        k(   12) = (   0.1767767   0.0883883  -0.0883883), wk =   0.0058594
        k(   13) = (   0.2209709   0.1325825  -0.1325825), wk =   0.0058594
        k(   14) = (   0.2651650   0.1767767  -0.1767767), wk =   0.0058594
        k(   15) = (   0.3093592   0.2209709  -0.2209709), wk =   0.0058594
        k(   16) = (   0.3535534   0.2651650  -0.2651650), wk =   0.0058594
        k(   17) = (  -0.3093592  -0.3977476   0.3977476), wk =   0.0058594
        k(   18) = (  -0.2651650  -0.3535534   0.3535534), wk =   0.0058594
        k(   19) = (  -0.2209709  -0.3093592   0.3093592), wk =   0.0058594
        k(   20) = (  -0.1767767  -0.2651650   0.2651650), wk =   0.0058594
        k(   21) = (  -0.1325825  -0.2209709   0.2209709), wk =   0.0058594
        k(   22) = (  -0.0883883  -0.1767767   0.1767767), wk =   0.0058594
        k(   23) = (  -0.0441942  -0.1325825   0.1325825), wk =   0.0058594
        k(   24) = (   0.0000000  -0.0883883   0.0883883), wk =   0.0029297
        k(   25) = (   0.1767767   0.0000000   0.0000000), wk =   0.0014648
        k(   26) = (   0.2209709   0.0441942  -0.0441942), wk =   0.0058594
        k(   27) = (   0.2651650   0.0883883  -0.0883883), wk =   0.0058594
        k(   28) = (   0.3093592   0.1325825  -0.1325825), wk =   0.0058594
        k(   29) = (   0.3535534   0.1767767  -0.1767767), wk =   0.0058594
        k(   30) = (   0.3977476   0.2209709  -0.2209709), wk =   0.0058594
        k(   31) = (  -0.2651650  -0.4419417   0.4419417), wk =   0.0058594
        k(   32) = (  -0.2209709  -0.3977476   0.3977476), wk =   0.0058594
        k(   33) = (  -0.1767767  -0.3535534   0.3535534), wk =   0.0058594
        k(   34) = (  -0.1325825  -0.3093592   0.3093592), wk =   0.0058594
        k(   35) = (  -0.0883883  -0.2651650   0.2651650), wk =   0.0058594
        k(   36) = (  -0.0441942  -0.2209709   0.2209709), wk =   0.0058594
        k(   37) = (   0.0000000  -0.1767767   0.1767767), wk =   0.0029297
        k(   38) = (   0.2651650   0.0000000   0.0000000), wk =   0.0014648
        k(   39) = (   0.3093592   0.0441942  -0.0441942), wk =   0.0058594
        k(   40) = (   0.3535534   0.0883883  -0.0883883), wk =   0.0058594
        k(   41) = (   0.3977476   0.1325825  -0.1325825), wk =   0.0058594
        k(   42) = (   0.4419417   0.1767767  -0.1767767), wk =   0.0058594
        k(   43) = (  -0.2209709  -0.4861359   0.4861359), wk =   0.0058594
        k(   44) = (  -0.1767767  -0.4419417   0.4419417), wk =   0.0058594
        k(   45) = (  -0.1325825  -0.3977476   0.3977476), wk =   0.0058594
        k(   46) = (  -0.0883883  -0.3535534   0.3535534), wk =   0.0058594
        k(   47) = (  -0.0441942  -0.3093592   0.3093592), wk =   0.0058594
        k(   48) = (   0.0000000  -0.2651650   0.2651650), wk =   0.0029297
        k(   49) = (   0.3535534   0.0000000   0.0000000), wk =   0.0014648
        k(   50) = (   0.3977476   0.0441942  -0.0441942), wk =   0.0058594
        k(   51) = (   0.4419417   0.0883883  -0.0883883), wk =   0.0058594
        k(   52) = (   0.4861359   0.1325825  -0.1325825), wk =   0.0058594
        k(   53) = (  -0.1767767  -0.5303301   0.5303301), wk =   0.0058594
        k(   54) = (  -0.1325825  -0.4861359   0.4861359), wk =   0.0058594
        k(   55) = (  -0.0883883  -0.4419417   0.4419417), wk =   0.0058594
        k(   56) = (  -0.0441942  -0.3977476   0.3977476), wk =   0.0058594
        k(   57) = (   0.0000000  -0.3535534   0.3535534), wk =   0.0029297
        k(   58) = (   0.4419417   0.0000000   0.0000000), wk =   0.0014648
        k(   59) = (   0.4861359   0.0441942  -0.0441942), wk =   0.0058594
        k(   60) = (   0.5303301   0.0883883  -0.0883883), wk =   0.0058594
        k(   61) = (  -0.1325825  -0.5745243   0.5745243), wk =   0.0058594
        k(   62) = (  -0.0883883  -0.5303301   0.5303301), wk =   0.0058594
        k(   63) = (  -0.0441942  -0.4861359   0.4861359), wk =   0.0058594
        k(   64) = (   0.0000000  -0.4419417   0.4419417), wk =   0.0029297
        k(   65) = (   0.5303301   0.0000000   0.0000000), wk =   0.0014648
        k(   66) = (   0.5745243   0.0441942  -0.0441942), wk =   0.0058594
        k(   67) = (  -0.0883883  -0.6187184   0.6187184), wk =   0.0058594
        k(   68) = (  -0.0441942  -0.5745243   0.5745243), wk =   0.0058594
        k(   69) = (   0.0000000  -0.5303301   0.5303301), wk =   0.0029297
        k(   70) = (   0.6187184   0.0000000   0.0000000), wk =   0.0014648
        k(   71) = (  -0.0441942  -0.6629126   0.6629126), wk =   0.0058594
        k(   72) = (   0.0000000  -0.6187184   0.6187184), wk =   0.0029297
        k(   73) = (  -0.7071068   0.0000000   0.0000000), wk =   0.0007324
        k(   74) = (   0.1767767   0.0883883   0.0000000), wk =   0.0058594
        k(   75) = (   0.2209709   0.1325825  -0.0441942), wk =   0.0117188
        k(   76) = (   0.2651650   0.1767767  -0.0883883), wk =   0.0117188
        k(   77) = (   0.3093592   0.2209709  -0.1325825), wk =   0.0117188
        k(   78) = (   0.3535534   0.2651650  -0.1767767), wk =   0.0117188
        k(   79) = (  -0.3093592  -0.3977476   0.4861359), wk =   0.0117188
        k(   80) = (  -0.2651650  -0.3535534   0.4419417), wk =   0.0058594
        k(   81) = (   0.2651650   0.0883883   0.0000000), wk =   0.0058594
        k(   82) = (   0.3093592   0.1325825  -0.0441942), wk =   0.0117188
        k(   83) = (   0.3535534   0.1767767  -0.0883883), wk =   0.0117188
        k(   84) = (   0.3977476   0.2209709  -0.1325825), wk =   0.0117188
        k(   85) = (  -0.2651650  -0.4419417   0.5303301), wk =   0.0117188
        k(   86) = (  -0.2209709  -0.3977476   0.4861359), wk =   0.0117188
        k(   87) = (  -0.1767767  -0.3535534   0.4419417), wk =   0.0117188
        k(   88) = (  -0.1325825  -0.3093592   0.3977476), wk =   0.0117188
        k(   89) = (  -0.0883883  -0.2651650   0.3535534), wk =   0.0117188
        k(   90) = (  -0.0441942  -0.2209709   0.3093592), wk =   0.0117188
        k(   91) = (   0.0000000  -0.1767767   0.2651650), wk =   0.0058594
        k(   92) = (   0.3535534   0.0883883   0.0000000), wk =   0.0058594
        k(   93) = (   0.3977476   0.1325825  -0.0441942), wk =   0.0117188
        k(   94) = (   0.4419417   0.1767767  -0.0883883), wk =   0.0117188
        k(   95) = (  -0.2209709  -0.4861359   0.5745243), wk =   0.0117188
        k(   96) = (  -0.1767767  -0.4419417   0.5303301), wk =   0.0117188
        k(   97) = (  -0.1325825  -0.3977476   0.4861359), wk =   0.0117188
        k(   98) = (  -0.0883883  -0.3535534   0.4419417), wk =   0.0117188
        k(   99) = (  -0.0441942  -0.3093592   0.3977476), wk =   0.0117188
        k(  100) = (   0.0000000  -0.2651650   0.3535534), wk =   0.0058594
        k(  101) = (   0.4419417   0.0883883   0.0000000), wk =   0.0058594
        k(  102) = (   0.4861359   0.1325825  -0.0441942), wk =   0.0117188
        k(  103) = (  -0.1767767  -0.5303301   0.6187184), wk =   0.0117188
        k(  104) = (  -0.1325825  -0.4861359   0.5745243), wk =   0.0117188
        k(  105) = (  -0.0883883  -0.4419417   0.5303301), wk =   0.0117188
        k(  106) = (  -0.0441942  -0.3977476   0.4861359), wk =   0.0117188
        k(  107) = (   0.0000000  -0.3535534   0.4419417), wk =   0.0058594
        k(  108) = (   0.5303301   0.0883883   0.0000000), wk =   0.0058594
        k(  109) = (  -0.1325825  -0.5745243   0.6629126), wk =   0.0117188
        k(  110) = (  -0.0883883  -0.5303301   0.6187184), wk =   0.0117188
        k(  111) = (  -0.0441942  -0.4861359   0.5745243), wk =   0.0117188
        k(  112) = (   0.0000000  -0.4419417   0.5303301), wk =   0.0058594
        k(  113) = (  -0.0883883  -0.6187184   0.7071068), wk =   0.0058594
        k(  114) = (  -0.0441942  -0.5745243   0.6629126), wk =   0.0117188
        k(  115) = (  -0.0000000  -0.5303301   0.6187184), wk =   0.0058594
        k(  116) = (  -0.7071068   0.0883883   0.0000000), wk =   0.0029297
        k(  117) = (   0.3535534   0.1767767   0.0000000), wk =   0.0058594
        k(  118) = (   0.3977476   0.2209709  -0.0441942), wk =   0.0117188
        k(  119) = (  -0.2651650  -0.4419417   0.6187184), wk =   0.0117188
        k(  120) = (  -0.2209709  -0.3977476   0.5745243), wk =   0.0117188
        k(  121) = (  -0.1767767  -0.3535534   0.5303301), wk =   0.0058594
        k(  122) = (   0.4419417   0.1767767   0.0000000), wk =   0.0058594
        k(  123) = (  -0.2209709  -0.4861359   0.6629126), wk =   0.0117188
        k(  124) = (  -0.1767767  -0.4419417   0.6187184), wk =   0.0117188
        k(  125) = (  -0.1325825  -0.3977476   0.5745243), wk =   0.0117188
        k(  126) = (  -0.0883883  -0.3535534   0.5303301), wk =   0.0117188
        k(  127) = (  -0.0441942  -0.3093592   0.4861359), wk =   0.0117188
        k(  128) = (   0.0000000  -0.2651650   0.4419417), wk =   0.0058594
        k(  129) = (  -0.1767767  -0.5303301   0.7071068), wk =   0.0058594
        k(  130) = (  -0.1325825  -0.4861359   0.6629126), wk =   0.0117188
        k(  131) = (  -0.0883883  -0.4419417   0.6187184), wk =   0.0117188
        k(  132) = (  -0.0441942  -0.3977476   0.5745243), wk =   0.0117188
        k(  133) = (   0.0000000  -0.3535534   0.5303301), wk =   0.0058594
        k(  134) = (  -0.0883883  -0.5303301   0.7071068), wk =   0.0058594
        k(  135) = (  -0.0441942  -0.4861359   0.6629126), wk =   0.0117188
        k(  136) = (   0.0000000  -0.4419417   0.6187184), wk =   0.0058594
        k(  137) = (  -0.7071068   0.1767767   0.0000000), wk =   0.0029297
        k(  138) = (  -0.1767767  -0.4419417   0.7071068), wk =   0.0058594
        k(  139) = (  -0.1325825  -0.3977476   0.6629126), wk =   0.0117188
        k(  140) = (  -0.0883883  -0.3535534   0.6187184), wk =   0.0058594
        k(  141) = (  -0.0883883  -0.4419417   0.7071068), wk =   0.0058594
        k(  142) = (  -0.0441942  -0.3977476   0.6629126), wk =   0.0117188
        k(  143) = (  -0.0000000  -0.3535534   0.6187184), wk =   0.0058594
        k(  144) = (  -0.7071068   0.2651650   0.0000000), wk =   0.0029297
        k(  145) = (  -0.7071068   0.3535534   0.0000000), wk =   0.0014648

                       cryst. coord.
        k(    1) = (   0.0000000   0.0000000   0.0000000), wk =   0.0002441
        k(    2) = (   0.0000000   0.0000000   0.0625000), wk =   0.0019531
        k(    3) = (   0.0000000   0.0000000   0.1250000), wk =   0.0019531
        k(    4) = (   0.0000000   0.0000000   0.1875000), wk =   0.0019531
        k(    5) = (   0.0000000   0.0000000   0.2500000), wk =   0.0019531
        k(    6) = (   0.0000000   0.0000000   0.3125000), wk =   0.0019531
        k(    7) = (   0.0000000   0.0000000   0.3750000), wk =   0.0019531
        k(    8) = (   0.0000000   0.0000000   0.4375000), wk =   0.0019531
        k(    9) = (   0.0000000   0.0000000  -0.5000000), wk =   0.0009766
        k(   10) = (   0.0000000   0.0625000   0.0625000), wk =   0.0014648
        k(   11) = (   0.0000000   0.0625000   0.1250000), wk =   0.0058594
        k(   12) = (   0.0000000   0.0625000   0.1875000), wk =   0.0058594
        k(   13) = (   0.0000000   0.0625000   0.2500000), wk =   0.0058594
        k(   14) = (   0.0000000   0.0625000   0.3125000), wk =   0.0058594
        k(   15) = (   0.0000000   0.0625000   0.3750000), wk =   0.0058594
        k(   16) = (   0.0000000   0.0625000   0.4375000), wk =   0.0058594
        k(   17) = (   0.0000000   0.0625000  -0.5000000), wk =   0.0058594
        k(   18) = (   0.0000000   0.0625000  -0.4375000), wk =   0.0058594
        k(   19) = (   0.0000000   0.0625000  -0.3750000), wk =   0.0058594
        k(   20) = (   0.0000000   0.0625000  -0.3125000), wk =   0.0058594
        k(   21) = (   0.0000000   0.0625000  -0.2500000), wk =   0.0058594
        k(   22) = (   0.0000000   0.0625000  -0.1875000), wk =   0.0058594
        k(   23) = (   0.0000000   0.0625000  -0.1250000), wk =   0.0058594
        k(   24) = (   0.0000000   0.0625000  -0.0625000), wk =   0.0029297
        k(   25) = (   0.0000000   0.1250000   0.1250000), wk =   0.0014648
        k(   26) = (   0.0000000   0.1250000   0.1875000), wk =   0.0058594
        k(   27) = (   0.0000000   0.1250000   0.2500000), wk =   0.0058594
        k(   28) = (   0.0000000   0.1250000   0.3125000), wk =   0.0058594
        k(   29) = (   0.0000000   0.1250000   0.3750000), wk =   0.0058594
        k(   30) = (   0.0000000   0.1250000   0.4375000), wk =   0.0058594
        k(   31) = (   0.0000000   0.1250000  -0.5000000), wk =   0.0058594
        k(   32) = (   0.0000000   0.1250000  -0.4375000), wk =   0.0058594
        k(   33) = (   0.0000000   0.1250000  -0.3750000), wk =   0.0058594
        k(   34) = (   0.0000000   0.1250000  -0.3125000), wk =   0.0058594
        k(   35) = (   0.0000000   0.1250000  -0.2500000), wk =   0.0058594
        k(   36) = (   0.0000000   0.1250000  -0.1875000), wk =   0.0058594
        k(   37) = (   0.0000000   0.1250000  -0.1250000), wk =   0.0029297
        k(   38) = (   0.0000000   0.1875000   0.1875000), wk =   0.0014648
        k(   39) = (   0.0000000   0.1875000   0.2500000), wk =   0.0058594
        k(   40) = (   0.0000000   0.1875000   0.3125000), wk =   0.0058594
        k(   41) = (   0.0000000   0.1875000   0.3750000), wk =   0.0058594
        k(   42) = (   0.0000000   0.1875000   0.4375000), wk =   0.0058594
        k(   43) = (   0.0000000   0.1875000  -0.5000000), wk =   0.0058594
        k(   44) = (   0.0000000   0.1875000  -0.4375000), wk =   0.0058594
        k(   45) = (   0.0000000   0.1875000  -0.3750000), wk =   0.0058594
        k(   46) = (   0.0000000   0.1875000  -0.3125000), wk =   0.0058594
        k(   47) = (   0.0000000   0.1875000  -0.2500000), wk =   0.0058594
        k(   48) = (   0.0000000   0.1875000  -0.1875000), wk =   0.0029297
        k(   49) = (   0.0000000   0.2500000   0.2500000), wk =   0.0014648
        k(   50) = (   0.0000000   0.2500000   0.3125000), wk =   0.0058594
        k(   51) = (   0.0000000   0.2500000   0.3750000), wk =   0.0058594
        k(   52) = (   0.0000000   0.2500000   0.4375000), wk =   0.0058594
        k(   53) = (   0.0000000   0.2500000  -0.5000000), wk =   0.0058594
        k(   54) = (   0.0000000   0.2500000  -0.4375000), wk =   0.0058594
        k(   55) = (   0.0000000   0.2500000  -0.3750000), wk =   0.0058594
        k(   56) = (   0.0000000   0.2500000  -0.3125000), wk =   0.0058594
        k(   57) = (   0.0000000   0.2500000  -0.2500000), wk =   0.0029297
        k(   58) = (   0.0000000   0.3125000   0.3125000), wk =   0.0014648
        k(   59) = (   0.0000000   0.3125000   0.3750000), wk =   0.0058594
        k(   60) = (   0.0000000   0.3125000   0.4375000), wk =   0.0058594
        k(   61) = (   0.0000000   0.3125000  -0.5000000), wk =   0.0058594
        k(   62) = (   0.0000000   0.3125000  -0.4375000), wk =   0.0058594
        k(   63) = (   0.0000000   0.3125000  -0.3750000), wk =   0.0058594
        k(   64) = (   0.0000000   0.3125000  -0.3125000), wk =   0.0029297
        k(   65) = (   0.0000000   0.3750000   0.3750000), wk =   0.0014648
        k(   66) = (   0.0000000   0.3750000   0.4375000), wk =   0.0058594
        k(   67) = (   0.0000000   0.3750000  -0.5000000), wk =   0.0058594
        k(   68) = (   0.0000000   0.3750000  -0.4375000), wk =   0.0058594
        k(   69) = (   0.0000000   0.3750000  -0.3750000), wk =   0.0029297
        k(   70) = (   0.0000000   0.4375000   0.4375000), wk =   0.0014648
        k(   71) = (   0.0000000   0.4375000  -0.5000000), wk =   0.0058594
        k(   72) = (   0.0000000   0.4375000  -0.4375000), wk =   0.0029297
        k(   73) = (   0.0000000  -0.5000000  -0.5000000), wk =   0.0007324
        k(   74) = (   0.0625000   0.1250000   0.1875000), wk =   0.0058594
        k(   75) = (   0.0625000   0.1250000   0.2500000), wk =   0.0117188
        k(   76) = (   0.0625000   0.1250000   0.3125000), wk =   0.0117188
        k(   77) = (   0.0625000   0.1250000   0.3750000), wk =   0.0117188
        k(   78) = (   0.0625000   0.1250000   0.4375000), wk =   0.0117188
        k(   79) = (   0.0625000   0.1250000  -0.5000000), wk =   0.0117188
        k(   80) = (   0.0625000   0.1250000  -0.4375000), wk =   0.0058594
        k(   81) = (   0.0625000   0.1875000   0.2500000), wk =   0.0058594
        k(   82) = (   0.0625000   0.1875000   0.3125000), wk =   0.0117188
        k(   83) = (   0.0625000   0.1875000   0.3750000), wk =   0.0117188
        k(   84) = (   0.0625000   0.1875000   0.4375000), wk =   0.0117188
        k(   85) = (   0.0625000   0.1875000  -0.5000000), wk =   0.0117188
        k(   86) = (   0.0625000   0.1875000  -0.4375000), wk =   0.0117188
        k(   87) = (   0.0625000   0.1875000  -0.3750000), wk =   0.0117188
        k(   88) = (   0.0625000   0.1875000  -0.3125000), wk =   0.0117188
        k(   89) = (   0.0625000   0.1875000  -0.2500000), wk =   0.0117188
        k(   90) = (   0.0625000   0.1875000  -0.1875000), wk =   0.0117188
        k(   91) = (   0.0625000   0.1875000  -0.1250000), wk =   0.0058594
        k(   92) = (   0.0625000   0.2500000   0.3125000), wk =   0.0058594
        k(   93) = (   0.0625000   0.2500000   0.3750000), wk =   0.0117188
        k(   94) = (   0.0625000   0.2500000   0.4375000), wk =   0.0117188
        k(   95) = (   0.0625000   0.2500000  -0.5000000), wk =   0.0117188
        k(   96) = (   0.0625000   0.2500000  -0.4375000), wk =   0.0117188
        k(   97) = (   0.0625000   0.2500000  -0.3750000), wk =   0.0117188
        k(   98) = (   0.0625000   0.2500000  -0.3125000), wk =   0.0117188
        k(   99) = (   0.0625000   0.2500000  -0.2500000), wk =   0.0117188
        k(  100) = (   0.0625000   0.2500000  -0.1875000), wk =   0.0058594
        k(  101) = (   0.0625000   0.3125000   0.3750000), wk =   0.0058594
        k(  102) = (   0.0625000   0.3125000   0.4375000), wk =   0.0117188
        k(  103) = (   0.0625000   0.3125000  -0.5000000), wk =   0.0117188
        k(  104) = (   0.0625000   0.3125000  -0.4375000), wk =   0.0117188
        k(  105) = (   0.0625000   0.3125000  -0.3750000), wk =   0.0117188
        k(  106) = (   0.0625000   0.3125000  -0.3125000), wk =   0.0117188
        k(  107) = (   0.0625000   0.3125000  -0.2500000), wk =   0.0058594
        k(  108) = (   0.0625000   0.3750000   0.4375000), wk =   0.0058594
        k(  109) = (   0.0625000   0.3750000  -0.5000000), wk =   0.0117188
        k(  110) = (   0.0625000   0.3750000  -0.4375000), wk =   0.0117188
        k(  111) = (   0.0625000   0.3750000  -0.3750000), wk =   0.0117188
        k(  112) = (   0.0625000   0.3750000  -0.3125000), wk =   0.0058594
        k(  113) = (   0.0625000   0.4375000  -0.5000000), wk =   0.0058594
        k(  114) = (   0.0625000   0.4375000  -0.4375000), wk =   0.0117188
        k(  115) = (   0.0625000   0.4375000  -0.3750000), wk =   0.0058594
        k(  116) = (   0.0625000  -0.5000000  -0.4375000), wk =   0.0029297
        k(  117) = (   0.1250000   0.2500000   0.3750000), wk =   0.0058594
        k(  118) = (   0.1250000   0.2500000   0.4375000), wk =   0.0117188
        k(  119) = (   0.1250000   0.2500000  -0.5000000), wk =   0.0117188
        k(  120) = (   0.1250000   0.2500000  -0.4375000), wk =   0.0117188
        k(  121) = (   0.1250000   0.2500000  -0.3750000), wk =   0.0058594
        k(  122) = (   0.1250000   0.3125000   0.4375000), wk =   0.0058594
        k(  123) = (   0.1250000   0.3125000  -0.5000000), wk =   0.0117188
        k(  124) = (   0.1250000   0.3125000  -0.4375000), wk =   0.0117188
        k(  125) = (   0.1250000   0.3125000  -0.3750000), wk =   0.0117188
        k(  126) = (   0.1250000   0.3125000  -0.3125000), wk =   0.0117188
        k(  127) = (   0.1250000   0.3125000  -0.2500000), wk =   0.0117188
        k(  128) = (   0.1250000   0.3125000  -0.1875000), wk =   0.0058594
        k(  129) = (   0.1250000   0.3750000  -0.5000000), wk =   0.0058594
        k(  130) = (   0.1250000   0.3750000  -0.4375000), wk =   0.0117188
        k(  131) = (   0.1250000   0.3750000  -0.3750000), wk =   0.0117188
        k(  132) = (   0.1250000   0.3750000  -0.3125000), wk =   0.0117188
        k(  133) = (   0.1250000   0.3750000  -0.2500000), wk =   0.0058594
        k(  134) = (   0.1250000   0.4375000  -0.4375000), wk =   0.0058594
        k(  135) = (   0.1250000   0.4375000  -0.3750000), wk =   0.0117188
        k(  136) = (   0.1250000   0.4375000  -0.3125000), wk =   0.0058594
        k(  137) = (   0.1250000  -0.5000000  -0.3750000), wk =   0.0029297
        k(  138) = (   0.1875000   0.3750000  -0.4375000), wk =   0.0058594
        k(  139) = (   0.1875000   0.3750000  -0.3750000), wk =   0.0117188
        k(  140) = (   0.1875000   0.3750000  -0.3125000), wk =   0.0058594
        k(  141) = (   0.1875000   0.4375000  -0.3750000), wk =   0.0058594
        k(  142) = (   0.1875000   0.4375000  -0.3125000), wk =   0.0117188
        k(  143) = (   0.1875000   0.4375000  -0.2500000), wk =   0.0058594
        k(  144) = (   0.1875000  -0.5000000  -0.3125000), wk =   0.0029297
        k(  145) = (   0.2500000  -0.5000000  -0.2500000), wk =   0.0014648

     Dense  grid:    27581 G-vectors     FFT dimensions: (  45,  45,  45)

     Largest allocated arrays     est. size (Mb)     dimensions
        Kohn-Sham Wavefunctions         0.24 Mb     (     446,   36)
        NL pseudopotentials             0.12 Mb     (     223,   36)
        Each V/rho on FFT grid          0.09 Mb     (    6075)
        Each G-vector array             0.01 Mb     (    1725)
        G-vector shells                 0.00 Mb     (     281)
     Largest temporary arrays     est. size (Mb)     dimensions
        Auxiliary wavefunctions         0.98 Mb     (     446,  144)
        Each subspace H/S matrix        0.32 Mb     (     144,  144)
        Each <psi_i|beta_j> matrix      0.04 Mb     (      36,   2,   36)
        Arrays for rho mixing           0.74 Mb     (    6075,    8)

     Check: negative/imaginary core charge=   -0.000002    0.000000

     Initial potential from superposition of free atoms

     starting charge   27.99723, renormalised to   28.00000
     Starting wfc are   36 randomized atomic wfcs
     Checking if some PAW data can be deallocated... 

     total cpu time spent up to now is       10.1 secs

     Self-consistent Calculation

     iteration #  1     ecut=    55.00 Ry     beta=0.70
     Davidson diagonalization with overlap
     ethr =  1.00E-02,  avg # of iterations =  3.4

     Threshold (ethr) on eigenvalues was too large:
     Diagonalizing with lowered threshold

     Davidson diagonalization with overlap
     ethr =  6.64E-05,  avg # of iterations =  3.3

     total cpu time spent up to now is       73.4 secs

     total energy              =    -884.10541341 Ry
     Harris-Foulkes estimate   =    -884.10873817 Ry
     estimated scf accuracy    <       0.02244045 Ry

     iteration #  2     ecut=    55.00 Ry     beta=0.70
     Davidson diagonalization with overlap
     ethr =  8.01E-05,  avg # of iterations =  1.0

     total cpu time spent up to now is       98.5 secs

     total energy              =    -884.10630123 Ry
     Harris-Foulkes estimate   =    -884.10637807 Ry
     estimated scf accuracy    <       0.00162418 Ry

     iteration #  3     ecut=    55.00 Ry     beta=0.70
     Davidson diagonalization with overlap
     ethr =  5.80E-06,  avg # of iterations =  2.5

     total cpu time spent up to now is      132.9 secs

     total energy              =    -884.10657699 Ry
     Harris-Foulkes estimate   =    -884.10661305 Ry
     estimated scf accuracy    <       0.00007852 Ry

     iteration #  4     ecut=    55.00 Ry     beta=0.70
     Davidson diagonalization with overlap
     ethr =  2.80E-07,  avg # of iterations =  2.0

     total cpu time spent up to now is      166.4 secs

     total energy              =    -884.10660075 Ry
     Harris-Foulkes estimate   =    -884.10659855 Ry
     estimated scf accuracy    <       0.00000444 Ry

     iteration #  5     ecut=    55.00 Ry     beta=0.70
     Davidson diagonalization with overlap
     ethr =  1.59E-08,  avg # of iterations =  2.0

     total cpu time spent up to now is      193.8 secs

     End of self-consistent calculation

          k = 0.0000 0.0000 0.0000 (  3479 PWs)   bands (ev):

   -14.6579 -14.6579 -14.6579 -14.6579 -14.6579 -14.6579 -14.6094 -14.6094
   -14.6094 -14.6094 -14.3609 -14.3609 -14.3609 -14.3609 -14.3601 -14.3601
   -14.3601 -14.3601 -14.3601 -14.3601  -3.1846  -3.1846   5.7026   5.7026
     6.9836   6.9836   6.9836   6.9836   6.9836   6.9836   9.0489   9.0489
     9.0489   9.0489   9.0489   9.0489

     occupation numbers 
     1.0000   1.0000   1.0000   1.0000   1.0000   1.0000   1.0000   1.0000
     1.0000   1.0000   1.0000   1.0000   1.0000   1.0000   1.0000   1.0000
     1.0000   1.0000   1.0000   1.0000   1.0000   1.0000   1.0000   1.0000
     0.0000   0.0000   0.0000   0.0000   0.0000   0.0000   0.0000   0.0000
     0.0000   0.0000   0.0000   0.0000

          k = 0.0442 0.0442-0.0442 (  3467 PWs)   bands (ev):

   -14.6604 -14.6604 -14.6604 -14.6604 -14.6571 -14.6571 -14.6058 -14.6058
   -14.6058 -14.6058 -14.3712 -14.3712 -14.3712 -14.3712 -14.3608 -14.3608
   -14.3502 -14.3502 -14.3502 -14.3502  -3.1498  -3.1498   5.3080   5.3080
     6.9112   6.9112   6.9112   6.9112   7.1656   7.1656   9.1437   9.1437
     9.1437   9.1437   9.1781   9.1781

     occupation numbers 
     1.0000   1.0000   1.0000   1.0000   1.0000   1.0000   1.0000   1.0000
     1.0000   1.0000   1.0000   1.0000   1.0000   1.0000   1.0000   1.0000
     1.0000   1.0000   1.0000   1.0000   1.0000   1.0000   1.0000   1.0000
     0.0236   0.0236   0.0236   0.0236   0.0000   0.0000   0.0000   0.0000
     0.0000   0.0000   0.0000   0.0000

          k = 0.0884 0.0884-0.0884 (  3467 PWs)   bands (ev):

   -14.6663 -14.6663 -14.6663 -14.6663 -14.6547 -14.6547 -14.5975 -14.5975
   -14.5975 -14.5975 -14.3819 -14.3819 -14.3819 -14.3819 -14.3639 -14.3639
   -14.3410 -14.3410 -14.3410 -14.3410  -3.0464  -3.0464   4.5476   4.5476
     6.7339   6.7339   6.7339   6.7339   7.2957   7.2957   9.3777   9.3777
     9.3777   9.3777   9.6105   9.6105

     occupation numbers 
     1.0000   1.0000   1.0000   1.0000   1.0000   1.0000   1.0000   1.0000
     1.0000   1.0000   1.0000   1.0000   1.0000   1.0000   1.0000   1.0000
     1.0000   1.0000   1.0000   1.0000   1.0000   1.0000   1.0000   1.0000
     1.0000   1.0000   1.0000   1.0000   0.0000   0.0000   0.0000   0.0000
     0.0000   0.0000   0.0000   0.0000

          k = 0.1326 0.1326-0.1326 (  3467 PWs)   bands (ev):

   -14.6726 -14.6726 -14.6726 -14.6726 -14.6510 -14.6510 -14.5877 -14.5877
   -14.5877 -14.5877 -14.3916 -14.3916 -14.3916 -14.3916 -14.3684 -14.3684
   -14.3333 -14.3333 -14.3333 -14.3333  -2.8772  -2.8772   3.7183   3.7183
     6.5192   6.5192   6.5192   6.5192   7.2328   7.2328   9.6531   9.6531
     9.6531   9.6531  10.2908  10.2908

     occupation numbers 
     1.0000   1.0000   1.0000   1.0000   1.0000   1.0000   1.0000   1.0000
     1.0000   1.0000   1.0000   1.0000   1.0000   1.0000   1.0000   1.0000
     1.0000   1.0000   1.0000   1.0000   1.0000   1.0000   1.0000   1.0000
     1.0000   1.0000   1.0000   1.0000   0.0000   0.0000   0.0000   0.0000
     0.0000   0.0000   0.0000   0.0000

          k = 0.1768 0.1768-0.1768 (  3455 PWs)   bands (ev):

   -14.6780 -14.6780 -14.6780 -14.6780 -14.6463 -14.6463 -14.5784 -14.5784
   -14.5784 -14.5784 -14.4001 -14.4001 -14.4001 -14.4001 -14.3731 -14.3731
   -14.3270 -14.3270 -14.3270 -14.3270  -2.6485  -2.6485   2.9070   2.9070
     6.3126   6.3126   6.3126   6.3126   7.0933   7.0933   9.8838   9.8838
     9.8838   9.8838  11.0996  11.0997

     occupation numbers 
     1.0000   1.0000   1.0000   1.0000   1.0000   1.0000   1.0000   1.0000
     1.0000   1.0000   1.0000   1.0000   1.0000   1.0000   1.0000   1.0000
     1.0000   1.0000   1.0000   1.0000   1.0000   1.0000   1.0000   1.0000
     1.0000   1.0000   1.0000   1.0000   0.0000   0.0000   0.0000   0.0000
     0.0000   0.0000   0.0000   0.0000

          k = 0.2210 0.2210-0.2210 (  3446 PWs)   bands (ev):

   -14.6819 -14.6819 -14.6819 -14.6819 -14.6419 -14.6419 -14.5705 -14.5705
   -14.5705 -14.5705 -14.4066 -14.4066 -14.4066 -14.4066 -14.3784 -14.3784
   -14.3223 -14.3223 -14.3223 -14.3223  -2.3736  -2.3736   2.1591   2.1591
     6.1379   6.1379   6.1379   6.1379   6.9517   6.9517  10.0238  10.0238
    10.0238  10.0238  11.9643  11.9643

     occupation numbers 
     1.0000   1.0000   1.0000   1.0000   1.0000   1.0000   1.0000   1.0000
     1.0000   1.0000   1.0000   1.0000   1.0000   1.0000   1.0000   1.0000
     1.0000   1.0000   1.0000   1.0000   1.0000   1.0000   1.0000   1.0000
     1.0000   1.0000   1.0000   1.0000   0.0000   0.0000   0.0000   0.0000
     0.0000   0.0000   0.0000   0.0000

          k = 0.2652 0.2652-0.2652 (  3452 PWs)   bands (ev):

   -14.6846 -14.6846 -14.6846 -14.6846 -14.6380 -14.6380 -14.5653 -14.5653
   -14.5653 -14.5653 -14.4109 -14.4109 -14.4109 -14.4109 -14.3830 -14.3830
   -14.3194 -14.3194 -14.3194 -14.3194  -2.0804  -2.0804   1.5194   1.5194
     6.0072   6.0072   6.0072   6.0072   6.8392   6.8392  10.0810  10.0810
    10.0810  10.0810  12.6277  12.6277

     occupation numbers 
     1.0000   1.0000   1.0000   1.0000   1.0000   1.0000   1.0000   1.0000
     1.0000   1.0000   1.0000   1.0000   1.0000   1.0000   1.0000   1.0000
     1.0000   1.0000   1.0000   1.0000   1.0000   1.0000   1.0000   1.0000
     1.0000   1.0000   1.0000   1.0000   1.0000   1.0000   0.0000   0.0000
     0.0000   0.0000   0.0000   0.0000

          k = 0.3094 0.3094-0.3094 (  3444 PWs)   bands (ev):

   -14.6859 -14.6859 -14.6859 -14.6859 -14.6351 -14.6351 -14.5625 -14.5625
   -14.5625 -14.5625 -14.4133 -14.4133 -14.4133 -14.4133 -14.3855 -14.3855
   -14.3178 -14.3178 -14.3178 -14.3178  -1.8289  -1.8289   1.0569   1.0569
     5.9268   5.9268   5.9268   5.9268   6.7684   6.7684  10.0936  10.0936
    10.0936  10.0936  12.6534  12.6534

     occupation numbers 
     1.0000   1.0000   1.0000   1.0000   1.0000   1.0000   1.0000   1.0000
     1.0000   1.0000   1.0000   1.0000   1.0000   1.0000   1.0000   1.0000
     1.0000   1.0000   1.0000   1.0000   1.0000   1.0000   1.0000   1.0000
     1.0000   1.0000   1.0000   1.0000   1.0000   1.0000   0.0000   0.0000
     0.0000   0.0000   0.0000   0.0000

          k =-0.3536-0.3536 0.3536 (  3444 PWs)   bands (ev):

   -14.6865 -14.6865 -14.6865 -14.6865 -14.6346 -14.6346 -14.5613 -14.5613
   -14.5613 -14.5613 -14.4140 -14.4140 -14.4140 -14.4140 -14.3868 -14.3868
   -14.3170 -14.3170 -14.3170 -14.3170  -1.7227  -1.7227   0.8798   0.8798
     5.8997   5.8997   5.8997   5.8997   6.7443   6.7443  10.0939  10.0939
    10.0939  10.0939  12.6284  12.6284

     occupation numbers 
     1.0000   1.0000   1.0000   1.0000   1.0000   1.0000   1.0000   1.0000
     1.0000   1.0000   1.0000   1.0000   1.0000   1.0000   1.0000   1.0000
     1.0000   1.0000   1.0000   1.0000   1.0000   1.0000   1.0000   1.0000
     1.0000   1.0000   1.0000   1.0000   1.0000   1.0000   0.0000   0.0000
     0.0000   0.0000   0.0000   0.0000

          k = 0.0884 0.0000 0.0000 (  3471 PWs)   bands (ev):

   -14.6601 -14.6601 -14.6598 -14.6598 -14.6598 -14.6598 -14.6069 -14.6069
   -14.6022 -14.6022 -14.3803 -14.3803 -14.3633 -14.3633 -14.3574 -14.3574
   -14.3574 -14.3574 -14.3462 -14.3462  -3.1382  -3.1382   5.2280   5.2280
     6.7786   6.7786   6.7786   6.7786   7.4390   7.4390   8.9043   8.9043
     9.3134   9.3134   9.3134   9.3134

     occupation numbers 
     1.0000   1.0000   1.0000   1.0000   1.0000   1.0000   1.0000   1.0000
     1.0000   1.0000   1.0000   1.0000   1.0000   1.0000   1.0000   1.0000
     1.0000   1.0000   1.0000   1.0000   1.0000   1.0000   1.0000   1.0000
     1.0000   1.0000   1.0000   1.0000   0.0000   0.0000   0.0000   0.0000
     0.0000   0.0000   0.0000   0.0000

          k = 0.1326 0.0442-0.0442 (  3461 PWs)   bands (ev):

   -14.6661 -14.6661 -14.6634 -14.6634 -14.6575 -14.6575 -14.6016 -14.6016
   -14.5937 -14.5937 -14.3915 -14.3915 -14.3719 -14.3719 -14.3576 -14.3576
   -14.3490 -14.3490 -14.3390 -14.3390  -3.0574  -3.0574   4.6642   4.6642
     6.5708   6.5708   6.6021   6.6021   7.6918   7.6918   8.9032   8.9032
     9.5963   9.5963   9.6700   9.6700

     occupation numbers 
     1.0000   1.0000   1.0000   1.0000   1.0000   1.0000   1.0000   1.0000
     1.0000   1.0000   1.0000   1.0000   1.0000   1.0000   1.0000   1.0000
     1.0000   1.0000   1.0000   1.0000   1.0000   1.0000   1.0000   1.0000
     1.0000   1.0000   1.0000   1.0000   0.0000   0.0000   0.0000   0.0000
     0.0000   0.0000   0.0000   0.0000

          k = 0.1768 0.0884-0.0884 (  3472 PWs)   bands (ev):

   -14.6735 -14.6735 -14.6692 -14.6692 -14.6534 -14.6534 -14.5931 -14.5931
   -14.5835 -14.5835 -14.4022 -14.4022 -14.3820 -14.3820 -14.3620 -14.3620
   -14.3403 -14.3403 -14.3312 -14.3312  -2.9097  -2.9097   3.9109   3.9109
     6.3486   6.3486   6.3849   6.3849   7.7104   7.7104   9.1300   9.1301
     9.9019   9.9019  10.2217  10.2217

     occupation numbers 
     1.0000   1.0000   1.0000   1.0000   1.0000   1.0000   1.0000   1.0000
     1.0000   1.0000   1.0000   1.0000   1.0000   1.0000   1.0000   1.0000
     1.0000   1.0000   1.0000   1.0000   1.0000   1.0000   1.0000   1.0000
     1.0000   1.0000   1.0000   1.0000   0.0000   0.0000   0.0000   0.0000
     0.0000   0.0000   0.0000   0.0000

          k = 0.2210 0.1326-0.1326 (  3455 PWs)   bands (ev):

   -14.6799 -14.6799 -14.6748 -14.6748 -14.6478 -14.6478 -14.5838 -14.5838
   -14.5733 -14.5733 -14.4112 -14.4112 -14.3913 -14.3913 -14.3679 -14.3679
   -14.3327 -14.3327 -14.3241 -14.3241  -2.6999  -2.6999   3.1229   3.1229
     6.1445   6.1445   6.1484   6.1484   7.5959   7.5959   9.4424   9.4424
    10.1496  10.1496  10.8667  10.8667

     occupation numbers 
     1.0000   1.0000   1.0000   1.0000   1.0000   1.0000   1.0000   1.0000
     1.0000   1.0000   1.0000   1.0000   1.0000   1.0000   1.0000   1.0000
     1.0000   1.0000   1.0000   1.0000   1.0000   1.0000   1.0000   1.0000
     1.0000   1.0000   1.0000   1.0000   0.0000   0.0000   0.0000   0.0000
     0.0000   0.0000   0.0000   0.0000

          k = 0.2652 0.1768-0.1768 (  3458 PWs)   bands (ev):

   -14.6851 -14.6851 -14.6796 -14.6796 -14.6418 -14.6418 -14.5753 -14.5753
   -14.5651 -14.5651 -14.4177 -14.4177 -14.3996 -14.3996 -14.3751 -14.3751
   -14.3267 -14.3267 -14.3187 -14.3187  -2.4383  -2.4383   2.3695   2.3695
     5.9193   5.9193   5.9893   5.9893   7.4508   7.4508   9.7031   9.7031
    10.2881  10.2881  11.5456  11.5457

     occupation numbers 
     1.0000   1.0000   1.0000   1.0000   1.0000   1.0000   1.0000   1.0000
     1.0000   1.0000   1.0000   1.0000   1.0000   1.0000   1.0000   1.0000
     1.0000   1.0000   1.0000   1.0000   1.0000   1.0000   1.0000   1.0000
     1.0000   1.0000   1.0000   1.0000   0.0000   0.0000   0.0000   0.0000
     0.0000   0.0000   0.0000   0.0000

          k = 0.3094 0.2210-0.2210 (  3454 PWs)   bands (ev):

   -14.6885 -14.6885 -14.6830 -14.6830 -14.6361 -14.6361 -14.5682 -14.5682
   -14.5600 -14.5600 -14.4209 -14.4209 -14.4063 -14.4063 -14.3822 -14.3822
   -14.3221 -14.3221 -14.3148 -14.3148  -2.1463  -2.1463   1.6993   1.6993
     5.7310   5.7310   5.8809   5.8809   7.3214   7.3214   9.8625   9.8625
    10.3201  10.3201  12.2148  12.2148

     occupation numbers 
     1.0000   1.0000   1.0000   1.0000   1.0000   1.0000   1.0000   1.0000
     1.0000   1.0000   1.0000   1.0000   1.0000   1.0000   1.0000   1.0000
     1.0000   1.0000   1.0000   1.0000   1.0000   1.0000   1.0000   1.0000
     1.0000   1.0000   1.0000   1.0000   0.0000   0.0000   0.0000   0.0000
     0.0000   0.0000   0.0000   0.0000

          k = 0.3536 0.2652-0.2652 (  3445 PWs)   bands (ev):

   -14.6905 -14.6905 -14.6855 -14.6855 -14.6314 -14.6314 -14.5629 -14.5629
   -14.5579 -14.5579 -14.4207 -14.4207 -14.4116 -14.4116 -14.3880 -14.3880
   -14.3185 -14.3185 -14.3127 -14.3127  -1.8707  -1.8707   1.1734   1.1734
     5.5906   5.5906   5.8279   5.8279   7.2271   7.2271   9.9496   9.9496
    10.2870  10.2870  12.6478  12.6478

     occupation numbers 
     1.0000   1.0000   1.0000   1.0000   1.0000   1.0000   1.0000   1.0000
     1.0000   1.0000   1.0000   1.0000   1.0000   1.0000   1.0000   1.0000
     1.0000   1.0000   1.0000   1.0000   1.0000   1.0000   1.0000   1.0000
     1.0000   1.0000   1.0000   1.0000   0.0000   0.0000   0.0000   0.0000
     0.0000   0.0000   0.0000   0.0000

          k =-0.3094-0.3977 0.3977 (  3447 PWs)   bands (ev):

   -14.6910 -14.6910 -14.6871 -14.6871 -14.6293 -14.6293 -14.5593 -14.5593
   -14.5587 -14.5587 -14.4180 -14.4180 -14.4158 -14.4158 -14.3915 -14.3915
   -14.3162 -14.3162 -14.3123 -14.3123  -1.7029  -1.7029   0.8907   0.8907
     5.5039   5.5039   5.8315   5.8315   7.1763   7.1763  10.0106  10.0106
    10.2295  10.2295  12.7420  12.7420

     occupation numbers 
     1.0000   1.0000   1.0000   1.0000   1.0000   1.0000   1.0000   1.0000
     1.0000   1.0000   1.0000   1.0000   1.0000   1.0000   1.0000   1.0000
     1.0000   1.0000   1.0000   1.0000   1.0000   1.0000   1.0000   1.0000
     1.0000   1.0000   1.0000   1.0000   0.0000   0.0000   0.0000   0.0000
     0.0000   0.0000   0.0000   0.0000

          k =-0.2652-0.3536 0.3536 (  3444 PWs)   bands (ev):

   -14.6901 -14.6901 -14.6878 -14.6878 -14.6292 -14.6292 -14.5611 -14.5611
   -14.5575 -14.5575 -14.4184 -14.4184 -14.4142 -14.4142 -14.3919 -14.3919
   -14.3153 -14.3153 -14.3138 -14.3138  -1.7399  -1.7399   0.9509   0.9509
     5.4746   5.4746   5.8909   5.8909   7.1720   7.1720  10.0703  10.0703
    10.1671  10.1671  12.7547  12.7547

     occupation numbers 
     1.0000   1.0000   1.0000   1.0000   1.0000   1.0000   1.0000   1.0000
     1.0000   1.0000   1.0000   1.0000   1.0000   1.0000   1.0000   1.0000
     1.0000   1.0000   1.0000   1.0000   1.0000   1.0000   1.0000   1.0000
     1.0000   1.0000   1.0000   1.0000   0.0000   0.0000   0.0000   0.0000
     0.0000   0.0000   0.0000   0.0000

          k =-0.2210-0.3094 0.3094 (  3450 PWs)   bands (ev):

   -14.6879 -14.6879 -14.6875 -14.6875 -14.6317 -14.6317 -14.5653 -14.5653
   -14.5582 -14.5582 -14.4190 -14.4190 -14.4102 -14.4102 -14.3888 -14.3888
   -14.3167 -14.3167 -14.3153 -14.3153  -1.9567  -1.9567   1.3286   1.3286
     5.5051   5.5051   6.0029   6.0029   7.2136   7.2136  10.0963  10.0963
    10.1259  10.1259  12.6403  12.6404

     occupation numbers 
     1.0000   1.0000   1.0000   1.0000   1.0000   1.0000   1.0000   1.0000
     1.0000   1.0000   1.0000   1.0000   1.0000   1.0000   1.0000   1.0000
     1.0000   1.0000   1.0000   1.0000   1.0000   1.0000   1.0000   1.0000
     1.0000   1.0000   1.0000   1.0000   0.0000   0.0000   0.0000   0.0000
     0.0000   0.0000   0.0000   0.0000

          k =-0.1768-0.2652 0.2652 (  3437 PWs)   bands (ev):

   -14.6857 -14.6857 -14.6844 -14.6844 -14.6364 -14.6364 -14.5707 -14.5707
   -14.5617 -14.5617 -14.4166 -14.4166 -14.4057 -14.4057 -14.3822 -14.3822
   -14.3212 -14.3212 -14.3169 -14.3169  -2.2454  -2.2454   1.9113   1.9113
     5.5968   5.5968   6.1618   6.1618   7.2968   7.2968   9.9927   9.9927
    10.1432  10.1432  12.0686  12.0686

     occupation numbers 
     1.0000   1.0000   1.0000   1.0000   1.0000   1.0000   1.0000   1.0000
     1.0000   1.0000   1.0000   1.0000   1.0000   1.0000   1.0000   1.0000
     1.0000   1.0000   1.0000   1.0000   1.0000   1.0000   1.0000   1.0000
     1.0000   1.0000   1.0000   1.0000   0.0000   0.0000   0.0000   0.0000
     0.0000   0.0000   0.0000   0.0000

          k =-0.1326-0.2210 0.2210 (  3451 PWs)   bands (ev):

   -14.6828 -14.6828 -14.6797 -14.6797 -14.6423 -14.6423 -14.5779 -14.5779
   -14.5685 -14.5685 -14.4115 -14.4115 -14.4002 -14.4002 -14.3741 -14.3741
   -14.3275 -14.3275 -14.3204 -14.3204  -2.5308  -2.5308   2.6138   2.6138
     5.7501   5.7501   6.3577   6.3577   7.4093   7.4093   9.8249   9.8249
    10.0549  10.0549  11.3386  11.3386

     occupation numbers 
     1.0000   1.0000   1.0000   1.0000   1.0000   1.0000   1.0000   1.0000
     1.0000   1.0000   1.0000   1.0000   1.0000   1.0000   1.0000   1.0000
     1.0000   1.0000   1.0000   1.0000   1.0000   1.0000   1.0000   1.0000
     1.0000   1.0000   1.0000   1.0000   0.0000   0.0000   0.0000   0.0000
     0.0000   0.0000   0.0000   0.0000

          k =-0.0884-0.1768 0.1768 (  3460 PWs)   bands (ev):

   -14.6779 -14.6779 -14.6737 -14.6737 -14.6484 -14.6484 -14.5863 -14.5863
   -14.5781 -14.5781 -14.4035 -14.4035 -14.3932 -14.3932 -14.3662 -14.3662
   -14.3352 -14.3352 -14.3256 -14.3256  -2.7767  -2.7767   3.3813   3.3813
     5.9648   5.9648   6.5730   6.5730   7.5221   7.5221   9.5891   9.5891
     9.7991   9.7991  10.6838  10.6838

     occupation numbers 
     1.0000   1.0000   1.0000   1.0000   1.0000   1.0000   1.0000   1.0000
     1.0000   1.0000   1.0000   1.0000   1.0000   1.0000   1.0000   1.0000
     1.0000   1.0000   1.0000   1.0000   1.0000   1.0000   1.0000   1.0000
     1.0000   1.0000   1.0000   1.0000   0.0000   0.0000   0.0000   0.0000
     0.0000   0.0000   0.0000   0.0000

          k =-0.0442-0.1326 0.1326 (  3466 PWs)   bands (ev):

   -14.6719 -14.6719 -14.6670 -14.6670 -14.6536 -14.6536 -14.5952 -14.5952
   -14.5886 -14.5886 -14.3934 -14.3934 -14.3846 -14.3846 -14.3595 -14.3595
   -14.3444 -14.3444 -14.3324 -14.3324  -2.9664  -2.9664   4.1602   4.1602
     6.2401   6.2401   6.7752   6.7752   7.5656   7.5656   9.3351   9.3351
     9.4428   9.4428  10.1122  10.1122

     occupation numbers 
     1.0000   1.0000   1.0000   1.0000   1.0000   1.0000   1.0000   1.0000
     1.0000   1.0000   1.0000   1.0000   1.0000   1.0000   1.0000   1.0000
     1.0000   1.0000   1.0000   1.0000   1.0000   1.0000   1.0000   1.0000
     1.0000   1.0000   1.0000   1.0000   0.0000   0.0000   0.0000   0.0000
     0.0000   0.0000   0.0000   0.0000

          k = 0.0000-0.0884 0.0884 (  3467 PWs)   bands (ev):

   -14.6654 -14.6654 -14.6616 -14.6616 -14.6570 -14.6570 -14.6027 -14.6027
   -14.5986 -14.5986 -14.3825 -14.3825 -14.3756 -14.3756 -14.3548 -14.3548
   -14.3533 -14.3533 -14.3408 -14.3408  -3.0921  -3.0921   4.8629   4.8629
     6.5749   6.5749   6.9085   6.9085   7.4258   7.4258   9.1562   9.1562
     9.1953   9.1953   9.5900   9.5900

     occupation numbers 
     1.0000   1.0000   1.0000   1.0000   1.0000   1.0000   1.0000   1.0000
     1.0000   1.0000   1.0000   1.0000   1.0000   1.0000   1.0000   1.0000
     1.0000   1.0000   1.0000   1.0000   1.0000   1.0000   1.0000   1.0000
     1.0000   1.0000   0.8018   0.8018   0.0000   0.0000   0.0000   0.0000
     0.0000   0.0000   0.0000   0.0000

          k = 0.1768 0.0000 0.0000 (  3459 PWs)   bands (ev):

   -14.6647 -14.6647 -14.6647 -14.6647 -14.6631 -14.6631 -14.5994 -14.5994
   -14.5851 -14.5851 -14.4046 -14.4046 -14.3701 -14.3701 -14.3504 -14.3504
   -14.3504 -14.3504 -14.3380 -14.3380  -2.9993  -2.9993   4.4146   4.4146
     6.3485   6.3485   6.3485   6.3485   8.1600   8.1600   8.5842   8.5842
     9.9200   9.9200   9.9200   9.9200

     occupation numbers 
     1.0000   1.0000   1.0000   1.0000   1.0000   1.0000   1.0000   1.0000
     1.0000   1.0000   1.0000   1.0000   1.0000   1.0000   1.0000   1.0000
     1.0000   1.0000   1.0000   1.0000   1.0000   1.0000   1.0000   1.0000
     1.0000   1.0000   1.0000   1.0000   0.0000   0.0000   0.0000   0.0000
     0.0000   0.0000   0.0000   0.0000

          k = 0.2210 0.0442-0.0442 (  3472 PWs)   bands (ev):

   -14.6725 -14.6725 -14.6692 -14.6692 -14.6589 -14.6589 -14.5929 -14.5929
   -14.5739 -14.5739 -14.4176 -14.4176 -14.3778 -14.3778 -14.3513 -14.3513
   -14.3435 -14.3435 -14.3324 -14.3324  -2.8734  -2.8734   3.8716   3.8716
     6.1055   6.1055   6.1214   6.1214   8.3430   8.3430   8.5791   8.5791
    10.2664  10.2664  10.3483  10.3484

     occupation numbers 
     1.0000   1.0000   1.0000   1.0000   1.0000   1.0000   1.0000   1.0000
     1.0000   1.0000   1.0000   1.0000   1.0000   1.0000   1.0000   1.0000
     1.0000   1.0000   1.0000   1.0000   1.0000   1.0000   1.0000   1.0000
     1.0000   1.0000   1.0000   1.0000   0.0000   0.0000   0.0000   0.0000
     0.0000   0.0000   0.0000   0.0000

          k = 0.2652 0.0884-0.0884 (  3457 PWs)   bands (ev):

   -14.6806 -14.6806 -14.6744 -14.6744 -14.6515 -14.6515 -14.5841 -14.5841
   -14.5627 -14.5627 -14.4286 -14.4286 -14.3873 -14.3873 -14.3582 -14.3582
   -14.3355 -14.3355 -14.3239 -14.3239  -2.6835  -2.6835   3.1959   3.1959
     5.8253   5.8253   5.9222   5.9222   8.2697   8.2697   8.8725   8.8725
    10.5556  10.5556  10.7835  10.7836

     occupation numbers 
     1.0000   1.0000   1.0000   1.0000   1.0000   1.0000   1.0000   1.0000
     1.0000   1.0000   1.0000   1.0000   1.0000   1.0000   1.0000   1.0000
     1.0000   1.0000   1.0000   1.0000   1.0000   1.0000   1.0000   1.0000
     1.0000   1.0000   1.0000   1.0000   0.0000   0.0000   0.0000   0.0000
     0.0000   0.0000   0.0000   0.0000

          k = 0.3094 0.1326-0.1326 (  3456 PWs)   bands (ev):

   -14.6880 -14.6880 -14.6792 -14.6792 -14.6428 -14.6428 -14.5751 -14.5751
   -14.5537 -14.5537 -14.4365 -14.4365 -14.3969 -14.3969 -14.3678 -14.3678
   -14.3284 -14.3284 -14.3159 -14.3159  -2.4374  -2.4374   2.4943   2.4943
     5.5422   5.5422   5.7688   5.7688   8.1283   8.1283   9.2563   9.2563
    10.7248  10.7248  11.1064  11.1064

     occupation numbers 
     1.0000   1.0000   1.0000   1.0000   1.0000   1.0000   1.0000   1.0000
     1.0000   1.0000   1.0000   1.0000   1.0000   1.0000   1.0000   1.0000
     1.0000   1.0000   1.0000   1.0000   1.0000   1.0000   1.0000   1.0000
     1.0000   1.0000   1.0000   1.0000   0.0000   0.0000   0.0000   0.0000
     0.0000   0.0000   0.0000   0.0000

          k = 0.3536 0.1768-0.1768 (  3452 PWs)   bands (ev):

   -14.6936 -14.6936 -14.6833 -14.6833 -14.6337 -14.6337 -14.5665 -14.5665
   -14.5480 -14.5480 -14.4403 -14.4403 -14.4058 -14.4058 -14.3785 -14.3785
   -14.3223 -14.3223 -14.3096 -14.3096  -2.1514  -2.1514   1.8335   1.8335
     5.2912   5.2912   5.6706   5.6706   7.9855   7.9855   9.5815   9.5815
    10.7620  10.7620  11.4658  11.4658

     occupation numbers 
     1.0000   1.0000   1.0000   1.0000   1.0000   1.0000   1.0000   1.0000
     1.0000   1.0000   1.0000   1.0000   1.0000   1.0000   1.0000   1.0000
     1.0000   1.0000   1.0000   1.0000   1.0000   1.0000   1.0000   1.0000
     1.0000   1.0000   1.0000   1.0000   0.0000   0.0000   0.0000   0.0000
     0.0000   0.0000   0.0000   0.0000

          k = 0.3977 0.2210-0.2210 (  3463 PWs)   bands (ev):

   -14.6977 -14.6977 -14.6868 -14.6868 -14.6254 -14.6254 -14.5592 -14.5592
   -14.5467 -14.5467 -14.4396 -14.4396 -14.4140 -14.4140 -14.3887 -14.3887
   -14.3176 -14.3176 -14.3053 -14.3053  -1.8612  -1.8612   1.2755   1.2755
     5.0901   5.0901   5.6320   5.6320   7.8693   7.8693   9.7813   9.7813
    10.7068  10.7068  11.9839  11.9839

     occupation numbers 
     1.0000   1.0000   1.0000   1.0000   1.0000   1.0000   1.0000   1.0000
     1.0000   1.0000   1.0000   1.0000   1.0000   1.0000   1.0000   1.0000
     1.0000   1.0000   1.0000   1.0000   1.0000   1.0000   1.0000   1.0000
     1.0000   1.0000   1.0000   1.0000   0.0000   0.0000   0.0000   0.0000
     0.0000   0.0000   0.0000   0.0000

          k =-0.2652-0.4419 0.4419 (  3450 PWs)   bands (ev):

   -14.6994 -14.6994 -14.6891 -14.6891 -14.6191 -14.6191 -14.5533 -14.5533
   -14.5490 -14.5490 -14.4339 -14.4339 -14.4210 -14.4210 -14.3969 -14.3969
   -14.3139 -14.3139 -14.3033 -14.3033  -1.6429  -1.6429   0.9104   0.9104
     4.9481   4.9481   5.6541   5.6541   7.7927   7.7927   9.9009   9.9009
    10.6074  10.6074  12.5527  12.5527

     occupation numbers 
     1.0000   1.0000   1.0000   1.0000   1.0000   1.0000   1.0000   1.0000
     1.0000   1.0000   1.0000   1.0000   1.0000   1.0000   1.0000   1.0000
     1.0000   1.0000   1.0000   1.0000   1.0000   1.0000   1.0000   1.0000
     1.0000   1.0000   1.0000   1.0000   0.0000   0.0000   0.0000   0.0000
     0.0000   0.0000   0.0000   0.0000

          k =-0.2210-0.3977 0.3977 (  3446 PWs)   bands (ev):

   -14.6992 -14.6992 -14.6905 -14.6905 -14.6165 -14.6165 -14.5541 -14.5541
   -14.5490 -14.5490 -14.4264 -14.4264 -14.4247 -14.4247 -14.4023 -14.4023
   -14.3118 -14.3118 -14.3038 -14.3038  -1.6076  -1.6076   0.8551   0.8551
     4.8712   4.8712   5.7349   5.7349   7.7602   7.7602  10.0005  10.0005
    10.4920  10.4920  12.8593  12.8594

     occupation numbers 
     1.0000   1.0000   1.0000   1.0000   1.0000   1.0000   1.0000   1.0000
     1.0000   1.0000   1.0000   1.0000   1.0000   1.0000   1.0000   1.0000
     1.0000   1.0000   1.0000   1.0000   1.0000   1.0000   1.0000   1.0000
     1.0000   1.0000   1.0000   1.0000   0.0000   0.0000   0.0000   0.0000
     0.0000   0.0000   0.0000   0.0000

          k =-0.1768-0.3536 0.3536 (  3443 PWs)   bands (ev):

   -14.6970 -14.6970 -14.6910 -14.6910 -14.6179 -14.6179 -14.5603 -14.5603
   -14.5477 -14.5477 -14.4294 -14.4294 -14.4145 -14.4145 -14.4034 -14.4034
   -14.3109 -14.3109 -14.3069 -14.3069  -1.7795  -1.7795   1.1345   1.1345
     4.8648   4.8648   5.8701   5.8701   7.7709   7.7709  10.1018  10.1018
    10.3634  10.3634  12.6036  12.6036

     occupation numbers 
     1.0000   1.0000   1.0000   1.0000   1.0000   1.0000   1.0000   1.0000
     1.0000   1.0000   1.0000   1.0000   1.0000   1.0000   1.0000   1.0000
     1.0000   1.0000   1.0000   1.0000   1.0000   1.0000   1.0000   1.0000
     1.0000   1.0000   1.0000   1.0000   0.0000   0.0000   0.0000   0.0000
     0.0000   0.0000   0.0000   0.0000

          k =-0.1326-0.3094 0.3094 (  3456 PWs)   bands (ev):

   -14.6929 -14.6929 -14.6903 -14.6903 -14.6235 -14.6235 -14.5672 -14.5672
   -14.5501 -14.5501 -14.4288 -14.4288 -14.4090 -14.4090 -14.3954 -14.3954
   -14.3126 -14.3126 -14.3117 -14.3117  -2.0576  -2.0576   1.6411   1.6411
     4.9354   4.9354   6.0515   6.0515   7.8174   7.8174  10.1822  10.1822
    10.2034  10.2034  11.9506  11.9506

     occupation numbers 
     1.0000   1.0000   1.0000   1.0000   1.0000   1.0000   1.0000   1.0000
     1.0000   1.0000   1.0000   1.0000   1.0000   1.0000   1.0000   1.0000
     1.0000   1.0000   1.0000   1.0000   1.0000   1.0000   1.0000   1.0000
     1.0000   1.0000   1.0000   1.0000   0.0000   0.0000   0.0000   0.0000
     0.0000   0.0000   0.0000   0.0000

          k =-0.0884-0.2652 0.2652 (  3447 PWs)   bands (ev):

   -14.6878 -14.6878 -14.6869 -14.6869 -14.6317 -14.6317 -14.5741 -14.5741
   -14.5562 -14.5562 -14.4240 -14.4240 -14.4051 -14.4051 -14.3823 -14.3823
   -14.3205 -14.3205 -14.3143 -14.3143  -2.3499  -2.3499   2.2691   2.2691
     5.0923   5.0923   6.2651   6.2651   7.8812   7.8812   9.9887   9.9887
    10.1494  10.1494  11.3409  11.3409

     occupation numbers 
     1.0000   1.0000   1.0000   1.0000   1.0000   1.0000   1.0000   1.0000
     1.0000   1.0000   1.0000   1.0000   1.0000   1.0000   1.0000   1.0000
     1.0000   1.0000   1.0000   1.0000   1.0000   1.0000   1.0000   1.0000
     1.0000   1.0000   1.0000   1.0000   0.0000   0.0000   0.0000   0.0000
     0.0000   0.0000   0.0000   0.0000

          k =-0.0442-0.2210 0.2210 (  3455 PWs)   bands (ev):

   -14.6838 -14.6838 -14.6798 -14.6798 -14.6408 -14.6408 -14.5815 -14.5815
   -14.5660 -14.5660 -14.4157 -14.4157 -14.3996 -14.3996 -14.3697 -14.3697
   -14.3301 -14.3301 -14.3187 -14.3187  -2.6109  -2.6109   2.9448   2.9448
     5.3504   5.3504   6.4874   6.4874   7.9180   7.9180   9.7258   9.7258
     9.8897   9.8897  10.9572  10.9572

     occupation numbers 
     1.0000   1.0000   1.0000   1.0000   1.0000   1.0000   1.0000   1.0000
     1.0000   1.0000   1.0000   1.0000   1.0000   1.0000   1.0000   1.0000
     1.0000   1.0000   1.0000   1.0000   1.0000   1.0000   1.0000   1.0000
     1.0000   1.0000   1.0000   1.0000   0.0000   0.0000   0.0000   0.0000
     0.0000   0.0000   0.0000   0.0000

          k = 0.0000-0.1768 0.1768 (  3465 PWs)   bands (ev):

   -14.6782 -14.6782 -14.6724 -14.6724 -14.6489 -14.6489 -14.5889 -14.5889
   -14.5775 -14.5775 -14.4052 -14.4052 -14.3925 -14.3925 -14.3600 -14.3600
   -14.3405 -14.3405 -14.3248 -14.3248  -2.8197  -2.8197   3.6003   3.6003
     5.7307   5.7307   6.6773   6.6773   7.8370   7.8370   9.4758   9.4759
     9.5749   9.5749  10.6158  10.6158

     occupation numbers 
     1.0000   1.0000   1.0000   1.0000   1.0000   1.0000   1.0000   1.0000
     1.0000   1.0000   1.0000   1.0000   1.0000   1.0000   1.0000   1.0000
     1.0000   1.0000   1.0000   1.0000   1.0000   1.0000   1.0000   1.0000
     1.0000   1.0000   1.0000   1.0000   0.0000   0.0000   0.0000   0.0000
     0.0000   0.0000   0.0000   0.0000

          k = 0.2652 0.0000 0.0000 (  3475 PWs)   bands (ev):

   -14.6721 -14.6721 -14.6721 -14.6721 -14.6634 -14.6634 -14.5878 -14.5878
   -14.5616 -14.5616 -14.4332 -14.4332 -14.3814 -14.3814 -14.3405 -14.3405
   -14.3405 -14.3405 -14.3366 -14.3366  -2.7691  -2.7691   3.5596   3.5596
     5.8899   5.8899   5.8899   5.8899   8.2431   8.2431   8.7229   8.7229
    10.6674  10.6674  10.6674  10.6674

     occupation numbers 
     1.0000   1.0000   1.0000   1.0000   1.0000   1.0000   1.0000   1.0000
     1.0000   1.0000   1.0000   1.0000   1.0000   1.0000   1.0000   1.0000
     1.0000   1.0000   1.0000   1.0000   1.0000   1.0000   1.0000   1.0000
     1.0000   1.0000   1.0000   1.0000   0.0000   0.0000   0.0000   0.0000
     0.0000   0.0000   0.0000   0.0000

          k = 0.3094 0.0442-0.0442 (  3467 PWs)   bands (ev):

   -14.6795 -14.6795 -14.6765 -14.6765 -14.6572 -14.6572 -14.5797 -14.5797
   -14.5489 -14.5489 -14.4471 -14.4471 -14.3896 -14.3896 -14.3472 -14.3472
   -14.3338 -14.3338 -14.3273 -14.3273  -2.5995  -2.5995   3.0548   3.0548
     5.6307   5.6307   5.6870   5.6870   8.2281   8.2281   8.8251   8.8251
    10.9961  10.9961  11.0241  11.0241

     occupation numbers 
     1.0000   1.0000   1.0000   1.0000   1.0000   1.0000   1.0000   1.0000
     1.0000   1.0000   1.0000   1.0000   1.0000   1.0000   1.0000   1.0000
     1.0000   1.0000   1.0000   1.0000   1.0000   1.0000   1.0000   1.0000
     1.0000   1.0000   1.0000   1.0000   0.0000   0.0000   0.0000   0.0000
     0.0000   0.0000   0.0000   0.0000

          k = 0.3536 0.0884-0.0884 (  3462 PWs)   bands (ev):

   -14.6882 -14.6882 -14.6810 -14.6810 -14.6467 -14.6467 -14.5703 -14.5703
   -14.5383 -14.5383 -14.4580 -14.4580 -14.3992 -14.3992 -14.3590 -14.3590
   -14.3269 -14.3269 -14.3165 -14.3165  -2.3704  -2.3704   2.4632   2.4632
     5.3112   5.3112   5.5312   5.5312   8.3217   8.3217   8.9704   8.9704
    11.0667  11.0667  11.2596  11.2596

     occupation numbers 
     1.0000   1.0000   1.0000   1.0000   1.0000   1.0000   1.0000   1.0000
     1.0000   1.0000   1.0000   1.0000   1.0000   1.0000   1.0000   1.0000
     1.0000   1.0000   1.0000   1.0000   1.0000   1.0000   1.0000   1.0000
     1.0000   1.0000   1.0000   1.0000   0.0000   0.0000   0.0000   0.0000
     0.0000   0.0000   0.0000   0.0000

          k = 0.3977 0.1326-0.1326 (  3457 PWs)   bands (ev):

   -14.6961 -14.6961 -14.6852 -14.6852 -14.6344 -14.6344 -14.5609 -14.5609
   -14.5309 -14.5309 -14.4642 -14.4642 -14.4093 -14.4093 -14.3728 -14.3728
   -14.3204 -14.3204 -14.3073 -14.3073  -2.0942  -2.0942   1.8614   1.8614
     4.9928   4.9928   5.4326   5.4326   8.2916   8.2916   9.3537   9.3537
    11.0735  11.0735  11.3379  11.3379

     occupation numbers 
     1.0000   1.0000   1.0000   1.0000   1.0000   1.0000   1.0000   1.0000
     1.0000   1.0000   1.0000   1.0000   1.0000   1.0000   1.0000   1.0000
     1.0000   1.0000   1.0000   1.0000   1.0000   1.0000   1.0000   1.0000
     1.0000   1.0000   1.0000   1.0000   0.0000   0.0000   0.0000   0.0000
     0.0000   0.0000   0.0000   0.0000

          k = 0.4419 0.1768-0.1768 (  3455 PWs)   bands (ev):

   -14.7024 -14.7024 -14.6887 -14.6887 -14.6222 -14.6222 -14.5520 -14.5520
   -14.5286 -14.5286 -14.4648 -14.4648 -14.4193 -14.4193 -14.3864 -14.3864
   -14.3151 -14.3151 -14.3003 -14.3003  -1.7974  -1.7974   1.3135   1.3135
     4.7190   4.7190   5.3961   5.3961   8.2143   8.2143   9.7710   9.7710
    11.2516  11.2516  11.2884  11.2884

     occupation numbers 
     1.0000   1.0000   1.0000   1.0000   1.0000   1.0000   1.0000   1.0000
     1.0000   1.0000   1.0000   1.0000   1.0000   1.0000   1.0000   1.0000
     1.0000   1.0000   1.0000   1.0000   1.0000   1.0000   1.0000   1.0000
     1.0000   1.0000   1.0000   1.0000   0.0000   0.0000   0.0000   0.0000
     0.0000   0.0000   0.0000   0.0000

          k =-0.2210-0.4861 0.4861 (  3450 PWs)   bands (ev):

   -14.7064 -14.7064 -14.6915 -14.6915 -14.6119 -14.6119 -14.5441 -14.5441
   -14.5316 -14.5316 -14.4593 -14.4593 -14.4286 -14.4286 -14.3982 -14.3982
   -14.3108 -14.3108 -14.2958 -14.2958  -1.5406  -1.5406   0.9010   0.9010
     4.5107   4.5107   5.4231   5.4231   8.1559   8.1559  10.0291  10.0291
    11.1666  11.1666  11.7309  11.7309

     occupation numbers 
     1.0000   1.0000   1.0000   1.0000   1.0000   1.0000   1.0000   1.0000
     1.0000   1.0000   1.0000   1.0000   1.0000   1.0000   1.0000   1.0000
     1.0000   1.0000   1.0000   1.0000   1.0000   1.0000   1.0000   1.0000
     1.0000   1.0000   1.0000   1.0000   0.0000   0.0000   0.0000   0.0000
     0.0000   0.0000   0.0000   0.0000

          k =-0.1768-0.4419 0.4419 (  3439 PWs)   bands (ev):

   -14.7077 -14.7077 -14.6933 -14.6933 -14.6052 -14.6052 -14.5391 -14.5391
   -14.5381 -14.5381 -14.4485 -14.4485 -14.4362 -14.4362 -14.4065 -14.4065
   -14.3081 -14.3081 -14.2942 -14.2942  -1.4355  -1.4355   0.7463   0.7463
     4.3793   4.3793   5.5118   5.5118   8.1340   8.1340  10.1640  10.1640
    11.0099  11.0099  12.3672  12.3672

     occupation numbers 
     1.0000   1.0000   1.0000   1.0000   1.0000   1.0000   1.0000   1.0000
     1.0000   1.0000   1.0000   1.0000   1.0000   1.0000   1.0000   1.0000
     1.0000   1.0000   1.0000   1.0000   1.0000   1.0000   1.0000   1.0000
     1.0000   1.0000   1.0000   1.0000   0.0000   0.0000   0.0000   0.0000
     0.0000   0.0000   0.0000   0.0000

          k =-0.1326-0.3977 0.3977 (  3447 PWs)   bands (ev):

   -14.7065 -14.7065 -14.6944 -14.6944 -14.6038 -14.6038 -14.5492 -14.5492
   -14.5350 -14.5350 -14.4412 -14.4412 -14.4337 -14.4337 -14.4112 -14.4112
   -14.3069 -14.3069 -14.2962 -14.2962  -1.5549  -1.5549   0.9236   0.9236
     4.3346   4.3346   5.6572   5.6572   8.1479   8.1479  10.2729  10.2729
    10.8264  10.8264  12.4757  12.4758

     occupation numbers 
     1.0000   1.0000   1.0000   1.0000   1.0000   1.0000   1.0000   1.0000
     1.0000   1.0000   1.0000   1.0000   1.0000   1.0000   1.0000   1.0000
     1.0000   1.0000   1.0000   1.0000   1.0000   1.0000   1.0000   1.0000
     1.0000   1.0000   1.0000   1.0000   0.0000   0.0000   0.0000   0.0000
     0.0000   0.0000   0.0000   0.0000

          k =-0.0884-0.3536 0.3536 (  3449 PWs)   bands (ev):

   -14.7025 -14.7025 -14.6941 -14.6941 -14.6081 -14.6081 -14.5595 -14.5595
   -14.5366 -14.5366 -14.4414 -14.4414 -14.4166 -14.4166 -14.4121 -14.4121
   -14.3072 -14.3072 -14.3013 -14.3013  -1.8167  -1.8167   1.3425   1.3425
     4.3890   4.3890   5.8499   5.8499   8.1838   8.1838  10.3824  10.3824
    10.6011  10.6011  11.8067  11.8067

     occupation numbers 
     1.0000   1.0000   1.0000   1.0000   1.0000   1.0000   1.0000   1.0000
     1.0000   1.0000   1.0000   1.0000   1.0000   1.0000   1.0000   1.0000
     1.0000   1.0000   1.0000   1.0000   1.0000   1.0000   1.0000   1.0000
     1.0000   1.0000   1.0000   1.0000   0.0000   0.0000   0.0000   0.0000
     0.0000   0.0000   0.0000   0.0000

          k =-0.0442-0.3094 0.3094 (  3456 PWs)   bands (ev):

   -14.6962 -14.6962 -14.6922 -14.6922 -14.6176 -14.6176 -14.5682 -14.5682
   -14.5433 -14.5433 -14.4365 -14.4365 -14.4101 -14.4101 -14.3987 -14.3987
   -14.3096 -14.3096 -14.3093 -14.3093  -2.1125  -2.1125   1.8746   1.8746
     4.5610   4.5610   6.0737   6.0737   8.2084   8.2084  10.3183  10.3183
    10.4135  10.4135  11.1934  11.1934

     occupation numbers 
     1.0000   1.0000   1.0000   1.0000   1.0000   1.0000   1.0000   1.0000
     1.0000   1.0000   1.0000   1.0000   1.0000   1.0000   1.0000   1.0000
     1.0000   1.0000   1.0000   1.0000   1.0000   1.0000   1.0000   1.0000
     1.0000   1.0000   1.0000   1.0000   0.0000   0.0000   0.0000   0.0000
     0.0000   0.0000   0.0000   0.0000

          k = 0.0000-0.2652 0.2652 (  3459 PWs)   bands (ev):

   -14.6888 -14.6888 -14.6882 -14.6882 -14.6296 -14.6296 -14.5753 -14.5753
   -14.5538 -14.5538 -14.4272 -14.4272 -14.4059 -14.4059 -14.3821 -14.3821
   -14.3199 -14.3199 -14.3132 -14.3132  -2.3856  -2.3856   2.4300   2.4300
     4.8752   4.8752   6.3012   6.3012   8.1514   8.1514  10.0012  10.0012
    10.1570  10.1570  11.0033  11.0033

     occupation numbers 
     1.0000   1.0000   1.0000   1.0000   1.0000   1.0000   1.0000   1.0000
     1.0000   1.0000   1.0000   1.0000   1.0000   1.0000   1.0000   1.0000
     1.0000   1.0000   1.0000   1.0000   1.0000   1.0000   1.0000   1.0000
     1.0000   1.0000   1.0000   1.0000   0.0000   0.0000   0.0000   0.0000
     0.0000   0.0000   0.0000   0.0000

          k = 0.3536 0.0000 0.0000 (  3479 PWs)   bands (ev):

   -14.6800 -14.6800 -14.6800 -14.6800 -14.6585 -14.6585 -14.5721 -14.5721
   -14.5345 -14.5345 -14.4644 -14.4644 -14.3965 -14.3965 -14.3419 -14.3419
   -14.3290 -14.3290 -14.3290 -14.3290  -2.4496  -2.4496   2.7106   2.7106
     5.4776   5.4776   5.4776   5.4776   7.9579   7.9579   8.8913   8.8913
    11.4739  11.4739  11.4739  11.4739

     occupation numbers 
     1.0000   1.0000   1.0000   1.0000   1.0000   1.0000   1.0000   1.0000
     1.0000   1.0000   1.0000   1.0000   1.0000   1.0000   1.0000   1.0000
     1.0000   1.0000   1.0000   1.0000   1.0000   1.0000   1.0000   1.0000
     1.0000   1.0000   1.0000   1.0000   0.0000   0.0000   0.0000   0.0000
     0.0000   0.0000   0.0000   0.0000

          k = 0.3977 0.0442-0.0442 (  3461 PWs)   bands (ev):

   -14.6866 -14.6866 -14.6839 -14.6839 -14.6504 -14.6504 -14.5625 -14.5625
   -14.5215 -14.5215 -14.4784 -14.4784 -14.4057 -14.4057 -14.3519 -14.3519
   -14.3229 -14.3229 -14.3190 -14.3190  -2.2382  -2.2382   2.2443   2.2443
     5.2269   5.2269   5.3142   5.3142   7.9819   7.9819   8.8570   8.8570
    11.6143  11.6143  11.8155  11.8155

     occupation numbers 
     1.0000   1.0000   1.0000   1.0000   1.0000   1.0000   1.0000   1.0000
     1.0000   1.0000   1.0000   1.0000   1.0000   1.0000   1.0000   1.0000
     1.0000   1.0000   1.0000   1.0000   1.0000   1.0000   1.0000   1.0000
     1.0000   1.0000   1.0000   1.0000   0.0000   0.0000   0.0000   0.0000
     0.0000   0.0000   0.0000   0.0000

          k = 0.4419 0.0884-0.0884 (  3454 PWs)   bands (ev):

   -14.6954 -14.6954 -14.6878 -14.6878 -14.6368 -14.6368 -14.5525 -14.5525
   -14.5116 -14.5116 -14.4880 -14.4880 -14.4160 -14.4160 -14.3670 -14.3670
   -14.3169 -14.3169 -14.3082 -14.3082  -1.9744  -1.9744   1.7314   1.7314
     4.8900   4.8900   5.2082   5.2082   8.1280   8.1280   8.9909   8.9909
    11.4843  11.4844  11.9797  11.9797

     occupation numbers 
     1.0000   1.0000   1.0000   1.0000   1.0000   1.0000   1.0000   1.0000
     1.0000   1.0000   1.0000   1.0000   1.0000   1.0000   1.0000   1.0000
     1.0000   1.0000   1.0000   1.0000   1.0000   1.0000   1.0000   1.0000
     1.0000   1.0000   1.0000   1.0000   0.0000   0.0000   0.0000   0.0000
     0.0000   0.0000   0.0000   0.0000

          k = 0.4861 0.1326-0.1326 (  3451 PWs)   bands (ev):

   -14.7035 -14.7035 -14.6912 -14.6912 -14.6218 -14.6218 -14.5424 -14.5424
   -14.5080 -14.5080 -14.4906 -14.4906 -14.4271 -14.4271 -14.3834 -14.3834
   -14.3117 -14.3117 -14.2988 -14.2988  -1.6774  -1.6774   1.2311   1.2311
     4.5517   4.5517   5.1655   5.1655   8.1704   8.1704   9.4509   9.4509
    11.3590  11.3590  11.9703  11.9703

     occupation numbers 
     1.0000   1.0000   1.0000   1.0000   1.0000   1.0000   1.0000   1.0000
     1.0000   1.0000   1.0000   1.0000   1.0000   1.0000   1.0000   1.0000
     1.0000   1.0000   1.0000   1.0000   1.0000   1.0000   1.0000   1.0000
     1.0000   1.0000   1.0000   1.0000   0.0000   0.0000   0.0000   0.0000
     0.0000   0.0000   0.0000   0.0000

          k =-0.1768-0.5303 0.5303 (  3447 PWs)   bands (ev):

   -14.7097 -14.7097 -14.6940 -14.6940 -14.6081 -14.6081 -14.5329 -14.5329
   -14.5102 -14.5102 -14.4868 -14.4868 -14.4378 -14.4378 -14.3983 -14.3983
   -14.3074 -14.3074 -14.2919 -14.2919  -1.3935  -1.3935   0.8114   0.8114
     4.2690   4.2690   5.1880   5.1880   8.1666   8.1666  10.0709  10.0709
    11.3420  11.3420  11.8459  11.8459

     occupation numbers 
     1.0000   1.0000   1.0000   1.0000   1.0000   1.0000   1.0000   1.0000
     1.0000   1.0000   1.0000   1.0000   1.0000   1.0000   1.0000   1.0000
[...]

     occupation numbers 
     1.0000   1.0000   1.0000   1.0000   1.0000   1.0000   1.0000   1.0000
     1.0000   1.0000   1.0000   1.0000   1.0000   1.0000   1.0000   1.0000
     1.0000   1.0000   1.0000   1.0000   1.0000   1.0000   1.0000   1.0000
     1.0000   1.0000   1.0000   1.0000   0.0000   0.0000   0.0000   0.0000
     0.0000   0.0000   0.0000   0.0000

          k =-0.1326-0.3977 0.5745 (  3439 PWs)   bands (ev):

   -14.7135 -14.7135 -14.7007 -14.7007 -14.5875 -14.5875 -14.5273 -14.5273
   -14.5071 -14.5071 -14.4839 -14.4839 -14.4498 -14.4498 -14.4185 -14.4185
   -14.3000 -14.3000 -14.2874 -14.2874  -1.1367  -1.1367   0.5140   0.5140
     4.0348   4.0348   4.9956   4.9956   8.8430   8.8430  10.0847  10.0847
    11.3625  11.3626  12.0473  12.0473

     occupation numbers 
     1.0000   1.0000   1.0000   1.0000   1.0000   1.0000   1.0000   1.0000
     1.0000   1.0000   1.0000   1.0000   1.0000   1.0000   1.0000   1.0000
     1.0000   1.0000   1.0000   1.0000   1.0000   1.0000   1.0000   1.0000
     1.0000   1.0000   1.0000   1.0000   0.0000   0.0000   0.0000   0.0000
     0.0000   0.0000   0.0000   0.0000

          k =-0.0884-0.3536 0.5303 (  3449 PWs)   bands (ev):

   -14.7135 -14.7135 -14.7008 -14.7008 -14.5870 -14.5870 -14.5303 -14.5303
   -14.5085 -14.5085 -14.4799 -14.4799 -14.4492 -14.4492 -14.4196 -14.4196
   -14.3000 -14.3000 -14.2878 -14.2878  -1.1913  -1.1913   0.5833   0.5833
     4.0017   4.0017   5.0647   5.0647   8.8882   8.8882  10.0765  10.0765
    11.4262  11.4262  12.0084  12.0084

     occupation numbers 
     1.0000   1.0000   1.0000   1.0000   1.0000   1.0000   1.0000   1.0000
     1.0000   1.0000   1.0000   1.0000   1.0000   1.0000   1.0000   1.0000
     1.0000   1.0000   1.0000   1.0000   1.0000   1.0000   1.0000   1.0000
     1.0000   1.0000   1.0000   1.0000   0.0000   0.0000   0.0000   0.0000
     0.0000   0.0000   0.0000   0.0000

          k =-0.0442-0.3094 0.4861 (  3451 PWs)   bands (ev):

   -14.7100 -14.7100 -14.7000 -14.7000 -14.5940 -14.5940 -14.5407 -14.5407
   -14.5109 -14.5109 -14.4776 -14.4776 -14.4360 -14.4360 -14.4152 -14.4152
   -14.3012 -14.3012 -14.2920 -14.2920  -1.4350  -1.4350   0.9027   0.9027
     4.0730   4.0730   5.2072   5.2072   8.9400   8.9400   9.9607   9.9607
    10.8487  10.8487  12.2347  12.2347

     occupation numbers 
     1.0000   1.0000   1.0000   1.0000   1.0000   1.0000   1.0000   1.0000
     1.0000   1.0000   1.0000   1.0000   1.0000   1.0000   1.0000   1.0000
     1.0000   1.0000   1.0000   1.0000   1.0000   1.0000   1.0000   1.0000
     1.0000   1.0000   1.0000   1.0000   0.0000   0.0000   0.0000   0.0000
     0.0000   0.0000   0.0000   0.0000

          k = 0.0000-0.2652 0.4419 (  3445 PWs)   bands (ev):

   -14.7038 -14.7038 -14.6976 -14.6976 -14.6066 -14.6066 -14.5515 -14.5515
   -14.5184 -14.5184 -14.4716 -14.4716 -14.4213 -14.4213 -14.4044 -14.4044
   -14.3039 -14.3039 -14.2993 -14.2993  -1.7331  -1.7331   1.3219   1.3219
     4.2678   4.2678   5.3975   5.3975   8.9394   8.9394   9.6062   9.6062
    10.6724  10.6724  12.0084  12.0084

     occupation numbers 
     1.0000   1.0000   1.0000   1.0000   1.0000   1.0000   1.0000   1.0000
     1.0000   1.0000   1.0000   1.0000   1.0000   1.0000   1.0000   1.0000
     1.0000   1.0000   1.0000   1.0000   1.0000   1.0000   1.0000   1.0000
     1.0000   1.0000   1.0000   1.0000   0.0000   0.0000   0.0000   0.0000
     0.0000   0.0000   0.0000   0.0000

          k =-0.1768-0.5303 0.7071 (  3439 PWs)   bands (ev):

   -14.7021 -14.7021 -14.7002 -14.7002 -14.6104 -14.6104 -14.5318 -14.5318
   -14.5129 -14.5129 -14.4867 -14.4867 -14.4376 -14.4376 -14.3939 -14.3939
   -14.3010 -14.3010 -14.2996 -14.2996  -1.4416  -1.4416   0.9403   0.9403
     4.4382   4.4382   4.8686   4.8686   8.5852   8.5852   8.9404   8.9404
    11.3598  11.3598  12.9692  12.9692

     occupation numbers 
     1.0000   1.0000   1.0000   1.0000   1.0000   1.0000   1.0000   1.0000
     1.0000   1.0000   1.0000   1.0000   1.0000   1.0000   1.0000   1.0000
     1.0000   1.0000   1.0000   1.0000   1.0000   1.0000   1.0000   1.0000
     1.0000   1.0000   1.0000   1.0000   0.0000   0.0000   0.0000   0.0000
     0.0000   0.0000   0.0000   0.0000

          k =-0.1326-0.4861 0.6629 (  3441 PWs)   bands (ev):

   -14.7089 -14.7089 -14.7026 -14.7026 -14.5931 -14.5931 -14.5217 -14.5217
   -14.5175 -14.5175 -14.4805 -14.4805 -14.4499 -14.4499 -14.4112 -14.4112
   -14.2981 -14.2981 -14.2919 -14.2919  -1.1377  -1.1377   0.5562   0.5562
     4.2085   4.2085   4.7471   4.7471   8.7511   8.7511   9.4151   9.4151
    11.1852  11.1852  12.9226  12.9226

     occupation numbers 
     1.0000   1.0000   1.0000   1.0000   1.0000   1.0000   1.0000   1.0000
     1.0000   1.0000   1.0000   1.0000   1.0000   1.0000   1.0000   1.0000
     1.0000   1.0000   1.0000   1.0000   1.0000   1.0000   1.0000   1.0000
     1.0000   1.0000   1.0000   1.0000   0.0000   0.0000   0.0000   0.0000
     0.0000   0.0000   0.0000   0.0000

          k =-0.0884-0.4419 0.6187 (  3435 PWs)   bands (ev):

   -14.7139 -14.7139 -14.7036 -14.7036 -14.5803 -14.5803 -14.5172 -14.5172
   -14.5099 -14.5099 -14.4825 -14.4825 -14.4611 -14.4611 -14.4232 -14.4232
   -14.2965 -14.2965 -14.2864 -14.2864  -0.8998  -0.8998   0.2807   0.2807
     4.0107   4.0107   4.7376   4.7376   8.8062   8.8062  10.1418  10.1418
    11.0821  11.0821  12.3436  12.3436

     occupation numbers 
     1.0000   1.0000   1.0000   1.0000   1.0000   1.0000   1.0000   1.0000
     1.0000   1.0000   1.0000   1.0000   1.0000   1.0000   1.0000   1.0000
     1.0000   1.0000   1.0000   1.0000   1.0000   1.0000   1.0000   1.0000
     1.0000   1.0000   1.0000   1.0000   0.0000   0.0000   0.0000   0.0000
     0.0000   0.0000   0.0000   0.0000

          k =-0.0442-0.3977 0.5745 (  3442 PWs)   bands (ev):

   -14.7159 -14.7159 -14.7036 -14.7036 -14.5771 -14.5771 -14.5140 -14.5140
   -14.5018 -14.5018 -14.4901 -14.4901 -14.4653 -14.4653 -14.4261 -14.4261
   -14.2966 -14.2966 -14.2846 -14.2846  -0.9018  -0.9018   0.2855   0.2855
     3.8981   3.8981   4.8266   4.8266   8.8831   8.8831  10.6101  10.6101
    11.2980  11.2980  11.6151  11.6151

     occupation numbers 
     1.0000   1.0000   1.0000   1.0000   1.0000   1.0000   1.0000   1.0000
     1.0000   1.0000   1.0000   1.0000   1.0000   1.0000   1.0000   1.0000
     1.0000   1.0000   1.0000   1.0000   1.0000   1.0000   1.0000   1.0000
     1.0000   1.0000   1.0000   1.0000   0.0000   0.0000   0.0000   0.0000
     0.0000   0.0000   0.0000   0.0000

          k = 0.0000-0.3536 0.5303 (  3451 PWs)   bands (ev):

   -14.7145 -14.7145 -14.7026 -14.7026 -14.5824 -14.5824 -14.5261 -14.5261
   -14.4994 -14.4994 -14.4894 -14.4894 -14.4547 -14.4547 -14.4228 -14.4228
   -14.2980 -14.2980 -14.2867 -14.2867  -1.1373  -1.1373   0.5546   0.5546
     3.9105   3.9105   4.9921   4.9921   8.9612   8.9612  10.4684  10.4684
    10.9214  10.9214  12.0996  12.0996

     occupation numbers 
     1.0000   1.0000   1.0000   1.0000   1.0000   1.0000   1.0000   1.0000
     1.0000   1.0000   1.0000   1.0000   1.0000   1.0000   1.0000   1.0000
     1.0000   1.0000   1.0000   1.0000   1.0000   1.0000   1.0000   1.0000
     1.0000   1.0000   1.0000   1.0000   0.0000   0.0000   0.0000   0.0000
     0.0000   0.0000   0.0000   0.0000

          k =-0.0884-0.5303 0.7071 (  3435 PWs)   bands (ev):

   -14.7055 -14.7055 -14.7043 -14.7043 -14.5913 -14.5913 -14.5414 -14.5414
   -14.5089 -14.5089 -14.4603 -14.4603 -14.4600 -14.4600 -14.4122 -14.4122
   -14.2957 -14.2957 -14.2947 -14.2947  -0.9152  -0.9152   0.2888   0.2888
     4.3646   4.3646   4.5786   4.5786   8.5537   8.5537   8.7618   8.7618
    12.0332  12.0332  13.2584  13.2584

     occupation numbers 
     1.0000   1.0000   1.0000   1.0000   1.0000   1.0000   1.0000   1.0000
     1.0000   1.0000   1.0000   1.0000   1.0000   1.0000   1.0000   1.0000
     1.0000   1.0000   1.0000   1.0000   1.0000   1.0000   1.0000   1.0000
     1.0000   1.0000   1.0000   1.0000   0.0000   0.0000   0.0000   0.0000
     0.0000   0.0000   0.0000   0.0000

          k =-0.0442-0.4861 0.6629 (  3430 PWs)   bands (ev):

   -14.7111 -14.7111 -14.7054 -14.7054 -14.5744 -14.5744 -14.5422 -14.5422
   -14.4986 -14.4986 -14.4728 -14.4728 -14.4581 -14.4581 -14.4283 -14.4283
   -14.2943 -14.2943 -14.2886 -14.2886  -0.6315  -0.6315  -0.0113  -0.0113
     4.1547   4.1547   4.5373   4.5373   8.6988   8.6988   9.3629   9.3629
    11.8507  11.8507  12.5607  12.5607

     occupation numbers 
     1.0000   1.0000   1.0000   1.0000   1.0000   1.0000   1.0000   1.0000
     1.0000   1.0000   1.0000   1.0000   1.0000   1.0000   1.0000   1.0000
     1.0000   1.0000   1.0000   1.0000   1.0000   1.0000   1.0000   1.0000
     1.0000   1.0000   1.0000   1.0000   0.0000   0.0000   0.0000   0.0000
     0.0000   0.0000   0.0000   0.0000

          k = 0.0000-0.4419 0.6187 (  3433 PWs)   bands (ev):

   -14.7151 -14.7151 -14.7050 -14.7050 -14.5713 -14.5713 -14.5261 -14.5261
   -14.4978 -14.4978 -14.4770 -14.4770 -14.4715 -14.4715 -14.4306 -14.4306
   -14.2947 -14.2947 -14.2848 -14.2848  -0.6337  -0.6337   0.0002   0.0002
     3.9619   3.9619   4.6419   4.6419   8.7860   8.7860  10.1804  10.1804
    11.6924  11.6924  11.7036  11.7036

     occupation numbers 
     1.0000   1.0000   1.0000   1.0000   1.0000   1.0000   1.0000   1.0000
     1.0000   1.0000   1.0000   1.0000   1.0000   1.0000   1.0000   1.0000
     1.0000   1.0000   1.0000   1.0000   1.0000   1.0000   1.0000   1.0000
     1.0000   1.0000   1.0000   1.0000   0.0000   0.0000   0.0000   0.0000
     0.0000   0.0000   0.0000   0.0000

          k =-0.7071 0.1768 0.0000 (  3422 PWs)   bands (ev):

   -14.7062 -14.7062 -14.7061 -14.7061 -14.5684 -14.5684 -14.5672 -14.5672
   -14.4875 -14.4875 -14.4817 -14.4817 -14.4353 -14.4353 -14.4341 -14.4341
   -14.2932 -14.2932 -14.2932 -14.2932  -0.3349  -0.3349  -0.3334  -0.3334
     4.4103   4.4103   4.4103   4.4103   8.6168   8.6168   8.6170   8.6170
    12.7552  12.7552  12.7553  12.7553

     occupation numbers 
     1.0000   1.0000   1.0000   1.0000   1.0000   1.0000   1.0000   1.0000
     1.0000   1.0000   1.0000   1.0000   1.0000   1.0000   1.0000   1.0000
     1.0000   1.0000   1.0000   1.0000   1.0000   1.0000   1.0000   1.0000
     1.0000   1.0000   1.0000   1.0000   0.0000   0.0000   0.0000   0.0000
     0.0000   0.0000   0.0000   0.0000

          k =-0.1768-0.4419 0.7071 (  3445 PWs)   bands (ev):

   -14.7089 -14.7089 -14.7028 -14.7028 -14.5924 -14.5924 -14.5323 -14.5323
   -14.5005 -14.5005 -14.4937 -14.4937 -14.4415 -14.4415 -14.4136 -14.4136
   -14.2981 -14.2981 -14.2926 -14.2926  -1.3079  -1.3079   0.7675   0.7675
     4.1297   4.1297   4.9049   4.9049   9.3389   9.3389   9.4698   9.4698
    10.6260  10.6260  12.6987  12.6987

     occupation numbers 
     1.0000   1.0000   1.0000   1.0000   1.0000   1.0000   1.0000   1.0000
     1.0000   1.0000   1.0000   1.0000   1.0000   1.0000   1.0000   1.0000
     1.0000   1.0000   1.0000   1.0000   1.0000   1.0000   1.0000   1.0000
     1.0000   1.0000   1.0000   1.0000   0.0000   0.0000   0.0000   0.0000
     0.0000   0.0000   0.0000   0.0000

          k =-0.1326-0.3977 0.6629 (  3436 PWs)   bands (ev):

   -14.7133 -14.7133 -14.7048 -14.7048 -14.5787 -14.5787 -14.5218 -14.5218
   -14.5044 -14.5044 -14.4884 -14.4884 -14.4555 -14.4555 -14.4252 -14.4252
   -14.2955 -14.2955 -14.2874 -14.2874  -1.0244  -1.0244   0.4285   0.4285
     4.0024   4.0024   4.7495   4.7495   9.3643   9.3643   9.9626   9.9626
    10.7373  10.7373  12.2298  12.2298

     occupation numbers 
     1.0000   1.0000   1.0000   1.0000   1.0000   1.0000   1.0000   1.0000
     1.0000   1.0000   1.0000   1.0000   1.0000   1.0000   1.0000   1.0000
     1.0000   1.0000   1.0000   1.0000   1.0000   1.0000   1.0000   1.0000
     1.0000   1.0000   1.0000   1.0000   0.0000   0.0000   0.0000   0.0000
     0.0000   0.0000   0.0000   0.0000

          k =-0.0884-0.3536 0.6187 (  3438 PWs)   bands (ev):

   -14.7150 -14.7150 -14.7054 -14.7054 -14.5733 -14.5733 -14.5177 -14.5177
   -14.5025 -14.5025 -14.4890 -14.4890 -14.4622 -14.4622 -14.4295 -14.4295
   -14.2947 -14.2947 -14.2854 -14.2854  -0.8865  -0.8865   0.2710   0.2710
     3.9620   3.9620   4.6927   4.6927   9.3639   9.3639  10.0871  10.0871
    11.2593  11.2593  11.5503  11.5503

     occupation numbers 
     1.0000   1.0000   1.0000   1.0000   1.0000   1.0000   1.0000   1.0000
     1.0000   1.0000   1.0000   1.0000   1.0000   1.0000   1.0000   1.0000
     1.0000   1.0000   1.0000   1.0000   1.0000   1.0000   1.0000   1.0000
     1.0000   1.0000   1.0000   1.0000   0.0000   0.0000   0.0000   0.0000
     0.0000   0.0000   0.0000   0.0000

          k =-0.0884-0.4419 0.7071 (  3428 PWs)   bands (ev):

   -14.7112 -14.7112 -14.7075 -14.7075 -14.5738 -14.5738 -14.5260 -14.5260
   -14.5104 -14.5104 -14.4712 -14.4712 -14.4636 -14.4636 -14.4288 -14.4288
   -14.2925 -14.2925 -14.2888 -14.2888  -0.8318  -0.8318   0.2186   0.2186
     4.1199   4.1199   4.5112   4.5112   9.4112   9.4112   9.4539   9.4539
    11.0060  11.0060  12.3983  12.3983

     occupation numbers 
     1.0000   1.0000   1.0000   1.0000   1.0000   1.0000   1.0000   1.0000
     1.0000   1.0000   1.0000   1.0000   1.0000   1.0000   1.0000   1.0000
     1.0000   1.0000   1.0000   1.0000   1.0000   1.0000   1.0000   1.0000
     1.0000   1.0000   1.0000   1.0000   0.0000   0.0000   0.0000   0.0000
     0.0000   0.0000   0.0000   0.0000

          k =-0.0442-0.3977 0.6629 (  3430 PWs)   bands (ev):

   -14.7140 -14.7140 -14.7088 -14.7088 -14.5612 -14.5612 -14.5276 -14.5276
   -14.5014 -14.5014 -14.4767 -14.4767 -14.4678 -14.4678 -14.4393 -14.4393
   -14.2910 -14.2910 -14.2859 -14.2859  -0.6119  -0.6119  -0.0107  -0.0107
     4.0384   4.0384   4.4310   4.4310   9.4911   9.4911  10.1621  10.1621
    10.9257  10.9257  11.5410  11.5410

     occupation numbers 
     1.0000   1.0000   1.0000   1.0000   1.0000   1.0000   1.0000   1.0000
     1.0000   1.0000   1.0000   1.0000   1.0000   1.0000   1.0000   1.0000
     1.0000   1.0000   1.0000   1.0000   1.0000   1.0000   1.0000   1.0000
     1.0000   1.0000   1.0000   1.0000   0.0000   0.0000   0.0000   0.0000
     0.0000   0.0000   0.0000   0.0000

          k =-0.0000-0.3536 0.6187 (  3436 PWs)   bands (ev):

   -14.7148 -14.7148 -14.7078 -14.7078 -14.5652 -14.5652 -14.5174 -14.5174
   -14.5077 -14.5077 -14.4764 -14.4764 -14.4715 -14.4715 -14.4360 -14.4360
   -14.2922 -14.2922 -14.2853 -14.2853  -0.7338  -0.7338   0.1192   0.1192
     3.9731   3.9731   4.5350   4.5350   9.5417   9.5417  10.3433  10.3433
    10.8150  10.8150  11.4454  11.4454

     occupation numbers 
     1.0000   1.0000   1.0000   1.0000   1.0000   1.0000   1.0000   1.0000
     1.0000   1.0000   1.0000   1.0000   1.0000   1.0000   1.0000   1.0000
     1.0000   1.0000   1.0000   1.0000   1.0000   1.0000   1.0000   1.0000
     1.0000   1.0000   1.0000   1.0000   0.0000   0.0000   0.0000   0.0000
     0.0000   0.0000   0.0000   0.0000

          k =-0.7071 0.2652 0.0000 (  3426 PWs)   bands (ev):

   -14.7106 -14.7106 -14.7105 -14.7105 -14.5521 -14.5521 -14.5505 -14.5505
   -14.4900 -14.4900 -14.4842 -14.4842 -14.4494 -14.4494 -14.4478 -14.4478
   -14.2891 -14.2891 -14.2890 -14.2890  -0.3191  -0.3191  -0.3175  -0.3175
     4.2464   4.2464   4.2465   4.2465   9.4221   9.4221   9.4223   9.4223
    11.6746  11.6746  11.6748  11.6748

     occupation numbers 
     1.0000   1.0000   1.0000   1.0000   1.0000   1.0000   1.0000   1.0000
     1.0000   1.0000   1.0000   1.0000   1.0000   1.0000   1.0000   1.0000
     1.0000   1.0000   1.0000   1.0000   1.0000   1.0000   1.0000   1.0000
     1.0000   1.0000   1.0000   1.0000   0.0000   0.0000   0.0000   0.0000
     0.0000   0.0000   0.0000   0.0000

          k =-0.7071 0.3536 0.0000 (  3448 PWs)   bands (ev):

   -14.7125 -14.7125 -14.7124 -14.7124 -14.5440 -14.5440 -14.5421 -14.5421
   -14.4924 -14.4924 -14.4865 -14.4865 -14.4558 -14.4558 -14.4539 -14.4539
   -14.2876 -14.2876 -14.2875 -14.2875  -0.3124  -0.3124  -0.3108  -0.3108
     4.1841   4.1841   4.1842   4.1842  10.0870  10.0870  10.0876  10.0876
    10.9126  10.9126  10.9131  10.9131

     occupation numbers 
     1.0000   1.0000   1.0000   1.0000   1.0000   1.0000   1.0000   1.0000
     1.0000   1.0000   1.0000   1.0000   1.0000   1.0000   1.0000   1.0000
     1.0000   1.0000   1.0000   1.0000   1.0000   1.0000   1.0000   1.0000
     1.0000   1.0000   1.0000   1.0000   0.0000   0.0000   0.0000   0.0000
     0.0000   0.0000   0.0000   0.0000

     the Fermi energy is     6.9093 ev

!    total energy              =    -884.10660168 Ry
     Harris-Foulkes estimate   =    -884.10660165 Ry
     estimated scf accuracy    <       0.00000051 Ry

     total all-electron energy =    -24709.362174 Ry

     The total energy is the sum of the following terms:

     one-electron contribution =    -154.07077824 Ry
     hartree contribution      =      95.63035426 Ry
     xc contribution           =     -96.23326649 Ry
     ewald contribution        =    -167.52979536 Ry
     one-center paw contrib.   =    -561.90311570 Ry
     smearing contrib. (-TS)   =      -0.00000015 Ry

     convergence has been achieved in   5 iterations

     Writing output data file Sn.save
 
     init_run     :      9.23s CPU      9.49s WALL (       1 calls)
     electrons    :    179.33s CPU    183.77s WALL (       1 calls)

     Called by init_run:
     wfcinit      :      8.88s CPU      9.07s WALL (       1 calls)
     potinit      :      0.13s CPU      0.14s WALL (       1 calls)

     Called by electrons:
     c_bands      :    152.36s CPU    156.19s WALL (       6 calls)
     sum_band     :     26.31s CPU     26.81s WALL (       6 calls)
     v_of_rho     :      0.05s CPU      0.05s WALL (       6 calls)
     v_h          :      0.00s CPU      0.00s WALL (       6 calls)
     v_xc         :      0.05s CPU      0.05s WALL (       6 calls)
     newd         :      0.05s CPU      0.06s WALL (       6 calls)
     PAW_pot      :      0.63s CPU      0.69s WALL (       6 calls)
     mix_rho      :      0.02s CPU      0.02s WALL (       6 calls)

     Called by c_bands:
     init_us_2    :      0.21s CPU      0.26s WALL (    1885 calls)
     cegterg      :    150.30s CPU    153.89s WALL (     870 calls)

     Called by sum_band:
     sum_band:bec :      0.12s CPU      0.12s WALL (     870 calls)
     addusdens    :      0.07s CPU      0.08s WALL (       6 calls)

     Called by *egterg:
     h_psi        :    131.77s CPU    133.97s WALL (    3078 calls)
     s_psi        :      1.52s CPU      1.54s WALL (    3078 calls)
     g_psi        :      0.29s CPU      0.30s WALL (    2063 calls)
     cdiaghg      :     11.28s CPU     11.46s WALL (    2788 calls)
     cegterg:over :      5.55s CPU      5.62s WALL (    2063 calls)
     cegterg:upda :      2.39s CPU      2.40s WALL (    2063 calls)
     cegterg:last :      1.32s CPU      1.33s WALL (     870 calls)

     Called by h_psi:
     h_psi:vloc   :    126.73s CPU    128.83s WALL (    3078 calls)
     h_psi:vnl    :      4.75s CPU      4.84s WALL (    3078 calls)
     add_vuspsi   :      1.65s CPU      1.66s WALL (    3078 calls)

     General routines
     calbec       :      4.08s CPU      4.18s WALL (    3948 calls)
     fft          :      0.07s CPU      0.08s WALL (     116 calls)
     fftw         :    145.34s CPU    147.78s WALL (  393644 calls)
     davcio       :      0.03s CPU      0.20s WALL (     145 calls)
 
     Parallel routines
     fft_scatter  :    109.36s CPU    111.42s WALL (  393760 calls)

     PAW routines
     PAW_pot      :      0.63s CPU      0.69s WALL (       6 calls)
     PAW_symme    :      0.01s CPU      0.01s WALL (      12 calls)
 
     PWSCF        :  3m 9.56s CPU     3m14.65s WALL

 
   This run was terminated on:  19:59:49  15Mar2020            

=------------------------------------------------------------------------------=
   JOB DONE.
=------------------------------------------------------------------------------=
