
     Program PWSCF v.5.4.0 starts on  8Mar2020 at 21:10:51 

     This program is part of the open-source Quantum ESPRESSO suite
     for quantum simulation of materials; please cite
         "P. Giannozzi et al., J. Phys.:Condens. Matter 21 395502 (2009);
          URL http://www.quantum-espresso.org", 
     in publications or presentations arising from this work. More details at
     http://www.quantum-espresso.org/quote

     Parallel version (MPI & OpenMP), running on      16 processor cores
     Number of MPI processes:                16
     Threads/MPI process:                     1
     R & G space division:  proc/nbgrp/npool/nimage =      16
     Waiting for input...
     Reading input from standard input
Warning: card &IONS ignored
Warning: card / ignored
Warning: card &CELL ignored
Warning: card / ignored

     Current dimensions of program PWSCF are:
     Max number of different atomic species (ntypx) = 10
     Max number of k-points (npk) =  40000
     Max angular momentum in pseudopotentials (lmaxx) =  3
               file Sn.rel-pbe-dn-kjpaw_psl.1.0.0.UPF: wavefunction(s)  5S 5P 5P 4D 4D renormalized

     Subspace diagonalization in iterative solution of the eigenvalue problem:
     a serial algorithm will be used

 
     Parallelization info
     --------------------
     sticks:   dense  smooth     PW     G-vecs:    dense   smooth      PW
     Min          52      52     15                 1019     1019     168
     Max          53      53     16                 1023     1023     172
     Sum         847     847    253                16361    16361    2733
 

     Title: 
     Sn                                                                         


     bravais-lattice index     =            0
     lattice parameter (alat)  =       8.7524  a.u.
     unit-cell volume          =     474.0897 (a.u.)^3
     number of atoms/cell      =            2
     number of atomic types    =            1
     number of electrons       =        28.00
     number of Kohn-Sham states=           36
     kinetic-energy cutoff     =      40.0000  Ry
     charge density cutoff     =     160.0000  Ry
     convergence threshold     =      1.0E-06
     mixing beta               =       0.7000
     number of iterations used =            8  plain     mixing
     Exchange-correlation      =  SLA  PW   PBX  PBC ( 1  4  3  4 0 0)
     Non magnetic calculation with spin-orbit


     celldm(1)=   8.752360  celldm(2)=   0.000000  celldm(3)=   0.000000
     celldm(4)=   0.000000  celldm(5)=   0.000000  celldm(6)=   0.000000

     crystal axes: (cart. coord. in units of alat)
               a(1) = (   0.000000   0.707107   0.707107 )  
               a(2) = (   0.707107   0.000000   0.707107 )  
               a(3) = (   0.707107   0.707107   0.000000 )  

     reciprocal axes: (cart. coord. in units 2 pi/alat)
               b(1) = ( -0.707107  0.707107  0.707107 )  
               b(2) = (  0.707107 -0.707107  0.707107 )  
               b(3) = (  0.707107  0.707107 -0.707107 )  


     PseudoPot. # 1 for Sn read from file:
     ../PseudopotentialDatabase/Sn.rel-pbe-dn-kjpaw_psl.1.0.0.UPF
     MD5 check sum: 6bcaba2b82cf8d008985ef5bb9854e68
     Pseudo is Projector augmented-wave + core cor, Zval = 14.0
     Generated using "atomic" code by A. Dal Corso  v.6.3
     Shape of augmentation charge: PSQ
     Using radial grid of 1243 points, 10 beta functions with: 
                l(1) =   0
                l(2) =   0
                l(3) =   1
                l(4) =   1
                l(5) =   1
                l(6) =   1
                l(7) =   2
                l(8) =   2
                l(9) =   2
               l(10) =   2
     Q(r) pseudized with 0 coefficients 


     atomic species   valence    mass     pseudopotential
        Sn            14.00   118.71000     Sn( 1.00)

     48 Sym. Ops., with inversion, found (24 have fractional translation)


                                    s                        frac. trans.

      isym =  1     identity                                     

 cryst.   s( 1) = (     1          0          0      )
                  (     0          1          0      )
                  (     0          0          1      )

 cart.    s( 1) = (  1.0000000  0.0000000  0.0000000 )
                  (  0.0000000  1.0000000  0.0000000 )
                  (  0.0000000  0.0000000  1.0000000 )


      isym =  2     180 deg rotation - cart. axis [0,0,1]        

 cryst.   s( 2) = (     0          1         -1      )
                  (     1          0         -1      )
                  (     0          0         -1      )

 cart.    s( 2) = ( -1.0000000  0.0000000  0.0000000 )
                  (  0.0000000 -1.0000000  0.0000000 )
                  (  0.0000000  0.0000000  1.0000000 )


      isym =  3     180 deg rotation - cart. axis [0,1,0]        

 cryst.   s( 3) = (     0         -1          1      )
                  (     0         -1          0      )
                  (     1         -1          0      )

 cart.    s( 3) = ( -1.0000000  0.0000000  0.0000000 )
                  (  0.0000000  1.0000000  0.0000000 )
                  (  0.0000000  0.0000000 -1.0000000 )


      isym =  4     180 deg rotation - cart. axis [1,0,0]        

 cryst.   s( 4) = (    -1          0          0      )
                  (    -1          0          1      )
                  (    -1          1          0      )

 cart.    s( 4) = (  1.0000000  0.0000000  0.0000000 )
                  (  0.0000000 -1.0000000  0.0000000 )
                  (  0.0000000  0.0000000 -1.0000000 )


      isym =  5     180 deg rotation - cart. axis [1,1,0]        

 cryst.   s( 5) = (    -1          0          1      )    f =( -0.2500000 )
                  (     0         -1          1      )       ( -0.2500000 )
                  (     0          0          1      )       ( -0.2500000 )

 cart.    s( 5) = (  0.0000000  1.0000000  0.0000000 )    f =( -0.3535534 )
                  (  1.0000000  0.0000000  0.0000000 )       ( -0.3535534 )
                  (  0.0000000  0.0000000 -1.0000000 )       ( -0.3535534 )


      isym =  6     180 deg rotation - cart. axis [1,-1,0]       

 cryst.   s( 6) = (     0         -1          0      )    f =( -0.2500000 )
                  (    -1          0          0      )       ( -0.2500000 )
                  (     0          0         -1      )       ( -0.2500000 )

 cart.    s( 6) = (  0.0000000 -1.0000000  0.0000000 )    f =( -0.3535534 )
                  ( -1.0000000  0.0000000  0.0000000 )       ( -0.3535534 )
                  (  0.0000000  0.0000000 -1.0000000 )       ( -0.3535534 )


      isym =  7      90 deg rotation - cart. axis [0,0,-1]       

 cryst.   s( 7) = (     0          1          0      )    f =( -0.2500000 )
                  (     0          1         -1      )       ( -0.2500000 )
                  (    -1          1          0      )       ( -0.2500000 )

 cart.    s( 7) = (  0.0000000  1.0000000  0.0000000 )    f =( -0.3535534 )
                  ( -1.0000000  0.0000000  0.0000000 )       ( -0.3535534 )
                  (  0.0000000  0.0000000  1.0000000 )       ( -0.3535534 )


      isym =  8      90 deg rotation - cart. axis [0,0,1]        

 cryst.   s( 8) = (     1          0         -1      )    f =( -0.2500000 )
                  (     1          0          0      )       ( -0.2500000 )
                  (     1         -1          0      )       ( -0.2500000 )

 cart.    s( 8) = (  0.0000000 -1.0000000  0.0000000 )    f =( -0.3535534 )
                  (  1.0000000  0.0000000  0.0000000 )       ( -0.3535534 )
                  (  0.0000000  0.0000000  1.0000000 )       ( -0.3535534 )


      isym =  9     180 deg rotation - cart. axis [1,0,1]        

 cryst.   s( 9) = (    -1          1          0      )    f =( -0.2500000 )
                  (     0          1          0      )       ( -0.2500000 )
                  (     0          1         -1      )       ( -0.2500000 )

 cart.    s( 9) = (  0.0000000  0.0000000  1.0000000 )    f =( -0.3535534 )
                  (  0.0000000 -1.0000000  0.0000000 )       ( -0.3535534 )
                  (  1.0000000  0.0000000  0.0000000 )       ( -0.3535534 )


      isym = 10     180 deg rotation - cart. axis [-1,0,1]       

 cryst.   s(10) = (     0          0         -1      )    f =( -0.2500000 )
                  (     0         -1          0      )       ( -0.2500000 )
                  (    -1          0          0      )       ( -0.2500000 )

 cart.    s(10) = (  0.0000000  0.0000000 -1.0000000 )    f =( -0.3535534 )
                  (  0.0000000 -1.0000000  0.0000000 )       ( -0.3535534 )
                  ( -1.0000000  0.0000000  0.0000000 )       ( -0.3535534 )


      isym = 11      90 deg rotation - cart. axis [0,1,0]        

 cryst.   s(11) = (     0          0          1      )    f =( -0.2500000 )
                  (    -1          0          1      )       ( -0.2500000 )
                  (     0         -1          1      )       ( -0.2500000 )

 cart.    s(11) = (  0.0000000  0.0000000  1.0000000 )    f =( -0.3535534 )
                  (  0.0000000  1.0000000  0.0000000 )       ( -0.3535534 )
                  ( -1.0000000  0.0000000  0.0000000 )       ( -0.3535534 )


      isym = 12      90 deg rotation - cart. axis [0,-1,0]       

 cryst.   s(12) = (     1         -1          0      )    f =( -0.2500000 )
                  (     1          0         -1      )       ( -0.2500000 )
                  (     1          0          0      )       ( -0.2500000 )

 cart.    s(12) = (  0.0000000  0.0000000 -1.0000000 )    f =( -0.3535534 )
                  (  0.0000000  1.0000000  0.0000000 )       ( -0.3535534 )
                  (  1.0000000  0.0000000  0.0000000 )       ( -0.3535534 )


      isym = 13     180 deg rotation - cart. axis [0,1,1]        

 cryst.   s(13) = (     1          0          0      )    f =( -0.2500000 )
                  (     1         -1          0      )       ( -0.2500000 )
                  (     1          0         -1      )       ( -0.2500000 )

 cart.    s(13) = ( -1.0000000  0.0000000  0.0000000 )    f =( -0.3535534 )
                  (  0.0000000  0.0000000  1.0000000 )       ( -0.3535534 )
                  (  0.0000000  1.0000000  0.0000000 )       ( -0.3535534 )


      isym = 14     180 deg rotation - cart. axis [0,1,-1]       

 cryst.   s(14) = (    -1          0          0      )    f =( -0.2500000 )
                  (     0          0         -1      )       ( -0.2500000 )
                  (     0         -1          0      )       ( -0.2500000 )

 cart.    s(14) = ( -1.0000000  0.0000000  0.0000000 )    f =( -0.3535534 )
                  (  0.0000000  0.0000000 -1.0000000 )       ( -0.3535534 )
                  (  0.0000000 -1.0000000  0.0000000 )       ( -0.3535534 )


      isym = 15      90 deg rotation - cart. axis [-1,0,0]       

 cryst.   s(15) = (     0         -1          1      )    f =( -0.2500000 )
                  (     0          0          1      )       ( -0.2500000 )
                  (    -1          0          1      )       ( -0.2500000 )

 cart.    s(15) = (  1.0000000  0.0000000  0.0000000 )    f =( -0.3535534 )
                  (  0.0000000  0.0000000  1.0000000 )       ( -0.3535534 )
                  (  0.0000000 -1.0000000  0.0000000 )       ( -0.3535534 )


      isym = 16      90 deg rotation - cart. axis [1,0,0]        

 cryst.   s(16) = (     0          1         -1      )    f =( -0.2500000 )
                  (    -1          1          0      )       ( -0.2500000 )
                  (     0          1          0      )       ( -0.2500000 )

 cart.    s(16) = (  1.0000000  0.0000000  0.0000000 )    f =( -0.3535534 )
                  (  0.0000000  0.0000000 -1.0000000 )       ( -0.3535534 )
                  (  0.0000000  1.0000000  0.0000000 )       ( -0.3535534 )


      isym = 17     120 deg rotation - cart. axis [-1,-1,-1]     

 cryst.   s(17) = (     0          0          1      )
                  (     1          0          0      )
                  (     0          1          0      )

 cart.    s(17) = (  0.0000000  1.0000000  0.0000000 )
                  (  0.0000000  0.0000000  1.0000000 )
                  (  1.0000000  0.0000000  0.0000000 )


      isym = 18     120 deg rotation - cart. axis [-1,1,1]       

 cryst.   s(18) = (     1         -1          0      )
                  (     0         -1          1      )
                  (     0         -1          0      )

 cart.    s(18) = (  0.0000000 -1.0000000  0.0000000 )
                  (  0.0000000  0.0000000  1.0000000 )
                  ( -1.0000000  0.0000000  0.0000000 )


      isym = 19     120 deg rotation - cart. axis [1,1,-1]       

 cryst.   s(19) = (    -1          1          0      )
                  (    -1          0          0      )
                  (    -1          0          1      )

 cart.    s(19) = (  0.0000000  1.0000000  0.0000000 )
                  (  0.0000000  0.0000000 -1.0000000 )
                  ( -1.0000000  0.0000000  0.0000000 )


      isym = 20     120 deg rotation - cart. axis [1,-1,1]       

 cryst.   s(20) = (     0          0         -1      )
                  (     0          1         -1      )
                  (     1          0         -1      )

 cart.    s(20) = (  0.0000000 -1.0000000  0.0000000 )
                  (  0.0000000  0.0000000 -1.0000000 )
                  (  1.0000000  0.0000000  0.0000000 )


      isym = 21     120 deg rotation - cart. axis [1,1,1]        

 cryst.   s(21) = (     0          1          0      )
                  (     0          0          1      )
                  (     1          0          0      )

 cart.    s(21) = (  0.0000000  0.0000000  1.0000000 )
                  (  1.0000000  0.0000000  0.0000000 )
                  (  0.0000000  1.0000000  0.0000000 )


      isym = 22     120 deg rotation - cart. axis [-1,1,-1]      

 cryst.   s(22) = (    -1          0          1      )
                  (    -1          1          0      )
                  (    -1          0          0      )

 cart.    s(22) = (  0.0000000  0.0000000  1.0000000 )
                  ( -1.0000000  0.0000000  0.0000000 )
                  (  0.0000000 -1.0000000  0.0000000 )


      isym = 23     120 deg rotation - cart. axis [1,-1,-1]      

 cryst.   s(23) = (     1          0         -1      )
                  (     0          0         -1      )
                  (     0          1         -1      )

 cart.    s(23) = (  0.0000000  0.0000000 -1.0000000 )
                  ( -1.0000000  0.0000000  0.0000000 )
                  (  0.0000000  1.0000000  0.0000000 )


      isym = 24     120 deg rotation - cart. axis [-1,-1,1]      

 cryst.   s(24) = (     0         -1          0      )
                  (     1         -1          0      )
                  (     0         -1          1      )

 cart.    s(24) = (  0.0000000  0.0000000 -1.0000000 )
                  (  1.0000000  0.0000000  0.0000000 )
                  (  0.0000000 -1.0000000  0.0000000 )


      isym = 25     inversion                                    

 cryst.   s(25) = (    -1          0          0      )    f =( -0.2500000 )
                  (     0         -1          0      )       ( -0.2500000 )
                  (     0          0         -1      )       ( -0.2500000 )

 cart.    s(25) = ( -1.0000000  0.0000000  0.0000000 )    f =( -0.3535534 )
                  (  0.0000000 -1.0000000  0.0000000 )       ( -0.3535534 )
                  (  0.0000000  0.0000000 -1.0000000 )       ( -0.3535534 )


      isym = 26     inv. 180 deg rotation - cart. axis [0,0,1]   

 cryst.   s(26) = (     0         -1          1      )    f =( -0.2500000 )
                  (    -1          0          1      )       ( -0.2500000 )
                  (     0          0          1      )       ( -0.2500000 )

 cart.    s(26) = (  1.0000000  0.0000000  0.0000000 )    f =( -0.3535534 )
                  (  0.0000000  1.0000000  0.0000000 )       ( -0.3535534 )
                  (  0.0000000  0.0000000 -1.0000000 )       ( -0.3535534 )


      isym = 27     inv. 180 deg rotation - cart. axis [0,1,0]   

 cryst.   s(27) = (     0          1         -1      )    f =( -0.2500000 )
                  (     0          1          0      )       ( -0.2500000 )
                  (    -1          1          0      )       ( -0.2500000 )

 cart.    s(27) = (  1.0000000  0.0000000  0.0000000 )    f =( -0.3535534 )
                  (  0.0000000 -1.0000000  0.0000000 )       ( -0.3535534 )
                  (  0.0000000  0.0000000  1.0000000 )       ( -0.3535534 )


      isym = 28     inv. 180 deg rotation - cart. axis [1,0,0]   

 cryst.   s(28) = (     1          0          0      )    f =( -0.2500000 )
                  (     1          0         -1      )       ( -0.2500000 )
                  (     1         -1          0      )       ( -0.2500000 )

 cart.    s(28) = ( -1.0000000  0.0000000  0.0000000 )    f =( -0.3535534 )
                  (  0.0000000  1.0000000  0.0000000 )       ( -0.3535534 )
                  (  0.0000000  0.0000000  1.0000000 )       ( -0.3535534 )


      isym = 29     inv. 180 deg rotation - cart. axis [1,1,0]   

 cryst.   s(29) = (     1          0         -1      )
                  (     0          1         -1      )
                  (     0          0         -1      )

 cart.    s(29) = (  0.0000000 -1.0000000  0.0000000 )
                  ( -1.0000000  0.0000000  0.0000000 )
                  (  0.0000000  0.0000000  1.0000000 )


      isym = 30     inv. 180 deg rotation - cart. axis [1,-1,0]  

 cryst.   s(30) = (     0          1          0      )
                  (     1          0          0      )
                  (     0          0          1      )

 cart.    s(30) = (  0.0000000  1.0000000  0.0000000 )
                  (  1.0000000  0.0000000  0.0000000 )
                  (  0.0000000  0.0000000  1.0000000 )


      isym = 31     inv.  90 deg rotation - cart. axis [0,0,-1]  

 cryst.   s(31) = (     0         -1          0      )
                  (     0         -1          1      )
                  (     1         -1          0      )

 cart.    s(31) = (  0.0000000 -1.0000000  0.0000000 )
                  (  1.0000000  0.0000000  0.0000000 )
                  (  0.0000000  0.0000000 -1.0000000 )


      isym = 32     inv.  90 deg rotation - cart. axis [0,0,1]   

 cryst.   s(32) = (    -1          0          1      )
                  (    -1          0          0      )
                  (    -1          1          0      )

 cart.    s(32) = (  0.0000000  1.0000000  0.0000000 )
                  ( -1.0000000  0.0000000  0.0000000 )
                  (  0.0000000  0.0000000 -1.0000000 )


      isym = 33     inv. 180 deg rotation - cart. axis [1,0,1]   

 cryst.   s(33) = (     1         -1          0      )
                  (     0         -1          0      )
                  (     0         -1          1      )

 cart.    s(33) = (  0.0000000  0.0000000 -1.0000000 )
                  (  0.0000000  1.0000000  0.0000000 )
                  ( -1.0000000  0.0000000  0.0000000 )


      isym = 34     inv. 180 deg rotation - cart. axis [-1,0,1]  

 cryst.   s(34) = (     0          0          1      )
                  (     0          1          0      )
                  (     1          0          0      )

 cart.    s(34) = (  0.0000000  0.0000000  1.0000000 )
                  (  0.0000000  1.0000000  0.0000000 )
                  (  1.0000000  0.0000000  0.0000000 )


      isym = 35     inv.  90 deg rotation - cart. axis [0,1,0]   

 cryst.   s(35) = (     0          0         -1      )
                  (     1          0         -1      )
                  (     0          1         -1      )

 cart.    s(35) = (  0.0000000  0.0000000 -1.0000000 )
                  (  0.0000000 -1.0000000  0.0000000 )
                  (  1.0000000  0.0000000  0.0000000 )


      isym = 36     inv.  90 deg rotation - cart. axis [0,-1,0]  

 cryst.   s(36) = (    -1          1          0      )
                  (    -1          0          1      )
                  (    -1          0          0      )

 cart.    s(36) = (  0.0000000  0.0000000  1.0000000 )
                  (  0.0000000 -1.0000000  0.0000000 )
                  ( -1.0000000  0.0000000  0.0000000 )


      isym = 37     inv. 180 deg rotation - cart. axis [0,1,1]   

 cryst.   s(37) = (    -1          0          0      )
                  (    -1          1          0      )
                  (    -1          0          1      )

 cart.    s(37) = (  1.0000000  0.0000000  0.0000000 )
                  (  0.0000000  0.0000000 -1.0000000 )
                  (  0.0000000 -1.0000000  0.0000000 )


      isym = 38     inv. 180 deg rotation - cart. axis [0,1,-1]  

 cryst.   s(38) = (     1          0          0      )
                  (     0          0          1      )
                  (     0          1          0      )

 cart.    s(38) = (  1.0000000  0.0000000  0.0000000 )
                  (  0.0000000  0.0000000  1.0000000 )
                  (  0.0000000  1.0000000  0.0000000 )


      isym = 39     inv.  90 deg rotation - cart. axis [-1,0,0]  

 cryst.   s(39) = (     0          1         -1      )
                  (     0          0         -1      )
                  (     1          0         -1      )

 cart.    s(39) = ( -1.0000000  0.0000000  0.0000000 )
                  (  0.0000000  0.0000000 -1.0000000 )
                  (  0.0000000  1.0000000  0.0000000 )


      isym = 40     inv.  90 deg rotation - cart. axis [1,0,0]   

 cryst.   s(40) = (     0         -1          1      )
                  (     1         -1          0      )
                  (     0         -1          0      )

 cart.    s(40) = ( -1.0000000  0.0000000  0.0000000 )
                  (  0.0000000  0.0000000  1.0000000 )
                  (  0.0000000 -1.0000000  0.0000000 )


      isym = 41     inv. 120 deg rotation - cart. axis [-1,-1,-1]

 cryst.   s(41) = (     0          0         -1      )    f =( -0.2500000 )
                  (    -1          0          0      )       ( -0.2500000 )
                  (     0         -1          0      )       ( -0.2500000 )

 cart.    s(41) = (  0.0000000 -1.0000000  0.0000000 )    f =( -0.3535534 )
                  (  0.0000000  0.0000000 -1.0000000 )       ( -0.3535534 )
                  ( -1.0000000  0.0000000  0.0000000 )       ( -0.3535534 )


      isym = 42     inv. 120 deg rotation - cart. axis [-1,1,1]  

 cryst.   s(42) = (    -1          1          0      )    f =( -0.2500000 )
                  (     0          1         -1      )       ( -0.2500000 )
                  (     0          1          0      )       ( -0.2500000 )

 cart.    s(42) = (  0.0000000  1.0000000  0.0000000 )    f =( -0.3535534 )
                  (  0.0000000  0.0000000 -1.0000000 )       ( -0.3535534 )
                  (  1.0000000  0.0000000  0.0000000 )       ( -0.3535534 )


      isym = 43     inv. 120 deg rotation - cart. axis [1,1,-1]  

 cryst.   s(43) = (     1         -1          0      )    f =( -0.2500000 )
                  (     1          0          0      )       ( -0.2500000 )
                  (     1          0         -1      )       ( -0.2500000 )

 cart.    s(43) = (  0.0000000 -1.0000000  0.0000000 )    f =( -0.3535534 )
                  (  0.0000000  0.0000000  1.0000000 )       ( -0.3535534 )
                  (  1.0000000  0.0000000  0.0000000 )       ( -0.3535534 )


      isym = 44     inv. 120 deg rotation - cart. axis [1,-1,1]  

 cryst.   s(44) = (     0          0          1      )    f =( -0.2500000 )
                  (     0         -1          1      )       ( -0.2500000 )
                  (    -1          0          1      )       ( -0.2500000 )

 cart.    s(44) = (  0.0000000  1.0000000  0.0000000 )    f =( -0.3535534 )
                  (  0.0000000  0.0000000  1.0000000 )       ( -0.3535534 )
                  ( -1.0000000  0.0000000  0.0000000 )       ( -0.3535534 )


      isym = 45     inv. 120 deg rotation - cart. axis [1,1,1]   

 cryst.   s(45) = (     0         -1          0      )    f =( -0.2500000 )
                  (     0          0         -1      )       ( -0.2500000 )
                  (    -1          0          0      )       ( -0.2500000 )

 cart.    s(45) = (  0.0000000  0.0000000 -1.0000000 )    f =( -0.3535534 )
                  ( -1.0000000  0.0000000  0.0000000 )       ( -0.3535534 )
                  (  0.0000000 -1.0000000  0.0000000 )       ( -0.3535534 )


      isym = 46     inv. 120 deg rotation - cart. axis [-1,1,-1] 

 cryst.   s(46) = (     1          0         -1      )    f =( -0.2500000 )
                  (     1         -1          0      )       ( -0.2500000 )
                  (     1          0          0      )       ( -0.2500000 )

 cart.    s(46) = (  0.0000000  0.0000000 -1.0000000 )    f =( -0.3535534 )
                  (  1.0000000  0.0000000  0.0000000 )       ( -0.3535534 )
                  (  0.0000000  1.0000000  0.0000000 )       ( -0.3535534 )


      isym = 47     inv. 120 deg rotation - cart. axis [1,-1,-1] 

 cryst.   s(47) = (    -1          0          1      )    f =( -0.2500000 )
                  (     0          0          1      )       ( -0.2500000 )
                  (     0         -1          1      )       ( -0.2500000 )

 cart.    s(47) = (  0.0000000  0.0000000  1.0000000 )    f =( -0.3535534 )
                  (  1.0000000  0.0000000  0.0000000 )       ( -0.3535534 )
                  (  0.0000000 -1.0000000  0.0000000 )       ( -0.3535534 )


      isym = 48     inv. 120 deg rotation - cart. axis [-1,-1,1] 

 cryst.   s(48) = (     0          1          0      )    f =( -0.2500000 )
                  (    -1          1          0      )       ( -0.2500000 )
                  (     0          1         -1      )       ( -0.2500000 )

 cart.    s(48) = (  0.0000000  0.0000000  1.0000000 )    f =( -0.3535534 )
                  ( -1.0000000  0.0000000  0.0000000 )       ( -0.3535534 )
                  (  0.0000000  1.0000000  0.0000000 )       ( -0.3535534 )


   Cartesian axes

     site n.     atom                  positions (alat units)
         1           Sn  tau(   1) = (   0.0000000   0.0000000   0.0000000  )
         2           Sn  tau(   2) = (   0.3535534   0.3535534   0.3535534  )

   Crystallographic axes

     site n.     atom                  positions (cryst. coord.)
         1           Sn  tau(   1) = (  0.0000000  0.0000000  0.0000000  )
         2           Sn  tau(   2) = (  0.2500000  0.2500000  0.2500000  )

     number of k points=    47  gaussian smearing, width (Ry)=  0.0001
                       cart. coord. in units 2pi/alat
        k(    1) = (   0.0000000   0.0000000   0.0000000), wk =   0.0010000
        k(    2) = (   0.0707107   0.0707107  -0.0707107), wk =   0.0080000
        k(    3) = (   0.1414214   0.1414214  -0.1414214), wk =   0.0080000
        k(    4) = (   0.2121320   0.2121320  -0.2121320), wk =   0.0080000
        k(    5) = (   0.2828427   0.2828427  -0.2828427), wk =   0.0080000
        k(    6) = (  -0.3535534  -0.3535534   0.3535534), wk =   0.0040000
        k(    7) = (   0.1414214   0.0000000   0.0000000), wk =   0.0060000
        k(    8) = (   0.2121320   0.0707107  -0.0707107), wk =   0.0240000
        k(    9) = (   0.2828427   0.1414214  -0.1414214), wk =   0.0240000
        k(   10) = (   0.3535534   0.2121320  -0.2121320), wk =   0.0240000
        k(   11) = (  -0.2828427  -0.4242641   0.4242641), wk =   0.0240000
        k(   12) = (  -0.2121320  -0.3535534   0.3535534), wk =   0.0240000
        k(   13) = (  -0.1414214  -0.2828427   0.2828427), wk =   0.0240000
        k(   14) = (  -0.0707107  -0.2121320   0.2121320), wk =   0.0240000
        k(   15) = (   0.0000000  -0.1414214   0.1414214), wk =   0.0120000
        k(   16) = (   0.2828427   0.0000000   0.0000000), wk =   0.0060000
        k(   17) = (   0.3535534   0.0707107  -0.0707107), wk =   0.0240000
        k(   18) = (   0.4242641   0.1414214  -0.1414214), wk =   0.0240000
        k(   19) = (  -0.2121320  -0.4949747   0.4949747), wk =   0.0240000
        k(   20) = (  -0.1414214  -0.4242641   0.4242641), wk =   0.0240000
        k(   21) = (  -0.0707107  -0.3535534   0.3535534), wk =   0.0240000
        k(   22) = (   0.0000000  -0.2828427   0.2828427), wk =   0.0120000
        k(   23) = (   0.4242641   0.0000000   0.0000000), wk =   0.0060000
        k(   24) = (   0.4949747   0.0707107  -0.0707107), wk =   0.0240000
        k(   25) = (  -0.1414214  -0.5656854   0.5656854), wk =   0.0240000
        k(   26) = (  -0.0707107  -0.4949747   0.4949747), wk =   0.0240000
        k(   27) = (  -0.0000000  -0.4242641   0.4242641), wk =   0.0120000
        k(   28) = (   0.5656854   0.0000000   0.0000000), wk =   0.0060000
        k(   29) = (  -0.0707107  -0.6363961   0.6363961), wk =   0.0240000
        k(   30) = (   0.0000000  -0.5656854   0.5656854), wk =   0.0120000
        k(   31) = (  -0.7071068   0.0000000   0.0000000), wk =   0.0030000
        k(   32) = (   0.2828427   0.1414214   0.0000000), wk =   0.0240000
        k(   33) = (   0.3535534   0.2121320  -0.0707107), wk =   0.0480000
        k(   34) = (  -0.2828427  -0.4242641   0.5656854), wk =   0.0480000
        k(   35) = (  -0.2121320  -0.3535534   0.4949747), wk =   0.0240000
        k(   36) = (   0.4242641   0.1414214  -0.0000000), wk =   0.0240000
        k(   37) = (  -0.2121320  -0.4949747   0.6363961), wk =   0.0480000
        k(   38) = (  -0.1414214  -0.4242641   0.5656854), wk =   0.0480000
        k(   39) = (  -0.0707107  -0.3535534   0.4949747), wk =   0.0480000
        k(   40) = (   0.0000000  -0.2828427   0.4242641), wk =   0.0240000
        k(   41) = (  -0.1414214  -0.5656854   0.7071068), wk =   0.0240000
        k(   42) = (  -0.0707107  -0.4949747   0.6363961), wk =   0.0480000
        k(   43) = (  -0.0000000  -0.4242641   0.5656854), wk =   0.0240000
        k(   44) = (  -0.7071068   0.1414214   0.0000000), wk =   0.0120000
        k(   45) = (  -0.1414214  -0.4242641   0.7071068), wk =   0.0240000
        k(   46) = (  -0.0707107  -0.3535534   0.6363961), wk =   0.0240000
        k(   47) = (  -0.7071068   0.2828427   0.0000000), wk =   0.0120000

                       cryst. coord.
        k(    1) = (   0.0000000   0.0000000   0.0000000), wk =   0.0010000
        k(    2) = (   0.0000000   0.0000000   0.1000000), wk =   0.0080000
        k(    3) = (   0.0000000   0.0000000   0.2000000), wk =   0.0080000
        k(    4) = (   0.0000000   0.0000000   0.3000000), wk =   0.0080000
        k(    5) = (   0.0000000   0.0000000   0.4000000), wk =   0.0080000
        k(    6) = (   0.0000000   0.0000000  -0.5000000), wk =   0.0040000
        k(    7) = (   0.0000000   0.1000000   0.1000000), wk =   0.0060000
        k(    8) = (   0.0000000   0.1000000   0.2000000), wk =   0.0240000
        k(    9) = (   0.0000000   0.1000000   0.3000000), wk =   0.0240000
        k(   10) = (   0.0000000   0.1000000   0.4000000), wk =   0.0240000
        k(   11) = (   0.0000000   0.1000000  -0.5000000), wk =   0.0240000
        k(   12) = (   0.0000000   0.1000000  -0.4000000), wk =   0.0240000
        k(   13) = (   0.0000000   0.1000000  -0.3000000), wk =   0.0240000
        k(   14) = (   0.0000000   0.1000000  -0.2000000), wk =   0.0240000
        k(   15) = (   0.0000000   0.1000000  -0.1000000), wk =   0.0120000
        k(   16) = (   0.0000000   0.2000000   0.2000000), wk =   0.0060000
        k(   17) = (   0.0000000   0.2000000   0.3000000), wk =   0.0240000
        k(   18) = (   0.0000000   0.2000000   0.4000000), wk =   0.0240000
        k(   19) = (   0.0000000   0.2000000  -0.5000000), wk =   0.0240000
        k(   20) = (   0.0000000   0.2000000  -0.4000000), wk =   0.0240000
        k(   21) = (   0.0000000   0.2000000  -0.3000000), wk =   0.0240000
        k(   22) = (   0.0000000   0.2000000  -0.2000000), wk =   0.0120000
        k(   23) = (   0.0000000   0.3000000   0.3000000), wk =   0.0060000
        k(   24) = (   0.0000000   0.3000000   0.4000000), wk =   0.0240000
        k(   25) = (   0.0000000   0.3000000  -0.5000000), wk =   0.0240000
        k(   26) = (   0.0000000   0.3000000  -0.4000000), wk =   0.0240000
        k(   27) = (   0.0000000   0.3000000  -0.3000000), wk =   0.0120000
        k(   28) = (   0.0000000   0.4000000   0.4000000), wk =   0.0060000
        k(   29) = (   0.0000000   0.4000000  -0.5000000), wk =   0.0240000
        k(   30) = (   0.0000000   0.4000000  -0.4000000), wk =   0.0120000
        k(   31) = (   0.0000000  -0.5000000  -0.5000000), wk =   0.0030000
        k(   32) = (   0.1000000   0.2000000   0.3000000), wk =   0.0240000
        k(   33) = (   0.1000000   0.2000000   0.4000000), wk =   0.0480000
        k(   34) = (   0.1000000   0.2000000  -0.5000000), wk =   0.0480000
        k(   35) = (   0.1000000   0.2000000  -0.4000000), wk =   0.0240000
        k(   36) = (   0.1000000   0.3000000   0.4000000), wk =   0.0240000
        k(   37) = (   0.1000000   0.3000000  -0.5000000), wk =   0.0480000
        k(   38) = (   0.1000000   0.3000000  -0.4000000), wk =   0.0480000
        k(   39) = (   0.1000000   0.3000000  -0.3000000), wk =   0.0480000
        k(   40) = (   0.1000000   0.3000000  -0.2000000), wk =   0.0240000
        k(   41) = (   0.1000000   0.4000000  -0.5000000), wk =   0.0240000
        k(   42) = (   0.1000000   0.4000000  -0.4000000), wk =   0.0480000
        k(   43) = (   0.1000000   0.4000000  -0.3000000), wk =   0.0240000
        k(   44) = (   0.1000000  -0.5000000  -0.4000000), wk =   0.0120000
        k(   45) = (   0.2000000   0.4000000  -0.4000000), wk =   0.0240000
        k(   46) = (   0.2000000   0.4000000  -0.3000000), wk =   0.0240000
        k(   47) = (   0.2000000  -0.5000000  -0.3000000), wk =   0.0120000

     Dense  grid:    16361 G-vectors     FFT dimensions: (  36,  36,  36)

     Largest allocated arrays     est. size (Mb)     dimensions
        Kohn-Sham Wavefunctions         0.15 Mb     (     268,   36)
        NL pseudopotentials             0.14 Mb     (     134,   68)
        Each V/rho on FFT grid          0.06 Mb     (    3888)
        Each G-vector array             0.01 Mb     (    1023)
        G-vector shells                 0.00 Mb     (     191)
     Largest temporary arrays     est. size (Mb)     dimensions
        Auxiliary wavefunctions         0.59 Mb     (     268,  144)
        Each subspace H/S matrix        0.32 Mb     (     144,  144)
        Each <psi_i|beta_j> matrix      0.07 Mb     (      68,   2,   36)
        Arrays for rho mixing           0.47 Mb     (    3888,    8)

     Check: negative/imaginary core charge=   -0.000003    0.000000

     Initial potential from superposition of free atoms

     starting charge   27.99781, renormalised to   28.00000
     Starting wfc are   36 randomized atomic wfcs
     Checking if some PAW data can be deallocated... 

     total cpu time spent up to now is        3.6 secs

     Self-consistent Calculation

     iteration #  1     ecut=    40.00 Ry     beta=0.70
     Davidson diagonalization with overlap
     ethr =  1.00E-02,  avg # of iterations =  3.4

     Threshold (ethr) on eigenvalues was too large:
     Diagonalizing with lowered threshold

     Davidson diagonalization with overlap
     ethr =  6.06E-05,  avg # of iterations =  3.4

     total cpu time spent up to now is       16.1 secs

     total energy              =    -885.82638773 Ry
     Harris-Foulkes estimate   =    -885.82822952 Ry
     estimated scf accuracy    <       0.02052012 Ry

     iteration #  2     ecut=    40.00 Ry     beta=0.70
     Davidson diagonalization with overlap
     ethr =  7.33E-05,  avg # of iterations =  1.0

     total cpu time spent up to now is       20.8 secs

     total energy              =    -885.82774016 Ry
     Harris-Foulkes estimate   =    -885.82780251 Ry
     estimated scf accuracy    <       0.00186519 Ry

     iteration #  3     ecut=    40.00 Ry     beta=0.70
     Davidson diagonalization with overlap
     ethr =  6.66E-06,  avg # of iterations =  2.2

     total cpu time spent up to now is       27.3 secs

     total energy              =    -885.82809716 Ry
     Harris-Foulkes estimate   =    -885.82812544 Ry
     estimated scf accuracy    <       0.00008498 Ry

     iteration #  4     ecut=    40.00 Ry     beta=0.70
     Davidson diagonalization with overlap
     ethr =  3.03E-07,  avg # of iterations =  2.1

     total cpu time spent up to now is       33.5 secs

     total energy              =    -885.82812426 Ry
     Harris-Foulkes estimate   =    -885.82812252 Ry
     estimated scf accuracy    <       0.00000474 Ry

     iteration #  5     ecut=    40.00 Ry     beta=0.70
     Davidson diagonalization with overlap
     ethr =  1.69E-08,  avg # of iterations =  2.0

     total cpu time spent up to now is       38.9 secs

     End of self-consistent calculation

          k = 0.0000 0.0000 0.0000 (  2085 PWs)   bands (ev):

   -14.5621 -14.5621 -14.5621 -14.5621 -14.4671 -14.4671 -14.4671 -14.4671
   -13.6503 -13.6503 -13.4492 -13.4492 -13.4492 -13.4492 -13.4046 -13.4046
   -13.4046 -13.4046 -13.2893 -13.2893  -2.8495  -2.8495   6.7537   6.7537
     7.1939   7.1939   7.8618   7.8618   7.8618   7.8618   9.4029   9.4029
     9.8752   9.8752   9.8752   9.8752

     occupation numbers 
     1.0000   1.0000   1.0000   1.0000   1.0000   1.0000   1.0000   1.0000
     1.0000   1.0000   1.0000   1.0000   1.0000   1.0000   1.0000   1.0000
     1.0000   1.0000   1.0000   1.0000   1.0000   1.0000   1.0000   1.0000
     1.0000   1.0000   0.0000   0.0000   0.0000   0.0000   0.0000   0.0000
     0.0000   0.0000   0.0000   0.0000

          k = 0.0707 0.0707-0.0707 (  2031 PWs)   bands (ev):

   -14.5566 -14.5566 -14.5497 -14.5497 -14.4633 -14.4633 -14.4588 -14.4588
   -13.6360 -13.6360 -13.4547 -13.4547 -13.4514 -13.4514 -13.3889 -13.3889
   -13.3886 -13.3886 -13.2841 -13.2841  -2.7556  -2.7556   5.6932   5.6932
     7.2028   7.2028   7.6700   7.6700   8.0790   8.0790   9.7838   9.7838
    10.1215  10.1216  10.1771  10.1771

     occupation numbers 
     1.0000   1.0000   1.0000   1.0000   1.0000   1.0000   1.0000   1.0000
     1.0000   1.0000   1.0000   1.0000   1.0000   1.0000   1.0000   1.0000
     1.0000   1.0000   1.0000   1.0000   1.0000   1.0000   1.0000   1.0000
     1.0000   1.0000   0.0000   0.0000   0.0000   0.0000   0.0000   0.0000
     0.0000   0.0000   0.0000   0.0000

          k = 0.1414 0.1414-0.1414 (  2012 PWs)   bands (ev):

   -14.5545 -14.5545 -14.5402 -14.5402 -14.4673 -14.4673 -14.4539 -14.4539
   -13.6183 -13.6183 -13.4759 -13.4759 -13.4623 -13.4623 -13.3692 -13.3692
   -13.3682 -13.3682 -13.2900 -13.2900  -2.4800  -2.4800   4.2478   4.2478
     6.8659   6.8659   7.3018   7.3018   7.9845   7.9845  10.2653  10.2653
    10.5742  10.5742  11.3065  11.3065

     occupation numbers 
     1.0000   1.0000   1.0000   1.0000   1.0000   1.0000   1.0000   1.0000
     1.0000   1.0000   1.0000   1.0000   1.0000   1.0000   1.0000   1.0000
     1.0000   1.0000   1.0000   1.0000   1.0000   1.0000   1.0000   1.0000
     1.0000   1.0000   1.0000   1.0000   0.0000   0.0000   0.0000   0.0000
     0.0000   0.0000   0.0000   0.0000

          k = 0.2121 0.2121-0.2121 (  2012 PWs)   bands (ev):

   -14.5579 -14.5579 -14.5285 -14.5285 -14.4775 -14.4775 -14.4479 -14.4479
   -13.5964 -13.5964 -13.5016 -13.5016 -13.4734 -13.4734 -13.3549 -13.3549
   -13.3513 -13.3513 -13.3026 -13.3026  -2.0492  -2.0492   2.9015   2.9015
     6.5438   6.5438   6.9722   6.9722   7.7492   7.7492  10.5758  10.5758
    10.8524  10.8524  12.7163  12.7163

     occupation numbers 
     1.0000   1.0000   1.0000   1.0000   1.0000   1.0000   1.0000   1.0000
     1.0000   1.0000   1.0000   1.0000   1.0000   1.0000   1.0000   1.0000
     1.0000   1.0000   1.0000   1.0000   1.0000   1.0000   1.0000   1.0000
     1.0000   1.0000   1.0000   1.0000   0.0000   0.0000   0.0000   0.0000
     0.0000   0.0000   0.0000   0.0000

          k = 0.2828 0.2828-0.2828 (  2033 PWs)   bands (ev):

   -14.5627 -14.5627 -14.5240 -14.5240 -14.4891 -14.4891 -14.4447 -14.4447
   -13.5769 -13.5769 -13.5282 -13.5282 -13.4836 -13.4836 -13.3482 -13.3482
   -13.3413 -13.3413 -13.3158 -13.3158  -1.5534  -1.5534   1.8343   1.8343
     6.3322   6.3322   6.7580   6.7580   7.5752   7.5752  10.6704  10.6704
    10.9015  10.9015  13.3825  13.3825

     occupation numbers 
     1.0000   1.0000   1.0000   1.0000   1.0000   1.0000   1.0000   1.0000
     1.0000   1.0000   1.0000   1.0000   1.0000   1.0000   1.0000   1.0000
     1.0000   1.0000   1.0000   1.0000   1.0000   1.0000   1.0000   1.0000
     1.0000   1.0000   1.0000   1.0000   0.6250   0.6250   0.0000   0.0000
     0.0000   0.0000   0.0000   0.0000

          k =-0.3536-0.3536 0.3536 (  2036 PWs)   bands (ev):

   -14.5648 -14.5648 -14.5147 -14.5147 -14.4959 -14.4959 -14.4465 -14.4465
   -13.5572 -13.5572 -13.5460 -13.5460 -13.4871 -13.4871 -13.3473 -13.3473
   -13.3308 -13.3308 -13.3267 -13.3267  -1.2841  -1.2841   1.3714   1.3714
     6.2594   6.2594   6.6846   6.6846   7.5139   7.5139  10.6776  10.6776
    10.8911  10.8911  13.3114  13.3114

     occupation numbers 
     1.0000   1.0000   1.0000   1.0000   1.0000   1.0000   1.0000   1.0000
     1.0000   1.0000   1.0000   1.0000   1.0000   1.0000   1.0000   1.0000
     1.0000   1.0000   1.0000   1.0000   1.0000   1.0000   1.0000   1.0000
     1.0000   1.0000   1.0000   1.0000   1.0000   1.0000   0.0000   0.0000
     0.0000   0.0000   0.0000   0.0000

          k = 0.1414 0.0000 0.0000 (  2025 PWs)   bands (ev):

   -14.5525 -14.5525 -14.5511 -14.5511 -14.4631 -14.4631 -14.4597 -14.4597
   -13.6332 -13.6332 -13.4615 -13.4615 -13.4503 -13.4503 -13.3883 -13.3883
   -13.3803 -13.3803 -13.2849 -13.2849  -2.7239  -2.7239   5.5872   5.5872
     6.9775   6.9775   7.2742   7.2742   8.7463   8.7463   9.3504   9.3504
    10.3345  10.3346  10.4583  10.4583

     occupation numbers 
     1.0000   1.0000   1.0000   1.0000   1.0000   1.0000   1.0000   1.0000
     1.0000   1.0000   1.0000   1.0000   1.0000   1.0000   1.0000   1.0000
     1.0000   1.0000   1.0000   1.0000   1.0000   1.0000   1.0000   1.0000
     1.0000   1.0000   1.0000   1.0000   0.0000   0.0000   0.0000   0.0000
     0.0000   0.0000   0.0000   0.0000

          k = 0.2121 0.0707-0.0707 (  2015 PWs)   bands (ev):

   -14.5538 -14.5538 -14.5434 -14.5434 -14.4651 -14.4651 -14.4557 -14.4557
   -13.6195 -13.6195 -13.4794 -13.4794 -13.4570 -13.4570 -13.3760 -13.3760
   -13.3664 -13.3664 -13.2889 -13.2889  -2.5073  -2.5073   4.5168   4.5168
     6.6083   6.6083   6.8845   6.8845   8.9161   8.9161   9.5236   9.5236
    10.9245  10.9245  11.1974  11.1974

     occupation numbers 
     1.0000   1.0000   1.0000   1.0000   1.0000   1.0000   1.0000   1.0000
     1.0000   1.0000   1.0000   1.0000   1.0000   1.0000   1.0000   1.0000
     1.0000   1.0000   1.0000   1.0000   1.0000   1.0000   1.0000   1.0000
     1.0000   1.0000   1.0000   1.0000   0.0000   0.0000   0.0000   0.0000
     0.0000   0.0000   0.0000   0.0000

          k = 0.2828 0.1414-0.1414 (  2013 PWs)   bands (ev):

   -14.5555 -14.5555 -14.5334 -14.5334 -14.4744 -14.4744 -14.4492 -14.4492
   -13.5991 -13.5991 -13.5000 -13.5000 -13.4684 -13.4684 -13.3684 -13.3684
   -13.3477 -13.3477 -13.2974 -13.2974  -2.1231  -2.1231   3.2417   3.2417
     6.2177   6.2177   6.5426   6.5426   8.6932   8.6932  10.0744  10.0744
    11.2743  11.2743  11.9766  11.9766

     occupation numbers 
     1.0000   1.0000   1.0000   1.0000   1.0000   1.0000   1.0000   1.0000
     1.0000   1.0000   1.0000   1.0000   1.0000   1.0000   1.0000   1.0000
     1.0000   1.0000   1.0000   1.0000   1.0000   1.0000   1.0000   1.0000
     1.0000   1.0000   1.0000   1.0000   0.0000   0.0000   0.0000   0.0000
     0.0000   0.0000   0.0000   0.0000

          k = 0.3536 0.2121-0.2121 (  2027 PWs)   bands (ev):

   -14.5597 -14.5597 -14.5254 -14.5254 -14.4863 -14.4863 -14.4463 -14.4463
   -13.5804 -13.5804 -13.5203 -13.5203 -13.4783 -13.4783 -13.3663 -13.3663
   -13.3362 -13.3362 -13.3055 -13.3055  -1.6298  -1.6298   2.1092   2.1092
     5.8901   5.8901   6.3471   6.3471   8.4654   8.4654  10.4419  10.4419
    11.2919  11.2919  12.7833  12.7833

     occupation numbers 
     1.0000   1.0000   1.0000   1.0000   1.0000   1.0000   1.0000   1.0000
     1.0000   1.0000   1.0000   1.0000   1.0000   1.0000   1.0000   1.0000
     1.0000   1.0000   1.0000   1.0000   1.0000   1.0000   1.0000   1.0000
     1.0000   1.0000   1.0000   1.0000   0.0000   0.0000   0.0000   0.0000
     0.0000   0.0000   0.0000   0.0000

          k =-0.2828-0.4243 0.4243 (  2019 PWs)   bands (ev):

   -14.5606 -14.5606 -14.5142 -14.5142 -14.4940 -14.4940 -14.4425 -14.4425
   -13.5595 -13.5595 -13.5360 -13.5360 -13.4833 -13.4833 -13.3637 -13.3637
   -13.3288 -13.3288 -13.3074 -13.3074  -1.2321  -1.2321   1.4099   1.4099
     5.6786   5.6786   6.3279   6.3279   8.3325   8.3325  10.6012  10.6012
    11.1542  11.1542  13.5101  13.5101

     occupation numbers 
     1.0000   1.0000   1.0000   1.0000   1.0000   1.0000   1.0000   1.0000
     1.0000   1.0000   1.0000   1.0000   1.0000   1.0000   1.0000   1.0000
     1.0000   1.0000   1.0000   1.0000   1.0000   1.0000   1.0000   1.0000
     1.0000   1.0000   1.0000   1.0000   0.0000   0.0000   0.0000   0.0000
     0.0000   0.0000   0.0000   0.0000

          k =-0.2121-0.3536 0.3536 (  2018 PWs)   bands (ev):

   -14.5602 -14.5602 -14.5173 -14.5173 -14.4909 -14.4909 -14.4426 -14.4426
   -13.5661 -13.5661 -13.5314 -13.5314 -13.4806 -13.4806 -13.3652 -13.3652
   -13.3283 -13.3283 -13.3067 -13.3067  -1.3309  -1.3309   1.5711   1.5711
     5.6184   5.6184   6.4732   6.4732   8.3185   8.3185  10.7312  10.7312
    11.0072  11.0072  13.5691  13.5691

     occupation numbers 
     1.0000   1.0000   1.0000   1.0000   1.0000   1.0000   1.0000   1.0000
     1.0000   1.0000   1.0000   1.0000   1.0000   1.0000   1.0000   1.0000
     1.0000   1.0000   1.0000   1.0000   1.0000   1.0000   1.0000   1.0000
     1.0000   1.0000   1.0000   1.0000   0.0000   0.0000   0.0000   0.0000
     0.0000   0.0000   0.0000   0.0000

          k =-0.1414-0.2828 0.2828 (  2026 PWs)   bands (ev):

   -14.5599 -14.5599 -14.5270 -14.5270 -14.4834 -14.4834 -14.4476 -14.4476
   -13.5866 -13.5866 -13.5152 -13.5152 -13.4754 -13.4754 -13.3704 -13.3704
   -13.3375 -13.3375 -13.3041 -13.3041  -1.8014  -1.8014   2.4606   2.4606
     5.7332   5.7332   6.7565   6.7565   8.4143   8.4143  10.7071  10.7071
    10.9387  10.9387  12.7319  12.7319

     occupation numbers 
     1.0000   1.0000   1.0000   1.0000   1.0000   1.0000   1.0000   1.0000
     1.0000   1.0000   1.0000   1.0000   1.0000   1.0000   1.0000   1.0000
     1.0000   1.0000   1.0000   1.0000   1.0000   1.0000   1.0000   1.0000
     1.0000   1.0000   1.0000   1.0000   0.0000   0.0000   0.0000   0.0000
     0.0000   0.0000   0.0000   0.0000

          k =-0.0707-0.2121 0.2121 (  2018 PWs)   bands (ev):

   -14.5555 -14.5555 -14.5370 -14.5370 -14.4728 -14.4728 -14.4514 -14.4514
   -13.6073 -13.6073 -13.4937 -13.4937 -13.4643 -13.4643 -13.3745 -13.3745
   -13.3509 -13.3509 -13.2958 -13.2958  -2.2695  -2.2695   3.6543   3.6543
     6.0492   6.0492   7.1232   7.1232   8.5575   8.5575  10.3693  10.3693
    10.6935  10.6935  11.8039  11.8039

     occupation numbers 
     1.0000   1.0000   1.0000   1.0000   1.0000   1.0000   1.0000   1.0000
     1.0000   1.0000   1.0000   1.0000   1.0000   1.0000   1.0000   1.0000
     1.0000   1.0000   1.0000   1.0000   1.0000   1.0000   1.0000   1.0000
     1.0000   1.0000   1.0000   1.0000   0.0000   0.0000   0.0000   0.0000
     0.0000   0.0000   0.0000   0.0000

          k = 0.0000-0.1414 0.1414 (  2019 PWs)   bands (ev):

   -14.5545 -14.5545 -14.5447 -14.5447 -14.4657 -14.4657 -14.4567 -14.4567
   -13.6254 -13.6254 -13.4715 -13.4715 -13.4552 -13.4552 -13.3821 -13.3821
   -13.3693 -13.3693 -13.2877 -13.2877  -2.6005  -2.6005   4.8636   4.8636
     6.6173   6.6173   7.4497   7.4497   8.5063   8.5063   9.9587   9.9587
    10.1803  10.1803  11.0359  11.0359

     occupation numbers 
     1.0000   1.0000   1.0000   1.0000   1.0000   1.0000   1.0000   1.0000
     1.0000   1.0000   1.0000   1.0000   1.0000   1.0000   1.0000   1.0000
     1.0000   1.0000   1.0000   1.0000   1.0000   1.0000   1.0000   1.0000
     1.0000   1.0000   1.0000   1.0000   0.0000   0.0000   0.0000   0.0000
     0.0000   0.0000   0.0000   0.0000

          k = 0.2828 0.0000 0.0000 (  2009 PWs)   bands (ev):

   -14.5490 -14.5490 -14.5429 -14.5429 -14.4662 -14.4662 -14.4561 -14.4561
   -13.6088 -13.6088 -13.4906 -13.4906 -13.4602 -13.4602 -13.3695 -13.3695
   -13.3632 -13.3632 -13.2897 -13.2897  -2.3496  -2.3496   4.1250   4.1250
     6.2737   6.2737   6.4303   6.4303   8.8148   8.8148   9.6582   9.6582
    11.6227  11.6227  11.6297  11.6297

     occupation numbers 
     1.0000   1.0000   1.0000   1.0000   1.0000   1.0000   1.0000   1.0000
     1.0000   1.0000   1.0000   1.0000   1.0000   1.0000   1.0000   1.0000
     1.0000   1.0000   1.0000   1.0000   1.0000   1.0000   1.0000   1.0000
     1.0000   1.0000   1.0000   1.0000   0.0000   0.0000   0.0000   0.0000
     0.0000   0.0000   0.0000   0.0000

          k = 0.3536 0.0707-0.0707 (  2018 PWs)   bands (ev):

   -14.5520 -14.5520 -14.5380 -14.5380 -14.4739 -14.4739 -14.4527 -14.4527
   -13.5949 -13.5949 -13.5064 -13.5064 -13.4673 -13.4673 -13.3747 -13.3747
   -13.3478 -13.3478 -13.2943 -13.2943  -2.0169  -2.0169   3.2246   3.2246
     5.8427   5.8427   6.0850   6.0850   8.8944   8.8944   9.7394   9.7394
    11.8976  11.8976  12.1503  12.1503

     occupation numbers 
     1.0000   1.0000   1.0000   1.0000   1.0000   1.0000   1.0000   1.0000
     1.0000   1.0000   1.0000   1.0000   1.0000   1.0000   1.0000   1.0000
     1.0000   1.0000   1.0000   1.0000   1.0000   1.0000   1.0000   1.0000
     1.0000   1.0000   1.0000   1.0000   0.0000   0.0000   0.0000   0.0000
     0.0000   0.0000   0.0000   0.0000

          k = 0.4243 0.1414-0.1414 (  2020 PWs)   bands (ev):

   -14.5556 -14.5556 -14.5288 -14.5288 -14.4819 -14.4819 -14.4468 -14.4468
   -13.5769 -13.5769 -13.5194 -13.5194 -13.4738 -13.4738 -13.3819 -13.3819
   -13.3335 -13.3335 -13.2939 -13.2939  -1.5461  -1.5461   2.2252   2.2252
     5.3234   5.3234   5.9096   5.9096   8.9639   8.9639  10.2777  10.2777
    11.8175  11.8175  12.2630  12.2630

     occupation numbers 
     1.0000   1.0000   1.0000   1.0000   1.0000   1.0000   1.0000   1.0000
     1.0000   1.0000   1.0000   1.0000   1.0000   1.0000   1.0000   1.0000
     1.0000   1.0000   1.0000   1.0000   1.0000   1.0000   1.0000   1.0000
     1.0000   1.0000   1.0000   1.0000   0.0000   0.0000   0.0000   0.0000
     0.0000   0.0000   0.0000   0.0000

          k =-0.2121-0.4950 0.4950 (  2029 PWs)   bands (ev):

   -14.5580 -14.5580 -14.5220 -14.5220 -14.4912 -14.4912 -14.4447 -14.4447
   -13.5655 -13.5655 -13.5276 -13.5276 -13.4776 -13.4776 -13.3909 -13.3909
   -13.3303 -13.3303 -13.2923 -13.2923  -1.0701  -1.0701   1.4335   1.4335
     4.9218   4.9218   5.9175   5.9175   8.9005   8.9005  10.8609  10.8609
    12.0338  12.0338  12.3661  12.3661

     occupation numbers 
     1.0000   1.0000   1.0000   1.0000   1.0000   1.0000   1.0000   1.0000
     1.0000   1.0000   1.0000   1.0000   1.0000   1.0000   1.0000   1.0000
     1.0000   1.0000   1.0000   1.0000   1.0000   1.0000   1.0000   1.0000
     1.0000   1.0000   1.0000   1.0000   0.0000   0.0000   0.0000   0.0000
     0.0000   0.0000   0.0000   0.0000

          k =-0.1414-0.4243 0.4243 (  2013 PWs)   bands (ev):

   -14.5579 -14.5579 -14.5149 -14.5149 -14.4932 -14.4932 -14.4403 -14.4403
   -13.5612 -13.5612 -13.5263 -13.5263 -13.4758 -13.4758 -13.3908 -13.3908
   -13.3276 -13.3276 -13.2888 -13.2888  -0.9839  -0.9839   1.3088   1.3088
     4.7229   4.7229   6.0970   6.0970   8.9142   8.9142  11.0527  11.0527
    11.7662  11.7662  13.3561  13.3561

     occupation numbers 
     1.0000   1.0000   1.0000   1.0000   1.0000   1.0000   1.0000   1.0000
     1.0000   1.0000   1.0000   1.0000   1.0000   1.0000   1.0000   1.0000
     1.0000   1.0000   1.0000   1.0000   1.0000   1.0000   1.0000   1.0000
     1.0000   1.0000   1.0000   1.0000   0.0000   0.0000   0.0000   0.0000
     0.0000   0.0000   0.0000   0.0000

          k =-0.0707-0.3536 0.3536 (  2018 PWs)   bands (ev):

   -14.5580 -14.5580 -14.5219 -14.5219 -14.4882 -14.4882 -14.4422 -14.4422
   -13.5731 -13.5731 -13.5208 -13.5208 -13.4716 -13.4716 -13.3904 -13.3904
   -13.3276 -13.3276 -13.2940 -13.2940  -1.4000  -1.4000   1.9556   1.9556
     4.7833   4.7833   6.4184   6.4184   8.9968   8.9968  11.2152  11.2152
    11.3905  11.3905  12.4898  12.4898

     occupation numbers 
     1.0000   1.0000   1.0000   1.0000   1.0000   1.0000   1.0000   1.0000
     1.0000   1.0000   1.0000   1.0000   1.0000   1.0000   1.0000   1.0000
     1.0000   1.0000   1.0000   1.0000   1.0000   1.0000   1.0000   1.0000
     1.0000   1.0000   1.0000   1.0000   0.0000   0.0000   0.0000   0.0000
     0.0000   0.0000   0.0000   0.0000

          k = 0.0000-0.2828 0.2828 (  2013 PWs)   bands (ev):

   -14.5567 -14.5567 -14.5296 -14.5296 -14.4795 -14.4795 -14.4454 -14.4454
   -13.5896 -13.5896 -13.5093 -13.5093 -13.4667 -13.4667 -13.3821 -13.3821
   -13.3332 -13.3332 -13.2974 -13.2974  -1.8920  -1.8920   2.8533   2.8533
     5.1956   5.1956   6.8113   6.8113   8.9928   8.9928  10.8487  10.8487
    11.0831  11.0831  11.7876  11.7876

     occupation numbers 
     1.0000   1.0000   1.0000   1.0000   1.0000   1.0000   1.0000   1.0000
     1.0000   1.0000   1.0000   1.0000   1.0000   1.0000   1.0000   1.0000
     1.0000   1.0000   1.0000   1.0000   1.0000   1.0000   1.0000   1.0000
     1.0000   1.0000   1.0000   1.0000   0.0000   0.0000   0.0000   0.0000
     0.0000   0.0000   0.0000   0.0000

          k = 0.4243 0.0000 0.0000 (  2028 PWs)   bands (ev):

   -14.5494 -14.5494 -14.5402 -14.5402 -14.4737 -14.4737 -14.4570 -14.4570
   -13.5831 -13.5831 -13.5182 -13.5182 -13.4710 -13.4710 -13.3813 -13.3813
   -13.3414 -13.3414 -13.2958 -13.2958  -1.7345  -1.7345   2.7000   2.7000
     5.6709   5.6709   5.7573   5.7573   8.4169   8.4169   9.4832   9.4832
    12.9305  12.9306  13.0390  13.0390

     occupation numbers 
     1.0000   1.0000   1.0000   1.0000   1.0000   1.0000   1.0000   1.0000
     1.0000   1.0000   1.0000   1.0000   1.0000   1.0000   1.0000   1.0000
     1.0000   1.0000   1.0000   1.0000   1.0000   1.0000   1.0000   1.0000
     1.0000   1.0000   1.0000   1.0000   0.0000   0.0000   0.0000   0.0000
     0.0000   0.0000   0.0000   0.0000

          k = 0.4950 0.0707-0.0707 (  2028 PWs)   bands (ev):

   -14.5517 -14.5517 -14.5357 -14.5357 -14.4765 -14.4765 -14.4530 -14.4530
   -13.5704 -13.5704 -13.5262 -13.5262 -13.4714 -13.4714 -13.3948 -13.3948
   -13.3299 -13.3299 -13.2929 -13.2929  -1.2978  -1.2978   1.9430   1.9430
     5.2465   5.2465   5.5453   5.5453   8.5846   8.5846   9.4405   9.4405
    12.9272  12.9272  13.4104  13.4104

     occupation numbers 
     1.0000   1.0000   1.0000   1.0000   1.0000   1.0000   1.0000   1.0000
     1.0000   1.0000   1.0000   1.0000   1.0000   1.0000   1.0000   1.0000
     1.0000   1.0000   1.0000   1.0000   1.0000   1.0000   1.0000   1.0000
     1.0000   1.0000   1.0000   1.0000   0.0000   0.0000   0.0000   0.0000
     0.0000   0.0000   0.0000   0.0000

          k =-0.1414-0.5657 0.5657 (  2036 PWs)   bands (ev):

   -14.5558 -14.5558 -14.5297 -14.5297 -14.4844 -14.4844 -14.4481 -14.4481
   -13.5644 -13.5644 -13.5269 -13.5269 -13.4708 -13.4708 -13.4114 -13.4114
   -13.3272 -13.3272 -13.2873 -13.2873  -0.7863  -0.7863   1.2211   1.2211
     4.6797   4.6797   5.5327   5.5327   8.7164   8.7164  10.2783  10.2783
    12.6545  12.6545  13.2870  13.2870

     occupation numbers 
     1.0000   1.0000   1.0000   1.0000   1.0000   1.0000   1.0000   1.0000
     1.0000   1.0000   1.0000   1.0000   1.0000   1.0000   1.0000   1.0000
     1.0000   1.0000   1.0000   1.0000   1.0000   1.0000   1.0000   1.0000
     1.0000   1.0000   1.0000   1.0000   0.0000   0.0000   0.0000   0.0000
     0.0000   0.0000   0.0000   0.0000

          k =-0.0707-0.4950 0.4950 (  2026 PWs)   bands (ev):

   -14.5564 -14.5564 -14.5217 -14.5217 -14.4898 -14.4898 -14.4430 -14.4430
   -13.5640 -13.5640 -13.5196 -13.5196 -13.4673 -13.4673 -13.4173 -13.4173
   -13.3281 -13.3281 -13.2802 -13.2802  -0.5406  -0.5406   0.9241   0.9241
     4.3081   4.3081   5.6992   5.6992   8.8141   8.8141  11.5712  11.5712
    12.5262  12.5262  12.8896  12.8896

     occupation numbers 
     1.0000   1.0000   1.0000   1.0000   1.0000   1.0000   1.0000   1.0000
     1.0000   1.0000   1.0000   1.0000   1.0000   1.0000   1.0000   1.0000
     1.0000   1.0000   1.0000   1.0000   1.0000   1.0000   1.0000   1.0000
     1.0000   1.0000   1.0000   1.0000   0.0000   0.0000   0.0000   0.0000
     0.0000   0.0000   0.0000   0.0000

          k =-0.0000-0.4243 0.4243 (  2039 PWs)   bands (ev):

   -14.5605 -14.5605 -14.5202 -14.5202 -14.4959 -14.4959 -14.4439 -14.4439
   -13.5686 -13.5686 -13.5235 -13.5235 -13.4704 -13.4704 -13.4108 -13.4108
   -13.3318 -13.3318 -13.2855 -13.2855  -0.9024  -0.9024   1.3583   1.3583
     4.3004   4.3004   6.0172   6.0172   8.9807   8.9807  12.0572  12.0572
    12.2488  12.2488  12.4597  12.4597

     occupation numbers 
     1.0000   1.0000   1.0000   1.0000   1.0000   1.0000   1.0000   1.0000
     1.0000   1.0000   1.0000   1.0000   1.0000   1.0000   1.0000   1.0000
     1.0000   1.0000   1.0000   1.0000   1.0000   1.0000   1.0000   1.0000
     1.0000   1.0000   1.0000   1.0000   0.0000   0.0000   0.0000   0.0000
     0.0000   0.0000   0.0000   0.0000

          k = 0.5657 0.0000 0.0000 (  2024 PWs)   bands (ev):

   -14.5468 -14.5468 -14.5385 -14.5385 -14.4695 -14.4695 -14.4585 -14.4585
   -13.5579 -13.5579 -13.5348 -13.5348 -13.4643 -13.4643 -13.4103 -13.4103
   -13.3169 -13.3169 -13.2949 -13.2949  -0.8938  -0.8938   1.3604   1.3604
     5.2909   5.2909   5.3301   5.3301   8.2810   8.2810   8.8790   8.8790
    14.2378  14.2378  14.3936  14.3936

     occupation numbers 
     1.0000   1.0000   1.0000   1.0000   1.0000   1.0000   1.0000   1.0000
     1.0000   1.0000   1.0000   1.0000   1.0000   1.0000   1.0000   1.0000
     1.0000   1.0000   1.0000   1.0000   1.0000   1.0000   1.0000   1.0000
     1.0000   1.0000   1.0000   1.0000   0.0000   0.0000   0.0000   0.0000
     0.0000   0.0000   0.0000   0.0000

          k =-0.0707-0.6364 0.6364 (  2039 PWs)   bands (ev):

   -14.5508 -14.5508 -14.5376 -14.5376 -14.4754 -14.4754 -14.4559 -14.4559
   -13.5572 -13.5572 -13.5349 -13.5349 -13.4590 -13.4590 -13.4280 -13.4280
   -13.3178 -13.3178 -13.2927 -13.2927  -0.3751  -0.3751   0.7286   0.7286
     4.9340   4.9340   5.2717   5.2717   8.4821   8.4821   9.0335   9.0335
    14.1858  14.1859  14.5194  14.5194

     occupation numbers 
     1.0000   1.0000   1.0000   1.0000   1.0000   1.0000   1.0000   1.0000
     1.0000   1.0000   1.0000   1.0000   1.0000   1.0000   1.0000   1.0000
     1.0000   1.0000   1.0000   1.0000   1.0000   1.0000   1.0000   1.0000
     1.0000   1.0000   1.0000   1.0000   0.0000   0.0000   0.0000   0.0000
     0.0000   0.0000   0.0000   0.0000

          k = 0.0000-0.5657 0.5657 (  2043 PWs)   bands (ev):

   -14.5552 -14.5552 -14.5310 -14.5310 -14.4844 -14.4844 -14.4490 -14.4490
   -13.5633 -13.5633 -13.5254 -13.5254 -13.4584 -13.4584 -13.4342 -13.4342
   -13.3252 -13.3252 -13.2845 -13.2845  -0.0973  -0.0973   0.4522   0.4522
     4.4540   4.4540   5.4047   5.4047   8.6065   8.6065  10.1762  10.1762
    13.6206  13.6207  13.9385  13.9385

     occupation numbers 
     1.0000   1.0000   1.0000   1.0000   1.0000   1.0000   1.0000   1.0000
     1.0000   1.0000   1.0000   1.0000   1.0000   1.0000   1.0000   1.0000
     1.0000   1.0000   1.0000   1.0000   1.0000   1.0000   1.0000   1.0000
     1.0000   1.0000   1.0000   1.0000   0.0000   0.0000   0.0000   0.0000
     0.0000   0.0000   0.0000   0.0000

          k =-0.7071 0.0000 0.0000 (  2044 PWs)   bands (ev):

   -14.5456 -14.5456 -14.5456 -14.5456 -14.4661 -14.4661 -14.4661 -14.4661
   -13.5479 -13.5479 -13.5479 -13.5479 -13.4443 -13.4443 -13.4443 -13.4443
   -13.3052 -13.3052 -13.3052 -13.3052   0.1489   0.1489   0.1489   0.1489
     5.1730   5.1730   5.1730   5.1730   8.4381   8.4381   8.4381   8.4381
    15.0769  15.0769  15.0769  15.0770

     occupation numbers 
     1.0000   1.0000   1.0000   1.0000   1.0000   1.0000   1.0000   1.0000
     1.0000   1.0000   1.0000   1.0000   1.0000   1.0000   1.0000   1.0000
     1.0000   1.0000   1.0000   1.0000   1.0000   1.0000   1.0000   1.0000
     1.0000   1.0000   1.0000   1.0000   0.0000   0.0000   0.0000   0.0000
     0.0000   0.0000   0.0000   0.0000

          k = 0.2828 0.1414 0.0000 (  2012 PWs)   bands (ev):

   -14.5544 -14.5544 -14.5380 -14.5380 -14.4703 -14.4703 -14.4509 -14.4509
   -13.6051 -13.6051 -13.4953 -13.4953 -13.4624 -13.4624 -13.3755 -13.3755
   -13.3504 -13.3504 -13.2925 -13.2925  -2.2336  -2.2336   3.6907   3.6907
     5.8865   5.8865   6.6949   6.6949   9.2618   9.2618   9.5717   9.5717
    11.3971  11.3971  11.6219  11.6220

     occupation numbers 
     1.0000   1.0000   1.0000   1.0000   1.0000   1.0000   1.0000   1.0000
     1.0000   1.0000   1.0000   1.0000   1.0000   1.0000   1.0000   1.0000
     1.0000   1.0000   1.0000   1.0000   1.0000   1.0000   1.0000   1.0000
     1.0000   1.0000   1.0000   1.0000   0.0000   0.0000   0.0000   0.0000
     0.0000   0.0000   0.0000   0.0000

          k = 0.3536 0.2121-0.0707 (  2025 PWs)   bands (ev):

   -14.5577 -14.5577 -14.5305 -14.5305 -14.4818 -14.4818 -14.4481 -14.4481
   -13.5877 -13.5877 -13.5137 -13.5137 -13.4708 -13.4708 -13.3803 -13.3803
   -13.3373 -13.3373 -13.2977 -13.2977  -1.8043  -1.8043   2.6630   2.6630
     5.3515   5.3515   6.3989   6.3989   9.2078   9.2078  10.1393  10.1393
    11.5794  11.5794  11.9814  11.9814

     occupation numbers 
     1.0000   1.0000   1.0000   1.0000   1.0000   1.0000   1.0000   1.0000
     1.0000   1.0000   1.0000   1.0000   1.0000   1.0000   1.0000   1.0000
     1.0000   1.0000   1.0000   1.0000   1.0000   1.0000   1.0000   1.0000
     1.0000   1.0000   1.0000   1.0000   0.0000   0.0000   0.0000   0.0000
     0.0000   0.0000   0.0000   0.0000

          k =-0.2828-0.4243 0.5657 (  2028 PWs)   bands (ev):

   -14.5599 -14.5599 -14.5223 -14.5223 -14.4904 -14.4904 -14.4440 -14.4440
   -13.5704 -13.5704 -13.5261 -13.5261 -13.4772 -13.4772 -13.3849 -13.3849
   -13.3307 -13.3307 -13.2963 -13.2963  -1.3040  -1.3040   1.7275   1.7275
     5.0778   5.0778   6.1373   6.1373   9.0737   9.0737  10.4880  10.4880
    11.7084  11.7084  12.6526  12.6526

     occupation numbers 
     1.0000   1.0000   1.0000   1.0000   1.0000   1.0000   1.0000   1.0000
     1.0000   1.0000   1.0000   1.0000   1.0000   1.0000   1.0000   1.0000
     1.0000   1.0000   1.0000   1.0000   1.0000   1.0000   1.0000   1.0000
     1.0000   1.0000   1.0000   1.0000   0.0000   0.0000   0.0000   0.0000
     0.0000   0.0000   0.0000   0.0000

          k =-0.2121-0.3536 0.4950 (  2024 PWs)   bands (ev):

   -14.5606 -14.5606 -14.5157 -14.5157 -14.4944 -14.4944 -14.4429 -14.4429
   -13.5612 -13.5612 -13.5316 -13.5316 -13.4800 -13.4800 -13.3851 -13.3851
   -13.3298 -13.3298 -13.2943 -13.2943  -1.0253  -1.0253   1.2931   1.2931
     4.9954   4.9954   6.0379   6.0379   9.0211   9.0211  10.5259  10.5259
    11.7608  11.7608  13.4405  13.4406

     occupation numbers 
     1.0000   1.0000   1.0000   1.0000   1.0000   1.0000   1.0000   1.0000
     1.0000   1.0000   1.0000   1.0000   1.0000   1.0000   1.0000   1.0000
     1.0000   1.0000   1.0000   1.0000   1.0000   1.0000   1.0000   1.0000
     1.0000   1.0000   1.0000   1.0000   0.0000   0.0000   0.0000   0.0000
     0.0000   0.0000   0.0000   0.0000

          k = 0.4243 0.1414-0.0000 (  2024 PWs)   bands (ev):

   -14.5538 -14.5538 -14.5333 -14.5333 -14.4790 -14.4790 -14.4505 -14.4505
   -13.5804 -13.5804 -13.5185 -13.5185 -13.4703 -13.4703 -13.3855 -13.3855
   -13.3367 -13.3367 -13.2935 -13.2935  -1.6342  -1.6342   2.4785   2.4785
     5.3028   5.3028   5.8493   5.8493   9.0872   9.0872   9.7326   9.7326
    11.8457  11.8457  12.8951  12.8951

     occupation numbers 
     1.0000   1.0000   1.0000   1.0000   1.0000   1.0000   1.0000   1.0000
     1.0000   1.0000   1.0000   1.0000   1.0000   1.0000   1.0000   1.0000
     1.0000   1.0000   1.0000   1.0000   1.0000   1.0000   1.0000   1.0000
     1.0000   1.0000   1.0000   1.0000   0.0000   0.0000   0.0000   0.0000
     0.0000   0.0000   0.0000   0.0000

          k =-0.2121-0.4950 0.6364 (  2025 PWs)   bands (ev):

   -14.5565 -14.5565 -14.5273 -14.5273 -14.4844 -14.4844 -14.4451 -14.4451
   -13.5680 -13.5680 -13.5247 -13.5247 -13.4715 -13.4715 -13.3991 -13.3991
   -13.3293 -13.3293 -13.2883 -13.2883  -1.1362  -1.1362   1.6735   1.6735
     4.8253   4.8253   5.6187   5.6187   9.3120   9.3120  10.3248  10.3248
    11.6034  11.6034  13.2028  13.2028

     occupation numbers 
     1.0000   1.0000   1.0000   1.0000   1.0000   1.0000   1.0000   1.0000
     1.0000   1.0000   1.0000   1.0000   1.0000   1.0000   1.0000   1.0000
     1.0000   1.0000   1.0000   1.0000   1.0000   1.0000   1.0000   1.0000
     1.0000   1.0000   1.0000   1.0000   0.0000   0.0000   0.0000   0.0000
     0.0000   0.0000   0.0000   0.0000

          k =-0.1414-0.4243 0.5657 (  2022 PWs)   bands (ev):

   -14.5575 -14.5575 -14.5206 -14.5206 -14.4899 -14.4899 -14.4413 -14.4413
   -13.5627 -13.5627 -13.5221 -13.5221 -13.4719 -13.4719 -13.4086 -13.4086
   -13.3279 -13.3279 -13.2829 -13.2829  -0.7220  -0.7220   1.1072   1.1072
     4.5145   4.5145   5.5755   5.5755   9.3572   9.3572  10.9664  10.9664
    11.9982  11.9982  12.9816  12.9816

     occupation numbers 
     1.0000   1.0000   1.0000   1.0000   1.0000   1.0000   1.0000   1.0000
     1.0000   1.0000   1.0000   1.0000   1.0000   1.0000   1.0000   1.0000
     1.0000   1.0000   1.0000   1.0000   1.0000   1.0000   1.0000   1.0000
     1.0000   1.0000   1.0000   1.0000   0.0000   0.0000   0.0000   0.0000
     0.0000   0.0000   0.0000   0.0000

          k =-0.0707-0.3536 0.4950 (  2032 PWs)   bands (ev):

   -14.5597 -14.5597 -14.5214 -14.5214 -14.4926 -14.4926 -14.4424 -14.4424
   -13.5661 -13.5661 -13.5238 -13.5238 -13.4720 -13.4720 -13.4084 -13.4084
   -13.3297 -13.3297 -13.2849 -13.2849  -0.8543  -0.8543   1.2798   1.2798
     4.4383   4.4383   5.7489   5.7489   9.4693   9.4693  10.9493  10.9493
    12.0930  12.0930  12.9601  12.9601

     occupation numbers 
     1.0000   1.0000   1.0000   1.0000   1.0000   1.0000   1.0000   1.0000
     1.0000   1.0000   1.0000   1.0000   1.0000   1.0000   1.0000   1.0000
     1.0000   1.0000   1.0000   1.0000   1.0000   1.0000   1.0000   1.0000
     1.0000   1.0000   1.0000   1.0000   0.0000   0.0000   0.0000   0.0000
     0.0000   0.0000   0.0000   0.0000

          k = 0.0000-0.2828 0.4243 (  2027 PWs)   bands (ev):

   -14.5585 -14.5585 -14.5248 -14.5248 -14.4877 -14.4877 -14.4445 -14.4445
   -13.5737 -13.5737 -13.5220 -13.5220 -13.4697 -13.4697 -13.3970 -13.3970
   -13.3308 -13.3308 -13.2907 -13.2907  -1.3446  -1.3446   1.9605   1.9605
     4.6902   4.6902   6.0747   6.0747   9.5518   9.5518  10.5807  10.5807
    11.4678  11.4678  12.6415  12.6415

     occupation numbers 
     1.0000   1.0000   1.0000   1.0000   1.0000   1.0000   1.0000   1.0000
     1.0000   1.0000   1.0000   1.0000   1.0000   1.0000   1.0000   1.0000
     1.0000   1.0000   1.0000   1.0000   1.0000   1.0000   1.0000   1.0000
     1.0000   1.0000   1.0000   1.0000   0.0000   0.0000   0.0000   0.0000
     0.0000   0.0000   0.0000   0.0000

          k =-0.1414-0.5657 0.7071 (  2029 PWs)   bands (ev):

   -14.5518 -14.5518 -14.5332 -14.5332 -14.4784 -14.4784 -14.4504 -14.4504
   -13.5619 -13.5619 -13.5282 -13.5282 -13.4674 -13.4674 -13.4120 -13.4120
   -13.3242 -13.3242 -13.2888 -13.2888  -0.8227  -0.8227   1.2869   1.2869
     4.9714   4.9714   5.2581   5.2581   8.9103   8.9103   9.3592   9.3592
    12.8699  12.8700  14.2137  14.2137

     occupation numbers 
     1.0000   1.0000   1.0000   1.0000   1.0000   1.0000   1.0000   1.0000
     1.0000   1.0000   1.0000   1.0000   1.0000   1.0000   1.0000   1.0000
     1.0000   1.0000   1.0000   1.0000   1.0000   1.0000   1.0000   1.0000
     1.0000   1.0000   1.0000   1.0000   0.0000   0.0000   0.0000   0.0000
     0.0000   0.0000   0.0000   0.0000

          k =-0.0707-0.4950 0.6364 (  2023 PWs)   bands (ev):

   -14.5533 -14.5533 -14.5269 -14.5269 -14.4830 -14.4830 -14.4445 -14.4445
   -13.5618 -13.5618 -13.5199 -13.5199 -13.4608 -13.4608 -13.4267 -13.4267
   -13.3244 -13.3244 -13.2803 -13.2803  -0.3240  -0.3240   0.7119   0.7119
     4.5409   4.5409   5.1856   5.1856   9.1571   9.1571  10.2491  10.2491
    12.5603  12.5603  13.6834  13.6834

     occupation numbers 
     1.0000   1.0000   1.0000   1.0000   1.0000   1.0000   1.0000   1.0000
     1.0000   1.0000   1.0000   1.0000   1.0000   1.0000   1.0000   1.0000
     1.0000   1.0000   1.0000   1.0000   1.0000   1.0000   1.0000   1.0000
     1.0000   1.0000   1.0000   1.0000   0.0000   0.0000   0.0000   0.0000
     0.0000   0.0000   0.0000   0.0000

          k =-0.0000-0.4243 0.5657 (  2024 PWs)   bands (ev):

   -14.5562 -14.5562 -14.5223 -14.5223 -14.4884 -14.4884 -14.4411 -14.4411
   -13.5639 -13.5639 -13.5173 -13.5173 -13.4626 -13.4626 -13.4252 -13.4252
   -13.3268 -13.3268 -13.2781 -13.2781  -0.3677  -0.3677   0.7685   0.7685
     4.2755   4.2755   5.3852   5.3852   9.3233   9.3233  11.5882  11.5882
    12.3309  12.3309  12.3969  12.3969

     occupation numbers 
     1.0000   1.0000   1.0000   1.0000   1.0000   1.0000   1.0000   1.0000
     1.0000   1.0000   1.0000   1.0000   1.0000   1.0000   1.0000   1.0000
     1.0000   1.0000   1.0000   1.0000   1.0000   1.0000   1.0000   1.0000
     1.0000   1.0000   1.0000   1.0000   0.0000   0.0000   0.0000   0.0000
     0.0000   0.0000   0.0000   0.0000

          k =-0.7071 0.1414 0.0000 (  2028 PWs)   bands (ev):

   -14.5501 -14.5501 -14.5324 -14.5324 -14.4773 -14.4773 -14.4511 -14.4511
   -13.5578 -13.5578 -13.5286 -13.5286 -13.4491 -13.4491 -13.4383 -13.4383
   -13.3185 -13.3185 -13.2872 -13.2872   0.1531   0.1531   0.1813   0.1813
     4.8957   4.8957   5.0185   5.0185   8.9525   8.9525   9.0668   9.0668
    13.9869  13.9869  14.1660  14.1661

     occupation numbers 
     1.0000   1.0000   1.0000   1.0000   1.0000   1.0000   1.0000   1.0000
     1.0000   1.0000   1.0000   1.0000   1.0000   1.0000   1.0000   1.0000
     1.0000   1.0000   1.0000   1.0000   1.0000   1.0000   1.0000   1.0000
     1.0000   1.0000   1.0000   1.0000   0.0000   0.0000   0.0000   0.0000
     0.0000   0.0000   0.0000   0.0000

          k =-0.1414-0.4243 0.7071 (  2042 PWs)   bands (ev):

   -14.5596 -14.5596 -14.5274 -14.5274 -14.4893 -14.4893 -14.4441 -14.4441
   -13.5671 -13.5671 -13.5219 -13.5219 -13.4690 -13.4690 -13.4208 -13.4208
   -13.3304 -13.3304 -13.2822 -13.2822  -0.6293  -0.6293   1.0731   1.0731
     4.4904   4.4904   5.2350   5.2350  10.1914  10.1914  10.4435  10.4435
    11.3261  11.3261  13.4333  13.4333

     occupation numbers 
     1.0000   1.0000   1.0000   1.0000   1.0000   1.0000   1.0000   1.0000
     1.0000   1.0000   1.0000   1.0000   1.0000   1.0000   1.0000   1.0000
     1.0000   1.0000   1.0000   1.0000   1.0000   1.0000   1.0000   1.0000
     1.0000   1.0000   1.0000   1.0000   0.0000   0.0000   0.0000   0.0000
     0.0000   0.0000   0.0000   0.0000

          k =-0.0707-0.3536 0.6364 (  2028 PWs)   bands (ev):

   -14.5573 -14.5573 -14.5242 -14.5242 -14.4878 -14.4878 -14.4412 -14.4412
   -13.5648 -13.5648 -13.5159 -13.5159 -13.4630 -13.4630 -13.4280 -13.4280
   -13.3284 -13.3284 -13.2762 -13.2762  -0.2898  -0.2898   0.6984   0.6984
     4.3926   4.3926   5.0618   5.0618  10.2848  10.2848  10.9050  10.9050
    11.8679  11.8679  12.1956  12.1957

     occupation numbers 
     1.0000   1.0000   1.0000   1.0000   1.0000   1.0000   1.0000   1.0000
     1.0000   1.0000   1.0000   1.0000   1.0000   1.0000   1.0000   1.0000
     1.0000   1.0000   1.0000   1.0000   1.0000   1.0000   1.0000   1.0000
     1.0000   1.0000   1.0000   1.0000   0.0000   0.0000   0.0000   0.0000
     0.0000   0.0000   0.0000   0.0000

          k =-0.7071 0.2828 0.0000 (  2024 PWs)   bands (ev):

   -14.5549 -14.5549 -14.5251 -14.5251 -14.4856 -14.4856 -14.4415 -14.4415
   -13.5641 -13.5641 -13.5138 -13.5138 -13.4542 -13.4542 -13.4396 -13.4396
   -13.3254 -13.3254 -13.2749 -13.2749   0.1741   0.1741   0.2212   0.2212
     4.5861   4.5861   4.7570   4.7570  10.2370  10.2370  10.4363  10.4363
    12.2086  12.2086  12.3076  12.3076

     occupation numbers 
     1.0000   1.0000   1.0000   1.0000   1.0000   1.0000   1.0000   1.0000
     1.0000   1.0000   1.0000   1.0000   1.0000   1.0000   1.0000   1.0000
     1.0000   1.0000   1.0000   1.0000   1.0000   1.0000   1.0000   1.0000
     1.0000   1.0000   1.0000   1.0000   0.0000   0.0000   0.0000   0.0000
     0.0000   0.0000   0.0000   0.0000

     the Fermi energy is     7.5755 ev

!    total energy              =    -885.82812502 Ry
     Harris-Foulkes estimate   =    -885.82812491 Ry
     estimated scf accuracy    <       0.00000010 Ry

     total all-electron energy =    -24716.527875 Ry

     The total energy is the sum of the following terms:

     one-electron contribution =    -148.92194199 Ry
     hartree contribution      =      93.71083313 Ry
     xc contribution           =     -96.16560258 Ry
     ewald contribution        =    -170.59904351 Ry
     one-center paw contrib.   =    -563.85236965 Ry
     smearing contrib. (-TS)   =      -0.00000043 Ry

     convergence has been achieved in   5 iterations

     Writing output data file Sn.save
 
     init_run     :      2.01s CPU      2.29s WALL (       1 calls)
     electrons    :     33.89s CPU     35.27s WALL (       1 calls)

     Called by init_run:
     wfcinit      :      1.43s CPU      1.52s WALL (       1 calls)
     potinit      :      0.29s CPU      0.31s WALL (       1 calls)

     Called by electrons:
     c_bands      :     27.04s CPU     28.12s WALL (       6 calls)
     sum_band     :      5.17s CPU      5.35s WALL (       6 calls)
     v_of_rho     :      0.03s CPU      0.04s WALL (       6 calls)
     v_h          :      0.00s CPU      0.00s WALL (       6 calls)
     v_xc         :      0.03s CPU      0.03s WALL (       6 calls)
     newd         :      0.33s CPU      0.37s WALL (       6 calls)
     PAW_pot      :      1.59s CPU      1.68s WALL (       6 calls)
     mix_rho      :      0.02s CPU      0.02s WALL (       6 calls)

     Called by c_bands:
     init_us_2    :      0.07s CPU      0.09s WALL (     611 calls)
     cegterg      :     25.67s CPU     26.70s WALL (     282 calls)

     Called by sum_band:
     sum_band:bec :      0.96s CPU      0.97s WALL (     282 calls)
     addusdens    :      0.16s CPU      0.20s WALL (       6 calls)

     Called by *egterg:
     h_psi        :     18.86s CPU     19.56s WALL (     993 calls)
     s_psi        :      0.88s CPU      0.88s WALL (     993 calls)
     g_psi        :      0.06s CPU      0.06s WALL (     664 calls)
     cdiaghg      :      3.75s CPU      3.84s WALL (     899 calls)
     cegterg:over :      1.42s CPU      1.43s WALL (     664 calls)
     cegterg:upda :      0.54s CPU      0.54s WALL (     664 calls)
     cegterg:last :      0.30s CPU      0.30s WALL (     282 calls)

     Called by h_psi:
     h_psi:vloc   :     16.73s CPU     17.38s WALL (     993 calls)
     h_psi:vnl    :      2.08s CPU      2.12s WALL (     993 calls)
     add_vuspsi   :      0.98s CPU      0.99s WALL (     993 calls)

     General routines
     calbec       :      1.47s CPU      1.51s WALL (    1275 calls)
     fft          :      0.05s CPU      0.09s WALL (     116 calls)
     fftw         :     18.66s CPU     19.37s WALL (  127972 calls)
     davcio       :      0.00s CPU      0.05s WALL (      47 calls)
 
     Parallel routines
     fft_scatter  :     11.25s CPU     11.75s WALL (  128088 calls)

     PAW routines
     PAW_pot      :      1.59s CPU      1.68s WALL (       6 calls)
     PAW_symme    :      0.04s CPU      0.04s WALL (      12 calls)
 
     PWSCF        :    37.22s CPU        39.14s WALL

 
   This run was terminated on:  21:11:30   8Mar2020            

=------------------------------------------------------------------------------=
   JOB DONE.
=------------------------------------------------------------------------------=
