
     Program PWSCF v.5.4.0 starts on 15Mar2020 at 19:57:11 

     This program is part of the open-source Quantum ESPRESSO suite
     for quantum simulation of materials; please cite
         "P. Giannozzi et al., J. Phys.:Condens. Matter 21 395502 (2009);
          URL http://www.quantum-espresso.org", 
     in publications or presentations arising from this work. More details at
     http://www.quantum-espresso.org/quote

     Parallel version (MPI & OpenMP), running on      16 processor cores
     Number of MPI processes:                16
     Threads/MPI process:                     1
     R & G space division:  proc/nbgrp/npool/nimage =      16
     Waiting for input...
     Reading input from standard input
Warning: card &IONS ignored
Warning: card / ignored
Warning: card &CELL ignored
Warning: card / ignored

     Current dimensions of program PWSCF are:
     Max number of different atomic species (ntypx) = 10
     Max number of k-points (npk) =  40000
     Max angular momentum in pseudopotentials (lmaxx) =  3
               file Sn.pbe-dn-kjpaw_psl.0.2.UPF: wavefunction(s)  5P 4D renormalized
     Message from routine setup:
     At least one non s.o. pseudo

     Subspace diagonalization in iterative solution of the eigenvalue problem:
     a serial algorithm will be used

 
     Parallelization info
     --------------------
     sticks:   dense  smooth     PW     G-vecs:    dense   smooth      PW
     Min          81      81     23                 1953     1953     312
     Max          82      82     24                 1958     1958     316
     Sum        1303    1303    379                31283    31283    5029
 

     Title: 
     Sn                                                                         


     bravais-lattice index     =            0
     lattice parameter (alat)  =       8.9127  a.u.
     unit-cell volume          =     500.6268 (a.u.)^3
     number of atoms/cell      =            2
     number of atomic types    =            1
     number of electrons       =        28.00
     number of Kohn-Sham states=           36
     kinetic-energy cutoff     =      60.0000  Ry
     charge density cutoff     =     240.0000  Ry
     convergence threshold     =      1.0E-06
     mixing beta               =       0.7000
     number of iterations used =            8  plain     mixing
     Exchange-correlation      =  SLA  PW   PBX  PBC ( 1  4  3  4 0 0)
     Non magnetic calculation with spin-orbit


     celldm(1)=   8.912709  celldm(2)=   0.000000  celldm(3)=   0.000000
     celldm(4)=   0.000000  celldm(5)=   0.000000  celldm(6)=   0.000000

     crystal axes: (cart. coord. in units of alat)
               a(1) = (   0.000000   0.707107   0.707107 )  
               a(2) = (   0.707107   0.000000   0.707107 )  
               a(3) = (   0.707107   0.707107   0.000000 )  

     reciprocal axes: (cart. coord. in units 2 pi/alat)
               b(1) = ( -0.707107  0.707107  0.707107 )  
               b(2) = (  0.707107 -0.707107  0.707107 )  
               b(3) = (  0.707107  0.707107 -0.707107 )  


     PseudoPot. # 1 for Sn read from file:
     ../PseudopotentialDatabase/Sn.pbe-dn-kjpaw_psl.0.2.UPF
     MD5 check sum: b79c227927c2421b8b427190f2e58519
     Pseudo is Projector augmented-wave + core cor, Zval = 14.0
     Generated using "atomic" code by A. Dal Corso  v.5.0.2 svn rev. 9415
     Shape of augmentation charge: BESSEL
     Using radial grid of 1243 points,  6 beta functions with: 
                l(1) =   0
                l(2) =   0
                l(3) =   1
                l(4) =   1
                l(5) =   2
                l(6) =   2
     Q(r) pseudized with 0 coefficients 


     atomic species   valence    mass     pseudopotential
        Sn            14.00   118.71000     Sn( 1.00)

     24 Sym. Ops. (no inversion) found
          (note: 24 additional sym.ops. were found but ignored
           their fractional translations are incommensurate with FFT grid)

                                    s                        frac. trans.

      isym =  1     identity                                     

 cryst.   s( 1) = (     1          0          0      )
                  (     0          1          0      )
                  (     0          0          1      )

 cart.    s( 1) = (  1.0000000  0.0000000  0.0000000 )
                  (  0.0000000  1.0000000  0.0000000 )
                  (  0.0000000  0.0000000  1.0000000 )


      isym =  2     180 deg rotation - cart. axis [0,0,1]        

 cryst.   s( 2) = (     0          1         -1      )
                  (     1          0         -1      )
                  (     0          0         -1      )

 cart.    s( 2) = ( -1.0000000  0.0000000  0.0000000 )
                  (  0.0000000 -1.0000000  0.0000000 )
                  (  0.0000000  0.0000000  1.0000000 )


      isym =  3     180 deg rotation - cart. axis [0,1,0]        

 cryst.   s( 3) = (     0         -1          1      )
                  (     0         -1          0      )
                  (     1         -1          0      )

 cart.    s( 3) = ( -1.0000000  0.0000000  0.0000000 )
                  (  0.0000000  1.0000000  0.0000000 )
                  (  0.0000000  0.0000000 -1.0000000 )


      isym =  4     180 deg rotation - cart. axis [1,0,0]        

 cryst.   s( 4) = (    -1          0          0      )
                  (    -1          0          1      )
                  (    -1          1          0      )

 cart.    s( 4) = (  1.0000000  0.0000000  0.0000000 )
                  (  0.0000000 -1.0000000  0.0000000 )
                  (  0.0000000  0.0000000 -1.0000000 )


      isym =  5     120 deg rotation - cart. axis [-1,-1,-1]     

 cryst.   s( 5) = (     0          0          1      )
                  (     1          0          0      )
                  (     0          1          0      )

 cart.    s( 5) = (  0.0000000  1.0000000  0.0000000 )
                  (  0.0000000  0.0000000  1.0000000 )
                  (  1.0000000  0.0000000  0.0000000 )


      isym =  6     120 deg rotation - cart. axis [-1,1,1]       

 cryst.   s( 6) = (     1         -1          0      )
                  (     0         -1          1      )
                  (     0         -1          0      )

 cart.    s( 6) = (  0.0000000 -1.0000000  0.0000000 )
                  (  0.0000000  0.0000000  1.0000000 )
                  ( -1.0000000  0.0000000  0.0000000 )


      isym =  7     120 deg rotation - cart. axis [1,1,-1]       

 cryst.   s( 7) = (    -1          1          0      )
                  (    -1          0          0      )
                  (    -1          0          1      )

 cart.    s( 7) = (  0.0000000  1.0000000  0.0000000 )
                  (  0.0000000  0.0000000 -1.0000000 )
                  ( -1.0000000  0.0000000  0.0000000 )


      isym =  8     120 deg rotation - cart. axis [1,-1,1]       

 cryst.   s( 8) = (     0          0         -1      )
                  (     0          1         -1      )
                  (     1          0         -1      )

 cart.    s( 8) = (  0.0000000 -1.0000000  0.0000000 )
                  (  0.0000000  0.0000000 -1.0000000 )
                  (  1.0000000  0.0000000  0.0000000 )


      isym =  9     120 deg rotation - cart. axis [1,1,1]        

 cryst.   s( 9) = (     0          1          0      )
                  (     0          0          1      )
                  (     1          0          0      )

 cart.    s( 9) = (  0.0000000  0.0000000  1.0000000 )
                  (  1.0000000  0.0000000  0.0000000 )
                  (  0.0000000  1.0000000  0.0000000 )


      isym = 10     120 deg rotation - cart. axis [-1,1,-1]      

 cryst.   s(10) = (    -1          0          1      )
                  (    -1          1          0      )
                  (    -1          0          0      )

 cart.    s(10) = (  0.0000000  0.0000000  1.0000000 )
                  ( -1.0000000  0.0000000  0.0000000 )
                  (  0.0000000 -1.0000000  0.0000000 )


      isym = 11     120 deg rotation - cart. axis [1,-1,-1]      

 cryst.   s(11) = (     1          0         -1      )
                  (     0          0         -1      )
                  (     0          1         -1      )

 cart.    s(11) = (  0.0000000  0.0000000 -1.0000000 )
                  ( -1.0000000  0.0000000  0.0000000 )
                  (  0.0000000  1.0000000  0.0000000 )


      isym = 12     120 deg rotation - cart. axis [-1,-1,1]      

 cryst.   s(12) = (     0         -1          0      )
                  (     1         -1          0      )
                  (     0         -1          1      )

 cart.    s(12) = (  0.0000000  0.0000000 -1.0000000 )
                  (  1.0000000  0.0000000  0.0000000 )
                  (  0.0000000 -1.0000000  0.0000000 )


      isym = 13     inv. 180 deg rotation - cart. axis [1,1,0]   

 cryst.   s(13) = (     1          0         -1      )
                  (     0          1         -1      )
                  (     0          0         -1      )

 cart.    s(13) = (  0.0000000 -1.0000000  0.0000000 )
                  ( -1.0000000  0.0000000  0.0000000 )
                  (  0.0000000  0.0000000  1.0000000 )


      isym = 14     inv. 180 deg rotation - cart. axis [1,-1,0]  

 cryst.   s(14) = (     0          1          0      )
                  (     1          0          0      )
                  (     0          0          1      )

 cart.    s(14) = (  0.0000000  1.0000000  0.0000000 )
                  (  1.0000000  0.0000000  0.0000000 )
                  (  0.0000000  0.0000000  1.0000000 )


      isym = 15     inv.  90 deg rotation - cart. axis [0,0,-1]  

 cryst.   s(15) = (     0         -1          0      )
                  (     0         -1          1      )
                  (     1         -1          0      )

 cart.    s(15) = (  0.0000000 -1.0000000  0.0000000 )
                  (  1.0000000  0.0000000  0.0000000 )
                  (  0.0000000  0.0000000 -1.0000000 )


      isym = 16     inv.  90 deg rotation - cart. axis [0,0,1]   

 cryst.   s(16) = (    -1          0          1      )
                  (    -1          0          0      )
                  (    -1          1          0      )

 cart.    s(16) = (  0.0000000  1.0000000  0.0000000 )
                  ( -1.0000000  0.0000000  0.0000000 )
                  (  0.0000000  0.0000000 -1.0000000 )


      isym = 17     inv. 180 deg rotation - cart. axis [1,0,1]   

 cryst.   s(17) = (     1         -1          0      )
                  (     0         -1          0      )
                  (     0         -1          1      )

 cart.    s(17) = (  0.0000000  0.0000000 -1.0000000 )
                  (  0.0000000  1.0000000  0.0000000 )
                  ( -1.0000000  0.0000000  0.0000000 )


      isym = 18     inv. 180 deg rotation - cart. axis [-1,0,1]  

 cryst.   s(18) = (     0          0          1      )
                  (     0          1          0      )
                  (     1          0          0      )

 cart.    s(18) = (  0.0000000  0.0000000  1.0000000 )
                  (  0.0000000  1.0000000  0.0000000 )
                  (  1.0000000  0.0000000  0.0000000 )


      isym = 19     inv.  90 deg rotation - cart. axis [0,1,0]   

 cryst.   s(19) = (     0          0         -1      )
                  (     1          0         -1      )
                  (     0          1         -1      )

 cart.    s(19) = (  0.0000000  0.0000000 -1.0000000 )
                  (  0.0000000 -1.0000000  0.0000000 )
                  (  1.0000000  0.0000000  0.0000000 )


      isym = 20     inv.  90 deg rotation - cart. axis [0,-1,0]  

 cryst.   s(20) = (    -1          1          0      )
                  (    -1          0          1      )
                  (    -1          0          0      )

 cart.    s(20) = (  0.0000000  0.0000000  1.0000000 )
                  (  0.0000000 -1.0000000  0.0000000 )
                  ( -1.0000000  0.0000000  0.0000000 )


      isym = 21     inv. 180 deg rotation - cart. axis [0,1,1]   

 cryst.   s(21) = (    -1          0          0      )
                  (    -1          1          0      )
                  (    -1          0          1      )

 cart.    s(21) = (  1.0000000  0.0000000  0.0000000 )
                  (  0.0000000  0.0000000 -1.0000000 )
                  (  0.0000000 -1.0000000  0.0000000 )


      isym = 22     inv. 180 deg rotation - cart. axis [0,1,-1]  

 cryst.   s(22) = (     1          0          0      )
                  (     0          0          1      )
                  (     0          1          0      )

 cart.    s(22) = (  1.0000000  0.0000000  0.0000000 )
                  (  0.0000000  0.0000000  1.0000000 )
                  (  0.0000000  1.0000000  0.0000000 )


      isym = 23     inv.  90 deg rotation - cart. axis [-1,0,0]  

 cryst.   s(23) = (     0          1         -1      )
                  (     0          0         -1      )
                  (     1          0         -1      )

 cart.    s(23) = ( -1.0000000  0.0000000  0.0000000 )
                  (  0.0000000  0.0000000 -1.0000000 )
                  (  0.0000000  1.0000000  0.0000000 )


      isym = 24     inv.  90 deg rotation - cart. axis [1,0,0]   

 cryst.   s(24) = (     0         -1          1      )
                  (     1         -1          0      )
                  (     0         -1          0      )

 cart.    s(24) = ( -1.0000000  0.0000000  0.0000000 )
                  (  0.0000000  0.0000000  1.0000000 )
                  (  0.0000000 -1.0000000  0.0000000 )


   Cartesian axes

     site n.     atom                  positions (alat units)
         1           Sn  tau(   1) = (   0.0000000   0.0000000   0.0000000  )
         2           Sn  tau(   2) = (   0.3535534   0.3535534   0.3535534  )

   Crystallographic axes

     site n.     atom                  positions (cryst. coord.)
         1           Sn  tau(   1) = (  0.0000000  0.0000000  0.0000000  )
         2           Sn  tau(   2) = (  0.2500000  0.2500000  0.2500000  )

     number of k points=   145  gaussian smearing, width (Ry)=  0.0001
                       cart. coord. in units 2pi/alat
        k(    1) = (   0.0000000   0.0000000   0.0000000), wk =   0.0002441
        k(    2) = (   0.0441942   0.0441942  -0.0441942), wk =   0.0019531
        k(    3) = (   0.0883883   0.0883883  -0.0883883), wk =   0.0019531
        k(    4) = (   0.1325825   0.1325825  -0.1325825), wk =   0.0019531
        k(    5) = (   0.1767767   0.1767767  -0.1767767), wk =   0.0019531
        k(    6) = (   0.2209709   0.2209709  -0.2209709), wk =   0.0019531
        k(    7) = (   0.2651650   0.2651650  -0.2651650), wk =   0.0019531
        k(    8) = (   0.3093592   0.3093592  -0.3093592), wk =   0.0019531
        k(    9) = (  -0.3535534  -0.3535534   0.3535534), wk =   0.0009766
        k(   10) = (   0.0883883   0.0000000   0.0000000), wk =   0.0014648
        k(   11) = (   0.1325825   0.0441942  -0.0441942), wk =   0.0058594
        k(   12) = (   0.1767767   0.0883883  -0.0883883), wk =   0.0058594
        k(   13) = (   0.2209709   0.1325825  -0.1325825), wk =   0.0058594
        k(   14) = (   0.2651650   0.1767767  -0.1767767), wk =   0.0058594
        k(   15) = (   0.3093592   0.2209709  -0.2209709), wk =   0.0058594
        k(   16) = (   0.3535534   0.2651650  -0.2651650), wk =   0.0058594
        k(   17) = (  -0.3093592  -0.3977476   0.3977476), wk =   0.0058594
        k(   18) = (  -0.2651650  -0.3535534   0.3535534), wk =   0.0058594
        k(   19) = (  -0.2209709  -0.3093592   0.3093592), wk =   0.0058594
        k(   20) = (  -0.1767767  -0.2651650   0.2651650), wk =   0.0058594
        k(   21) = (  -0.1325825  -0.2209709   0.2209709), wk =   0.0058594
        k(   22) = (  -0.0883883  -0.1767767   0.1767767), wk =   0.0058594
        k(   23) = (  -0.0441942  -0.1325825   0.1325825), wk =   0.0058594
        k(   24) = (   0.0000000  -0.0883883   0.0883883), wk =   0.0029297
        k(   25) = (   0.1767767   0.0000000   0.0000000), wk =   0.0014648
        k(   26) = (   0.2209709   0.0441942  -0.0441942), wk =   0.0058594
        k(   27) = (   0.2651650   0.0883883  -0.0883883), wk =   0.0058594
        k(   28) = (   0.3093592   0.1325825  -0.1325825), wk =   0.0058594
        k(   29) = (   0.3535534   0.1767767  -0.1767767), wk =   0.0058594
        k(   30) = (   0.3977476   0.2209709  -0.2209709), wk =   0.0058594
        k(   31) = (  -0.2651650  -0.4419417   0.4419417), wk =   0.0058594
        k(   32) = (  -0.2209709  -0.3977476   0.3977476), wk =   0.0058594
        k(   33) = (  -0.1767767  -0.3535534   0.3535534), wk =   0.0058594
        k(   34) = (  -0.1325825  -0.3093592   0.3093592), wk =   0.0058594
        k(   35) = (  -0.0883883  -0.2651650   0.2651650), wk =   0.0058594
        k(   36) = (  -0.0441942  -0.2209709   0.2209709), wk =   0.0058594
        k(   37) = (   0.0000000  -0.1767767   0.1767767), wk =   0.0029297
        k(   38) = (   0.2651650   0.0000000   0.0000000), wk =   0.0014648
        k(   39) = (   0.3093592   0.0441942  -0.0441942), wk =   0.0058594
        k(   40) = (   0.3535534   0.0883883  -0.0883883), wk =   0.0058594
        k(   41) = (   0.3977476   0.1325825  -0.1325825), wk =   0.0058594
        k(   42) = (   0.4419417   0.1767767  -0.1767767), wk =   0.0058594
        k(   43) = (  -0.2209709  -0.4861359   0.4861359), wk =   0.0058594
        k(   44) = (  -0.1767767  -0.4419417   0.4419417), wk =   0.0058594
        k(   45) = (  -0.1325825  -0.3977476   0.3977476), wk =   0.0058594
        k(   46) = (  -0.0883883  -0.3535534   0.3535534), wk =   0.0058594
        k(   47) = (  -0.0441942  -0.3093592   0.3093592), wk =   0.0058594
        k(   48) = (   0.0000000  -0.2651650   0.2651650), wk =   0.0029297
        k(   49) = (   0.3535534   0.0000000   0.0000000), wk =   0.0014648
        k(   50) = (   0.3977476   0.0441942  -0.0441942), wk =   0.0058594
        k(   51) = (   0.4419417   0.0883883  -0.0883883), wk =   0.0058594
        k(   52) = (   0.4861359   0.1325825  -0.1325825), wk =   0.0058594
        k(   53) = (  -0.1767767  -0.5303301   0.5303301), wk =   0.0058594
        k(   54) = (  -0.1325825  -0.4861359   0.4861359), wk =   0.0058594
        k(   55) = (  -0.0883883  -0.4419417   0.4419417), wk =   0.0058594
        k(   56) = (  -0.0441942  -0.3977476   0.3977476), wk =   0.0058594
        k(   57) = (   0.0000000  -0.3535534   0.3535534), wk =   0.0029297
        k(   58) = (   0.4419417   0.0000000   0.0000000), wk =   0.0014648
        k(   59) = (   0.4861359   0.0441942  -0.0441942), wk =   0.0058594
        k(   60) = (   0.5303301   0.0883883  -0.0883883), wk =   0.0058594
        k(   61) = (  -0.1325825  -0.5745243   0.5745243), wk =   0.0058594
        k(   62) = (  -0.0883883  -0.5303301   0.5303301), wk =   0.0058594
        k(   63) = (  -0.0441942  -0.4861359   0.4861359), wk =   0.0058594
        k(   64) = (   0.0000000  -0.4419417   0.4419417), wk =   0.0029297
        k(   65) = (   0.5303301   0.0000000   0.0000000), wk =   0.0014648
        k(   66) = (   0.5745243   0.0441942  -0.0441942), wk =   0.0058594
        k(   67) = (  -0.0883883  -0.6187184   0.6187184), wk =   0.0058594
        k(   68) = (  -0.0441942  -0.5745243   0.5745243), wk =   0.0058594
        k(   69) = (   0.0000000  -0.5303301   0.5303301), wk =   0.0029297
        k(   70) = (   0.6187184   0.0000000   0.0000000), wk =   0.0014648
        k(   71) = (  -0.0441942  -0.6629126   0.6629126), wk =   0.0058594
        k(   72) = (   0.0000000  -0.6187184   0.6187184), wk =   0.0029297
        k(   73) = (  -0.7071068   0.0000000   0.0000000), wk =   0.0007324
        k(   74) = (   0.1767767   0.0883883   0.0000000), wk =   0.0058594
        k(   75) = (   0.2209709   0.1325825  -0.0441942), wk =   0.0117188
        k(   76) = (   0.2651650   0.1767767  -0.0883883), wk =   0.0117188
        k(   77) = (   0.3093592   0.2209709  -0.1325825), wk =   0.0117188
        k(   78) = (   0.3535534   0.2651650  -0.1767767), wk =   0.0117188
        k(   79) = (  -0.3093592  -0.3977476   0.4861359), wk =   0.0117188
        k(   80) = (  -0.2651650  -0.3535534   0.4419417), wk =   0.0058594
        k(   81) = (   0.2651650   0.0883883   0.0000000), wk =   0.0058594
        k(   82) = (   0.3093592   0.1325825  -0.0441942), wk =   0.0117188
        k(   83) = (   0.3535534   0.1767767  -0.0883883), wk =   0.0117188
        k(   84) = (   0.3977476   0.2209709  -0.1325825), wk =   0.0117188
        k(   85) = (  -0.2651650  -0.4419417   0.5303301), wk =   0.0117188
        k(   86) = (  -0.2209709  -0.3977476   0.4861359), wk =   0.0117188
        k(   87) = (  -0.1767767  -0.3535534   0.4419417), wk =   0.0117188
        k(   88) = (  -0.1325825  -0.3093592   0.3977476), wk =   0.0117188
        k(   89) = (  -0.0883883  -0.2651650   0.3535534), wk =   0.0117188
        k(   90) = (  -0.0441942  -0.2209709   0.3093592), wk =   0.0117188
        k(   91) = (   0.0000000  -0.1767767   0.2651650), wk =   0.0058594
        k(   92) = (   0.3535534   0.0883883   0.0000000), wk =   0.0058594
        k(   93) = (   0.3977476   0.1325825  -0.0441942), wk =   0.0117188
        k(   94) = (   0.4419417   0.1767767  -0.0883883), wk =   0.0117188
        k(   95) = (  -0.2209709  -0.4861359   0.5745243), wk =   0.0117188
        k(   96) = (  -0.1767767  -0.4419417   0.5303301), wk =   0.0117188
        k(   97) = (  -0.1325825  -0.3977476   0.4861359), wk =   0.0117188
        k(   98) = (  -0.0883883  -0.3535534   0.4419417), wk =   0.0117188
        k(   99) = (  -0.0441942  -0.3093592   0.3977476), wk =   0.0117188
        k(  100) = (   0.0000000  -0.2651650   0.3535534), wk =   0.0058594
        k(  101) = (   0.4419417   0.0883883   0.0000000), wk =   0.0058594
        k(  102) = (   0.4861359   0.1325825  -0.0441942), wk =   0.0117188
        k(  103) = (  -0.1767767  -0.5303301   0.6187184), wk =   0.0117188
        k(  104) = (  -0.1325825  -0.4861359   0.5745243), wk =   0.0117188
        k(  105) = (  -0.0883883  -0.4419417   0.5303301), wk =   0.0117188
        k(  106) = (  -0.0441942  -0.3977476   0.4861359), wk =   0.0117188
        k(  107) = (   0.0000000  -0.3535534   0.4419417), wk =   0.0058594
        k(  108) = (   0.5303301   0.0883883   0.0000000), wk =   0.0058594
        k(  109) = (  -0.1325825  -0.5745243   0.6629126), wk =   0.0117188
        k(  110) = (  -0.0883883  -0.5303301   0.6187184), wk =   0.0117188
        k(  111) = (  -0.0441942  -0.4861359   0.5745243), wk =   0.0117188
        k(  112) = (   0.0000000  -0.4419417   0.5303301), wk =   0.0058594
        k(  113) = (  -0.0883883  -0.6187184   0.7071068), wk =   0.0058594
        k(  114) = (  -0.0441942  -0.5745243   0.6629126), wk =   0.0117188
        k(  115) = (  -0.0000000  -0.5303301   0.6187184), wk =   0.0058594
        k(  116) = (  -0.7071068   0.0883883   0.0000000), wk =   0.0029297
        k(  117) = (   0.3535534   0.1767767   0.0000000), wk =   0.0058594
        k(  118) = (   0.3977476   0.2209709  -0.0441942), wk =   0.0117188
        k(  119) = (  -0.2651650  -0.4419417   0.6187184), wk =   0.0117188
        k(  120) = (  -0.2209709  -0.3977476   0.5745243), wk =   0.0117188
        k(  121) = (  -0.1767767  -0.3535534   0.5303301), wk =   0.0058594
        k(  122) = (   0.4419417   0.1767767   0.0000000), wk =   0.0058594
        k(  123) = (  -0.2209709  -0.4861359   0.6629126), wk =   0.0117188
        k(  124) = (  -0.1767767  -0.4419417   0.6187184), wk =   0.0117188
        k(  125) = (  -0.1325825  -0.3977476   0.5745243), wk =   0.0117188
        k(  126) = (  -0.0883883  -0.3535534   0.5303301), wk =   0.0117188
        k(  127) = (  -0.0441942  -0.3093592   0.4861359), wk =   0.0117188
        k(  128) = (   0.0000000  -0.2651650   0.4419417), wk =   0.0058594
        k(  129) = (  -0.1767767  -0.5303301   0.7071068), wk =   0.0058594
        k(  130) = (  -0.1325825  -0.4861359   0.6629126), wk =   0.0117188
        k(  131) = (  -0.0883883  -0.4419417   0.6187184), wk =   0.0117188
        k(  132) = (  -0.0441942  -0.3977476   0.5745243), wk =   0.0117188
        k(  133) = (   0.0000000  -0.3535534   0.5303301), wk =   0.0058594
        k(  134) = (  -0.0883883  -0.5303301   0.7071068), wk =   0.0058594
        k(  135) = (  -0.0441942  -0.4861359   0.6629126), wk =   0.0117188
        k(  136) = (   0.0000000  -0.4419417   0.6187184), wk =   0.0058594
        k(  137) = (  -0.7071068   0.1767767   0.0000000), wk =   0.0029297
        k(  138) = (  -0.1767767  -0.4419417   0.7071068), wk =   0.0058594
        k(  139) = (  -0.1325825  -0.3977476   0.6629126), wk =   0.0117188
        k(  140) = (  -0.0883883  -0.3535534   0.6187184), wk =   0.0058594
        k(  141) = (  -0.0883883  -0.4419417   0.7071068), wk =   0.0058594
        k(  142) = (  -0.0441942  -0.3977476   0.6629126), wk =   0.0117188
        k(  143) = (  -0.0000000  -0.3535534   0.6187184), wk =   0.0058594
        k(  144) = (  -0.7071068   0.2651650   0.0000000), wk =   0.0029297
        k(  145) = (  -0.7071068   0.3535534   0.0000000), wk =   0.0014648

                       cryst. coord.
        k(    1) = (   0.0000000   0.0000000   0.0000000), wk =   0.0002441
        k(    2) = (   0.0000000   0.0000000   0.0625000), wk =   0.0019531
        k(    3) = (   0.0000000   0.0000000   0.1250000), wk =   0.0019531
        k(    4) = (   0.0000000   0.0000000   0.1875000), wk =   0.0019531
        k(    5) = (   0.0000000   0.0000000   0.2500000), wk =   0.0019531
        k(    6) = (   0.0000000   0.0000000   0.3125000), wk =   0.0019531
        k(    7) = (   0.0000000   0.0000000   0.3750000), wk =   0.0019531
        k(    8) = (   0.0000000   0.0000000   0.4375000), wk =   0.0019531
        k(    9) = (   0.0000000   0.0000000  -0.5000000), wk =   0.0009766
        k(   10) = (   0.0000000   0.0625000   0.0625000), wk =   0.0014648
        k(   11) = (   0.0000000   0.0625000   0.1250000), wk =   0.0058594
        k(   12) = (   0.0000000   0.0625000   0.1875000), wk =   0.0058594
        k(   13) = (   0.0000000   0.0625000   0.2500000), wk =   0.0058594
        k(   14) = (   0.0000000   0.0625000   0.3125000), wk =   0.0058594
        k(   15) = (   0.0000000   0.0625000   0.3750000), wk =   0.0058594
        k(   16) = (   0.0000000   0.0625000   0.4375000), wk =   0.0058594
        k(   17) = (   0.0000000   0.0625000  -0.5000000), wk =   0.0058594
        k(   18) = (   0.0000000   0.0625000  -0.4375000), wk =   0.0058594
        k(   19) = (   0.0000000   0.0625000  -0.3750000), wk =   0.0058594
        k(   20) = (   0.0000000   0.0625000  -0.3125000), wk =   0.0058594
        k(   21) = (   0.0000000   0.0625000  -0.2500000), wk =   0.0058594
        k(   22) = (   0.0000000   0.0625000  -0.1875000), wk =   0.0058594
        k(   23) = (   0.0000000   0.0625000  -0.1250000), wk =   0.0058594
        k(   24) = (   0.0000000   0.0625000  -0.0625000), wk =   0.0029297
        k(   25) = (   0.0000000   0.1250000   0.1250000), wk =   0.0014648
        k(   26) = (   0.0000000   0.1250000   0.1875000), wk =   0.0058594
        k(   27) = (   0.0000000   0.1250000   0.2500000), wk =   0.0058594
        k(   28) = (   0.0000000   0.1250000   0.3125000), wk =   0.0058594
        k(   29) = (   0.0000000   0.1250000   0.3750000), wk =   0.0058594
        k(   30) = (   0.0000000   0.1250000   0.4375000), wk =   0.0058594
        k(   31) = (   0.0000000   0.1250000  -0.5000000), wk =   0.0058594
        k(   32) = (   0.0000000   0.1250000  -0.4375000), wk =   0.0058594
        k(   33) = (   0.0000000   0.1250000  -0.3750000), wk =   0.0058594
        k(   34) = (   0.0000000   0.1250000  -0.3125000), wk =   0.0058594
        k(   35) = (   0.0000000   0.1250000  -0.2500000), wk =   0.0058594
        k(   36) = (   0.0000000   0.1250000  -0.1875000), wk =   0.0058594
        k(   37) = (   0.0000000   0.1250000  -0.1250000), wk =   0.0029297
        k(   38) = (   0.0000000   0.1875000   0.1875000), wk =   0.0014648
        k(   39) = (   0.0000000   0.1875000   0.2500000), wk =   0.0058594
        k(   40) = (   0.0000000   0.1875000   0.3125000), wk =   0.0058594
        k(   41) = (   0.0000000   0.1875000   0.3750000), wk =   0.0058594
        k(   42) = (   0.0000000   0.1875000   0.4375000), wk =   0.0058594
        k(   43) = (   0.0000000   0.1875000  -0.5000000), wk =   0.0058594
        k(   44) = (   0.0000000   0.1875000  -0.4375000), wk =   0.0058594
        k(   45) = (   0.0000000   0.1875000  -0.3750000), wk =   0.0058594
        k(   46) = (   0.0000000   0.1875000  -0.3125000), wk =   0.0058594
        k(   47) = (   0.0000000   0.1875000  -0.2500000), wk =   0.0058594
        k(   48) = (   0.0000000   0.1875000  -0.1875000), wk =   0.0029297
        k(   49) = (   0.0000000   0.2500000   0.2500000), wk =   0.0014648
        k(   50) = (   0.0000000   0.2500000   0.3125000), wk =   0.0058594
        k(   51) = (   0.0000000   0.2500000   0.3750000), wk =   0.0058594
        k(   52) = (   0.0000000   0.2500000   0.4375000), wk =   0.0058594
        k(   53) = (   0.0000000   0.2500000  -0.5000000), wk =   0.0058594
        k(   54) = (   0.0000000   0.2500000  -0.4375000), wk =   0.0058594
        k(   55) = (   0.0000000   0.2500000  -0.3750000), wk =   0.0058594
        k(   56) = (   0.0000000   0.2500000  -0.3125000), wk =   0.0058594
        k(   57) = (   0.0000000   0.2500000  -0.2500000), wk =   0.0029297
        k(   58) = (   0.0000000   0.3125000   0.3125000), wk =   0.0014648
        k(   59) = (   0.0000000   0.3125000   0.3750000), wk =   0.0058594
        k(   60) = (   0.0000000   0.3125000   0.4375000), wk =   0.0058594
        k(   61) = (   0.0000000   0.3125000  -0.5000000), wk =   0.0058594
        k(   62) = (   0.0000000   0.3125000  -0.4375000), wk =   0.0058594
        k(   63) = (   0.0000000   0.3125000  -0.3750000), wk =   0.0058594
        k(   64) = (   0.0000000   0.3125000  -0.3125000), wk =   0.0029297
        k(   65) = (   0.0000000   0.3750000   0.3750000), wk =   0.0014648
        k(   66) = (   0.0000000   0.3750000   0.4375000), wk =   0.0058594
        k(   67) = (   0.0000000   0.3750000  -0.5000000), wk =   0.0058594
        k(   68) = (   0.0000000   0.3750000  -0.4375000), wk =   0.0058594
        k(   69) = (   0.0000000   0.3750000  -0.3750000), wk =   0.0029297
        k(   70) = (   0.0000000   0.4375000   0.4375000), wk =   0.0014648
        k(   71) = (   0.0000000   0.4375000  -0.5000000), wk =   0.0058594
        k(   72) = (   0.0000000   0.4375000  -0.4375000), wk =   0.0029297
        k(   73) = (   0.0000000  -0.5000000  -0.5000000), wk =   0.0007324
        k(   74) = (   0.0625000   0.1250000   0.1875000), wk =   0.0058594
        k(   75) = (   0.0625000   0.1250000   0.2500000), wk =   0.0117188
        k(   76) = (   0.0625000   0.1250000   0.3125000), wk =   0.0117188
        k(   77) = (   0.0625000   0.1250000   0.3750000), wk =   0.0117188
        k(   78) = (   0.0625000   0.1250000   0.4375000), wk =   0.0117188
        k(   79) = (   0.0625000   0.1250000  -0.5000000), wk =   0.0117188
        k(   80) = (   0.0625000   0.1250000  -0.4375000), wk =   0.0058594
        k(   81) = (   0.0625000   0.1875000   0.2500000), wk =   0.0058594
        k(   82) = (   0.0625000   0.1875000   0.3125000), wk =   0.0117188
        k(   83) = (   0.0625000   0.1875000   0.3750000), wk =   0.0117188
        k(   84) = (   0.0625000   0.1875000   0.4375000), wk =   0.0117188
        k(   85) = (   0.0625000   0.1875000  -0.5000000), wk =   0.0117188
        k(   86) = (   0.0625000   0.1875000  -0.4375000), wk =   0.0117188
        k(   87) = (   0.0625000   0.1875000  -0.3750000), wk =   0.0117188
        k(   88) = (   0.0625000   0.1875000  -0.3125000), wk =   0.0117188
        k(   89) = (   0.0625000   0.1875000  -0.2500000), wk =   0.0117188
        k(   90) = (   0.0625000   0.1875000  -0.1875000), wk =   0.0117188
        k(   91) = (   0.0625000   0.1875000  -0.1250000), wk =   0.0058594
        k(   92) = (   0.0625000   0.2500000   0.3125000), wk =   0.0058594
        k(   93) = (   0.0625000   0.2500000   0.3750000), wk =   0.0117188
        k(   94) = (   0.0625000   0.2500000   0.4375000), wk =   0.0117188
        k(   95) = (   0.0625000   0.2500000  -0.5000000), wk =   0.0117188
        k(   96) = (   0.0625000   0.2500000  -0.4375000), wk =   0.0117188
        k(   97) = (   0.0625000   0.2500000  -0.3750000), wk =   0.0117188
        k(   98) = (   0.0625000   0.2500000  -0.3125000), wk =   0.0117188
        k(   99) = (   0.0625000   0.2500000  -0.2500000), wk =   0.0117188
        k(  100) = (   0.0625000   0.2500000  -0.1875000), wk =   0.0058594
        k(  101) = (   0.0625000   0.3125000   0.3750000), wk =   0.0058594
        k(  102) = (   0.0625000   0.3125000   0.4375000), wk =   0.0117188
        k(  103) = (   0.0625000   0.3125000  -0.5000000), wk =   0.0117188
        k(  104) = (   0.0625000   0.3125000  -0.4375000), wk =   0.0117188
        k(  105) = (   0.0625000   0.3125000  -0.3750000), wk =   0.0117188
        k(  106) = (   0.0625000   0.3125000  -0.3125000), wk =   0.0117188
        k(  107) = (   0.0625000   0.3125000  -0.2500000), wk =   0.0058594
        k(  108) = (   0.0625000   0.3750000   0.4375000), wk =   0.0058594
        k(  109) = (   0.0625000   0.3750000  -0.5000000), wk =   0.0117188
        k(  110) = (   0.0625000   0.3750000  -0.4375000), wk =   0.0117188
        k(  111) = (   0.0625000   0.3750000  -0.3750000), wk =   0.0117188
        k(  112) = (   0.0625000   0.3750000  -0.3125000), wk =   0.0058594
        k(  113) = (   0.0625000   0.4375000  -0.5000000), wk =   0.0058594
        k(  114) = (   0.0625000   0.4375000  -0.4375000), wk =   0.0117188
        k(  115) = (   0.0625000   0.4375000  -0.3750000), wk =   0.0058594
        k(  116) = (   0.0625000  -0.5000000  -0.4375000), wk =   0.0029297
        k(  117) = (   0.1250000   0.2500000   0.3750000), wk =   0.0058594
        k(  118) = (   0.1250000   0.2500000   0.4375000), wk =   0.0117188
        k(  119) = (   0.1250000   0.2500000  -0.5000000), wk =   0.0117188
        k(  120) = (   0.1250000   0.2500000  -0.4375000), wk =   0.0117188
        k(  121) = (   0.1250000   0.2500000  -0.3750000), wk =   0.0058594
        k(  122) = (   0.1250000   0.3125000   0.4375000), wk =   0.0058594
        k(  123) = (   0.1250000   0.3125000  -0.5000000), wk =   0.0117188
        k(  124) = (   0.1250000   0.3125000  -0.4375000), wk =   0.0117188
        k(  125) = (   0.1250000   0.3125000  -0.3750000), wk =   0.0117188
        k(  126) = (   0.1250000   0.3125000  -0.3125000), wk =   0.0117188
        k(  127) = (   0.1250000   0.3125000  -0.2500000), wk =   0.0117188
        k(  128) = (   0.1250000   0.3125000  -0.1875000), wk =   0.0058594
        k(  129) = (   0.1250000   0.3750000  -0.5000000), wk =   0.0058594
        k(  130) = (   0.1250000   0.3750000  -0.4375000), wk =   0.0117188
        k(  131) = (   0.1250000   0.3750000  -0.3750000), wk =   0.0117188
        k(  132) = (   0.1250000   0.3750000  -0.3125000), wk =   0.0117188
        k(  133) = (   0.1250000   0.3750000  -0.2500000), wk =   0.0058594
        k(  134) = (   0.1250000   0.4375000  -0.4375000), wk =   0.0058594
        k(  135) = (   0.1250000   0.4375000  -0.3750000), wk =   0.0117188
        k(  136) = (   0.1250000   0.4375000  -0.3125000), wk =   0.0058594
        k(  137) = (   0.1250000  -0.5000000  -0.3750000), wk =   0.0029297
        k(  138) = (   0.1875000   0.3750000  -0.4375000), wk =   0.0058594
        k(  139) = (   0.1875000   0.3750000  -0.3750000), wk =   0.0117188
        k(  140) = (   0.1875000   0.3750000  -0.3125000), wk =   0.0058594
        k(  141) = (   0.1875000   0.4375000  -0.3750000), wk =   0.0058594
        k(  142) = (   0.1875000   0.4375000  -0.3125000), wk =   0.0117188
        k(  143) = (   0.1875000   0.4375000  -0.2500000), wk =   0.0058594
        k(  144) = (   0.1875000  -0.5000000  -0.3125000), wk =   0.0029297
        k(  145) = (   0.2500000  -0.5000000  -0.2500000), wk =   0.0014648

     Dense  grid:    31283 G-vectors     FFT dimensions: (  45,  45,  45)

     Largest allocated arrays     est. size (Mb)     dimensions
        Kohn-Sham Wavefunctions         0.28 Mb     (     518,   36)
        NL pseudopotentials             0.14 Mb     (     259,   36)
        Each V/rho on FFT grid          0.09 Mb     (    6075)
        Each G-vector array             0.01 Mb     (    1958)
        G-vector shells                 0.00 Mb     (     301)
     Largest temporary arrays     est. size (Mb)     dimensions
        Auxiliary wavefunctions         1.14 Mb     (     518,  144)
        Each subspace H/S matrix        0.32 Mb     (     144,  144)
        Each <psi_i|beta_j> matrix      0.04 Mb     (      36,   2,   36)
        Arrays for rho mixing           0.74 Mb     (    6075,    8)

     Check: negative/imaginary core charge=   -0.000035    0.000000

     Initial potential from superposition of free atoms

     starting charge   27.99723, renormalised to   28.00000
     Starting wfc are   36 randomized atomic wfcs
     Checking if some PAW data can be deallocated... 

     total cpu time spent up to now is        4.3 secs

     Self-consistent Calculation

     iteration #  1     ecut=    60.00 Ry     beta=0.70
     Davidson diagonalization with overlap
     ethr =  1.00E-02,  avg # of iterations =  4.0

     Threshold (ethr) on eigenvalues was too large:
     Diagonalizing with lowered threshold

     Davidson diagonalization with overlap
     ethr =  4.91E-05,  avg # of iterations =  4.2

     total cpu time spent up to now is       29.6 secs

     total energy              =    -884.12586689 Ry
     Harris-Foulkes estimate   =    -884.13004893 Ry
     estimated scf accuracy    <       0.02342036 Ry

     iteration #  2     ecut=    60.00 Ry     beta=0.70
     Davidson diagonalization with overlap
     ethr =  8.36E-05,  avg # of iterations =  1.0

     total cpu time spent up to now is       37.2 secs

     total energy              =    -884.12630959 Ry
     Harris-Foulkes estimate   =    -884.12665336 Ry
     estimated scf accuracy    <       0.00165451 Ry

     iteration #  3     ecut=    60.00 Ry     beta=0.70
     Davidson diagonalization with overlap
     ethr =  5.91E-06,  avg # of iterations =  2.6

     total cpu time spent up to now is       47.0 secs

     total energy              =    -884.12660951 Ry
     Harris-Foulkes estimate   =    -884.12673314 Ry
     estimated scf accuracy    <       0.00016470 Ry

     iteration #  4     ecut=    60.00 Ry     beta=0.70
     Davidson diagonalization with overlap
     ethr =  5.88E-07,  avg # of iterations =  3.0

     total cpu time spent up to now is       58.5 secs

     total energy              =    -884.12667908 Ry
     Harris-Foulkes estimate   =    -884.12667926 Ry
     estimated scf accuracy    <       0.00000803 Ry

     iteration #  5     ecut=    60.00 Ry     beta=0.70
     Davidson diagonalization with overlap
     ethr =  2.87E-08,  avg # of iterations =  3.0

     total cpu time spent up to now is       67.8 secs

     End of self-consistent calculation

          k = 0.0000 0.0000 0.0000 (  3839 PWs)   bands (ev):

   -14.0278 -14.0278 -14.0278 -14.0278 -14.0278 -14.0278 -13.9779 -13.9779
   -13.9779 -13.9779 -13.7316 -13.7316 -13.7316 -13.7316 -13.7316 -13.7316
   -13.7294 -13.7294 -13.7294 -13.7294  -2.5477  -2.5477   6.3353   6.3353
     7.6237   7.6237   7.6237   7.6237   7.6237   7.6237   9.6896   9.6896
     9.6896   9.6896   9.6896   9.6896

     occupation numbers 
     1.0000   1.0000   1.0000   1.0000   1.0000   1.0000   1.0000   1.0000
     1.0000   1.0000   1.0000   1.0000   1.0000   1.0000   1.0000   1.0000
     1.0000   1.0000   1.0000   1.0000   1.0000   1.0000   1.0000   1.0000
     0.0000   0.0000   0.0000   0.0000   0.0000   0.0000   0.0000   0.0000
     0.0000   0.0000   0.0000   0.0000

          k = 0.0442 0.0442-0.0442 (  3879 PWs)   bands (ev):

   -14.0303 -14.0303 -14.0303 -14.0303 -14.0270 -14.0270 -13.9744 -13.9744
   -13.9744 -13.9744 -13.7411 -13.7411 -13.7411 -13.7411 -13.7325 -13.7325
   -13.7205 -13.7205 -13.7205 -13.7205  -2.5130  -2.5130   5.9415   5.9415
     7.5511   7.5511   7.5511   7.5511   7.8048   7.8048   9.7845   9.7845
     9.7845   9.7845   9.8210   9.8210

     occupation numbers 
     1.0000   1.0000   1.0000   1.0000   1.0000   1.0000   1.0000   1.0000
     1.0000   1.0000   1.0000   1.0000   1.0000   1.0000   1.0000   1.0000
     1.0000   1.0000   1.0000   1.0000   1.0000   1.0000   1.0000   1.0000
     0.0241   0.0241   0.0241   0.0241   0.0000   0.0000   0.0000   0.0000
     0.0000   0.0000   0.0000   0.0000

          k = 0.0884 0.0884-0.0884 (  3888 PWs)   bands (ev):

   -14.0361 -14.0361 -14.0361 -14.0361 -14.0246 -14.0246 -13.9662 -13.9662
   -13.9662 -13.9662 -13.7515 -13.7515 -13.7515 -13.7515 -13.7353 -13.7353
   -13.7116 -13.7116 -13.7116 -13.7116  -2.4097  -2.4097   5.1813   5.1813
     7.3736   7.3736   7.3736   7.3736   7.9348   7.9348  10.0190  10.0190
    10.0190  10.0190  10.2575  10.2575

     occupation numbers 
     1.0000   1.0000   1.0000   1.0000   1.0000   1.0000   1.0000   1.0000
     1.0000   1.0000   1.0000   1.0000   1.0000   1.0000   1.0000   1.0000
     1.0000   1.0000   1.0000   1.0000   1.0000   1.0000   1.0000   1.0000
     1.0000   1.0000   1.0000   1.0000   0.0000   0.0000   0.0000   0.0000
     0.0000   0.0000   0.0000   0.0000

          k = 0.1326 0.1326-0.1326 (  3900 PWs)   bands (ev):

   -14.0424 -14.0424 -14.0424 -14.0424 -14.0210 -14.0210 -13.9563 -13.9563
   -13.9563 -13.9563 -13.7612 -13.7612 -13.7612 -13.7612 -13.7395 -13.7395
   -13.7041 -13.7041 -13.7041 -13.7041  -2.2408  -2.2408   4.3520   4.3520
     7.1587   7.1587   7.1587   7.1587   7.8729   7.8729  10.2948  10.2948
    10.2948  10.2948  10.9411  10.9411

     occupation numbers 
     1.0000   1.0000   1.0000   1.0000   1.0000   1.0000   1.0000   1.0000
     1.0000   1.0000   1.0000   1.0000   1.0000   1.0000   1.0000   1.0000
     1.0000   1.0000   1.0000   1.0000   1.0000   1.0000   1.0000   1.0000
     1.0000   1.0000   1.0000   1.0000   0.0000   0.0000   0.0000   0.0000
     0.0000   0.0000   0.0000   0.0000

          k = 0.1768 0.1768-0.1768 (  3912 PWs)   bands (ev):

   -14.0479 -14.0479 -14.0479 -14.0479 -14.0167 -14.0167 -13.9469 -13.9469
   -13.9469 -13.9469 -13.7695 -13.7695 -13.7695 -13.7695 -13.7446 -13.7446
   -13.6981 -13.6981 -13.6981 -13.6981  -2.0125  -2.0125   3.5407   3.5407
     6.9519   6.9519   6.9519   6.9519   7.7343   7.7343  10.5258  10.5258
    10.5258  10.5258  11.7522  11.7522

     occupation numbers 
     1.0000   1.0000   1.0000   1.0000   1.0000   1.0000   1.0000   1.0000
     1.0000   1.0000   1.0000   1.0000   1.0000   1.0000   1.0000   1.0000
     1.0000   1.0000   1.0000   1.0000   1.0000   1.0000   1.0000   1.0000
     1.0000   1.0000   1.0000   1.0000   0.0000   0.0000   0.0000   0.0000
     0.0000   0.0000   0.0000   0.0000

          k = 0.2210 0.2210-0.2210 (  3897 PWs)   bands (ev):

   -14.0520 -14.0520 -14.0520 -14.0520 -14.0122 -14.0122 -13.9392 -13.9392
   -13.9392 -13.9392 -13.7758 -13.7758 -13.7758 -13.7758 -13.7498 -13.7498
   -13.6937 -13.6937 -13.6937 -13.6937  -1.7380  -1.7380   2.7930   2.7930
     6.7771   6.7771   6.7771   6.7771   7.5931   7.5931  10.6659  10.6659
    10.6659  10.6659  12.6184  12.6184

     occupation numbers 
     1.0000   1.0000   1.0000   1.0000   1.0000   1.0000   1.0000   1.0000
     1.0000   1.0000   1.0000   1.0000   1.0000   1.0000   1.0000   1.0000
     1.0000   1.0000   1.0000   1.0000   1.0000   1.0000   1.0000   1.0000
     1.0000   1.0000   1.0000   1.0000   0.0000   0.0000   0.0000   0.0000
     0.0000   0.0000   0.0000   0.0000

          k = 0.2652 0.2652-0.2652 (  3903 PWs)   bands (ev):

   -14.0548 -14.0548 -14.0548 -14.0548 -14.0083 -14.0083 -13.9338 -13.9338
   -13.9338 -13.9338 -13.7800 -13.7800 -13.7800 -13.7800 -13.7543 -13.7543
   -13.6908 -13.6908 -13.6908 -13.6908  -1.4453  -1.4453   2.1535   2.1535
     6.6463   6.6463   6.6463   6.6463   7.4808   7.4808  10.7232  10.7232
    10.7232  10.7232  13.2972  13.2972

     occupation numbers 
     1.0000   1.0000   1.0000   1.0000   1.0000   1.0000   1.0000   1.0000
     1.0000   1.0000   1.0000   1.0000   1.0000   1.0000   1.0000   1.0000
     1.0000   1.0000   1.0000   1.0000   1.0000   1.0000   1.0000   1.0000
     1.0000   1.0000   1.0000   1.0000   1.0000   1.0000   0.0000   0.0000
     0.0000   0.0000   0.0000   0.0000

          k = 0.3094 0.3094-0.3094 (  3903 PWs)   bands (ev):

   -14.0563 -14.0563 -14.0563 -14.0563 -14.0057 -14.0057 -13.9307 -13.9307
   -13.9307 -13.9307 -13.7823 -13.7823 -13.7823 -13.7823 -13.7573 -13.7573
   -13.6891 -13.6891 -13.6891 -13.6891  -1.1943  -1.1943   1.6914   1.6914
     6.5659   6.5659   6.5659   6.5659   7.4101   7.4101  10.7358  10.7358
    10.7358  10.7358  13.3375  13.3376

     occupation numbers 
     1.0000   1.0000   1.0000   1.0000   1.0000   1.0000   1.0000   1.0000
     1.0000   1.0000   1.0000   1.0000   1.0000   1.0000   1.0000   1.0000
     1.0000   1.0000   1.0000   1.0000   1.0000   1.0000   1.0000   1.0000
     1.0000   1.0000   1.0000   1.0000   1.0000   1.0000   0.0000   0.0000
     0.0000   0.0000   0.0000   0.0000

          k =-0.3536-0.3536 0.3536 (  3906 PWs)   bands (ev):

   -14.0568 -14.0568 -14.0568 -14.0568 -14.0048 -14.0048 -13.9298 -13.9298
   -13.9298 -13.9298 -13.7830 -13.7830 -13.7830 -13.7830 -13.7584 -13.7584
   -13.6886 -13.6886 -13.6886 -13.6886  -1.0883  -1.0883   1.5144   1.5144
     6.5388   6.5388   6.5388   6.5388   7.3861   7.3861  10.7361  10.7361
    10.7361  10.7361  13.3140  13.3140

     occupation numbers 
     1.0000   1.0000   1.0000   1.0000   1.0000   1.0000   1.0000   1.0000
     1.0000   1.0000   1.0000   1.0000   1.0000   1.0000   1.0000   1.0000
     1.0000   1.0000   1.0000   1.0000   1.0000   1.0000   1.0000   1.0000
     1.0000   1.0000   1.0000   1.0000   1.0000   1.0000   0.0000   0.0000
     0.0000   0.0000   0.0000   0.0000

          k = 0.0884 0.0000 0.0000 (  3883 PWs)   bands (ev):

   -14.0298 -14.0298 -14.0296 -14.0296 -14.0296 -14.0296 -13.9754 -13.9754
   -13.9710 -13.9710 -13.7503 -13.7503 -13.7317 -13.7317 -13.7291 -13.7291
   -13.7291 -13.7291 -13.7162 -13.7162  -2.5014  -2.5014   5.8614   5.8614
     7.4183   7.4183   7.4183   7.4183   8.0784   8.0784   9.5470   9.5470
     9.9546   9.9546   9.9546   9.9546

     occupation numbers 
     1.0000   1.0000   1.0000   1.0000   1.0000   1.0000   1.0000   1.0000
     1.0000   1.0000   1.0000   1.0000   1.0000   1.0000   1.0000   1.0000
     1.0000   1.0000   1.0000   1.0000   1.0000   1.0000   1.0000   1.0000
     1.0000   1.0000   1.0000   1.0000   0.0000   0.0000   0.0000   0.0000
     0.0000   0.0000   0.0000   0.0000

          k = 0.1326 0.0442-0.0442 (  3896 PWs)   bands (ev):

   -14.0359 -14.0359 -14.0334 -14.0334 -14.0274 -14.0274 -13.9702 -13.9702
   -13.9625 -13.9625 -13.7616 -13.7616 -13.7412 -13.7412 -13.7292 -13.7292
   -13.7200 -13.7200 -13.7094 -13.7094  -2.4208  -2.4208   5.2977   5.2977
     7.2103   7.2103   7.2417   7.2417   8.3311   8.3311   9.5473   9.5473
    10.2381  10.2381  10.3132  10.3132

     occupation numbers 
     1.0000   1.0000   1.0000   1.0000   1.0000   1.0000   1.0000   1.0000
     1.0000   1.0000   1.0000   1.0000   1.0000   1.0000   1.0000   1.0000
     1.0000   1.0000   1.0000   1.0000   1.0000   1.0000   1.0000   1.0000
     1.0000   1.0000   1.0000   1.0000   0.0000   0.0000   0.0000   0.0000
     0.0000   0.0000   0.0000   0.0000

          k = 0.1768 0.0884-0.0884 (  3893 PWs)   bands (ev):

   -14.0431 -14.0431 -14.0391 -14.0391 -14.0233 -14.0233 -13.9617 -13.9617
   -13.9521 -13.9521 -13.7722 -13.7722 -13.7512 -13.7512 -13.7330 -13.7330
   -13.7113 -13.7113 -13.7019 -13.7019  -2.2733  -2.2733   4.5444   4.5444
     6.9879   6.9879   7.0246   7.0246   8.3503   8.3503   9.7741   9.7741
    10.5443  10.5443  10.8687  10.8687

     occupation numbers 
     1.0000   1.0000   1.0000   1.0000   1.0000   1.0000   1.0000   1.0000
     1.0000   1.0000   1.0000   1.0000   1.0000   1.0000   1.0000   1.0000
     1.0000   1.0000   1.0000   1.0000   1.0000   1.0000   1.0000   1.0000
     1.0000   1.0000   1.0000   1.0000   0.0000   0.0000   0.0000   0.0000
     0.0000   0.0000   0.0000   0.0000

          k = 0.2210 0.1326-0.1326 (  3920 PWs)   bands (ev):

   -14.0497 -14.0497 -14.0448 -14.0448 -14.0180 -14.0180 -13.9524 -13.9524
   -13.9420 -13.9420 -13.7811 -13.7811 -13.7605 -13.7605 -13.7390 -13.7390
   -13.7040 -13.7040 -13.6952 -13.6952  -2.0638  -2.0638   3.7565   3.7565
     6.7842   6.7842   6.7875   6.7875   8.2365   8.2365  10.0857  10.0857
    10.7923  10.7923  11.5176  11.5176

     occupation numbers 
     1.0000   1.0000   1.0000   1.0000   1.0000   1.0000   1.0000   1.0000
     1.0000   1.0000   1.0000   1.0000   1.0000   1.0000   1.0000   1.0000
     1.0000   1.0000   1.0000   1.0000   1.0000   1.0000   1.0000   1.0000
     1.0000   1.0000   1.0000   1.0000   0.0000   0.0000   0.0000   0.0000
     0.0000   0.0000   0.0000   0.0000

          k = 0.2652 0.1768-0.1768 (  3914 PWs)   bands (ev):

   -14.0549 -14.0549 -14.0496 -14.0496 -14.0120 -14.0120 -13.9438 -13.9438
   -13.9338 -13.9338 -13.7873 -13.7873 -13.7685 -13.7685 -13.7461 -13.7461
   -13.6981 -13.6981 -13.6899 -13.6899  -1.8026  -1.8026   3.0031   3.0031
     6.5590   6.5590   6.6283   6.6283   8.0919   8.0919  10.3461  10.3461
    10.9309  10.9309  12.1999  12.1999

     occupation numbers 
     1.0000   1.0000   1.0000   1.0000   1.0000   1.0000   1.0000   1.0000
     1.0000   1.0000   1.0000   1.0000   1.0000   1.0000   1.0000   1.0000
     1.0000   1.0000   1.0000   1.0000   1.0000   1.0000   1.0000   1.0000
     1.0000   1.0000   1.0000   1.0000   0.0000   0.0000   0.0000   0.0000
     0.0000   0.0000   0.0000   0.0000

          k = 0.3094 0.2210-0.2210 (  3910 PWs)   bands (ev):

   -14.0586 -14.0586 -14.0533 -14.0533 -14.0064 -14.0064 -13.9367 -13.9367
   -13.9286 -13.9286 -13.7903 -13.7903 -13.7752 -13.7752 -13.7531 -13.7531
   -13.6935 -13.6935 -13.6862 -13.6862  -1.5111  -1.5111   2.3332   2.3332
     6.3707   6.3707   6.5199   6.5199   7.9628   7.9628  10.5058  10.5058
    10.9628  10.9628  12.8733  12.8733

     occupation numbers 
     1.0000   1.0000   1.0000   1.0000   1.0000   1.0000   1.0000   1.0000
     1.0000   1.0000   1.0000   1.0000   1.0000   1.0000   1.0000   1.0000
     1.0000   1.0000   1.0000   1.0000   1.0000   1.0000   1.0000   1.0000
     1.0000   1.0000   1.0000   1.0000   0.0000   0.0000   0.0000   0.0000
     0.0000   0.0000   0.0000   0.0000

          k = 0.3536 0.2652-0.2652 (  3909 PWs)   bands (ev):

   -14.0607 -14.0607 -14.0559 -14.0559 -14.0019 -14.0019 -13.9313 -13.9313
   -13.9264 -13.9264 -13.7900 -13.7900 -13.7806 -13.7806 -13.7592 -13.7592
   -13.6901 -13.6901 -13.6842 -13.6842  -1.2360  -1.2360   1.8076   1.8076
     6.2301   6.2301   6.4668   6.4668   7.8686   7.8686  10.5934  10.5934
    10.9297  10.9297  13.3197  13.3197

     occupation numbers 
     1.0000   1.0000   1.0000   1.0000   1.0000   1.0000   1.0000   1.0000
     1.0000   1.0000   1.0000   1.0000   1.0000   1.0000   1.0000   1.0000
     1.0000   1.0000   1.0000   1.0000   1.0000   1.0000   1.0000   1.0000
     1.0000   1.0000   1.0000   1.0000   0.0000   0.0000   0.0000   0.0000
     0.0000   0.0000   0.0000   0.0000

          k =-0.3094-0.3977 0.3977 (  3918 PWs)   bands (ev):

   -14.0612 -14.0612 -14.0575 -14.0575 -13.9994 -13.9994 -13.9277 -13.9277
   -13.9270 -13.9270 -13.7871 -13.7871 -13.7848 -13.7848 -13.7630 -13.7630
   -13.6878 -13.6878 -13.6839 -13.6839  -1.0686  -1.0686   1.5251   1.5251
     6.1434   6.1434   6.4705   6.4705   7.8178   7.8178  10.6547  10.6547
    10.8719  10.8719  13.4216  13.4216

     occupation numbers 
     1.0000   1.0000   1.0000   1.0000   1.0000   1.0000   1.0000   1.0000
     1.0000   1.0000   1.0000   1.0000   1.0000   1.0000   1.0000   1.0000
     1.0000   1.0000   1.0000   1.0000   1.0000   1.0000   1.0000   1.0000
     1.0000   1.0000   1.0000   1.0000   0.0000   0.0000   0.0000   0.0000
     0.0000   0.0000   0.0000   0.0000

          k =-0.2652-0.3536 0.3536 (  3919 PWs)   bands (ev):

   -14.0604 -14.0604 -14.0581 -14.0581 -13.9995 -13.9995 -13.9296 -13.9296
   -13.9259 -13.9259 -13.7875 -13.7875 -13.7831 -13.7831 -13.7635 -13.7635
   -13.6867 -13.6867 -13.6853 -13.6853  -1.1054  -1.1054   1.5853   1.5853
     6.1141   6.1141   6.5299   6.5299   7.8134   7.8134  10.7147  10.7147
    10.8095  10.8095  13.4338  13.4338

     occupation numbers 
     1.0000   1.0000   1.0000   1.0000   1.0000   1.0000   1.0000   1.0000
     1.0000   1.0000   1.0000   1.0000   1.0000   1.0000   1.0000   1.0000
     1.0000   1.0000   1.0000   1.0000   1.0000   1.0000   1.0000   1.0000
     1.0000   1.0000   1.0000   1.0000   0.0000   0.0000   0.0000   0.0000
     0.0000   0.0000   0.0000   0.0000

          k =-0.2210-0.3094 0.3094 (  3913 PWs)   bands (ev):

   -14.0582 -14.0582 -14.0576 -14.0576 -14.0021 -14.0021 -13.9337 -13.9337
   -13.9267 -13.9267 -13.7882 -13.7882 -13.7791 -13.7791 -13.7599 -13.7599
   -13.6883 -13.6883 -13.6868 -13.6868  -1.3218  -1.3218   1.9627   1.9627
     6.1446   6.1446   6.6420   6.6420   7.8550   7.8550  10.7385  10.7385
    10.7703  10.7703  13.3079  13.3079

     occupation numbers 
     1.0000   1.0000   1.0000   1.0000   1.0000   1.0000   1.0000   1.0000
     1.0000   1.0000   1.0000   1.0000   1.0000   1.0000   1.0000   1.0000
     1.0000   1.0000   1.0000   1.0000   1.0000   1.0000   1.0000   1.0000
     1.0000   1.0000   1.0000   1.0000   0.0000   0.0000   0.0000   0.0000
     0.0000   0.0000   0.0000   0.0000

          k =-0.1768-0.2652 0.2652 (  3918 PWs)   bands (ev):

   -14.0558 -14.0558 -14.0546 -14.0546 -14.0068 -14.0068 -13.9394 -13.9394
   -13.9304 -13.9304 -13.7861 -13.7861 -13.7750 -13.7750 -13.7532 -13.7532
   -13.6928 -13.6928 -13.6883 -13.6883  -1.6101  -1.6101   2.5451   2.5451
     6.2363   6.2363   6.8010   6.8010   7.9379   7.9379  10.6347  10.6347
    10.7875  10.7875  12.7245  12.7245

     occupation numbers 
     1.0000   1.0000   1.0000   1.0000   1.0000   1.0000   1.0000   1.0000
     1.0000   1.0000   1.0000   1.0000   1.0000   1.0000   1.0000   1.0000
     1.0000   1.0000   1.0000   1.0000   1.0000   1.0000   1.0000   1.0000
     1.0000   1.0000   1.0000   1.0000   0.0000   0.0000   0.0000   0.0000
     0.0000   0.0000   0.0000   0.0000

          k =-0.1326-0.2210 0.2210 (  3918 PWs)   bands (ev):

   -14.0525 -14.0525 -14.0498 -14.0498 -14.0126 -14.0126 -13.9465 -13.9465
   -13.9373 -13.9373 -13.7810 -13.7810 -13.7697 -13.7697 -13.7450 -13.7450
   -13.6989 -13.6989 -13.6915 -13.6915  -1.8950  -1.8950   3.2474   3.2474
     6.3897   6.3897   6.9971   6.9971   8.0500   8.0500  10.4668  10.4668
    10.6995  10.6995  11.9915  11.9915

     occupation numbers 
     1.0000   1.0000   1.0000   1.0000   1.0000   1.0000   1.0000   1.0000
     1.0000   1.0000   1.0000   1.0000   1.0000   1.0000   1.0000   1.0000
     1.0000   1.0000   1.0000   1.0000   1.0000   1.0000   1.0000   1.0000
     1.0000   1.0000   1.0000   1.0000   0.0000   0.0000   0.0000   0.0000
     0.0000   0.0000   0.0000   0.0000

          k =-0.0884-0.1768 0.1768 (  3922 PWs)   bands (ev):

   -14.0477 -14.0477 -14.0437 -14.0437 -14.0185 -14.0185 -13.9550 -13.9550
   -13.9467 -13.9467 -13.7732 -13.7732 -13.7628 -13.7628 -13.7370 -13.7370
   -13.7065 -13.7065 -13.6965 -13.6965  -2.1405  -2.1405   4.0148   4.0148
     6.6044   6.6044   7.2125   7.2125   8.1620   8.1620  10.2305  10.2305
    10.4451  10.4451  11.3326  11.3326

     occupation numbers 
     1.0000   1.0000   1.0000   1.0000   1.0000   1.0000   1.0000   1.0000
     1.0000   1.0000   1.0000   1.0000   1.0000   1.0000   1.0000   1.0000
     1.0000   1.0000   1.0000   1.0000   1.0000   1.0000   1.0000   1.0000
     1.0000   1.0000   1.0000   1.0000   0.0000   0.0000   0.0000   0.0000
     0.0000   0.0000   0.0000   0.0000

          k =-0.0442-0.1326 0.1326 (  3902 PWs)   bands (ev):

   -14.0416 -14.0416 -14.0371 -14.0371 -14.0235 -14.0235 -13.9638 -13.9638
   -13.9573 -13.9573 -13.7633 -13.7633 -13.7545 -13.7545 -13.7301 -13.7301
   -13.7154 -13.7154 -13.7031 -13.7031  -2.3299  -2.3299   4.7937   4.7937
     6.8798   6.8798   7.4149   7.4149   8.2046   8.2046   9.9762   9.9762
    10.0897  10.0897  10.7565  10.7565

     occupation numbers 
     1.0000   1.0000   1.0000   1.0000   1.0000   1.0000   1.0000   1.0000
     1.0000   1.0000   1.0000   1.0000   1.0000   1.0000   1.0000   1.0000
     1.0000   1.0000   1.0000   1.0000   1.0000   1.0000   1.0000   1.0000
     1.0000   1.0000   1.0000   1.0000   0.0000   0.0000   0.0000   0.0000
     0.0000   0.0000   0.0000   0.0000

          k = 0.0000-0.0884 0.0884 (  3893 PWs)   bands (ev):

   -14.0352 -14.0352 -14.0315 -14.0315 -14.0267 -14.0267 -13.9713 -13.9713
   -13.9675 -13.9675 -13.7523 -13.7523 -13.7456 -13.7456 -13.7265 -13.7265
   -13.7235 -13.7235 -13.7112 -13.7112  -2.4554  -2.4554   5.4964   5.4964
     7.2146   7.2146   7.5484   7.5484   8.0646   8.0646   9.7970   9.7970
     9.8405   9.8405  10.2319  10.2319

     occupation numbers 
     1.0000   1.0000   1.0000   1.0000   1.0000   1.0000   1.0000   1.0000
     1.0000   1.0000   1.0000   1.0000   1.0000   1.0000   1.0000   1.0000
     1.0000   1.0000   1.0000   1.0000   1.0000   1.0000   1.0000   1.0000
     1.0000   1.0000   0.8012   0.8012   0.0000   0.0000   0.0000   0.0000
     0.0000   0.0000   0.0000   0.0000

          k = 0.1768 0.0000 0.0000 (  3903 PWs)   bands (ev):

   -14.0347 -14.0347 -14.0347 -14.0347 -14.0328 -14.0328 -13.9682 -13.9682
   -13.9537 -13.9537 -13.7749 -13.7749 -13.7386 -13.7386 -13.7220 -13.7220
   -13.7220 -13.7220 -13.7082 -13.7082  -2.3627  -2.3627   5.0478   5.0478
     6.9878   6.9878   6.9878   6.9878   8.7998   8.7998   9.2300   9.2300
    10.5625  10.5625  10.5625  10.5625

     occupation numbers 
     1.0000   1.0000   1.0000   1.0000   1.0000   1.0000   1.0000   1.0000
     1.0000   1.0000   1.0000   1.0000   1.0000   1.0000   1.0000   1.0000
     1.0000   1.0000   1.0000   1.0000   1.0000   1.0000   1.0000   1.0000
     1.0000   1.0000   1.0000   1.0000   0.0000   0.0000   0.0000   0.0000
     0.0000   0.0000   0.0000   0.0000

          k = 0.2210 0.0442-0.0442 (  3908 PWs)   bands (ev):

   -14.0422 -14.0422 -14.0391 -14.0391 -14.0286 -14.0286 -13.9615 -13.9615
   -13.9426 -13.9426 -13.7877 -13.7877 -13.7465 -13.7465 -13.7223 -13.7223
   -13.7149 -13.7149 -13.7029 -13.7029  -2.2371  -2.2371   4.5047   4.5047
     6.7448   6.7448   6.7605   6.7605   8.9838   8.9838   9.2248   9.2248
    10.9096  10.9096  10.9930  10.9930

     occupation numbers 
     1.0000   1.0000   1.0000   1.0000   1.0000   1.0000   1.0000   1.0000
     1.0000   1.0000   1.0000   1.0000   1.0000   1.0000   1.0000   1.0000
     1.0000   1.0000   1.0000   1.0000   1.0000   1.0000   1.0000   1.0000
     1.0000   1.0000   1.0000   1.0000   0.0000   0.0000   0.0000   0.0000
     0.0000   0.0000   0.0000   0.0000

          k = 0.2652 0.0884-0.0884 (  3934 PWs)   bands (ev):

   -14.0505 -14.0505 -14.0444 -14.0444 -14.0216 -14.0216 -13.9527 -13.9527
   -13.9316 -13.9316 -13.7987 -13.7987 -13.7562 -13.7562 -13.7290 -13.7290
   -13.7069 -13.7069 -13.6948 -13.6948  -2.0475  -2.0475   3.8290   3.8290
     6.4649   6.4649   6.5612   6.5612   8.9118   8.9118   9.5170   9.5170
    11.1992  11.1992  11.4329  11.4329

     occupation numbers 
     1.0000   1.0000   1.0000   1.0000   1.0000   1.0000   1.0000   1.0000
     1.0000   1.0000   1.0000   1.0000   1.0000   1.0000   1.0000   1.0000
     1.0000   1.0000   1.0000   1.0000   1.0000   1.0000   1.0000   1.0000
     1.0000   1.0000   1.0000   1.0000   0.0000   0.0000   0.0000   0.0000
     0.0000   0.0000   0.0000   0.0000

          k = 0.3094 0.1326-0.1326 (  3920 PWs)   bands (ev):

   -14.0578 -14.0578 -14.0494 -14.0494 -14.0129 -14.0129 -13.9436 -13.9436
   -13.9225 -13.9225 -13.8065 -13.8065 -13.7657 -13.7657 -13.7385 -13.7385
   -13.6998 -13.6998 -13.6871 -13.6871  -1.8017  -1.8017   3.1275   3.1275
     6.1820   6.1820   6.4077   6.4077   8.7707   8.7707   9.9002   9.9002
    11.3686  11.3686  11.7610  11.7610

     occupation numbers 
     1.0000   1.0000   1.0000   1.0000   1.0000   1.0000   1.0000   1.0000
     1.0000   1.0000   1.0000   1.0000   1.0000   1.0000   1.0000   1.0000
     1.0000   1.0000   1.0000   1.0000   1.0000   1.0000   1.0000   1.0000
     1.0000   1.0000   1.0000   1.0000   0.0000   0.0000   0.0000   0.0000
     0.0000   0.0000   0.0000   0.0000

          k = 0.3536 0.1768-0.1768 (  3924 PWs)   bands (ev):

   -14.0637 -14.0637 -14.0536 -14.0536 -14.0038 -14.0038 -13.9352 -13.9352
   -13.9168 -13.9168 -13.8102 -13.8102 -13.7746 -13.7746 -13.7491 -13.7491
   -13.6939 -13.6939 -13.6809 -13.6809  -1.5162  -1.5162   2.4669   2.4669
     5.9310   5.9310   6.3095   6.3095   8.6277   8.6277  10.2256  10.2256
    11.4057  11.4057  12.1238  12.1238

     occupation numbers 
     1.0000   1.0000   1.0000   1.0000   1.0000   1.0000   1.0000   1.0000
     1.0000   1.0000   1.0000   1.0000   1.0000   1.0000   1.0000   1.0000
     1.0000   1.0000   1.0000   1.0000   1.0000   1.0000   1.0000   1.0000
     1.0000   1.0000   1.0000   1.0000   0.0000   0.0000   0.0000   0.0000
     0.0000   0.0000   0.0000   0.0000

          k = 0.3977 0.2210-0.2210 (  3921 PWs)   bands (ev):

   -14.0677 -14.0677 -14.0569 -14.0569 -13.9955 -13.9955 -13.9277 -13.9277
   -13.9153 -13.9153 -13.8091 -13.8091 -13.7827 -13.7827 -13.7592 -13.7592
   -13.6892 -13.6892 -13.6768 -13.6768  -1.2265  -1.2265   1.9093   1.9093
     5.7299   5.7299   6.2709   6.2709   8.5114   8.5114  10.4267  10.4267
    11.3503  11.3503  12.6438  12.6438

     occupation numbers 
     1.0000   1.0000   1.0000   1.0000   1.0000   1.0000   1.0000   1.0000
     1.0000   1.0000   1.0000   1.0000   1.0000   1.0000   1.0000   1.0000
     1.0000   1.0000   1.0000   1.0000   1.0000   1.0000   1.0000   1.0000
     1.0000   1.0000   1.0000   1.0000   0.0000   0.0000   0.0000   0.0000
     0.0000   0.0000   0.0000   0.0000

          k =-0.2652-0.4419 0.4419 (  3936 PWs)   bands (ev):

   -14.0696 -14.0696 -14.0593 -14.0593 -13.9894 -13.9894 -13.9217 -13.9217
   -13.9176 -13.9176 -13.8034 -13.8034 -13.7898 -13.7898 -13.7677 -13.7677
   -13.6856 -13.6856 -13.6749 -13.6749  -1.0086  -1.0086   1.5444   1.5444
     5.5878   5.5878   6.2929   6.2929   8.4346   8.4346  10.5477  10.5477
    11.2507  11.2507  13.2151  13.2151

     occupation numbers 
     1.0000   1.0000   1.0000   1.0000   1.0000   1.0000   1.0000   1.0000
     1.0000   1.0000   1.0000   1.0000   1.0000   1.0000   1.0000   1.0000
     1.0000   1.0000   1.0000   1.0000   1.0000   1.0000   1.0000   1.0000
     1.0000   1.0000   1.0000   1.0000   0.0000   0.0000   0.0000   0.0000
     0.0000   0.0000   0.0000   0.0000

          k =-0.2210-0.3977 0.3977 (  3927 PWs)   bands (ev):

   -14.0695 -14.0695 -14.0608 -14.0608 -13.9868 -13.9868 -13.9226 -13.9226
   -13.9175 -13.9175 -13.7954 -13.7954 -13.7941 -13.7941 -13.7733 -13.7733
   -13.6833 -13.6833 -13.6755 -13.6755  -0.9733  -0.9733   1.4893   1.4893
     5.5109   5.5109   6.3738   6.3738   8.4018   8.4018  10.6484  10.6484
    11.1350  11.1350  13.5237  13.5237

     occupation numbers 
     1.0000   1.0000   1.0000   1.0000   1.0000   1.0000   1.0000   1.0000
     1.0000   1.0000   1.0000   1.0000   1.0000   1.0000   1.0000   1.0000
     1.0000   1.0000   1.0000   1.0000   1.0000   1.0000   1.0000   1.0000
     1.0000   1.0000   1.0000   1.0000   0.0000   0.0000   0.0000   0.0000
     0.0000   0.0000   0.0000   0.0000

          k =-0.1768-0.3536 0.3536 (  3927 PWs)   bands (ev):

   -14.0673 -14.0673 -14.0611 -14.0611 -13.9884 -13.9884 -13.9290 -13.9290
   -13.9162 -13.9162 -13.7985 -13.7985 -13.7834 -13.7834 -13.7747 -13.7747
   -13.6824 -13.6824 -13.6786 -13.6786  -1.1449  -1.1449   1.7683   1.7683
     5.5045   5.5045   6.5091   6.5091   8.4122   8.4122  10.7503  10.7503
    11.0061  11.0061  13.2626  13.2626

     occupation numbers 
     1.0000   1.0000   1.0000   1.0000   1.0000   1.0000   1.0000   1.0000
     1.0000   1.0000   1.0000   1.0000   1.0000   1.0000   1.0000   1.0000
     1.0000   1.0000   1.0000   1.0000   1.0000   1.0000   1.0000   1.0000
     1.0000   1.0000   1.0000   1.0000   0.0000   0.0000   0.0000   0.0000
     0.0000   0.0000   0.0000   0.0000

          k =-0.1326-0.3094 0.3094 (  3917 PWs)   bands (ev):

   -14.0631 -14.0631 -14.0601 -14.0601 -13.9939 -13.9939 -13.9358 -13.9358
   -13.9186 -13.9186 -13.7981 -13.7981 -13.7784 -13.7784 -13.7660 -13.7660
   -13.6842 -13.6842 -13.6831 -13.6831  -1.4225  -1.4225   2.2747   2.2747
     5.5752   5.5752   6.6906   6.6906   8.4583   8.4583  10.8308  10.8308
    10.8458  10.8458  12.6072  12.6073

     occupation numbers 
     1.0000   1.0000   1.0000   1.0000   1.0000   1.0000   1.0000   1.0000
     1.0000   1.0000   1.0000   1.0000   1.0000   1.0000   1.0000   1.0000
     1.0000   1.0000   1.0000   1.0000   1.0000   1.0000   1.0000   1.0000
     1.0000   1.0000   1.0000   1.0000   0.0000   0.0000   0.0000   0.0000
     0.0000   0.0000   0.0000   0.0000

          k =-0.0884-0.2652 0.2652 (  3913 PWs)   bands (ev):

   -14.0575 -14.0575 -14.0571 -14.0571 -14.0021 -14.0021 -13.9428 -13.9428
   -13.9250 -13.9250 -13.7935 -13.7935 -13.7749 -13.7749 -13.7526 -13.7526
   -13.6921 -13.6921 -13.6855 -13.6855  -1.7144  -1.7144   2.9023   2.9023
     5.7322   5.7322   6.9044   6.9044   8.5214   8.5214  10.6307  10.6307
    10.7981  10.7981  11.9956  11.9956

     occupation numbers 
     1.0000   1.0000   1.0000   1.0000   1.0000   1.0000   1.0000   1.0000
     1.0000   1.0000   1.0000   1.0000   1.0000   1.0000   1.0000   1.0000
     1.0000   1.0000   1.0000   1.0000   1.0000   1.0000   1.0000   1.0000
     1.0000   1.0000   1.0000   1.0000   0.0000   0.0000   0.0000   0.0000
     0.0000   0.0000   0.0000   0.0000

          k =-0.0442-0.2210 0.2210 (  3925 PWs)   bands (ev):

   -14.0534 -14.0534 -14.0499 -14.0499 -14.0110 -14.0110 -13.9502 -13.9502
   -13.9347 -13.9347 -13.7855 -13.7855 -13.7696 -13.7696 -13.7399 -13.7399
   -13.7018 -13.7018 -13.6897 -13.6897  -1.9750  -1.9750   3.5779   3.5779
     5.9904   5.9904   7.1268   7.1268   8.5572   8.5572  10.3674  10.3674
    10.5397  10.5397  11.6075  11.6075

     occupation numbers 
     1.0000   1.0000   1.0000   1.0000   1.0000   1.0000   1.0000   1.0000
     1.0000   1.0000   1.0000   1.0000   1.0000   1.0000   1.0000   1.0000
     1.0000   1.0000   1.0000   1.0000   1.0000   1.0000   1.0000   1.0000
     1.0000   1.0000   1.0000   1.0000   0.0000   0.0000   0.0000   0.0000
     0.0000   0.0000   0.0000   0.0000

          k = 0.0000-0.1768 0.1768 (  3905 PWs)   bands (ev):

   -14.0479 -14.0479 -14.0424 -14.0424 -14.0188 -14.0188 -13.9577 -13.9577
   -13.9461 -13.9461 -13.7750 -13.7750 -13.7624 -13.7624 -13.7300 -13.7300
   -13.7121 -13.7121 -13.6956 -13.6956  -2.1834  -2.1834   4.2335   4.2335
     6.3706   6.3706   7.3169   7.3169   8.4756   8.4756  10.1171  10.1171
    10.2249  10.2249  11.2618  11.2618

     occupation numbers 
     1.0000   1.0000   1.0000   1.0000   1.0000   1.0000   1.0000   1.0000
     1.0000   1.0000   1.0000   1.0000   1.0000   1.0000   1.0000   1.0000
     1.0000   1.0000   1.0000   1.0000   1.0000   1.0000   1.0000   1.0000
     1.0000   1.0000   1.0000   1.0000   0.0000   0.0000   0.0000   0.0000
     0.0000   0.0000   0.0000   0.0000

          k = 0.2652 0.0000 0.0000 (  3931 PWs)   bands (ev):

   -14.0420 -14.0420 -14.0420 -14.0420 -14.0327 -14.0327 -13.9565 -13.9565
   -13.9304 -13.9304 -13.8033 -13.8033 -13.7499 -13.7499 -13.7119 -13.7119
   -13.7119 -13.7119 -13.7067 -13.7067  -2.1329  -2.1329   4.1924   4.1924
     6.5289   6.5289   6.5289   6.5289   8.8907   8.8907   9.3641   9.3641
    11.3115  11.3115  11.3115  11.3115

     occupation numbers 
     1.0000   1.0000   1.0000   1.0000   1.0000   1.0000   1.0000   1.0000
     1.0000   1.0000   1.0000   1.0000   1.0000   1.0000   1.0000   1.0000
     1.0000   1.0000   1.0000   1.0000   1.0000   1.0000   1.0000   1.0000
     1.0000   1.0000   1.0000   1.0000   0.0000   0.0000   0.0000   0.0000
     0.0000   0.0000   0.0000   0.0000

          k = 0.3094 0.0442-0.0442 (  3938 PWs)   bands (ev):

   -14.0493 -14.0493 -14.0465 -14.0465 -14.0268 -14.0268 -13.9484 -13.9484
   -13.9179 -13.9179 -13.8171 -13.8171 -13.7581 -13.7581 -13.7177 -13.7177
   -13.7054 -13.7054 -13.6983 -13.6983  -1.9635  -1.9635   3.6875   3.6875
     6.2698   6.2698   6.3258   6.3258   8.8760   8.8760   9.4670   9.4670
    11.6435  11.6435  11.6688  11.6688

     occupation numbers 
     1.0000   1.0000   1.0000   1.0000   1.0000   1.0000   1.0000   1.0000
     1.0000   1.0000   1.0000   1.0000   1.0000   1.0000   1.0000   1.0000
     1.0000   1.0000   1.0000   1.0000   1.0000   1.0000   1.0000   1.0000
     1.0000   1.0000   1.0000   1.0000   0.0000   0.0000   0.0000   0.0000
     0.0000   0.0000   0.0000   0.0000

          k = 0.3536 0.0884-0.0884 (  3927 PWs)   bands (ev):

   -14.0581 -14.0581 -14.0512 -14.0512 -14.0164 -14.0164 -13.9391 -13.9391
   -13.9071 -13.9071 -13.8279 -13.8279 -13.7680 -13.7680 -13.7294 -13.7294
   -13.6984 -13.6984 -13.6878 -13.6878  -1.7348  -1.7348   3.0959   3.0959
     5.9507   5.9507   6.1700   6.1700   8.9686   8.9686   9.6130   9.6130
    11.7198  11.7198  11.9045  11.9045

     occupation numbers 
     1.0000   1.0000   1.0000   1.0000   1.0000   1.0000   1.0000   1.0000
     1.0000   1.0000   1.0000   1.0000   1.0000   1.0000   1.0000   1.0000
     1.0000   1.0000   1.0000   1.0000   1.0000   1.0000   1.0000   1.0000
     1.0000   1.0000   1.0000   1.0000   0.0000   0.0000   0.0000   0.0000
     0.0000   0.0000   0.0000   0.0000

          k = 0.3977 0.1326-0.1326 (  3922 PWs)   bands (ev):

   -14.0661 -14.0661 -14.0554 -14.0554 -14.0043 -14.0043 -13.9296 -13.9296
   -13.8998 -13.8998 -13.8341 -13.8341 -13.7781 -13.7781 -13.7430 -13.7430
   -13.6920 -13.6920 -13.6787 -13.6787  -1.4590  -1.4590   2.4943   2.4943
     5.6326   5.6326   6.0713   6.0713   8.9370   8.9370   9.9969   9.9969
    11.7305  11.7305  11.9828  11.9828

     occupation numbers 
     1.0000   1.0000   1.0000   1.0000   1.0000   1.0000   1.0000   1.0000
     1.0000   1.0000   1.0000   1.0000   1.0000   1.0000   1.0000   1.0000
     1.0000   1.0000   1.0000   1.0000   1.0000   1.0000   1.0000   1.0000
     1.0000   1.0000   1.0000   1.0000   0.0000   0.0000   0.0000   0.0000
     0.0000   0.0000   0.0000   0.0000

          k = 0.4419 0.1768-0.1768 (  3925 PWs)   bands (ev):

   -14.0724 -14.0724 -14.0590 -14.0590 -13.9921 -13.9921 -13.9207 -13.9207
   -13.8975 -13.8975 -13.8346 -13.8346 -13.7880 -13.7880 -13.7567 -13.7567
   -13.6867 -13.6867 -13.6717 -13.6717  -1.1627  -1.1627   1.9466   1.9466
     5.3589   5.3589   6.0348   6.0348   8.8588   8.8588  10.4149  10.4149
    11.9107  11.9107  11.9331  11.9331

     occupation numbers 
     1.0000   1.0000   1.0000   1.0000   1.0000   1.0000   1.0000   1.0000
     1.0000   1.0000   1.0000   1.0000   1.0000   1.0000   1.0000   1.0000
     1.0000   1.0000   1.0000   1.0000   1.0000   1.0000   1.0000   1.0000
     1.0000   1.0000   1.0000   1.0000   0.0000   0.0000   0.0000   0.0000
     0.0000   0.0000   0.0000   0.0000

          k =-0.2210-0.4861 0.4861 (  3935 PWs)   bands (ev):

   -14.0765 -14.0765 -14.0618 -14.0618 -13.9819 -13.9819 -13.9127 -13.9127
   -13.9005 -13.9005 -13.8291 -13.8291 -13.7973 -13.7973 -13.7685 -13.7685
   -13.6826 -13.6826 -13.6673 -13.6673  -0.9063  -0.9063   1.5345   1.5345
     5.1506   5.1506   6.0618   6.0618   8.7997   8.7997  10.6754  10.6754
    11.8111  11.8111  12.3898  12.3898

     occupation numbers 
     1.0000   1.0000   1.0000   1.0000   1.0000   1.0000   1.0000   1.0000
     1.0000   1.0000   1.0000   1.0000   1.0000   1.0000   1.0000   1.0000
     1.0000   1.0000   1.0000   1.0000   1.0000   1.0000   1.0000   1.0000
     1.0000   1.0000   1.0000   1.0000   0.0000   0.0000   0.0000   0.0000
     0.0000   0.0000   0.0000   0.0000

          k =-0.1768-0.4419 0.4419 (  3943 PWs)   bands (ev):

   -14.0779 -14.0779 -14.0636 -14.0636 -13.9755 -13.9755 -13.9080 -13.9080
   -13.9065 -13.9065 -13.8186 -13.8186 -13.8052 -13.8052 -13.7769 -13.7769
   -13.6798 -13.6798 -13.6660 -13.6660  -0.8014  -0.8014   1.3800   1.3800
     5.0193   5.0193   6.1506   6.1506   8.7771   8.7771  10.8130  10.8130
    11.6540  11.6540  13.0239  13.0239

     occupation numbers 
     1.0000   1.0000   1.0000   1.0000   1.0000   1.0000   1.0000   1.0000
     1.0000   1.0000   1.0000   1.0000   1.0000   1.0000   1.0000   1.0000
     1.0000   1.0000   1.0000   1.0000   1.0000   1.0000   1.0000   1.0000
     1.0000   1.0000   1.0000   1.0000   0.0000   0.0000   0.0000   0.0000
     0.0000   0.0000   0.0000   0.0000

          k =-0.1326-0.3977 0.3977 (  3931 PWs)   bands (ev):

   -14.0767 -14.0767 -14.0644 -14.0644 -13.9741 -13.9741 -13.9180 -13.9180
   -13.9034 -13.9034 -13.8102 -13.8102 -13.8039 -13.8039 -13.7813 -13.7813
   -13.6784 -13.6784 -13.6679 -13.6679  -0.9206  -0.9206   1.5571   1.5571
     4.9746   4.9746   6.2960   6.2960   8.7902   8.7902  10.9238  10.9238
    11.4700  11.4700  13.1292  13.1293

     occupation numbers 
     1.0000   1.0000   1.0000   1.0000   1.0000   1.0000   1.0000   1.0000
     1.0000   1.0000   1.0000   1.0000   1.0000   1.0000   1.0000   1.0000
     1.0000   1.0000   1.0000   1.0000   1.0000   1.0000   1.0000   1.0000
     1.0000   1.0000   1.0000   1.0000   0.0000   0.0000   0.0000   0.0000
     0.0000   0.0000   0.0000   0.0000

          k =-0.0884-0.3536 0.3536 (  3927 PWs)   bands (ev):

   -14.0727 -14.0727 -14.0639 -14.0639 -13.9785 -13.9785 -13.9281 -13.9281
   -13.9051 -13.9051 -13.8106 -13.8106 -13.7869 -13.7869 -13.7819 -13.7819
   -13.6786 -13.6786 -13.6731 -13.6731  -1.1820  -1.1820   1.9757   1.9757
     5.0291   5.0291   6.4888   6.4888   8.8251   8.8251  11.0342  11.0342
    11.2443  11.2443  12.4620  12.4620

     occupation numbers 
     1.0000   1.0000   1.0000   1.0000   1.0000   1.0000   1.0000   1.0000
     1.0000   1.0000   1.0000   1.0000   1.0000   1.0000   1.0000   1.0000
     1.0000   1.0000   1.0000   1.0000   1.0000   1.0000   1.0000   1.0000
     1.0000   1.0000   1.0000   1.0000   0.0000   0.0000   0.0000   0.0000
     0.0000   0.0000   0.0000   0.0000

          k =-0.0442-0.3094 0.3094 (  3924 PWs)   bands (ev):

   -14.0664 -14.0664 -14.0619 -14.0619 -13.9880 -13.9880 -13.9368 -13.9368
   -13.9119 -13.9119 -13.8057 -13.8057 -13.7802 -13.7802 -13.7687 -13.7687
   -13.6812 -13.6812 -13.6806 -13.6806  -1.4774  -1.4774   2.5075   2.5075
     5.2012   5.2012   6.7128   6.7128   8.8486   8.8486  10.9609  10.9609
    11.0653  11.0653  11.8490  11.8490

     occupation numbers 
     1.0000   1.0000   1.0000   1.0000   1.0000   1.0000   1.0000   1.0000
     1.0000   1.0000   1.0000   1.0000   1.0000   1.0000   1.0000   1.0000
     1.0000   1.0000   1.0000   1.0000   1.0000   1.0000   1.0000   1.0000
     1.0000   1.0000   1.0000   1.0000   0.0000   0.0000   0.0000   0.0000
     0.0000   0.0000   0.0000   0.0000

          k = 0.0000-0.2652 0.2652 (  3917 PWs)   bands (ev):

   -14.0583 -14.0583 -14.0583 -14.0583 -13.9998 -13.9998 -13.9440 -13.9440
   -13.9225 -13.9225 -13.7968 -13.7968 -13.7758 -13.7758 -13.7522 -13.7522
   -13.6915 -13.6915 -13.6843 -13.6843  -1.7500  -1.7500   3.0628   3.0628
     5.5154   5.5154   6.9404   6.9404   8.7906   8.7906  10.6433  10.6433
    10.8089  10.8089  11.6569  11.6569

     occupation numbers 
     1.0000   1.0000   1.0000   1.0000   1.0000   1.0000   1.0000   1.0000
     1.0000   1.0000   1.0000   1.0000   1.0000   1.0000   1.0000   1.0000
     1.0000   1.0000   1.0000   1.0000   1.0000   1.0000   1.0000   1.0000
     1.0000   1.0000   1.0000   1.0000   0.0000   0.0000   0.0000   0.0000
     0.0000   0.0000   0.0000   0.0000

          k = 0.3536 0.0000 0.0000 (  3928 PWs)   bands (ev):

   -14.0501 -14.0501 -14.0501 -14.0501 -14.0278 -14.0278 -13.9407 -13.9407
   -13.9035 -13.9035 -13.8341 -13.8341 -13.7650 -13.7650 -13.7116 -13.7116
   -13.7005 -13.7005 -13.7005 -13.7005  -1.8139  -1.8139   3.3431   3.3431
     6.1163   6.1163   6.1163   6.1163   8.6064   8.6064   9.5353   9.5353
    12.1194  12.1194  12.1194  12.1194

     occupation numbers 
     1.0000   1.0000   1.0000   1.0000   1.0000   1.0000   1.0000   1.0000
     1.0000   1.0000   1.0000   1.0000   1.0000   1.0000   1.0000   1.0000
     1.0000   1.0000   1.0000   1.0000   1.0000   1.0000   1.0000   1.0000
     1.0000   1.0000   1.0000   1.0000   0.0000   0.0000   0.0000   0.0000
     0.0000   0.0000   0.0000   0.0000

          k = 0.3977 0.0442-0.0442 (  3943 PWs)   bands (ev):

   -14.0568 -14.0568 -14.0542 -14.0542 -14.0198 -14.0198 -13.9313 -13.9313
   -13.8903 -13.8903 -13.8484 -13.8484 -13.7744 -13.7744 -13.7219 -13.7219
   -13.6944 -13.6944 -13.6906 -13.6906  -1.6028  -1.6028   2.8767   2.8767
     5.8659   5.8659   5.9529   5.9529   8.6303   8.6303   9.5020   9.5020
    12.2641  12.2641  12.4615  12.4615

     occupation numbers 
     1.0000   1.0000   1.0000   1.0000   1.0000   1.0000   1.0000   1.0000
     1.0000   1.0000   1.0000   1.0000   1.0000   1.0000   1.0000   1.0000
     1.0000   1.0000   1.0000   1.0000   1.0000   1.0000   1.0000   1.0000
     1.0000   1.0000   1.0000   1.0000   0.0000   0.0000   0.0000   0.0000
     0.0000   0.0000   0.0000   0.0000

          k = 0.4419 0.0884-0.0884 (  3940 PWs)   bands (ev):

   -14.0655 -14.0655 -14.0582 -14.0582 -14.0066 -14.0066 -13.9212 -13.9212
   -13.8804 -13.8804 -13.8581 -13.8581 -13.7850 -13.7850 -13.7371 -13.7371
   -13.6886 -13.6886 -13.6797 -13.6797  -1.3393  -1.3393   2.3640   2.3640
     5.5295   5.5295   5.8469   5.8469   8.7758   8.7758   9.6363   9.6363
    12.1374  12.1374  12.6257  12.6257

     occupation numbers 
     1.0000   1.0000   1.0000   1.0000   1.0000   1.0000   1.0000   1.0000
     1.0000   1.0000   1.0000   1.0000   1.0000   1.0000   1.0000   1.0000
     1.0000   1.0000   1.0000   1.0000   1.0000   1.0000   1.0000   1.0000
     1.0000   1.0000   1.0000   1.0000   0.0000   0.0000   0.0000   0.0000
     0.0000   0.0000   0.0000   0.0000

          k = 0.4861 0.1326-0.1326 (  3936 PWs)   bands (ev):

   -14.0735 -14.0735 -14.0616 -14.0616 -13.9916 -13.9916 -13.9111 -13.9111
   -13.8768 -13.8768 -13.8607 -13.8607 -13.7959 -13.7959 -13.7535 -13.7535
   -13.6835 -13.6835 -13.6703 -13.6703  -1.0428  -1.0428   1.8638   1.8638
     5.1915   5.1915   5.8041   5.8041   8.8173   8.8173  10.0964  10.0964
    12.0144  12.0144  12.6162  12.6162

     occupation numbers 
     1.0000   1.0000   1.0000   1.0000   1.0000   1.0000   1.0000   1.0000
     1.0000   1.0000   1.0000   1.0000   1.0000   1.0000   1.0000   1.0000
     1.0000   1.0000   1.0000   1.0000   1.0000   1.0000   1.0000   1.0000
     1.0000   1.0000   1.0000   1.0000   0.0000   0.0000   0.0000   0.0000
     0.0000   0.0000   0.0000   0.0000

          k =-0.1768-0.5303 0.5303 (  3931 PWs)   bands (ev):

   -14.0797 -14.0797 -14.0643 -14.0643 -13.9779 -13.9779 -13.9017 -13.9017
   -13.8792 -13.8792 -13.8568 -13.8568 -13.8067 -13.8067 -13.7682 -13.7682
   -13.6794 -13.6794 -13.6635 -13.6635  -0.7593  -0.7593   1.4444   1.4444
     4.9091   4.9091   5.8266   5.8266   8.8128   8.8128  10.7159  10.7159
    11.9999  11.9999  12.4915  12.4915

     occupation numbers 
     1.0000   1.0000   1.0000   1.0000   1.0000   1.0000   1.0000   1.0000
     1.0000   1.0000   1.0000   1.0000   1.0000   1.0000   1.0000   1.0000
[...]

     occupation numbers 
     1.0000   1.0000   1.0000   1.0000   1.0000   1.0000   1.0000   1.0000
     1.0000   1.0000   1.0000   1.0000   1.0000   1.0000   1.0000   1.0000
     1.0000   1.0000   1.0000   1.0000   1.0000   1.0000   1.0000   1.0000
     1.0000   1.0000   1.0000   1.0000   0.0000   0.0000   0.0000   0.0000
     0.0000   0.0000   0.0000   0.0000

          k =-0.1326-0.3977 0.5745 (  3932 PWs)   bands (ev):

   -14.0835 -14.0835 -14.0709 -14.0709 -13.9576 -13.9576 -13.8961 -13.8961
   -13.8760 -13.8760 -13.8542 -13.8542 -13.8189 -13.8189 -13.7884 -13.7884
   -13.6717 -13.6717 -13.6592 -13.6592  -0.5029  -0.5029   1.1471   1.1471
     4.6750   4.6750   5.6348   5.6348   9.4868   9.4868  10.7338  10.7338
    12.0154  12.0154  12.6953  12.6953

     occupation numbers 
     1.0000   1.0000   1.0000   1.0000   1.0000   1.0000   1.0000   1.0000
     1.0000   1.0000   1.0000   1.0000   1.0000   1.0000   1.0000   1.0000
     1.0000   1.0000   1.0000   1.0000   1.0000   1.0000   1.0000   1.0000
     1.0000   1.0000   1.0000   1.0000   0.0000   0.0000   0.0000   0.0000
     0.0000   0.0000   0.0000   0.0000

          k =-0.0884-0.3536 0.5303 (  3929 PWs)   bands (ev):

   -14.0835 -14.0835 -14.0709 -14.0709 -13.9570 -13.9570 -13.8991 -13.8991
   -13.8773 -13.8773 -13.8500 -13.8500 -13.8184 -13.8184 -13.7894 -13.7894
   -13.6715 -13.6715 -13.6595 -13.6595  -0.5574  -0.5574   1.2163   1.2163
     4.6420   4.6420   5.7039   5.7039   9.5311   9.5311  10.7270  10.7270
    12.0779  12.0779  12.6565  12.6565

     occupation numbers 
     1.0000   1.0000   1.0000   1.0000   1.0000   1.0000   1.0000   1.0000
     1.0000   1.0000   1.0000   1.0000   1.0000   1.0000   1.0000   1.0000
     1.0000   1.0000   1.0000   1.0000   1.0000   1.0000   1.0000   1.0000
     1.0000   1.0000   1.0000   1.0000   0.0000   0.0000   0.0000   0.0000
     0.0000   0.0000   0.0000   0.0000

          k =-0.0442-0.3094 0.4861 (  3932 PWs)   bands (ev):

   -14.0801 -14.0801 -14.0699 -14.0699 -13.9641 -13.9641 -13.9095 -13.9095
   -13.8796 -13.8796 -13.8475 -13.8475 -13.8054 -13.8054 -13.7852 -13.7852
   -13.6727 -13.6727 -13.6637 -13.6637  -0.8007  -0.8007   1.5355   1.5355
     4.7133   4.7133   5.8464   5.8464   9.5818   9.5818  10.6095  10.6095
    11.5042  11.5042  12.8805  12.8805

     occupation numbers 
     1.0000   1.0000   1.0000   1.0000   1.0000   1.0000   1.0000   1.0000
     1.0000   1.0000   1.0000   1.0000   1.0000   1.0000   1.0000   1.0000
     1.0000   1.0000   1.0000   1.0000   1.0000   1.0000   1.0000   1.0000
     1.0000   1.0000   1.0000   1.0000   0.0000   0.0000   0.0000   0.0000
     0.0000   0.0000   0.0000   0.0000

          k = 0.0000-0.2652 0.4419 (  3924 PWs)   bands (ev):

   -14.0741 -14.0741 -14.0675 -14.0675 -13.9769 -13.9769 -13.9202 -13.9202
   -13.8872 -13.8872 -13.8415 -13.8415 -13.7903 -13.7903 -13.7749 -13.7749
   -13.6753 -13.6753 -13.6711 -13.6711  -1.0984  -1.0984   1.9546   1.9546
     4.9080   4.9080   6.0367   6.0367   9.5802   9.5802  10.2539  10.2539
    11.3297  11.3297  12.6550  12.6550

     occupation numbers 
     1.0000   1.0000   1.0000   1.0000   1.0000   1.0000   1.0000   1.0000
     1.0000   1.0000   1.0000   1.0000   1.0000   1.0000   1.0000   1.0000
     1.0000   1.0000   1.0000   1.0000   1.0000   1.0000   1.0000   1.0000
     1.0000   1.0000   1.0000   1.0000   0.0000   0.0000   0.0000   0.0000
     0.0000   0.0000   0.0000   0.0000

          k =-0.1768-0.5303 0.7071 (  3944 PWs)   bands (ev):

   -14.0723 -14.0723 -14.0704 -14.0704 -13.9802 -13.9802 -13.9005 -13.9005
   -13.8826 -13.8826 -13.8563 -13.8563 -13.8066 -13.8066 -13.7642 -13.7642
   -13.6727 -13.6727 -13.6715 -13.6715  -0.8073  -0.8073   1.5729   1.5729
     5.0779   5.0779   5.5078   5.5078   9.2332   9.2332   9.5864   9.5864
    12.0127  12.0127  13.6145  13.6145

     occupation numbers 
     1.0000   1.0000   1.0000   1.0000   1.0000   1.0000   1.0000   1.0000
     1.0000   1.0000   1.0000   1.0000   1.0000   1.0000   1.0000   1.0000
     1.0000   1.0000   1.0000   1.0000   1.0000   1.0000   1.0000   1.0000
     1.0000   1.0000   1.0000   1.0000   0.0000   0.0000   0.0000   0.0000
     0.0000   0.0000   0.0000   0.0000

          k =-0.1326-0.4861 0.6629 (  3942 PWs)   bands (ev):

   -14.0790 -14.0790 -14.0728 -14.0728 -13.9629 -13.9629 -13.8906 -13.8906
   -13.8872 -13.8872 -13.8501 -13.8501 -13.8189 -13.8189 -13.7814 -13.7814
   -13.6698 -13.6698 -13.6637 -13.6637  -0.5038  -0.5038   1.1890   1.1890
     4.8485   4.8485   5.3864   5.3864   9.3982   9.3982  10.0617  10.0617
    11.8390  11.8390  13.5684  13.5684

     occupation numbers 
     1.0000   1.0000   1.0000   1.0000   1.0000   1.0000   1.0000   1.0000
     1.0000   1.0000   1.0000   1.0000   1.0000   1.0000   1.0000   1.0000
     1.0000   1.0000   1.0000   1.0000   1.0000   1.0000   1.0000   1.0000
     1.0000   1.0000   1.0000   1.0000   0.0000   0.0000   0.0000   0.0000
     0.0000   0.0000   0.0000   0.0000

          k =-0.0884-0.4419 0.6187 (  3940 PWs)   bands (ev):

   -14.0840 -14.0840 -14.0737 -14.0737 -13.9503 -13.9503 -13.8868 -13.8868
   -13.8790 -13.8790 -13.8521 -13.8521 -13.8301 -13.8301 -13.7930 -13.7930
   -13.6684 -13.6684 -13.6583 -13.6583  -0.2662  -0.2662   0.9136   0.9136
     4.6509   4.6509   5.3770   5.3770   9.4525   9.4525  10.7879  10.7879
    11.7373  11.7373  12.9932  12.9932

     occupation numbers 
     1.0000   1.0000   1.0000   1.0000   1.0000   1.0000   1.0000   1.0000
     1.0000   1.0000   1.0000   1.0000   1.0000   1.0000   1.0000   1.0000
     1.0000   1.0000   1.0000   1.0000   1.0000   1.0000   1.0000   1.0000
     1.0000   1.0000   1.0000   1.0000   0.0000   0.0000   0.0000   0.0000
     0.0000   0.0000   0.0000   0.0000

          k =-0.0442-0.3977 0.5745 (  3934 PWs)   bands (ev):

   -14.0859 -14.0859 -14.0737 -14.0737 -13.9471 -13.9471 -13.8830 -13.8830
   -13.8712 -13.8712 -13.8598 -13.8598 -13.8346 -13.8346 -13.7958 -13.7958
   -13.6683 -13.6683 -13.6564 -13.6564  -0.2683  -0.2683   0.9185   0.9185
     4.5384   4.5384   5.4659   5.4659   9.5284   9.5284  11.2569  11.2569
    11.9515  11.9515  12.2682  12.2682

     occupation numbers 
     1.0000   1.0000   1.0000   1.0000   1.0000   1.0000   1.0000   1.0000
     1.0000   1.0000   1.0000   1.0000   1.0000   1.0000   1.0000   1.0000
     1.0000   1.0000   1.0000   1.0000   1.0000   1.0000   1.0000   1.0000
     1.0000   1.0000   1.0000   1.0000   0.0000   0.0000   0.0000   0.0000
     0.0000   0.0000   0.0000   0.0000

          k = 0.0000-0.3536 0.5303 (  3935 PWs)   bands (ev):

   -14.0845 -14.0845 -14.0725 -14.0725 -13.9523 -13.9523 -13.8949 -13.8949
   -13.8677 -13.8677 -13.8599 -13.8599 -13.8242 -13.8242 -13.7925 -13.7925
   -13.6696 -13.6696 -13.6584 -13.6584  -0.5035  -0.5035   1.1874   1.1874
     4.5509   4.5509   5.6314   5.6314   9.6049   9.6049  11.1157  11.1157
    11.5770  11.5770  12.7484  12.7484

     occupation numbers 
     1.0000   1.0000   1.0000   1.0000   1.0000   1.0000   1.0000   1.0000
     1.0000   1.0000   1.0000   1.0000   1.0000   1.0000   1.0000   1.0000
     1.0000   1.0000   1.0000   1.0000   1.0000   1.0000   1.0000   1.0000
     1.0000   1.0000   1.0000   1.0000   0.0000   0.0000   0.0000   0.0000
     0.0000   0.0000   0.0000   0.0000

          k =-0.0884-0.5303 0.7071 (  3938 PWs)   bands (ev):

   -14.0757 -14.0757 -14.0745 -14.0745 -13.9609 -13.9609 -13.9112 -13.9112
   -13.8776 -13.8776 -13.8298 -13.8298 -13.8294 -13.8294 -13.7823 -13.7823
   -13.6676 -13.6676 -13.6666 -13.6666  -0.2814  -0.2814   0.9216   0.9216
     5.0042   5.0042   5.2180   5.2180   9.2017   9.2017   9.4092   9.4092
    12.6853  12.6853  13.9045  13.9045

     occupation numbers 
     1.0000   1.0000   1.0000   1.0000   1.0000   1.0000   1.0000   1.0000
     1.0000   1.0000   1.0000   1.0000   1.0000   1.0000   1.0000   1.0000
     1.0000   1.0000   1.0000   1.0000   1.0000   1.0000   1.0000   1.0000
     1.0000   1.0000   1.0000   1.0000   0.0000   0.0000   0.0000   0.0000
     0.0000   0.0000   0.0000   0.0000

          k =-0.0442-0.4861 0.6629 (  3942 PWs)   bands (ev):

   -14.0814 -14.0814 -14.0756 -14.0756 -13.9442 -13.9442 -13.9121 -13.9121
   -13.8672 -13.8672 -13.8421 -13.8421 -13.8278 -13.8278 -13.7981 -13.7981
   -13.6663 -13.6663 -13.6606 -13.6606   0.0019   0.0019   0.6217   0.6217
     4.7947   4.7947   5.1767   5.1767   9.3462   9.3462  10.0107  10.0107
    12.5032  12.5032  13.2114  13.2114

     occupation numbers 
     1.0000   1.0000   1.0000   1.0000   1.0000   1.0000   1.0000   1.0000
     1.0000   1.0000   1.0000   1.0000   1.0000   1.0000   1.0000   1.0000
     1.0000   1.0000   1.0000   1.0000   1.0000   1.0000   1.0000   1.0000
     1.0000   1.0000   1.0000   1.0000   0.0000   0.0000   0.0000   0.0000
     0.0000   0.0000   0.0000   0.0000

          k = 0.0000-0.4419 0.6187 (  3930 PWs)   bands (ev):

   -14.0852 -14.0852 -14.0752 -14.0752 -13.9413 -13.9413 -13.8961 -13.8961
   -13.8664 -13.8664 -13.8463 -13.8463 -13.8410 -13.8410 -13.8004 -13.8004
   -13.6666 -13.6666 -13.6568 -13.6568  -0.0004  -0.0004   0.6332   0.6332
     4.6021   4.6021   5.2813   5.2813   9.4326   9.4327  10.8278  10.8278
    12.3454  12.3455  12.3563  12.3563

     occupation numbers 
     1.0000   1.0000   1.0000   1.0000   1.0000   1.0000   1.0000   1.0000
     1.0000   1.0000   1.0000   1.0000   1.0000   1.0000   1.0000   1.0000
     1.0000   1.0000   1.0000   1.0000   1.0000   1.0000   1.0000   1.0000
     1.0000   1.0000   1.0000   1.0000   0.0000   0.0000   0.0000   0.0000
     0.0000   0.0000   0.0000   0.0000

          k =-0.7071 0.1768 0.0000 (  3940 PWs)   bands (ev):

   -14.0765 -14.0765 -14.0764 -14.0764 -13.9379 -13.9379 -13.9374 -13.9374
   -13.8548 -13.8548 -13.8522 -13.8522 -13.8049 -13.8049 -13.8043 -13.8043
   -13.6653 -13.6653 -13.6653 -13.6653   0.2985   0.2985   0.2996   0.2996
     5.0498   5.0498   5.0498   5.0498   9.2648   9.2648   9.2648   9.2648
    13.4059  13.4060  13.4061  13.4061

     occupation numbers 
     1.0000   1.0000   1.0000   1.0000   1.0000   1.0000   1.0000   1.0000
     1.0000   1.0000   1.0000   1.0000   1.0000   1.0000   1.0000   1.0000
     1.0000   1.0000   1.0000   1.0000   1.0000   1.0000   1.0000   1.0000
     1.0000   1.0000   1.0000   1.0000   0.0000   0.0000   0.0000   0.0000
     0.0000   0.0000   0.0000   0.0000

          k =-0.1768-0.4419 0.7071 (  3933 PWs)   bands (ev):

   -14.0791 -14.0791 -14.0728 -14.0728 -13.9624 -13.9624 -13.9010 -13.9010
   -13.8692 -13.8692 -13.8640 -13.8640 -13.8106 -13.8106 -13.7839 -13.7839
   -13.6697 -13.6697 -13.6642 -13.6642  -0.6738  -0.6738   1.4002   1.4002
     4.7698   4.7698   5.5442   5.5442   9.9810   9.9810  10.1177  10.1177
    11.2830  11.2830  13.3439  13.3439

     occupation numbers 
     1.0000   1.0000   1.0000   1.0000   1.0000   1.0000   1.0000   1.0000
     1.0000   1.0000   1.0000   1.0000   1.0000   1.0000   1.0000   1.0000
     1.0000   1.0000   1.0000   1.0000   1.0000   1.0000   1.0000   1.0000
     1.0000   1.0000   1.0000   1.0000   0.0000   0.0000   0.0000   0.0000
     0.0000   0.0000   0.0000   0.0000

          k =-0.1326-0.3977 0.6629 (  3936 PWs)   bands (ev):

   -14.0834 -14.0834 -14.0749 -14.0749 -13.9487 -13.9487 -13.8906 -13.8906
   -13.8740 -13.8740 -13.8580 -13.8580 -13.8249 -13.8249 -13.7952 -13.7952
   -13.6673 -13.6673 -13.6592 -13.6592  -0.3907  -0.3907   1.0613   1.0613
     4.6426   4.6426   5.3890   5.3890  10.0073  10.0073  10.6105  10.6105
    11.3935  11.3935  12.8796  12.8796

     occupation numbers 
     1.0000   1.0000   1.0000   1.0000   1.0000   1.0000   1.0000   1.0000
     1.0000   1.0000   1.0000   1.0000   1.0000   1.0000   1.0000   1.0000
     1.0000   1.0000   1.0000   1.0000   1.0000   1.0000   1.0000   1.0000
     1.0000   1.0000   1.0000   1.0000   0.0000   0.0000   0.0000   0.0000
     0.0000   0.0000   0.0000   0.0000

          k =-0.0884-0.3536 0.6187 (  3932 PWs)   bands (ev):

   -14.0850 -14.0850 -14.0755 -14.0755 -13.9433 -13.9433 -13.8869 -13.8869
   -13.8719 -13.8719 -13.8586 -13.8586 -13.8314 -13.8314 -13.7993 -13.7993
   -13.6666 -13.6666 -13.6573 -13.6573  -0.2529  -0.2529   0.9039   0.9039
     4.6023   4.6023   5.3322   5.3322  10.0068  10.0068  10.7375  10.7375
    11.9111  11.9111  12.2041  12.2041

     occupation numbers 
     1.0000   1.0000   1.0000   1.0000   1.0000   1.0000   1.0000   1.0000
     1.0000   1.0000   1.0000   1.0000   1.0000   1.0000   1.0000   1.0000
     1.0000   1.0000   1.0000   1.0000   1.0000   1.0000   1.0000   1.0000
     1.0000   1.0000   1.0000   1.0000   0.0000   0.0000   0.0000   0.0000
     0.0000   0.0000   0.0000   0.0000

          k =-0.0884-0.4419 0.7071 (  3941 PWs)   bands (ev):

   -14.0814 -14.0814 -14.0777 -14.0777 -13.9437 -13.9437 -13.8960 -13.8960
   -13.8792 -13.8792 -13.8408 -13.8408 -13.8329 -13.8329 -13.7987 -13.7987
   -13.6643 -13.6643 -13.6608 -13.6608  -0.1982  -0.1982   0.8514   0.8514
     4.7599   4.7599   5.1509   5.1509  10.0590  10.0590  10.0993  10.0993
    11.6604  11.6604  13.0491  13.0491

     occupation numbers 
     1.0000   1.0000   1.0000   1.0000   1.0000   1.0000   1.0000   1.0000
     1.0000   1.0000   1.0000   1.0000   1.0000   1.0000   1.0000   1.0000
     1.0000   1.0000   1.0000   1.0000   1.0000   1.0000   1.0000   1.0000
     1.0000   1.0000   1.0000   1.0000   0.0000   0.0000   0.0000   0.0000
     0.0000   0.0000   0.0000   0.0000

          k =-0.0442-0.3977 0.6629 (  3933 PWs)   bands (ev):

   -14.0841 -14.0841 -14.0789 -14.0789 -13.9313 -13.9313 -13.8976 -13.8976
   -13.8703 -13.8703 -13.8461 -13.8461 -13.8372 -13.8372 -13.8090 -13.8090
   -13.6630 -13.6630 -13.6578 -13.6578   0.0215   0.0215   0.6222   0.6222
     4.6786   4.6786   5.0707   5.0707  10.1367  10.1367  10.8075  10.8075
    11.5816  11.5816  12.1944  12.1944

     occupation numbers 
     1.0000   1.0000   1.0000   1.0000   1.0000   1.0000   1.0000   1.0000
     1.0000   1.0000   1.0000   1.0000   1.0000   1.0000   1.0000   1.0000
     1.0000   1.0000   1.0000   1.0000   1.0000   1.0000   1.0000   1.0000
     1.0000   1.0000   1.0000   1.0000   0.0000   0.0000   0.0000   0.0000
     0.0000   0.0000   0.0000   0.0000

          k =-0.0000-0.3536 0.6187 (  3928 PWs)   bands (ev):

   -14.0849 -14.0849 -14.0779 -14.0779 -13.9351 -13.9351 -13.8874 -13.8874
   -13.8766 -13.8766 -13.8458 -13.8458 -13.8410 -13.8410 -13.8056 -13.8056
   -13.6640 -13.6640 -13.6571 -13.6571  -0.1004  -0.1004   0.7521   0.7521
     4.6133   4.6133   5.1747   5.1747  10.1856  10.1856  10.9893  10.9893
    11.4710  11.4710  12.0997  12.0997

     occupation numbers 
     1.0000   1.0000   1.0000   1.0000   1.0000   1.0000   1.0000   1.0000
     1.0000   1.0000   1.0000   1.0000   1.0000   1.0000   1.0000   1.0000
     1.0000   1.0000   1.0000   1.0000   1.0000   1.0000   1.0000   1.0000
     1.0000   1.0000   1.0000   1.0000   0.0000   0.0000   0.0000   0.0000
     0.0000   0.0000   0.0000   0.0000

          k =-0.7071 0.2652 0.0000 (  3936 PWs)   bands (ev):

   -14.0808 -14.0808 -14.0808 -14.0808 -13.9217 -13.9217 -13.9210 -13.9210
   -13.8574 -13.8574 -13.8549 -13.8549 -13.8187 -13.8187 -13.8179 -13.8179
   -13.6610 -13.6610 -13.6610 -13.6610   0.3143   0.3143   0.3154   0.3154
     4.8863   4.8863   4.8863   4.8863  10.0693  10.0693  10.0694  10.0694
    12.3275  12.3275  12.3277  12.3277

     occupation numbers 
     1.0000   1.0000   1.0000   1.0000   1.0000   1.0000   1.0000   1.0000
     1.0000   1.0000   1.0000   1.0000   1.0000   1.0000   1.0000   1.0000
     1.0000   1.0000   1.0000   1.0000   1.0000   1.0000   1.0000   1.0000
     1.0000   1.0000   1.0000   1.0000   0.0000   0.0000   0.0000   0.0000
     0.0000   0.0000   0.0000   0.0000

          k =-0.7071 0.3536 0.0000 (  3972 PWs)   bands (ev):

   -14.0825 -14.0825 -14.0824 -14.0824 -13.9135 -13.9135 -13.9126 -13.9126
   -13.8598 -13.8598 -13.8573 -13.8573 -13.8246 -13.8246 -13.8237 -13.8237
   -13.6594 -13.6594 -13.6593 -13.6593   0.3209   0.3209   0.3220   0.3220
     4.8242   4.8242   4.8243   4.8243  10.7307  10.7307  10.7312  10.7312
    11.5693  11.5693  11.5699  11.5699

     occupation numbers 
     1.0000   1.0000   1.0000   1.0000   1.0000   1.0000   1.0000   1.0000
     1.0000   1.0000   1.0000   1.0000   1.0000   1.0000   1.0000   1.0000
     1.0000   1.0000   1.0000   1.0000   1.0000   1.0000   1.0000   1.0000
     1.0000   1.0000   1.0000   1.0000   0.0000   0.0000   0.0000   0.0000
     0.0000   0.0000   0.0000   0.0000

     the Fermi energy is     7.5492 ev

!    total energy              =    -884.12668084 Ry
     Harris-Foulkes estimate   =    -884.12668065 Ry
     estimated scf accuracy    <       0.00000067 Ry

     total all-electron energy =    -24709.382284 Ry

     The total energy is the sum of the following terms:

     one-electron contribution =    -155.40442402 Ry
     hartree contribution      =      78.94714578 Ry
     xc contribution           =     -54.77017297 Ry
     ewald contribution        =    -167.52979538 Ry
     one-center paw contrib.   =    -585.36943410 Ry
     smearing contrib. (-TS)   =      -0.00000015 Ry

     convergence has been achieved in   5 iterations

     Writing output data file Sn.save
 
     init_run     :      2.95s CPU      3.43s WALL (       1 calls)
     electrons    :     58.85s CPU     63.54s WALL (       1 calls)

     Called by init_run:
     wfcinit      :      2.53s CPU      2.74s WALL (       1 calls)
     potinit      :      0.11s CPU      0.17s WALL (       1 calls)

     Called by electrons:
     c_bands      :     51.35s CPU     55.67s WALL (       6 calls)
     sum_band     :      7.11s CPU      7.36s WALL (       6 calls)
     v_of_rho     :      0.03s CPU      0.03s WALL (       6 calls)
     v_h          :      0.00s CPU      0.00s WALL (       6 calls)
     v_xc         :      0.03s CPU      0.03s WALL (       6 calls)
     newd         :      0.05s CPU      0.08s WALL (       6 calls)
     PAW_pot      :      0.40s CPU      0.48s WALL (       6 calls)
     mix_rho      :      0.01s CPU      0.02s WALL (       6 calls)

     Called by c_bands:
     init_us_2    :      0.16s CPU      0.18s WALL (    1885 calls)
     cegterg      :     49.85s CPU     54.04s WALL (     870 calls)

     Called by sum_band:
     sum_band:bec :      0.05s CPU      0.05s WALL (     870 calls)
     addusdens    :      0.05s CPU      0.06s WALL (       6 calls)

     Called by *egterg:
     h_psi        :     36.86s CPU     38.31s WALL (    3587 calls)
     s_psi        :      0.80s CPU      0.81s WALL (    3587 calls)
     g_psi        :      0.19s CPU      0.19s WALL (    2572 calls)
     cdiaghg      :      8.05s CPU      8.20s WALL (    3297 calls)
     cegterg:over :      2.30s CPU      2.33s WALL (    2572 calls)
     cegterg:upda :      1.24s CPU      1.27s WALL (    2572 calls)
     cegterg:last :      0.64s CPU      0.65s WALL (     977 calls)

     Called by h_psi:
     h_psi:vloc   :     34.70s CPU     36.07s WALL (    3587 calls)
     h_psi:vnl    :      1.98s CPU      2.05s WALL (    3587 calls)
     add_vuspsi   :      0.88s CPU      0.91s WALL (    3587 calls)

     General routines
     calbec       :      1.37s CPU      1.43s WALL (    4457 calls)
     fft          :      0.09s CPU      0.17s WALL (     116 calls)
     fftw         :     36.76s CPU     38.18s WALL (  429348 calls)
     davcio       :      0.02s CPU      0.27s WALL (     145 calls)
 
     Parallel routines
     fft_scatter  :     15.31s CPU     15.98s WALL (  429464 calls)

     PAW routines
     PAW_pot      :      0.40s CPU      0.48s WALL (       6 calls)
     PAW_symme    :      0.01s CPU      0.01s WALL (      12 calls)
 
     PWSCF        :  1m 2.43s CPU     1m 8.29s WALL

 
   This run was terminated on:  19:58:20  15Mar2020            

=------------------------------------------------------------------------------=
   JOB DONE.
=------------------------------------------------------------------------------=
