
     Program PWSCF v.5.4.0 starts on 15Mar2020 at 19:52: 7 

     This program is part of the open-source Quantum ESPRESSO suite
     for quantum simulation of materials; please cite
         "P. Giannozzi et al., J. Phys.:Condens. Matter 21 395502 (2009);
          URL http://www.quantum-espresso.org", 
     in publications or presentations arising from this work. More details at
     http://www.quantum-espresso.org/quote

     Parallel version (MPI & OpenMP), running on      16 processor cores
     Number of MPI processes:                16
     Threads/MPI process:                     1
     R & G space division:  proc/nbgrp/npool/nimage =      16
     Waiting for input...
     Reading input from standard input
Warning: card &IONS ignored
Warning: card / ignored
Warning: card &CELL ignored
Warning: card / ignored

     Current dimensions of program PWSCF are:
     Max number of different atomic species (ntypx) = 10
     Max number of k-points (npk) =  40000
     Max angular momentum in pseudopotentials (lmaxx) =  3
               file Sn.rel-pbe-dn-rrkjus_psl.1.0.0.UPF: wavefunction(s)  5S 4D 4D renormalized

     Subspace diagonalization in iterative solution of the eigenvalue problem:
     a serial algorithm will be used

 
     Parallelization info
     --------------------
     sticks:   dense  smooth     PW     G-vecs:    dense   smooth      PW
     Min          68      68     19                 1497     1497     237
     Max          69      69     20                 1499     1499     242
     Sum        1099    1099    313                23973    23973    3839
 

     Title: 
     Sn                                                                         


     bravais-lattice index     =            0
     lattice parameter (alat)  =       8.9127  a.u.
     unit-cell volume          =     500.6268 (a.u.)^3
     number of atoms/cell      =            2
     number of atomic types    =            1
     number of electrons       =        28.00
     number of Kohn-Sham states=           36
     kinetic-energy cutoff     =      50.0000  Ry
     charge density cutoff     =     200.0000  Ry
     convergence threshold     =      1.0E-06
     mixing beta               =       0.7000
     number of iterations used =            8  plain     mixing
     Exchange-correlation      = PBE ( 1  4  3  4 0 0)
     Non magnetic calculation with spin-orbit


     celldm(1)=   8.912709  celldm(2)=   0.000000  celldm(3)=   0.000000
     celldm(4)=   0.000000  celldm(5)=   0.000000  celldm(6)=   0.000000

     crystal axes: (cart. coord. in units of alat)
               a(1) = (   0.000000   0.707107   0.707107 )  
               a(2) = (   0.707107   0.000000   0.707107 )  
               a(3) = (   0.707107   0.707107   0.000000 )  

     reciprocal axes: (cart. coord. in units 2 pi/alat)
               b(1) = ( -0.707107  0.707107  0.707107 )  
               b(2) = (  0.707107 -0.707107  0.707107 )  
               b(3) = (  0.707107  0.707107 -0.707107 )  


     PseudoPot. # 1 for Sn read from file:
     ../PseudopotentialDatabase/Sn.rel-pbe-dn-rrkjus_psl.1.0.0.UPF
     MD5 check sum: e9415cc9ba1036dfb73502962f03961a
     Pseudo is Ultrasoft + core correction, Zval = 14.0
     Generated using "atomic" code by A. Dal Corso  v.6.3
     Using radial grid of 1243 points, 10 beta functions with: 
                l(1) =   0
                l(2) =   0
                l(3) =   1
                l(4) =   1
                l(5) =   1
                l(6) =   1
                l(7) =   2
                l(8) =   2
                l(9) =   2
               l(10) =   2
     Q(r) pseudized with 0 coefficients 


     atomic species   valence    mass     pseudopotential
        Sn            14.00   118.71000     Sn( 1.00)

     24 Sym. Ops. (no inversion) found
          (note: 24 additional sym.ops. were found but ignored
           their fractional translations are incommensurate with FFT grid)

                                    s                        frac. trans.

      isym =  1     identity                                     

 cryst.   s( 1) = (     1          0          0      )
                  (     0          1          0      )
                  (     0          0          1      )

 cart.    s( 1) = (  1.0000000  0.0000000  0.0000000 )
                  (  0.0000000  1.0000000  0.0000000 )
                  (  0.0000000  0.0000000  1.0000000 )


      isym =  2     180 deg rotation - cart. axis [0,0,1]        

 cryst.   s( 2) = (     0          1         -1      )
                  (     1          0         -1      )
                  (     0          0         -1      )

 cart.    s( 2) = ( -1.0000000  0.0000000  0.0000000 )
                  (  0.0000000 -1.0000000  0.0000000 )
                  (  0.0000000  0.0000000  1.0000000 )


      isym =  3     180 deg rotation - cart. axis [0,1,0]        

 cryst.   s( 3) = (     0         -1          1      )
                  (     0         -1          0      )
                  (     1         -1          0      )

 cart.    s( 3) = ( -1.0000000  0.0000000  0.0000000 )
                  (  0.0000000  1.0000000  0.0000000 )
                  (  0.0000000  0.0000000 -1.0000000 )


      isym =  4     180 deg rotation - cart. axis [1,0,0]        

 cryst.   s( 4) = (    -1          0          0      )
                  (    -1          0          1      )
                  (    -1          1          0      )

 cart.    s( 4) = (  1.0000000  0.0000000  0.0000000 )
                  (  0.0000000 -1.0000000  0.0000000 )
                  (  0.0000000  0.0000000 -1.0000000 )


      isym =  5     120 deg rotation - cart. axis [-1,-1,-1]     

 cryst.   s( 5) = (     0          0          1      )
                  (     1          0          0      )
                  (     0          1          0      )

 cart.    s( 5) = (  0.0000000  1.0000000  0.0000000 )
                  (  0.0000000  0.0000000  1.0000000 )
                  (  1.0000000  0.0000000  0.0000000 )


      isym =  6     120 deg rotation - cart. axis [-1,1,1]       

 cryst.   s( 6) = (     1         -1          0      )
                  (     0         -1          1      )
                  (     0         -1          0      )

 cart.    s( 6) = (  0.0000000 -1.0000000  0.0000000 )
                  (  0.0000000  0.0000000  1.0000000 )
                  ( -1.0000000  0.0000000  0.0000000 )


      isym =  7     120 deg rotation - cart. axis [1,1,-1]       

 cryst.   s( 7) = (    -1          1          0      )
                  (    -1          0          0      )
                  (    -1          0          1      )

 cart.    s( 7) = (  0.0000000  1.0000000  0.0000000 )
                  (  0.0000000  0.0000000 -1.0000000 )
                  ( -1.0000000  0.0000000  0.0000000 )


      isym =  8     120 deg rotation - cart. axis [1,-1,1]       

 cryst.   s( 8) = (     0          0         -1      )
                  (     0          1         -1      )
                  (     1          0         -1      )

 cart.    s( 8) = (  0.0000000 -1.0000000  0.0000000 )
                  (  0.0000000  0.0000000 -1.0000000 )
                  (  1.0000000  0.0000000  0.0000000 )


      isym =  9     120 deg rotation - cart. axis [1,1,1]        

 cryst.   s( 9) = (     0          1          0      )
                  (     0          0          1      )
                  (     1          0          0      )

 cart.    s( 9) = (  0.0000000  0.0000000  1.0000000 )
                  (  1.0000000  0.0000000  0.0000000 )
                  (  0.0000000  1.0000000  0.0000000 )


      isym = 10     120 deg rotation - cart. axis [-1,1,-1]      

 cryst.   s(10) = (    -1          0          1      )
                  (    -1          1          0      )
                  (    -1          0          0      )

 cart.    s(10) = (  0.0000000  0.0000000  1.0000000 )
                  ( -1.0000000  0.0000000  0.0000000 )
                  (  0.0000000 -1.0000000  0.0000000 )


      isym = 11     120 deg rotation - cart. axis [1,-1,-1]      

 cryst.   s(11) = (     1          0         -1      )
                  (     0          0         -1      )
                  (     0          1         -1      )

 cart.    s(11) = (  0.0000000  0.0000000 -1.0000000 )
                  ( -1.0000000  0.0000000  0.0000000 )
                  (  0.0000000  1.0000000  0.0000000 )


      isym = 12     120 deg rotation - cart. axis [-1,-1,1]      

 cryst.   s(12) = (     0         -1          0      )
                  (     1         -1          0      )
                  (     0         -1          1      )

 cart.    s(12) = (  0.0000000  0.0000000 -1.0000000 )
                  (  1.0000000  0.0000000  0.0000000 )
                  (  0.0000000 -1.0000000  0.0000000 )


      isym = 13     inv. 180 deg rotation - cart. axis [1,1,0]   

 cryst.   s(13) = (     1          0         -1      )
                  (     0          1         -1      )
                  (     0          0         -1      )

 cart.    s(13) = (  0.0000000 -1.0000000  0.0000000 )
                  ( -1.0000000  0.0000000  0.0000000 )
                  (  0.0000000  0.0000000  1.0000000 )


      isym = 14     inv. 180 deg rotation - cart. axis [1,-1,0]  

 cryst.   s(14) = (     0          1          0      )
                  (     1          0          0      )
                  (     0          0          1      )

 cart.    s(14) = (  0.0000000  1.0000000  0.0000000 )
                  (  1.0000000  0.0000000  0.0000000 )
                  (  0.0000000  0.0000000  1.0000000 )


      isym = 15     inv.  90 deg rotation - cart. axis [0,0,-1]  

 cryst.   s(15) = (     0         -1          0      )
                  (     0         -1          1      )
                  (     1         -1          0      )

 cart.    s(15) = (  0.0000000 -1.0000000  0.0000000 )
                  (  1.0000000  0.0000000  0.0000000 )
                  (  0.0000000  0.0000000 -1.0000000 )


      isym = 16     inv.  90 deg rotation - cart. axis [0,0,1]   

 cryst.   s(16) = (    -1          0          1      )
                  (    -1          0          0      )
                  (    -1          1          0      )

 cart.    s(16) = (  0.0000000  1.0000000  0.0000000 )
                  ( -1.0000000  0.0000000  0.0000000 )
                  (  0.0000000  0.0000000 -1.0000000 )


      isym = 17     inv. 180 deg rotation - cart. axis [1,0,1]   

 cryst.   s(17) = (     1         -1          0      )
                  (     0         -1          0      )
                  (     0         -1          1      )

 cart.    s(17) = (  0.0000000  0.0000000 -1.0000000 )
                  (  0.0000000  1.0000000  0.0000000 )
                  ( -1.0000000  0.0000000  0.0000000 )


      isym = 18     inv. 180 deg rotation - cart. axis [-1,0,1]  

 cryst.   s(18) = (     0          0          1      )
                  (     0          1          0      )
                  (     1          0          0      )

 cart.    s(18) = (  0.0000000  0.0000000  1.0000000 )
                  (  0.0000000  1.0000000  0.0000000 )
                  (  1.0000000  0.0000000  0.0000000 )


      isym = 19     inv.  90 deg rotation - cart. axis [0,1,0]   

 cryst.   s(19) = (     0          0         -1      )
                  (     1          0         -1      )
                  (     0          1         -1      )

 cart.    s(19) = (  0.0000000  0.0000000 -1.0000000 )
                  (  0.0000000 -1.0000000  0.0000000 )
                  (  1.0000000  0.0000000  0.0000000 )


      isym = 20     inv.  90 deg rotation - cart. axis [0,-1,0]  

 cryst.   s(20) = (    -1          1          0      )
                  (    -1          0          1      )
                  (    -1          0          0      )

 cart.    s(20) = (  0.0000000  0.0000000  1.0000000 )
                  (  0.0000000 -1.0000000  0.0000000 )
                  ( -1.0000000  0.0000000  0.0000000 )


      isym = 21     inv. 180 deg rotation - cart. axis [0,1,1]   

 cryst.   s(21) = (    -1          0          0      )
                  (    -1          1          0      )
                  (    -1          0          1      )

 cart.    s(21) = (  1.0000000  0.0000000  0.0000000 )
                  (  0.0000000  0.0000000 -1.0000000 )
                  (  0.0000000 -1.0000000  0.0000000 )


      isym = 22     inv. 180 deg rotation - cart. axis [0,1,-1]  

 cryst.   s(22) = (     1          0          0      )
                  (     0          0          1      )
                  (     0          1          0      )

 cart.    s(22) = (  1.0000000  0.0000000  0.0000000 )
                  (  0.0000000  0.0000000  1.0000000 )
                  (  0.0000000  1.0000000  0.0000000 )


      isym = 23     inv.  90 deg rotation - cart. axis [-1,0,0]  

 cryst.   s(23) = (     0          1         -1      )
                  (     0          0         -1      )
                  (     1          0         -1      )

 cart.    s(23) = ( -1.0000000  0.0000000  0.0000000 )
                  (  0.0000000  0.0000000 -1.0000000 )
                  (  0.0000000  1.0000000  0.0000000 )


      isym = 24     inv.  90 deg rotation - cart. axis [1,0,0]   

 cryst.   s(24) = (     0         -1          1      )
                  (     1         -1          0      )
                  (     0         -1          0      )

 cart.    s(24) = ( -1.0000000  0.0000000  0.0000000 )
                  (  0.0000000  0.0000000  1.0000000 )
                  (  0.0000000 -1.0000000  0.0000000 )


   Cartesian axes

     site n.     atom                  positions (alat units)
         1           Sn  tau(   1) = (   0.0000000   0.0000000   0.0000000  )
         2           Sn  tau(   2) = (   0.3535534   0.3535534   0.3535534  )

   Crystallographic axes

     site n.     atom                  positions (cryst. coord.)
         1           Sn  tau(   1) = (  0.0000000  0.0000000  0.0000000  )
         2           Sn  tau(   2) = (  0.2500000  0.2500000  0.2500000  )

     number of k points=   145  gaussian smearing, width (Ry)=  0.0001
                       cart. coord. in units 2pi/alat
        k(    1) = (   0.0000000   0.0000000   0.0000000), wk =   0.0002441
        k(    2) = (   0.0441942   0.0441942  -0.0441942), wk =   0.0019531
        k(    3) = (   0.0883883   0.0883883  -0.0883883), wk =   0.0019531
        k(    4) = (   0.1325825   0.1325825  -0.1325825), wk =   0.0019531
        k(    5) = (   0.1767767   0.1767767  -0.1767767), wk =   0.0019531
        k(    6) = (   0.2209709   0.2209709  -0.2209709), wk =   0.0019531
        k(    7) = (   0.2651650   0.2651650  -0.2651650), wk =   0.0019531
        k(    8) = (   0.3093592   0.3093592  -0.3093592), wk =   0.0019531
        k(    9) = (  -0.3535534  -0.3535534   0.3535534), wk =   0.0009766
        k(   10) = (   0.0883883   0.0000000   0.0000000), wk =   0.0014648
        k(   11) = (   0.1325825   0.0441942  -0.0441942), wk =   0.0058594
        k(   12) = (   0.1767767   0.0883883  -0.0883883), wk =   0.0058594
        k(   13) = (   0.2209709   0.1325825  -0.1325825), wk =   0.0058594
        k(   14) = (   0.2651650   0.1767767  -0.1767767), wk =   0.0058594
        k(   15) = (   0.3093592   0.2209709  -0.2209709), wk =   0.0058594
        k(   16) = (   0.3535534   0.2651650  -0.2651650), wk =   0.0058594
        k(   17) = (  -0.3093592  -0.3977476   0.3977476), wk =   0.0058594
        k(   18) = (  -0.2651650  -0.3535534   0.3535534), wk =   0.0058594
        k(   19) = (  -0.2209709  -0.3093592   0.3093592), wk =   0.0058594
        k(   20) = (  -0.1767767  -0.2651650   0.2651650), wk =   0.0058594
        k(   21) = (  -0.1325825  -0.2209709   0.2209709), wk =   0.0058594
        k(   22) = (  -0.0883883  -0.1767767   0.1767767), wk =   0.0058594
        k(   23) = (  -0.0441942  -0.1325825   0.1325825), wk =   0.0058594
        k(   24) = (   0.0000000  -0.0883883   0.0883883), wk =   0.0029297
        k(   25) = (   0.1767767   0.0000000   0.0000000), wk =   0.0014648
        k(   26) = (   0.2209709   0.0441942  -0.0441942), wk =   0.0058594
        k(   27) = (   0.2651650   0.0883883  -0.0883883), wk =   0.0058594
        k(   28) = (   0.3093592   0.1325825  -0.1325825), wk =   0.0058594
        k(   29) = (   0.3535534   0.1767767  -0.1767767), wk =   0.0058594
        k(   30) = (   0.3977476   0.2209709  -0.2209709), wk =   0.0058594
        k(   31) = (  -0.2651650  -0.4419417   0.4419417), wk =   0.0058594
        k(   32) = (  -0.2209709  -0.3977476   0.3977476), wk =   0.0058594
        k(   33) = (  -0.1767767  -0.3535534   0.3535534), wk =   0.0058594
        k(   34) = (  -0.1325825  -0.3093592   0.3093592), wk =   0.0058594
        k(   35) = (  -0.0883883  -0.2651650   0.2651650), wk =   0.0058594
        k(   36) = (  -0.0441942  -0.2209709   0.2209709), wk =   0.0058594
        k(   37) = (   0.0000000  -0.1767767   0.1767767), wk =   0.0029297
        k(   38) = (   0.2651650   0.0000000   0.0000000), wk =   0.0014648
        k(   39) = (   0.3093592   0.0441942  -0.0441942), wk =   0.0058594
        k(   40) = (   0.3535534   0.0883883  -0.0883883), wk =   0.0058594
        k(   41) = (   0.3977476   0.1325825  -0.1325825), wk =   0.0058594
        k(   42) = (   0.4419417   0.1767767  -0.1767767), wk =   0.0058594
        k(   43) = (  -0.2209709  -0.4861359   0.4861359), wk =   0.0058594
        k(   44) = (  -0.1767767  -0.4419417   0.4419417), wk =   0.0058594
        k(   45) = (  -0.1325825  -0.3977476   0.3977476), wk =   0.0058594
        k(   46) = (  -0.0883883  -0.3535534   0.3535534), wk =   0.0058594
        k(   47) = (  -0.0441942  -0.3093592   0.3093592), wk =   0.0058594
        k(   48) = (   0.0000000  -0.2651650   0.2651650), wk =   0.0029297
        k(   49) = (   0.3535534   0.0000000   0.0000000), wk =   0.0014648
        k(   50) = (   0.3977476   0.0441942  -0.0441942), wk =   0.0058594
        k(   51) = (   0.4419417   0.0883883  -0.0883883), wk =   0.0058594
        k(   52) = (   0.4861359   0.1325825  -0.1325825), wk =   0.0058594
        k(   53) = (  -0.1767767  -0.5303301   0.5303301), wk =   0.0058594
        k(   54) = (  -0.1325825  -0.4861359   0.4861359), wk =   0.0058594
        k(   55) = (  -0.0883883  -0.4419417   0.4419417), wk =   0.0058594
        k(   56) = (  -0.0441942  -0.3977476   0.3977476), wk =   0.0058594
        k(   57) = (   0.0000000  -0.3535534   0.3535534), wk =   0.0029297
        k(   58) = (   0.4419417   0.0000000   0.0000000), wk =   0.0014648
        k(   59) = (   0.4861359   0.0441942  -0.0441942), wk =   0.0058594
        k(   60) = (   0.5303301   0.0883883  -0.0883883), wk =   0.0058594
        k(   61) = (  -0.1325825  -0.5745243   0.5745243), wk =   0.0058594
        k(   62) = (  -0.0883883  -0.5303301   0.5303301), wk =   0.0058594
        k(   63) = (  -0.0441942  -0.4861359   0.4861359), wk =   0.0058594
        k(   64) = (   0.0000000  -0.4419417   0.4419417), wk =   0.0029297
        k(   65) = (   0.5303301   0.0000000   0.0000000), wk =   0.0014648
        k(   66) = (   0.5745243   0.0441942  -0.0441942), wk =   0.0058594
        k(   67) = (  -0.0883883  -0.6187184   0.6187184), wk =   0.0058594
        k(   68) = (  -0.0441942  -0.5745243   0.5745243), wk =   0.0058594
        k(   69) = (   0.0000000  -0.5303301   0.5303301), wk =   0.0029297
        k(   70) = (   0.6187184   0.0000000   0.0000000), wk =   0.0014648
        k(   71) = (  -0.0441942  -0.6629126   0.6629126), wk =   0.0058594
        k(   72) = (   0.0000000  -0.6187184   0.6187184), wk =   0.0029297
        k(   73) = (  -0.7071068   0.0000000   0.0000000), wk =   0.0007324
        k(   74) = (   0.1767767   0.0883883   0.0000000), wk =   0.0058594
        k(   75) = (   0.2209709   0.1325825  -0.0441942), wk =   0.0117188
        k(   76) = (   0.2651650   0.1767767  -0.0883883), wk =   0.0117188
        k(   77) = (   0.3093592   0.2209709  -0.1325825), wk =   0.0117188
        k(   78) = (   0.3535534   0.2651650  -0.1767767), wk =   0.0117188
        k(   79) = (  -0.3093592  -0.3977476   0.4861359), wk =   0.0117188
        k(   80) = (  -0.2651650  -0.3535534   0.4419417), wk =   0.0058594
        k(   81) = (   0.2651650   0.0883883   0.0000000), wk =   0.0058594
        k(   82) = (   0.3093592   0.1325825  -0.0441942), wk =   0.0117188
        k(   83) = (   0.3535534   0.1767767  -0.0883883), wk =   0.0117188
        k(   84) = (   0.3977476   0.2209709  -0.1325825), wk =   0.0117188
        k(   85) = (  -0.2651650  -0.4419417   0.5303301), wk =   0.0117188
        k(   86) = (  -0.2209709  -0.3977476   0.4861359), wk =   0.0117188
        k(   87) = (  -0.1767767  -0.3535534   0.4419417), wk =   0.0117188
        k(   88) = (  -0.1325825  -0.3093592   0.3977476), wk =   0.0117188
        k(   89) = (  -0.0883883  -0.2651650   0.3535534), wk =   0.0117188
        k(   90) = (  -0.0441942  -0.2209709   0.3093592), wk =   0.0117188
        k(   91) = (   0.0000000  -0.1767767   0.2651650), wk =   0.0058594
        k(   92) = (   0.3535534   0.0883883   0.0000000), wk =   0.0058594
        k(   93) = (   0.3977476   0.1325825  -0.0441942), wk =   0.0117188
        k(   94) = (   0.4419417   0.1767767  -0.0883883), wk =   0.0117188
        k(   95) = (  -0.2209709  -0.4861359   0.5745243), wk =   0.0117188
        k(   96) = (  -0.1767767  -0.4419417   0.5303301), wk =   0.0117188
        k(   97) = (  -0.1325825  -0.3977476   0.4861359), wk =   0.0117188
        k(   98) = (  -0.0883883  -0.3535534   0.4419417), wk =   0.0117188
        k(   99) = (  -0.0441942  -0.3093592   0.3977476), wk =   0.0117188
        k(  100) = (   0.0000000  -0.2651650   0.3535534), wk =   0.0058594
        k(  101) = (   0.4419417   0.0883883   0.0000000), wk =   0.0058594
        k(  102) = (   0.4861359   0.1325825  -0.0441942), wk =   0.0117188
        k(  103) = (  -0.1767767  -0.5303301   0.6187184), wk =   0.0117188
        k(  104) = (  -0.1325825  -0.4861359   0.5745243), wk =   0.0117188
        k(  105) = (  -0.0883883  -0.4419417   0.5303301), wk =   0.0117188
        k(  106) = (  -0.0441942  -0.3977476   0.4861359), wk =   0.0117188
        k(  107) = (   0.0000000  -0.3535534   0.4419417), wk =   0.0058594
        k(  108) = (   0.5303301   0.0883883   0.0000000), wk =   0.0058594
        k(  109) = (  -0.1325825  -0.5745243   0.6629126), wk =   0.0117188
        k(  110) = (  -0.0883883  -0.5303301   0.6187184), wk =   0.0117188
        k(  111) = (  -0.0441942  -0.4861359   0.5745243), wk =   0.0117188
        k(  112) = (   0.0000000  -0.4419417   0.5303301), wk =   0.0058594
        k(  113) = (  -0.0883883  -0.6187184   0.7071068), wk =   0.0058594
        k(  114) = (  -0.0441942  -0.5745243   0.6629126), wk =   0.0117188
        k(  115) = (  -0.0000000  -0.5303301   0.6187184), wk =   0.0058594
        k(  116) = (  -0.7071068   0.0883883   0.0000000), wk =   0.0029297
        k(  117) = (   0.3535534   0.1767767   0.0000000), wk =   0.0058594
        k(  118) = (   0.3977476   0.2209709  -0.0441942), wk =   0.0117188
        k(  119) = (  -0.2651650  -0.4419417   0.6187184), wk =   0.0117188
        k(  120) = (  -0.2209709  -0.3977476   0.5745243), wk =   0.0117188
        k(  121) = (  -0.1767767  -0.3535534   0.5303301), wk =   0.0058594
        k(  122) = (   0.4419417   0.1767767   0.0000000), wk =   0.0058594
        k(  123) = (  -0.2209709  -0.4861359   0.6629126), wk =   0.0117188
        k(  124) = (  -0.1767767  -0.4419417   0.6187184), wk =   0.0117188
        k(  125) = (  -0.1325825  -0.3977476   0.5745243), wk =   0.0117188
        k(  126) = (  -0.0883883  -0.3535534   0.5303301), wk =   0.0117188
        k(  127) = (  -0.0441942  -0.3093592   0.4861359), wk =   0.0117188
        k(  128) = (   0.0000000  -0.2651650   0.4419417), wk =   0.0058594
        k(  129) = (  -0.1767767  -0.5303301   0.7071068), wk =   0.0058594
        k(  130) = (  -0.1325825  -0.4861359   0.6629126), wk =   0.0117188
        k(  131) = (  -0.0883883  -0.4419417   0.6187184), wk =   0.0117188
        k(  132) = (  -0.0441942  -0.3977476   0.5745243), wk =   0.0117188
        k(  133) = (   0.0000000  -0.3535534   0.5303301), wk =   0.0058594
        k(  134) = (  -0.0883883  -0.5303301   0.7071068), wk =   0.0058594
        k(  135) = (  -0.0441942  -0.4861359   0.6629126), wk =   0.0117188
        k(  136) = (   0.0000000  -0.4419417   0.6187184), wk =   0.0058594
        k(  137) = (  -0.7071068   0.1767767   0.0000000), wk =   0.0029297
        k(  138) = (  -0.1767767  -0.4419417   0.7071068), wk =   0.0058594
        k(  139) = (  -0.1325825  -0.3977476   0.6629126), wk =   0.0117188
        k(  140) = (  -0.0883883  -0.3535534   0.6187184), wk =   0.0058594
        k(  141) = (  -0.0883883  -0.4419417   0.7071068), wk =   0.0058594
        k(  142) = (  -0.0441942  -0.3977476   0.6629126), wk =   0.0117188
        k(  143) = (  -0.0000000  -0.3535534   0.6187184), wk =   0.0058594
        k(  144) = (  -0.7071068   0.2651650   0.0000000), wk =   0.0029297
        k(  145) = (  -0.7071068   0.3535534   0.0000000), wk =   0.0014648

                       cryst. coord.
        k(    1) = (   0.0000000   0.0000000   0.0000000), wk =   0.0002441
        k(    2) = (   0.0000000   0.0000000   0.0625000), wk =   0.0019531
        k(    3) = (   0.0000000   0.0000000   0.1250000), wk =   0.0019531
        k(    4) = (   0.0000000   0.0000000   0.1875000), wk =   0.0019531
        k(    5) = (   0.0000000   0.0000000   0.2500000), wk =   0.0019531
        k(    6) = (   0.0000000   0.0000000   0.3125000), wk =   0.0019531
        k(    7) = (   0.0000000   0.0000000   0.3750000), wk =   0.0019531
        k(    8) = (   0.0000000   0.0000000   0.4375000), wk =   0.0019531
        k(    9) = (   0.0000000   0.0000000  -0.5000000), wk =   0.0009766
        k(   10) = (   0.0000000   0.0625000   0.0625000), wk =   0.0014648
        k(   11) = (   0.0000000   0.0625000   0.1250000), wk =   0.0058594
        k(   12) = (   0.0000000   0.0625000   0.1875000), wk =   0.0058594
        k(   13) = (   0.0000000   0.0625000   0.2500000), wk =   0.0058594
        k(   14) = (   0.0000000   0.0625000   0.3125000), wk =   0.0058594
        k(   15) = (   0.0000000   0.0625000   0.3750000), wk =   0.0058594
        k(   16) = (   0.0000000   0.0625000   0.4375000), wk =   0.0058594
        k(   17) = (   0.0000000   0.0625000  -0.5000000), wk =   0.0058594
        k(   18) = (   0.0000000   0.0625000  -0.4375000), wk =   0.0058594
        k(   19) = (   0.0000000   0.0625000  -0.3750000), wk =   0.0058594
        k(   20) = (   0.0000000   0.0625000  -0.3125000), wk =   0.0058594
        k(   21) = (   0.0000000   0.0625000  -0.2500000), wk =   0.0058594
        k(   22) = (   0.0000000   0.0625000  -0.1875000), wk =   0.0058594
        k(   23) = (   0.0000000   0.0625000  -0.1250000), wk =   0.0058594
        k(   24) = (   0.0000000   0.0625000  -0.0625000), wk =   0.0029297
        k(   25) = (   0.0000000   0.1250000   0.1250000), wk =   0.0014648
        k(   26) = (   0.0000000   0.1250000   0.1875000), wk =   0.0058594
        k(   27) = (   0.0000000   0.1250000   0.2500000), wk =   0.0058594
        k(   28) = (   0.0000000   0.1250000   0.3125000), wk =   0.0058594
        k(   29) = (   0.0000000   0.1250000   0.3750000), wk =   0.0058594
        k(   30) = (   0.0000000   0.1250000   0.4375000), wk =   0.0058594
        k(   31) = (   0.0000000   0.1250000  -0.5000000), wk =   0.0058594
        k(   32) = (   0.0000000   0.1250000  -0.4375000), wk =   0.0058594
        k(   33) = (   0.0000000   0.1250000  -0.3750000), wk =   0.0058594
        k(   34) = (   0.0000000   0.1250000  -0.3125000), wk =   0.0058594
        k(   35) = (   0.0000000   0.1250000  -0.2500000), wk =   0.0058594
        k(   36) = (   0.0000000   0.1250000  -0.1875000), wk =   0.0058594
        k(   37) = (   0.0000000   0.1250000  -0.1250000), wk =   0.0029297
        k(   38) = (   0.0000000   0.1875000   0.1875000), wk =   0.0014648
        k(   39) = (   0.0000000   0.1875000   0.2500000), wk =   0.0058594
        k(   40) = (   0.0000000   0.1875000   0.3125000), wk =   0.0058594
        k(   41) = (   0.0000000   0.1875000   0.3750000), wk =   0.0058594
        k(   42) = (   0.0000000   0.1875000   0.4375000), wk =   0.0058594
        k(   43) = (   0.0000000   0.1875000  -0.5000000), wk =   0.0058594
        k(   44) = (   0.0000000   0.1875000  -0.4375000), wk =   0.0058594
        k(   45) = (   0.0000000   0.1875000  -0.3750000), wk =   0.0058594
        k(   46) = (   0.0000000   0.1875000  -0.3125000), wk =   0.0058594
        k(   47) = (   0.0000000   0.1875000  -0.2500000), wk =   0.0058594
        k(   48) = (   0.0000000   0.1875000  -0.1875000), wk =   0.0029297
        k(   49) = (   0.0000000   0.2500000   0.2500000), wk =   0.0014648
        k(   50) = (   0.0000000   0.2500000   0.3125000), wk =   0.0058594
        k(   51) = (   0.0000000   0.2500000   0.3750000), wk =   0.0058594
        k(   52) = (   0.0000000   0.2500000   0.4375000), wk =   0.0058594
        k(   53) = (   0.0000000   0.2500000  -0.5000000), wk =   0.0058594
        k(   54) = (   0.0000000   0.2500000  -0.4375000), wk =   0.0058594
        k(   55) = (   0.0000000   0.2500000  -0.3750000), wk =   0.0058594
        k(   56) = (   0.0000000   0.2500000  -0.3125000), wk =   0.0058594
        k(   57) = (   0.0000000   0.2500000  -0.2500000), wk =   0.0029297
        k(   58) = (   0.0000000   0.3125000   0.3125000), wk =   0.0014648
        k(   59) = (   0.0000000   0.3125000   0.3750000), wk =   0.0058594
        k(   60) = (   0.0000000   0.3125000   0.4375000), wk =   0.0058594
        k(   61) = (   0.0000000   0.3125000  -0.5000000), wk =   0.0058594
        k(   62) = (   0.0000000   0.3125000  -0.4375000), wk =   0.0058594
        k(   63) = (   0.0000000   0.3125000  -0.3750000), wk =   0.0058594
        k(   64) = (   0.0000000   0.3125000  -0.3125000), wk =   0.0029297
        k(   65) = (   0.0000000   0.3750000   0.3750000), wk =   0.0014648
        k(   66) = (   0.0000000   0.3750000   0.4375000), wk =   0.0058594
        k(   67) = (   0.0000000   0.3750000  -0.5000000), wk =   0.0058594
        k(   68) = (   0.0000000   0.3750000  -0.4375000), wk =   0.0058594
        k(   69) = (   0.0000000   0.3750000  -0.3750000), wk =   0.0029297
        k(   70) = (   0.0000000   0.4375000   0.4375000), wk =   0.0014648
        k(   71) = (   0.0000000   0.4375000  -0.5000000), wk =   0.0058594
        k(   72) = (   0.0000000   0.4375000  -0.4375000), wk =   0.0029297
        k(   73) = (   0.0000000  -0.5000000  -0.5000000), wk =   0.0007324
        k(   74) = (   0.0625000   0.1250000   0.1875000), wk =   0.0058594
        k(   75) = (   0.0625000   0.1250000   0.2500000), wk =   0.0117188
        k(   76) = (   0.0625000   0.1250000   0.3125000), wk =   0.0117188
        k(   77) = (   0.0625000   0.1250000   0.3750000), wk =   0.0117188
        k(   78) = (   0.0625000   0.1250000   0.4375000), wk =   0.0117188
        k(   79) = (   0.0625000   0.1250000  -0.5000000), wk =   0.0117188
        k(   80) = (   0.0625000   0.1250000  -0.4375000), wk =   0.0058594
        k(   81) = (   0.0625000   0.1875000   0.2500000), wk =   0.0058594
        k(   82) = (   0.0625000   0.1875000   0.3125000), wk =   0.0117188
        k(   83) = (   0.0625000   0.1875000   0.3750000), wk =   0.0117188
        k(   84) = (   0.0625000   0.1875000   0.4375000), wk =   0.0117188
        k(   85) = (   0.0625000   0.1875000  -0.5000000), wk =   0.0117188
        k(   86) = (   0.0625000   0.1875000  -0.4375000), wk =   0.0117188
        k(   87) = (   0.0625000   0.1875000  -0.3750000), wk =   0.0117188
        k(   88) = (   0.0625000   0.1875000  -0.3125000), wk =   0.0117188
        k(   89) = (   0.0625000   0.1875000  -0.2500000), wk =   0.0117188
        k(   90) = (   0.0625000   0.1875000  -0.1875000), wk =   0.0117188
        k(   91) = (   0.0625000   0.1875000  -0.1250000), wk =   0.0058594
        k(   92) = (   0.0625000   0.2500000   0.3125000), wk =   0.0058594
        k(   93) = (   0.0625000   0.2500000   0.3750000), wk =   0.0117188
        k(   94) = (   0.0625000   0.2500000   0.4375000), wk =   0.0117188
        k(   95) = (   0.0625000   0.2500000  -0.5000000), wk =   0.0117188
        k(   96) = (   0.0625000   0.2500000  -0.4375000), wk =   0.0117188
        k(   97) = (   0.0625000   0.2500000  -0.3750000), wk =   0.0117188
        k(   98) = (   0.0625000   0.2500000  -0.3125000), wk =   0.0117188
        k(   99) = (   0.0625000   0.2500000  -0.2500000), wk =   0.0117188
        k(  100) = (   0.0625000   0.2500000  -0.1875000), wk =   0.0058594
        k(  101) = (   0.0625000   0.3125000   0.3750000), wk =   0.0058594
        k(  102) = (   0.0625000   0.3125000   0.4375000), wk =   0.0117188
        k(  103) = (   0.0625000   0.3125000  -0.5000000), wk =   0.0117188
        k(  104) = (   0.0625000   0.3125000  -0.4375000), wk =   0.0117188
        k(  105) = (   0.0625000   0.3125000  -0.3750000), wk =   0.0117188
        k(  106) = (   0.0625000   0.3125000  -0.3125000), wk =   0.0117188
        k(  107) = (   0.0625000   0.3125000  -0.2500000), wk =   0.0058594
        k(  108) = (   0.0625000   0.3750000   0.4375000), wk =   0.0058594
        k(  109) = (   0.0625000   0.3750000  -0.5000000), wk =   0.0117188
        k(  110) = (   0.0625000   0.3750000  -0.4375000), wk =   0.0117188
        k(  111) = (   0.0625000   0.3750000  -0.3750000), wk =   0.0117188
        k(  112) = (   0.0625000   0.3750000  -0.3125000), wk =   0.0058594
        k(  113) = (   0.0625000   0.4375000  -0.5000000), wk =   0.0058594
        k(  114) = (   0.0625000   0.4375000  -0.4375000), wk =   0.0117188
        k(  115) = (   0.0625000   0.4375000  -0.3750000), wk =   0.0058594
        k(  116) = (   0.0625000  -0.5000000  -0.4375000), wk =   0.0029297
        k(  117) = (   0.1250000   0.2500000   0.3750000), wk =   0.0058594
        k(  118) = (   0.1250000   0.2500000   0.4375000), wk =   0.0117188
        k(  119) = (   0.1250000   0.2500000  -0.5000000), wk =   0.0117188
        k(  120) = (   0.1250000   0.2500000  -0.4375000), wk =   0.0117188
        k(  121) = (   0.1250000   0.2500000  -0.3750000), wk =   0.0058594
        k(  122) = (   0.1250000   0.3125000   0.4375000), wk =   0.0058594
        k(  123) = (   0.1250000   0.3125000  -0.5000000), wk =   0.0117188
        k(  124) = (   0.1250000   0.3125000  -0.4375000), wk =   0.0117188
        k(  125) = (   0.1250000   0.3125000  -0.3750000), wk =   0.0117188
        k(  126) = (   0.1250000   0.3125000  -0.3125000), wk =   0.0117188
        k(  127) = (   0.1250000   0.3125000  -0.2500000), wk =   0.0117188
        k(  128) = (   0.1250000   0.3125000  -0.1875000), wk =   0.0058594
        k(  129) = (   0.1250000   0.3750000  -0.5000000), wk =   0.0058594
        k(  130) = (   0.1250000   0.3750000  -0.4375000), wk =   0.0117188
        k(  131) = (   0.1250000   0.3750000  -0.3750000), wk =   0.0117188
        k(  132) = (   0.1250000   0.3750000  -0.3125000), wk =   0.0117188
        k(  133) = (   0.1250000   0.3750000  -0.2500000), wk =   0.0058594
        k(  134) = (   0.1250000   0.4375000  -0.4375000), wk =   0.0058594
        k(  135) = (   0.1250000   0.4375000  -0.3750000), wk =   0.0117188
        k(  136) = (   0.1250000   0.4375000  -0.3125000), wk =   0.0058594
        k(  137) = (   0.1250000  -0.5000000  -0.3750000), wk =   0.0029297
        k(  138) = (   0.1875000   0.3750000  -0.4375000), wk =   0.0058594
        k(  139) = (   0.1875000   0.3750000  -0.3750000), wk =   0.0117188
        k(  140) = (   0.1875000   0.3750000  -0.3125000), wk =   0.0058594
        k(  141) = (   0.1875000   0.4375000  -0.3750000), wk =   0.0058594
        k(  142) = (   0.1875000   0.4375000  -0.3125000), wk =   0.0117188
        k(  143) = (   0.1875000   0.4375000  -0.2500000), wk =   0.0058594
        k(  144) = (   0.1875000  -0.5000000  -0.3125000), wk =   0.0029297
        k(  145) = (   0.2500000  -0.5000000  -0.2500000), wk =   0.0014648

     Dense  grid:    23973 G-vectors     FFT dimensions: (  45,  45,  45)

     Largest allocated arrays     est. size (Mb)     dimensions
        Kohn-Sham Wavefunctions         0.21 Mb     (     382,   36)
        NL pseudopotentials             0.20 Mb     (     191,   68)
        Each V/rho on FFT grid          0.09 Mb     (    6075)
        Each G-vector array             0.01 Mb     (    1498)
        G-vector shells                 0.00 Mb     (     257)
     Largest temporary arrays     est. size (Mb)     dimensions
        Auxiliary wavefunctions         0.84 Mb     (     382,  144)
        Each subspace H/S matrix        0.32 Mb     (     144,  144)
        Each <psi_i|beta_j> matrix      0.07 Mb     (      68,   2,   36)
        Arrays for rho mixing           0.74 Mb     (    6075,    8)

     Check: negative/imaginary core charge=   -0.000006    0.000000

     Initial potential from superposition of free atoms

     starting charge   27.99781, renormalised to   28.00000
     Starting wfc are   36 randomized atomic wfcs

     total cpu time spent up to now is        4.9 secs

     Self-consistent Calculation

     iteration #  1     ecut=    50.00 Ry     beta=0.70
     Davidson diagonalization with overlap
     ethr =  1.00E-02,  avg # of iterations =  3.4

     Threshold (ethr) on eigenvalues was too large:
     Diagonalizing with lowered threshold

     Davidson diagonalization with overlap
     ethr =  5.76E-05,  avg # of iterations =  3.4

     total cpu time spent up to now is       32.5 secs

     total energy              =    -325.83609666 Ry
     Harris-Foulkes estimate   =    -325.83804094 Ry
     estimated scf accuracy    <       0.01912043 Ry

     iteration #  2     ecut=    50.00 Ry     beta=0.70
     Davidson diagonalization with overlap
     ethr =  6.83E-05,  avg # of iterations =  1.0

     total cpu time spent up to now is       42.9 secs

     total energy              =    -325.83668420 Ry
     Harris-Foulkes estimate   =    -325.83678817 Ry
     estimated scf accuracy    <       0.00152915 Ry

     iteration #  3     ecut=    50.00 Ry     beta=0.70
     Davidson diagonalization with overlap
     ethr =  5.46E-06,  avg # of iterations =  2.3

     total cpu time spent up to now is       57.1 secs

     total energy              =    -325.83690287 Ry
     Harris-Foulkes estimate   =    -325.83694697 Ry
     estimated scf accuracy    <       0.00008932 Ry

     iteration #  4     ecut=    50.00 Ry     beta=0.70
     Davidson diagonalization with overlap
     ethr =  3.19E-07,  avg # of iterations =  2.0

     total cpu time spent up to now is       70.2 secs

     total energy              =    -325.83692484 Ry
     Harris-Foulkes estimate   =    -325.83692282 Ry
     estimated scf accuracy    <       0.00000286 Ry

     iteration #  5     ecut=    50.00 Ry     beta=0.70
     Davidson diagonalization with overlap
     ethr =  1.02E-08,  avg # of iterations =  2.1

     total cpu time spent up to now is       81.9 secs

     End of self-consistent calculation

          k = 0.0000 0.0000 0.0000 (  2975 PWs)   bands (ev):

   -15.1202 -15.1202 -15.1202 -15.1202 -15.0401 -15.0401 -15.0401 -15.0401
   -14.1944 -14.1944 -14.0255 -14.0255 -14.0255 -14.0255 -13.9884 -13.9884
   -13.9884 -13.9884 -13.8845 -13.8845  -3.1696  -3.1696   5.7260   5.7260
     6.5520   6.5520   7.2007   7.2007   7.2007   7.2007   8.7345   8.7345
     9.2047   9.2047   9.2047   9.2047

     occupation numbers 
     1.0000   1.0000   1.0000   1.0000   1.0000   1.0000   1.0000   1.0000
     1.0000   1.0000   1.0000   1.0000   1.0000   1.0000   1.0000   1.0000
     1.0000   1.0000   1.0000   1.0000   1.0000   1.0000   1.0000   1.0000
     1.0000   1.0000   0.0000   0.0000   0.0000   0.0000   0.0000   0.0000
     0.0000   0.0000   0.0000   0.0000

          k = 0.0442 0.0442-0.0442 (  2972 PWs)   bands (ev):

   -15.1205 -15.1205 -15.1193 -15.1193 -15.0409 -15.0409 -15.0396 -15.0396
   -14.1926 -14.1926 -14.0306 -14.0306 -14.0287 -14.0287 -13.9850 -13.9850
   -13.9840 -13.9840 -13.8855 -13.8855  -3.1348  -3.1348   5.3171   5.3171
     6.5983   6.5983   7.1259   7.1259   7.2620   7.2620   8.8915   8.8915
     9.2873   9.2873   9.3017   9.3017

     occupation numbers 
     1.0000   1.0000   1.0000   1.0000   1.0000   1.0000   1.0000   1.0000
     1.0000   1.0000   1.0000   1.0000   1.0000   1.0000   1.0000   1.0000
     1.0000   1.0000   1.0000   1.0000   1.0000   1.0000   1.0000   1.0000
     1.0000   1.0000   0.0000   0.0000   0.0000   0.0000   0.0000   0.0000
     0.0000   0.0000   0.0000   0.0000

          k = 0.0884 0.0884-0.0884 (  2981 PWs)   bands (ev):

   -15.1215 -15.1215 -15.1170 -15.1170 -15.0431 -15.0431 -15.0381 -15.0381
   -14.1874 -14.1874 -14.0416 -14.0416 -14.0359 -14.0359 -13.9773 -13.9773
   -13.9750 -13.9750 -13.8883 -13.8883  -3.0313  -3.0313   4.5541   4.5541
     6.4916   6.4916   6.9440   6.9440   7.3094   7.3094   9.2181   9.2181
     9.5389   9.5389   9.6416   9.6416

     occupation numbers 
     1.0000   1.0000   1.0000   1.0000   1.0000   1.0000   1.0000   1.0000
     1.0000   1.0000   1.0000   1.0000   1.0000   1.0000   1.0000   1.0000
     1.0000   1.0000   1.0000   1.0000   1.0000   1.0000   1.0000   1.0000
     1.0000   1.0000   1.0000   1.0000   0.0000   0.0000   0.0000   0.0000
     0.0000   0.0000   0.0000   0.0000

          k = 0.1326 0.1326-0.1326 (  2957 PWs)   bands (ev):

   -15.1230 -15.1230 -15.1133 -15.1133 -15.0466 -15.0466 -15.0360 -15.0360
   -14.1793 -14.1793 -14.0546 -14.0546 -14.0438 -14.0438 -13.9684 -13.9684
   -13.9651 -13.9651 -13.8926 -13.8926  -2.8621  -2.8621   3.7261   3.7261
     6.2960   6.2960   6.7257   6.7257   7.2308   7.2308   9.5045   9.5045
     9.8133   9.8133  10.3094  10.3094

     occupation numbers 
     1.0000   1.0000   1.0000   1.0000   1.0000   1.0000   1.0000   1.0000
     1.0000   1.0000   1.0000   1.0000   1.0000   1.0000   1.0000   1.0000
     1.0000   1.0000   1.0000   1.0000   1.0000   1.0000   1.0000   1.0000
     1.0000   1.0000   1.0000   1.0000   0.0000   0.0000   0.0000   0.0000
     0.0000   0.0000   0.0000   0.0000

          k = 0.1768 0.1768-0.1768 (  2971 PWs)   bands (ev):

   -15.1246 -15.1246 -15.1085 -15.1085 -15.0512 -15.0512 -15.0337 -15.0337
   -14.1690 -14.1690 -14.0681 -14.0681 -14.0513 -14.0513 -13.9600 -13.9600
   -13.9557 -13.9557 -13.8982 -13.8982  -2.6334  -2.6334   2.9160   2.9160
     6.0957   6.0957   6.5167   6.5167   7.0921   7.0921   9.7365   9.7365
    10.0358  10.0358  11.1174  11.1175

     occupation numbers 
     1.0000   1.0000   1.0000   1.0000   1.0000   1.0000   1.0000   1.0000
     1.0000   1.0000   1.0000   1.0000   1.0000   1.0000   1.0000   1.0000
     1.0000   1.0000   1.0000   1.0000   1.0000   1.0000   1.0000   1.0000
     1.0000   1.0000   1.0000   1.0000   0.0000   0.0000   0.0000   0.0000
     0.0000   0.0000   0.0000   0.0000

          k = 0.2210 0.2210-0.2210 (  2980 PWs)   bands (ev):

   -15.1261 -15.1261 -15.1029 -15.1029 -15.0566 -15.0566 -15.0315 -15.0315
   -14.1573 -14.1573 -14.0813 -14.0813 -14.0575 -14.0575 -13.9527 -13.9527
   -13.9472 -13.9472 -13.9047 -13.9047  -2.3583  -2.3583   2.1689   2.1689
     5.9237   5.9237   6.3405   6.3405   6.9531   6.9531   9.8867   9.8867
    10.1618  10.1618  11.9783  11.9783

     occupation numbers 
     1.0000   1.0000   1.0000   1.0000   1.0000   1.0000   1.0000   1.0000
     1.0000   1.0000   1.0000   1.0000   1.0000   1.0000   1.0000   1.0000
     1.0000   1.0000   1.0000   1.0000   1.0000   1.0000   1.0000   1.0000
     1.0000   1.0000   1.0000   1.0000   0.1250   0.1250   0.0000   0.0000
     0.0000   0.0000   0.0000   0.0000

          k = 0.2652 0.2652-0.2652 (  2980 PWs)   bands (ev):

   -15.1273 -15.1273 -15.0969 -15.0969 -15.0625 -15.0625 -15.0297 -15.0297
   -14.1450 -14.1450 -14.0939 -14.0939 -14.0622 -14.0622 -13.9472 -13.9472
   -13.9396 -13.9396 -13.9115 -13.9115  -2.0649  -2.0649   1.5295   1.5295
     5.7944   5.7944   6.2091   6.2091   6.8425   6.8425   9.9571   9.9571
    10.2051  10.2051  12.6328  12.6328

     occupation numbers 
     1.0000   1.0000   1.0000   1.0000   1.0000   1.0000   1.0000   1.0000
     1.0000   1.0000   1.0000   1.0000   1.0000   1.0000   1.0000   1.0000
     1.0000   1.0000   1.0000   1.0000   1.0000   1.0000   1.0000   1.0000
     1.0000   1.0000   1.0000   1.0000   1.0000   1.0000   0.0000   0.0000
     0.0000   0.0000   0.0000   0.0000

          k = 0.3094 0.3094-0.3094 (  2983 PWs)   bands (ev):

   -15.1280 -15.1280 -15.0914 -15.0914 -15.0679 -15.0679 -15.0286 -15.0286
   -14.1329 -14.1329 -14.1059 -14.1059 -14.0651 -14.0651 -13.9437 -13.9437
   -13.9326 -13.9326 -13.9183 -13.9183  -1.8132  -1.8132   1.0670   1.0670
     5.7146   5.7146   6.1284   6.1284   6.7728   6.7728   9.9793   9.9793
    10.2083  10.2083  12.6562  12.6562

     occupation numbers 
     1.0000   1.0000   1.0000   1.0000   1.0000   1.0000   1.0000   1.0000
     1.0000   1.0000   1.0000   1.0000   1.0000   1.0000   1.0000   1.0000
     1.0000   1.0000   1.0000   1.0000   1.0000   1.0000   1.0000   1.0000
     1.0000   1.0000   1.0000   1.0000   1.0000   1.0000   0.0000   0.0000
     0.0000   0.0000   0.0000   0.0000

          k =-0.3536-0.3536 0.3536 (  2998 PWs)   bands (ev):

   -15.1283 -15.1283 -15.0887 -15.0887 -15.0705 -15.0705 -15.0282 -15.0282
   -14.1247 -14.1247 -14.1140 -14.1140 -14.0662 -14.0662 -13.9425 -13.9425
   -13.9275 -13.9275 -13.9235 -13.9235  -1.7068  -1.7068   0.8898   0.8898
     5.6877   5.6877   6.1012   6.1012   6.7491   6.7491   9.9831   9.9831
    10.2054  10.2054  12.6310  12.6310

     occupation numbers 
     1.0000   1.0000   1.0000   1.0000   1.0000   1.0000   1.0000   1.0000
     1.0000   1.0000   1.0000   1.0000   1.0000   1.0000   1.0000   1.0000
     1.0000   1.0000   1.0000   1.0000   1.0000   1.0000   1.0000   1.0000
     1.0000   1.0000   1.0000   1.0000   1.0000   1.0000   0.0000   0.0000
     0.0000   0.0000   0.0000   0.0000

          k = 0.0884 0.0000 0.0000 (  2971 PWs)   bands (ev):

   -15.1202 -15.1202 -15.1195 -15.1195 -15.0408 -15.0408 -15.0397 -15.0397
   -14.1920 -14.1920 -14.0330 -14.0330 -14.0286 -14.0286 -13.9844 -13.9844
   -13.9826 -13.9826 -13.8858 -13.8858  -3.1231  -3.1231   5.2364   5.2364
     6.5310   6.5310   6.9454   6.9454   7.5189   7.5189   8.8091   8.8091
     9.3008   9.3008   9.4355   9.4355

     occupation numbers 
     1.0000   1.0000   1.0000   1.0000   1.0000   1.0000   1.0000   1.0000
     1.0000   1.0000   1.0000   1.0000   1.0000   1.0000   1.0000   1.0000
     1.0000   1.0000   1.0000   1.0000   1.0000   1.0000   1.0000   1.0000
     1.0000   1.0000   1.0000   1.0000   0.0000   0.0000   0.0000   0.0000
     0.0000   0.0000   0.0000   0.0000

          k = 0.1326 0.0442-0.0442 (  2982 PWs)   bands (ev):

   -15.1210 -15.1210 -15.1178 -15.1178 -15.0425 -15.0425 -15.0387 -15.0387
   -14.1880 -14.1880 -14.0419 -14.0419 -14.0336 -14.0336 -13.9790 -13.9790
   -13.9753 -13.9753 -13.8879 -13.8879  -3.0424  -3.0424   4.6710   4.6710
     6.3916   6.3916   6.7348   6.7348   7.7220   7.7220   8.8759   8.8759
     9.5867   9.5867   9.7370   9.7370

     occupation numbers 
     1.0000   1.0000   1.0000   1.0000   1.0000   1.0000   1.0000   1.0000
     1.0000   1.0000   1.0000   1.0000   1.0000   1.0000   1.0000   1.0000
     1.0000   1.0000   1.0000   1.0000   1.0000   1.0000   1.0000   1.0000
     1.0000   1.0000   1.0000   1.0000   0.0000   0.0000   0.0000   0.0000
     0.0000   0.0000   0.0000   0.0000

          k = 0.1768 0.0884-0.0884 (  2973 PWs)   bands (ev):

   -15.1223 -15.1223 -15.1145 -15.1145 -15.0455 -15.0455 -15.0367 -15.0367
   -14.1809 -14.1809 -14.0537 -14.0537 -14.0407 -14.0407 -13.9724 -13.9724
   -13.9652 -13.9652 -13.8915 -13.8915  -2.8946  -2.8946   3.9187   3.9187
     6.1869   6.1869   6.5164   6.5164   7.7175   7.7175   9.1190   9.1190
     9.9201   9.9201  10.2490  10.2490

     occupation numbers 
     1.0000   1.0000   1.0000   1.0000   1.0000   1.0000   1.0000   1.0000
     1.0000   1.0000   1.0000   1.0000   1.0000   1.0000   1.0000   1.0000
     1.0000   1.0000   1.0000   1.0000   1.0000   1.0000   1.0000   1.0000
     1.0000   1.0000   1.0000   1.0000   0.0000   0.0000   0.0000   0.0000
     0.0000   0.0000   0.0000   0.0000

          k = 0.2210 0.1326-0.1326 (  2967 PWs)   bands (ev):

   -15.1240 -15.1240 -15.1101 -15.1101 -15.0498 -15.0498 -15.0343 -15.0343
   -14.1713 -14.1713 -14.0662 -14.0662 -14.0480 -14.0480 -13.9658 -13.9658
   -13.9550 -13.9550 -13.8963 -13.8963  -2.6848  -2.6848   3.1320   3.1320
     5.9712   5.9712   6.2987   6.2987   7.6005   7.6005   9.4242   9.4242
    10.1751  10.1751  10.8861  10.8861

     occupation numbers 
     1.0000   1.0000   1.0000   1.0000   1.0000   1.0000   1.0000   1.0000
     1.0000   1.0000   1.0000   1.0000   1.0000   1.0000   1.0000   1.0000
     1.0000   1.0000   1.0000   1.0000   1.0000   1.0000   1.0000   1.0000
     1.0000   1.0000   1.0000   1.0000   0.0000   0.0000   0.0000   0.0000
     0.0000   0.0000   0.0000   0.0000

          k = 0.2652 0.1768-0.1768 (  2973 PWs)   bands (ev):

   -15.1255 -15.1255 -15.1047 -15.1047 -15.0551 -15.0551 -15.0320 -15.0320
   -14.1602 -14.1602 -14.0787 -14.0787 -14.0546 -14.0546 -13.9599 -13.9599
   -13.9457 -13.9457 -13.9019 -13.9019  -2.4231  -2.4231   2.3794   2.3794
     5.7764   5.7764   6.1125   6.1125   7.4571   7.4571   9.6781   9.6781
    10.3156  10.3156  11.5615  11.5615

     occupation numbers 
     1.0000   1.0000   1.0000   1.0000   1.0000   1.0000   1.0000   1.0000
     1.0000   1.0000   1.0000   1.0000   1.0000   1.0000   1.0000   1.0000
     1.0000   1.0000   1.0000   1.0000   1.0000   1.0000   1.0000   1.0000
     1.0000   1.0000   1.0000   1.0000   0.0000   0.0000   0.0000   0.0000
     0.0000   0.0000   0.0000   0.0000

          k = 0.3094 0.2210-0.2210 (  2980 PWs)   bands (ev):

   -15.1268 -15.1268 -15.0988 -15.0988 -15.0608 -15.0608 -15.0300 -15.0300
   -14.1482 -14.1482 -14.0907 -14.0907 -14.0599 -14.0599 -13.9552 -13.9552
   -13.9380 -13.9380 -13.9076 -13.9076  -2.1309  -2.1309   1.7096   1.7096
     5.6161   5.6161   5.9779   5.9779   7.3294   7.3294   9.8350   9.8350
    10.3481  10.3481  12.2248  12.2248

     occupation numbers 
     1.0000   1.0000   1.0000   1.0000   1.0000   1.0000   1.0000   1.0000
     1.0000   1.0000   1.0000   1.0000   1.0000   1.0000   1.0000   1.0000
     1.0000   1.0000   1.0000   1.0000   1.0000   1.0000   1.0000   1.0000
     1.0000   1.0000   1.0000   1.0000   0.0000   0.0000   0.0000   0.0000
     0.0000   0.0000   0.0000   0.0000

          k = 0.3536 0.2652-0.2652 (  2997 PWs)   bands (ev):

   -15.1278 -15.1278 -15.0930 -15.0930 -15.0666 -15.0666 -15.0286 -15.0286
   -14.1365 -14.1365 -14.1020 -14.1020 -14.0636 -14.0636 -13.9519 -13.9519
   -13.9321 -13.9321 -13.9127 -13.9127  -1.8551  -1.8551   1.1838   1.1838
     5.4976   5.4976   5.9037   5.9037   7.2363   7.2363   9.9195   9.9195
    10.3176  10.3176  12.6512  12.6512

     occupation numbers 
     1.0000   1.0000   1.0000   1.0000   1.0000   1.0000   1.0000   1.0000
     1.0000   1.0000   1.0000   1.0000   1.0000   1.0000   1.0000   1.0000
     1.0000   1.0000   1.0000   1.0000   1.0000   1.0000   1.0000   1.0000
     1.0000   1.0000   1.0000   1.0000   0.0000   0.0000   0.0000   0.0000
     0.0000   0.0000   0.0000   0.0000

          k =-0.3094-0.3977 0.3977 (  2980 PWs)   bands (ev):

   -15.1282 -15.1282 -15.0890 -15.0890 -15.0705 -15.0705 -15.0279 -15.0279
   -14.1269 -14.1269 -14.1111 -14.1111 -14.0652 -14.0652 -13.9504 -13.9504
   -13.9285 -13.9285 -13.9160 -13.9160  -1.6871  -1.6871   0.9010   0.9010
     5.4270   5.4270   5.8916   5.8916   7.1861   7.1861   9.9717   9.9717
    10.2691  10.2691  12.7437  12.7438

     occupation numbers 
     1.0000   1.0000   1.0000   1.0000   1.0000   1.0000   1.0000   1.0000
     1.0000   1.0000   1.0000   1.0000   1.0000   1.0000   1.0000   1.0000
     1.0000   1.0000   1.0000   1.0000   1.0000   1.0000   1.0000   1.0000
     1.0000   1.0000   1.0000   1.0000   0.0000   0.0000   0.0000   0.0000
     0.0000   0.0000   0.0000   0.0000

          k =-0.2652-0.3536 0.3536 (  2981 PWs)   bands (ev):

   -15.1281 -15.1281 -15.0899 -15.0898 -15.0697 -15.0697 -15.0280 -15.0280
   -14.1295 -14.1295 -14.1086 -14.1086 -14.0648 -14.0648 -13.9509 -13.9509
   -13.9290 -13.9290 -13.9153 -13.9153  -1.7241  -1.7241   0.9612   0.9612
     5.4088   5.4088   5.9396   5.9396   7.1818   7.1818  10.0061  10.0061
    10.2321  10.2321  12.7564  12.7564

     occupation numbers 
     1.0000   1.0000   1.0000   1.0000   1.0000   1.0000   1.0000   1.0000
     1.0000   1.0000   1.0000   1.0000   1.0000   1.0000   1.0000   1.0000
     1.0000   1.0000   1.0000   1.0000   1.0000   1.0000   1.0000   1.0000
     1.0000   1.0000   1.0000   1.0000   0.0000   0.0000   0.0000   0.0000
     0.0000   0.0000   0.0000   0.0000

          k =-0.2210-0.3094 0.3094 (  2983 PWs)   bands (ev):

   -15.1276 -15.1276 -15.0947 -15.0947 -15.0649 -15.0649 -15.0289 -15.0289
   -14.1404 -14.1404 -14.0983 -14.0983 -14.0624 -14.0624 -13.9534 -13.9534
   -13.9332 -13.9332 -13.9113 -13.9113  -1.9411  -1.9411   1.3390   1.3390
     5.4467   5.4467   6.0435   6.0435   7.2231   7.2231  10.0006  10.0006
    10.2221  10.2221  12.6442  12.6442

     occupation numbers 
     1.0000   1.0000   1.0000   1.0000   1.0000   1.0000   1.0000   1.0000
     1.0000   1.0000   1.0000   1.0000   1.0000   1.0000   1.0000   1.0000
     1.0000   1.0000   1.0000   1.0000   1.0000   1.0000   1.0000   1.0000
     1.0000   1.0000   1.0000   1.0000   0.0000   0.0000   0.0000   0.0000
     0.0000   0.0000   0.0000   0.0000

          k =-0.1768-0.2652 0.2652 (  2975 PWs)   bands (ev):

   -15.1265 -15.1265 -15.1006 -15.1006 -15.0591 -15.0591 -15.0305 -15.0305
   -14.1523 -14.1523 -14.0868 -14.0868 -14.0581 -14.0581 -13.9574 -13.9574
   -13.9396 -13.9396 -13.9059 -13.9059  -2.2301  -2.2301   1.9215   1.9215
     5.5427   5.5427   6.1968   6.1968   7.3052   7.3052   9.9252   9.9252
    10.2117  10.2117  12.0804  12.0804

     occupation numbers 
     1.0000   1.0000   1.0000   1.0000   1.0000   1.0000   1.0000   1.0000
     1.0000   1.0000   1.0000   1.0000   1.0000   1.0000   1.0000   1.0000
     1.0000   1.0000   1.0000   1.0000   1.0000   1.0000   1.0000   1.0000
     1.0000   1.0000   1.0000   1.0000   0.0000   0.0000   0.0000   0.0000
     0.0000   0.0000   0.0000   0.0000

          k =-0.1326-0.2210 0.2210 (  2974 PWs)   bands (ev):

   -15.1251 -15.1251 -15.1064 -15.1064 -15.0534 -15.0534 -15.0326 -15.0326
   -14.1640 -14.1640 -14.0747 -14.0747 -14.0523 -14.0523 -13.9627 -13.9627
   -13.9477 -13.9477 -13.9001 -13.9001  -2.5156  -2.5156   2.6235   2.6235
     5.6973   5.6973   6.3891   6.3891   7.4161   7.4161   9.7672   9.7672
    10.1168  10.1168  11.3554  11.3554

     occupation numbers 
     1.0000   1.0000   1.0000   1.0000   1.0000   1.0000   1.0000   1.0000
     1.0000   1.0000   1.0000   1.0000   1.0000   1.0000   1.0000   1.0000
     1.0000   1.0000   1.0000   1.0000   1.0000   1.0000   1.0000   1.0000
     1.0000   1.0000   1.0000   1.0000   0.0000   0.0000   0.0000   0.0000
     0.0000   0.0000   0.0000   0.0000

          k =-0.0884-0.1768 0.1768 (  2973 PWs)   bands (ev):

   -15.1236 -15.1236 -15.1115 -15.1115 -15.0485 -15.0485 -15.0350 -15.0350
   -14.1748 -14.1748 -14.0621 -14.0621 -14.0454 -14.0454 -13.9690 -13.9690
   -13.9573 -13.9573 -13.8947 -13.8947  -2.7616  -2.7616   3.3900   3.3900
     5.9089   5.9089   6.6033   6.6033   7.5277   7.5277   9.5341   9.5341
     9.8639   9.8639  10.7036  10.7036

     occupation numbers 
     1.0000   1.0000   1.0000   1.0000   1.0000   1.0000   1.0000   1.0000
     1.0000   1.0000   1.0000   1.0000   1.0000   1.0000   1.0000   1.0000
     1.0000   1.0000   1.0000   1.0000   1.0000   1.0000   1.0000   1.0000
     1.0000   1.0000   1.0000   1.0000   0.0000   0.0000   0.0000   0.0000
     0.0000   0.0000   0.0000   0.0000

          k =-0.0442-0.1326 0.1326 (  2979 PWs)   bands (ev):

   -15.1221 -15.1221 -15.1155 -15.1155 -15.0446 -15.0446 -15.0372 -15.0372
   -14.1836 -14.1836 -14.0495 -14.0495 -14.0382 -14.0382 -13.9756 -13.9756
   -13.9677 -13.9677 -13.8902 -13.8902  -2.9514  -2.9514   4.1676   4.1676
     6.1711   6.1711   6.8091   6.8091   7.5777   7.5777   9.2671   9.2671
     9.5195   9.5195  10.1388  10.1388

     occupation numbers 
     1.0000   1.0000   1.0000   1.0000   1.0000   1.0000   1.0000   1.0000
     1.0000   1.0000   1.0000   1.0000   1.0000   1.0000   1.0000   1.0000
     1.0000   1.0000   1.0000   1.0000   1.0000   1.0000   1.0000   1.0000
     1.0000   1.0000   1.0000   1.0000   0.0000   0.0000   0.0000   0.0000
     0.0000   0.0000   0.0000   0.0000

          k = 0.0000-0.0884 0.0884 (  3004 PWs)   bands (ev):

   -15.1210 -15.1210 -15.1182 -15.1182 -15.0421 -15.0421 -15.0389 -15.0389
   -14.1897 -14.1897 -14.0381 -14.0381 -14.0321 -14.0321 -13.9816 -13.9816
   -13.9776 -13.9776 -13.8871 -13.8871  -3.0770  -3.0770   4.8696   4.8696
     6.4525   6.4525   6.9715   6.9715   7.4715   7.4715   9.0252   9.0252
     9.3056   9.3056   9.6389   9.6389

     occupation numbers 
     1.0000   1.0000   1.0000   1.0000   1.0000   1.0000   1.0000   1.0000
     1.0000   1.0000   1.0000   1.0000   1.0000   1.0000   1.0000   1.0000
     1.0000   1.0000   1.0000   1.0000   1.0000   1.0000   1.0000   1.0000
     1.0000   1.0000   0.0000   0.0000   0.0000   0.0000   0.0000   0.0000
     0.0000   0.0000   0.0000   0.0000

          k = 0.1768 0.0000 0.0000 (  2970 PWs)   bands (ev):

   -15.1203 -15.1203 -15.1178 -15.1178 -15.0426 -15.0426 -15.0387 -15.0387
   -14.1851 -14.1851 -14.0480 -14.0480 -14.0352 -14.0352 -13.9747 -13.9747
   -13.9730 -13.9730 -13.8890 -13.8890  -2.9842  -2.9842   4.4219   4.4219
     6.2012   6.2012   6.4565   6.4565   8.1861   8.1861   8.5698   8.5698
     9.8882   9.8882   9.9917   9.9917

     occupation numbers 
     1.0000   1.0000   1.0000   1.0000   1.0000   1.0000   1.0000   1.0000
     1.0000   1.0000   1.0000   1.0000   1.0000   1.0000   1.0000   1.0000
     1.0000   1.0000   1.0000   1.0000   1.0000   1.0000   1.0000   1.0000
     1.0000   1.0000   1.0000   1.0000   0.0000   0.0000   0.0000   0.0000
     0.0000   0.0000   0.0000   0.0000

          k = 0.2210 0.0442-0.0442 (  2960 PWs)   bands (ev):

   -15.1212 -15.1212 -15.1154 -15.1154 -15.0448 -15.0448 -15.0374 -15.0374
   -14.1791 -14.1791 -14.0574 -14.0574 -14.0399 -14.0399 -13.9712 -13.9712
   -13.9647 -13.9647 -13.8916 -13.8916  -2.8584  -2.8584   3.8801   3.8801
     5.9816   5.9816   6.2148   6.2148   8.3324   8.3324   8.5988   8.5988
    10.2591  10.2591  10.3863  10.3863

     occupation numbers 
     1.0000   1.0000   1.0000   1.0000   1.0000   1.0000   1.0000   1.0000
     1.0000   1.0000   1.0000   1.0000   1.0000   1.0000   1.0000   1.0000
     1.0000   1.0000   1.0000   1.0000   1.0000   1.0000   1.0000   1.0000
     1.0000   1.0000   1.0000   1.0000   0.0000   0.0000   0.0000   0.0000
     0.0000   0.0000   0.0000   0.0000

          k = 0.2652 0.0884-0.0884 (  2968 PWs)   bands (ev):

   -15.1228 -15.1228 -15.1115 -15.1115 -15.0487 -15.0487 -15.0351 -15.0351
   -14.1706 -14.1706 -14.0683 -14.0683 -14.0455 -14.0455 -13.9686 -13.9686
   -13.9543 -13.9543 -13.8952 -13.8952  -2.6684  -2.6684   3.2056   3.2056
     5.7314   5.7314   5.9927   5.9927   8.2594   8.2594   8.8871   8.8871
    10.5551  10.5551  10.8089  10.8089

     occupation numbers 
     1.0000   1.0000   1.0000   1.0000   1.0000   1.0000   1.0000   1.0000
     1.0000   1.0000   1.0000   1.0000   1.0000   1.0000   1.0000   1.0000
     1.0000   1.0000   1.0000   1.0000   1.0000   1.0000   1.0000   1.0000
     1.0000   1.0000   1.0000   1.0000   0.0000   0.0000   0.0000   0.0000
     0.0000   0.0000   0.0000   0.0000

          k = 0.3094 0.1326-0.1326 (  2975 PWs)   bands (ev):

   -15.1245 -15.1245 -15.1065 -15.1065 -15.0536 -15.0536 -15.0326 -15.0326
   -14.1603 -14.1603 -14.0793 -14.0793 -14.0512 -14.0512 -13.9664 -13.9664
   -13.9446 -13.9446 -13.8991 -13.8991  -2.4222  -2.4222   2.5049   2.5049
     5.4763   5.4763   5.8156   5.8156   8.1249   8.1249   9.2594   9.2594
    10.7266  10.7266  11.1267  11.1267

     occupation numbers 
     1.0000   1.0000   1.0000   1.0000   1.0000   1.0000   1.0000   1.0000
     1.0000   1.0000   1.0000   1.0000   1.0000   1.0000   1.0000   1.0000
     1.0000   1.0000   1.0000   1.0000   1.0000   1.0000   1.0000   1.0000
     1.0000   1.0000   1.0000   1.0000   0.0000   0.0000   0.0000   0.0000
     0.0000   0.0000   0.0000   0.0000

          k = 0.3536 0.1768-0.1768 (  2982 PWs)   bands (ev):

   -15.1261 -15.1261 -15.1008 -15.1008 -15.0593 -15.0593 -15.0303 -15.0303
   -14.1493 -14.1493 -14.0896 -14.0896 -14.0563 -14.0563 -13.9649 -13.9649
   -13.9368 -13.9368 -13.9026 -13.9026  -2.1361  -2.1361   1.8445   1.8445
     5.2434   5.2434   5.7018   5.7018   7.9861   7.9861   9.5784   9.5784
    10.7649  10.7649  11.4831  11.4831

     occupation numbers 
     1.0000   1.0000   1.0000   1.0000   1.0000   1.0000   1.0000   1.0000
     1.0000   1.0000   1.0000   1.0000   1.0000   1.0000   1.0000   1.0000
     1.0000   1.0000   1.0000   1.0000   1.0000   1.0000   1.0000   1.0000
     1.0000   1.0000   1.0000   1.0000   0.0000   0.0000   0.0000   0.0000
     0.0000   0.0000   0.0000   0.0000

          k = 0.3977 0.2210-0.2210 (  2991 PWs)   bands (ev):

   -15.1272 -15.1272 -15.0951 -15.0951 -15.0651 -15.0651 -15.0284 -15.0284
   -14.1387 -14.1387 -14.0988 -14.0988 -14.0604 -14.0604 -13.9641 -13.9641
   -13.9317 -13.9317 -13.9050 -13.9050  -1.8457  -1.8457   1.2867   1.2867
     5.0532   5.0532   5.6535   5.6535   7.8722   7.8722   9.7764   9.7764
    10.7108  10.7108  11.9961  11.9961

     occupation numbers 
     1.0000   1.0000   1.0000   1.0000   1.0000   1.0000   1.0000   1.0000
     1.0000   1.0000   1.0000   1.0000   1.0000   1.0000   1.0000   1.0000
     1.0000   1.0000   1.0000   1.0000   1.0000   1.0000   1.0000   1.0000
     1.0000   1.0000   1.0000   1.0000   0.0000   0.0000   0.0000   0.0000
     0.0000   0.0000   0.0000   0.0000

          k =-0.2652-0.4419 0.4419 (  2996 PWs)   bands (ev):

   -15.1279 -15.1279 -15.0901 -15.0901 -15.0701 -15.0701 -15.0273 -15.0273
   -14.1302 -14.1302 -14.1061 -14.1061 -14.0627 -14.0627 -13.9641 -13.9641
   -13.9290 -13.9290 -13.9060 -13.9060  -1.6272  -1.6272   0.9214   0.9214
     4.9179   4.9179   5.6692   5.6692   7.7969   7.7969   9.8951   9.8951
    10.6133  10.6133  12.5584  12.5584

     occupation numbers 
     1.0000   1.0000   1.0000   1.0000   1.0000   1.0000   1.0000   1.0000
     1.0000   1.0000   1.0000   1.0000   1.0000   1.0000   1.0000   1.0000
     1.0000   1.0000   1.0000   1.0000   1.0000   1.0000   1.0000   1.0000
     1.0000   1.0000   1.0000   1.0000   0.0000   0.0000   0.0000   0.0000
     0.0000   0.0000   0.0000   0.0000

          k =-0.2210-0.3977 0.3977 (  2985 PWs)   bands (ev):

   -15.1281 -15.1281 -15.0887 -15.0887 -15.0716 -15.0715 -15.0270 -15.0270
   -14.1287 -14.1287 -14.1075 -14.1075 -14.0628 -14.0628 -13.9646 -13.9646
   -13.9282 -13.9282 -13.9062 -13.9062  -1.5918  -1.5918   0.8662   0.8662
     4.8451   4.8451   5.7457   5.7457   7.7649   7.7649   9.9915   9.9915
    10.5017  10.5017  12.8607  12.8607

     occupation numbers 
     1.0000   1.0000   1.0000   1.0000   1.0000   1.0000   1.0000   1.0000
     1.0000   1.0000   1.0000   1.0000   1.0000   1.0000   1.0000   1.0000
     1.0000   1.0000   1.0000   1.0000   1.0000   1.0000   1.0000   1.0000
     1.0000   1.0000   1.0000   1.0000   0.0000   0.0000   0.0000   0.0000
     0.0000   0.0000   0.0000   0.0000

          k =-0.1768-0.3536 0.3536 (  2990 PWs)   bands (ev):

   -15.1278 -15.1278 -15.0923 -15.0923 -15.0681 -15.0681 -15.0275 -15.0275
   -14.1357 -14.1357 -14.1015 -14.1015 -14.0607 -14.0607 -13.9656 -13.9656
   -13.9290 -13.9290 -13.9058 -13.9058  -1.7639  -1.7639   1.1456   1.1456
     4.8410   4.8410   5.8777   5.8777   7.7753   7.7753  10.0813  10.0813
    10.3847  10.3847  12.6080  12.6080

     occupation numbers 
     1.0000   1.0000   1.0000   1.0000   1.0000   1.0000   1.0000   1.0000
     1.0000   1.0000   1.0000   1.0000   1.0000   1.0000   1.0000   1.0000
     1.0000   1.0000   1.0000   1.0000   1.0000   1.0000   1.0000   1.0000
     1.0000   1.0000   1.0000   1.0000   0.0000   0.0000   0.0000   0.0000
     0.0000   0.0000   0.0000   0.0000

          k =-0.1326-0.3094 0.3094 (  2988 PWs)   bands (ev):

   -15.1270 -15.1270 -15.0978 -15.0978 -15.0626 -15.0626 -15.0289 -15.0289
   -14.1460 -14.1460 -14.0930 -14.0930 -14.0568 -14.0568 -13.9671 -13.9671
   -13.9323 -13.9323 -13.9042 -13.9042  -2.0422  -2.0422   1.6523   1.6523
     4.9126   4.9126   6.0567   6.0567   7.8208   7.8208  10.1045  10.1045
    10.2824  10.2824  11.9624  11.9624

     occupation numbers 
     1.0000   1.0000   1.0000   1.0000   1.0000   1.0000   1.0000   1.0000
     1.0000   1.0000   1.0000   1.0000   1.0000   1.0000   1.0000   1.0000
     1.0000   1.0000   1.0000   1.0000   1.0000   1.0000   1.0000   1.0000
     1.0000   1.0000   1.0000   1.0000   0.0000   0.0000   0.0000   0.0000
     0.0000   0.0000   0.0000   0.0000

          k =-0.0884-0.2652 0.2652 (  2977 PWs)   bands (ev):

   -15.1258 -15.1258 -15.1034 -15.1034 -15.0569 -15.0569 -15.0308 -15.0308
   -14.1570 -14.1570 -14.0831 -14.0831 -14.0518 -14.0518 -13.9690 -13.9690
   -13.9385 -13.9385 -13.9011 -13.9011  -2.3347  -2.3347   2.2799   2.2799
     5.0689   5.0689   6.2688   6.2688   7.8824   7.8824   9.9471   9.9471
    10.1953  10.1953  11.3577  11.3577

     occupation numbers 
     1.0000   1.0000   1.0000   1.0000   1.0000   1.0000   1.0000   1.0000
     1.0000   1.0000   1.0000   1.0000   1.0000   1.0000   1.0000   1.0000
     1.0000   1.0000   1.0000   1.0000   1.0000   1.0000   1.0000   1.0000
     1.0000   1.0000   1.0000   1.0000   0.0000   0.0000   0.0000   0.0000
     0.0000   0.0000   0.0000   0.0000

          k =-0.0442-0.2210 0.2210 (  2980 PWs)   bands (ev):

   -15.1244 -15.1244 -15.1085 -15.1085 -15.0518 -15.0518 -15.0332 -15.0332
   -14.1676 -14.1676 -14.0722 -14.0722 -14.0466 -14.0466 -13.9713 -13.9713
   -13.9472 -13.9472 -13.8973 -13.8973  -2.5958  -2.5958   2.9549   2.9549
     5.3242   5.3242   6.4906   6.4906   7.9166   7.9166   9.6966   9.6966
     9.9303   9.9303  10.9761  10.9761

     occupation numbers 
     1.0000   1.0000   1.0000   1.0000   1.0000   1.0000   1.0000   1.0000
     1.0000   1.0000   1.0000   1.0000   1.0000   1.0000   1.0000   1.0000
     1.0000   1.0000   1.0000   1.0000   1.0000   1.0000   1.0000   1.0000
     1.0000   1.0000   1.0000   1.0000   0.0000   0.0000   0.0000   0.0000
     0.0000   0.0000   0.0000   0.0000

          k = 0.0000-0.1768 0.1768 (  2984 PWs)   bands (ev):

   -15.1231 -15.1231 -15.1127 -15.1127 -15.0475 -15.0475 -15.0355 -15.0355
   -14.1767 -14.1767 -14.0606 -14.0606 -14.0418 -14.0418 -13.9736 -13.9736
   -13.9574 -13.9574 -13.8934 -13.8934  -2.8046  -2.8046   3.6092   3.6092
     5.6958   5.6958   6.6839   6.6839   7.8377   7.8377   9.4390   9.4390
     9.6276   9.6276  10.6368  10.6368

     occupation numbers 
     1.0000   1.0000   1.0000   1.0000   1.0000   1.0000   1.0000   1.0000
     1.0000   1.0000   1.0000   1.0000   1.0000   1.0000   1.0000   1.0000
     1.0000   1.0000   1.0000   1.0000   1.0000   1.0000   1.0000   1.0000
     1.0000   1.0000   1.0000   1.0000   0.0000   0.0000   0.0000   0.0000
     0.0000   0.0000   0.0000   0.0000

          k = 0.2652 0.0000 0.0000 (  2970 PWs)   bands (ev):

   -15.1204 -15.1204 -15.1154 -15.1154 -15.0451 -15.0451 -15.0376 -15.0376
   -14.1743 -14.1743 -14.0641 -14.0641 -14.0424 -14.0424 -13.9669 -13.9669
   -13.9624 -13.9624 -13.8929 -13.8929  -2.7540  -2.7540   3.5689   3.5689
     5.7898   5.7898   5.9612   5.9612   8.2425   8.2425   8.7329   8.7329
    10.6631  10.6631  10.6966  10.6966

     occupation numbers 
     1.0000   1.0000   1.0000   1.0000   1.0000   1.0000   1.0000   1.0000
     1.0000   1.0000   1.0000   1.0000   1.0000   1.0000   1.0000   1.0000
     1.0000   1.0000   1.0000   1.0000   1.0000   1.0000   1.0000   1.0000
     1.0000   1.0000   1.0000   1.0000   0.0000   0.0000   0.0000   0.0000
     0.0000   0.0000   0.0000   0.0000

          k = 0.3094 0.0442-0.0442 (  2970 PWs)   bands (ev):

   -15.1212 -15.1212 -15.1127 -15.1127 -15.0476 -15.0476 -15.0362 -15.0362
   -14.1670 -14.1670 -14.0728 -14.0728 -14.0462 -14.0462 -13.9674 -13.9674
   -13.9535 -13.9535 -13.8950 -13.8950  -2.5844  -2.5844   3.0653   3.0653
     5.5578   5.5578   5.7356   5.7356   8.2234   8.2234   8.8376   8.8376
    10.9925  10.9925  11.0444  11.0444

     occupation numbers 
     1.0000   1.0000   1.0000   1.0000   1.0000   1.0000   1.0000   1.0000
     1.0000   1.0000   1.0000   1.0000   1.0000   1.0000   1.0000   1.0000
     1.0000   1.0000   1.0000   1.0000   1.0000   1.0000   1.0000   1.0000
     1.0000   1.0000   1.0000   1.0000   0.0000   0.0000   0.0000   0.0000
     0.0000   0.0000   0.0000   0.0000

          k = 0.3536 0.0884-0.0884 (  2971 PWs)   bands (ev):

   -15.1229 -15.1229 -15.1085 -15.1085 -15.0519 -15.0519 -15.0338 -15.0338
   -14.1578 -14.1578 -14.0821 -14.0821 -14.0500 -14.0500 -13.9695 -13.9695
   -13.9439 -13.9439 -13.8972 -13.8972  -2.3553  -2.3553   2.4746   2.4746
     5.2663   5.2663   5.5564   5.5564   8.3120   8.3120   8.9844   8.9844
    11.0696  11.0696  11.2697  11.2697

     occupation numbers 
     1.0000   1.0000   1.0000   1.0000   1.0000   1.0000   1.0000   1.0000
     1.0000   1.0000   1.0000   1.0000   1.0000   1.0000   1.0000   1.0000
     1.0000   1.0000   1.0000   1.0000   1.0000   1.0000   1.0000   1.0000
     1.0000   1.0000   1.0000   1.0000   0.0000   0.0000   0.0000   0.0000
     0.0000   0.0000   0.0000   0.0000

          k = 0.3977 0.1326-0.1326 (  2982 PWs)   bands (ev):

   -15.1246 -15.1246 -15.1033 -15.1033 -15.0571 -15.0571 -15.0312 -15.0312
   -14.1480 -14.1480 -14.0906 -14.0906 -14.0536 -14.0536 -13.9722 -13.9722
   -13.9362 -13.9362 -13.8987 -13.8987  -2.0790  -2.0790   1.8734   1.8734
     4.9622   4.9622   5.4466   5.4466   8.2861   8.2861   9.3596   9.3596
    11.0732  11.0732  11.3522  11.3522

     occupation numbers 
     1.0000   1.0000   1.0000   1.0000   1.0000   1.0000   1.0000   1.0000
     1.0000   1.0000   1.0000   1.0000   1.0000   1.0000   1.0000   1.0000
     1.0000   1.0000   1.0000   1.0000   1.0000   1.0000   1.0000   1.0000
     1.0000   1.0000   1.0000   1.0000   0.0000   0.0000   0.0000   0.0000
     0.0000   0.0000   0.0000   0.0000

          k = 0.4419 0.1768-0.1768 (  2990 PWs)   bands (ev):

   -15.1261 -15.1261 -15.0978 -15.0978 -15.0628 -15.0628 -15.0289 -15.0289
   -14.1389 -14.1389 -14.0974 -14.0974 -14.0567 -14.0567 -13.9751 -13.9751
   -13.9313 -13.9313 -13.8989 -13.8989  -1.7821  -1.7821   1.3257   1.3257
     4.6960   4.6960   5.4044   5.4044   8.2121   8.2121   9.7708   9.7708
    11.2000  11.2001  11.3549  11.3549

     occupation numbers 
     1.0000   1.0000   1.0000   1.0000   1.0000   1.0000   1.0000   1.0000
     1.0000   1.0000   1.0000   1.0000   1.0000   1.0000   1.0000   1.0000
     1.0000   1.0000   1.0000   1.0000   1.0000   1.0000   1.0000   1.0000
     1.0000   1.0000   1.0000   1.0000   0.0000   0.0000   0.0000   0.0000
     0.0000   0.0000   0.0000   0.0000

          k =-0.2210-0.4861 0.4861 (  2994 PWs)   bands (ev):

   -15.1272 -15.1272 -15.0927 -15.0927 -15.0682 -15.0682 -15.0271 -15.0271
   -14.1322 -14.1322 -14.1018 -14.1018 -14.0588 -14.0588 -13.9776 -13.9776
   -13.9290 -13.9290 -13.8982 -13.8982  -1.5250  -1.5250   0.9132   0.9132
     4.4919   4.4919   5.4280   5.4280   8.1555   8.1555  10.0275  10.0275
    11.1554  11.1554  11.7545  11.7545

     occupation numbers 
     1.0000   1.0000   1.0000   1.0000   1.0000   1.0000   1.0000   1.0000
     1.0000   1.0000   1.0000   1.0000   1.0000   1.0000   1.0000   1.0000
     1.0000   1.0000   1.0000   1.0000   1.0000   1.0000   1.0000   1.0000
     1.0000   1.0000   1.0000   1.0000   0.0000   0.0000   0.0000   0.0000
     0.0000   0.0000   0.0000   0.0000

          k =-0.1768-0.4419 0.4419 (  2999 PWs)   bands (ev):

   -15.1278 -15.1278 -15.0892 -15.0892 -15.0718 -15.0718 -15.0262 -15.0262
   -14.1300 -14.1300 -14.1033 -14.1033 -14.0592 -14.0592 -13.9793 -13.9793
   -13.9281 -13.9281 -13.8977 -13.8977  -1.4198  -1.4198   0.7585   0.7585
     4.3629   4.3629   5.5143   5.5143   8.1342   8.1342  10.1624  10.1624
    11.0061  11.0062  12.3793  12.3793

     occupation numbers 
     1.0000   1.0000   1.0000   1.0000   1.0000   1.0000   1.0000   1.0000
     1.0000   1.0000   1.0000   1.0000   1.0000   1.0000   1.0000   1.0000
     1.0000   1.0000   1.0000   1.0000   1.0000   1.0000   1.0000   1.0000
     1.0000   1.0000   1.0000   1.0000   0.0000   0.0000   0.0000   0.0000
     0.0000   0.0000   0.0000   0.0000

          k =-0.1326-0.3977 0.3977 (  2996 PWs)   bands (ev):

   -15.1278 -15.1278 -15.0902 -15.0901 -15.0710 -15.0710 -15.0261 -15.0261
   -14.1329 -14.1329 -14.1016 -14.1016 -14.0575 -14.0575 -13.9796 -13.9796
   -13.9278 -13.9278 -13.8982 -13.8982  -1.5393  -1.5393   0.9359   0.9359
     4.3193   4.3193   5.6580   5.6580   8.1478   8.1478  10.2696  10.2696
    10.8263  10.8263  12.4847  12.4848

     occupation numbers 
     1.0000   1.0000   1.0000   1.0000   1.0000   1.0000   1.0000   1.0000
     1.0000   1.0000   1.0000   1.0000   1.0000   1.0000   1.0000   1.0000
     1.0000   1.0000   1.0000   1.0000   1.0000   1.0000   1.0000   1.0000
     1.0000   1.0000   1.0000   1.0000   0.0000   0.0000   0.0000   0.0000
     0.0000   0.0000   0.0000   0.0000

          k =-0.0884-0.3536 0.3536 (  2993 PWs)   bands (ev):

   -15.1274 -15.1274 -15.0944 -15.0944 -15.0667 -15.0667 -15.0270 -15.0270
   -14.1398 -14.1398 -14.0973 -14.0973 -14.0545 -14.0545 -13.9787 -13.9787
   -13.9287 -13.9287 -13.8995 -13.8995  -1.8013  -1.8013   1.3549   1.3549
     4.3739   4.3739   5.8494   5.8494   8.1823   8.1823  10.3705  10.3705
    10.6097  10.6097  11.8223  11.8223

     occupation numbers 
     1.0000   1.0000   1.0000   1.0000   1.0000   1.0000   1.0000   1.0000
     1.0000   1.0000   1.0000   1.0000   1.0000   1.0000   1.0000   1.0000
     1.0000   1.0000   1.0000   1.0000   1.0000   1.0000   1.0000   1.0000
     1.0000   1.0000   1.0000   1.0000   0.0000   0.0000   0.0000   0.0000
     0.0000   0.0000   0.0000   0.0000

          k =-0.0442-0.3094 0.3094 (  2987 PWs)   bands (ev):

   -15.1266 -15.1266 -15.0996 -15.0996 -15.0614 -15.0614 -15.0287 -15.0287
   -14.1489 -14.1489 -14.0907 -14.0907 -14.0513 -14.0513 -13.9766 -13.9766
   -13.9318 -13.9318 -13.9002 -13.9002  -2.0973  -2.0973   1.8867   1.8867
     4.5449   4.5449   6.0724   6.0724   8.2047   8.2047  10.2953  10.2953
    10.4336  10.4336  11.2164  11.2164

     occupation numbers 
     1.0000   1.0000   1.0000   1.0000   1.0000   1.0000   1.0000   1.0000
     1.0000   1.0000   1.0000   1.0000   1.0000   1.0000   1.0000   1.0000
     1.0000   1.0000   1.0000   1.0000   1.0000   1.0000   1.0000   1.0000
     1.0000   1.0000   1.0000   1.0000   0.0000   0.0000   0.0000   0.0000
     0.0000   0.0000   0.0000   0.0000

          k = 0.0000-0.2652 0.2652 (  2970 PWs)   bands (ev):

   -15.1255 -15.1255 -15.1044 -15.1044 -15.0562 -15.0562 -15.0309 -15.0309
   -14.1586 -14.1586 -14.0821 -14.0821 -14.0485 -14.0485 -13.9740 -13.9740
   -13.9382 -13.9382 -13.8994 -13.8994  -2.3705  -2.3705   2.4414   2.4414
     4.8564   4.8564   6.3002   6.3002   8.1460   8.1460   9.9905   9.9905
    10.1740  10.1740  11.0244  11.0245

     occupation numbers 
     1.0000   1.0000   1.0000   1.0000   1.0000   1.0000   1.0000   1.0000
     1.0000   1.0000   1.0000   1.0000   1.0000   1.0000   1.0000   1.0000
     1.0000   1.0000   1.0000   1.0000   1.0000   1.0000   1.0000   1.0000
     1.0000   1.0000   1.0000   1.0000   0.0000   0.0000   0.0000   0.0000
     0.0000   0.0000   0.0000   0.0000

          k = 0.3536 0.0000 0.0000 (  2978 PWs)   bands (ev):

   -15.1201 -15.1201 -15.1129 -15.1129 -15.0476 -15.0476 -15.0368 -15.0368
   -14.1608 -14.1608 -14.0792 -14.0792 -14.0485 -14.0485 -13.9676 -13.9676
   -13.9491 -13.9491 -13.8957 -13.8957  -2.4345  -2.4345   2.7219   2.7219
     5.4062   5.4062   5.5246   5.5246   7.9619   7.9619   8.8979   8.8979
    11.4574  11.4574  11.4941  11.4941

     occupation numbers 
     1.0000   1.0000   1.0000   1.0000   1.0000   1.0000   1.0000   1.0000
     1.0000   1.0000   1.0000   1.0000   1.0000   1.0000   1.0000   1.0000
     1.0000   1.0000   1.0000   1.0000   1.0000   1.0000   1.0000   1.0000
     1.0000   1.0000   1.0000   1.0000   0.0000   0.0000   0.0000   0.0000
     0.0000   0.0000   0.0000   0.0000

          k = 0.3977 0.0442-0.0442 (  2981 PWs)   bands (ev):

   -15.1208 -15.1208 -15.1103 -15.1103 -15.0499 -15.0499 -15.0356 -15.0356
   -14.1529 -14.1529 -14.0866 -14.0866 -14.0507 -14.0507 -13.9716 -13.9716
   -13.9414 -13.9414 -13.8966 -13.8966  -2.2232  -2.2232   2.2564   2.2564
     5.1833   5.1833   5.3364   5.3364   7.9834   7.9834   8.8652   8.8652
    11.6085  11.6085  11.8201  11.8201

     occupation numbers 
     1.0000   1.0000   1.0000   1.0000   1.0000   1.0000   1.0000   1.0000
     1.0000   1.0000   1.0000   1.0000   1.0000   1.0000   1.0000   1.0000
     1.0000   1.0000   1.0000   1.0000   1.0000   1.0000   1.0000   1.0000
     1.0000   1.0000   1.0000   1.0000   0.0000   0.0000   0.0000   0.0000
     0.0000   0.0000   0.0000   0.0000

          k = 0.4419 0.0884-0.0884 (  2986 PWs)   bands (ev):

   -15.1224 -15.1224 -15.1061 -15.1061 -15.0542 -15.0542 -15.0332 -15.0332
   -14.1445 -14.1445 -14.0933 -14.0933 -14.0523 -14.0523 -13.9775 -13.9775
   -13.9341 -13.9341 -13.8969 -13.8969  -1.9592  -1.9592   1.7442   1.7442
     4.8641   4.8641   5.2164   5.2164   8.1256   8.1256   8.9994   8.9994
    11.4832  11.4832  11.9834  11.9834

     occupation numbers 
     1.0000   1.0000   1.0000   1.0000   1.0000   1.0000   1.0000   1.0000
     1.0000   1.0000   1.0000   1.0000   1.0000   1.0000   1.0000   1.0000
     1.0000   1.0000   1.0000   1.0000   1.0000   1.0000   1.0000   1.0000
     1.0000   1.0000   1.0000   1.0000   0.0000   0.0000   0.0000   0.0000
     0.0000   0.0000   0.0000   0.0000

          k = 0.4861 0.1326-0.1326 (  2990 PWs)   bands (ev):

   -15.1242 -15.1242 -15.1013 -15.1013 -15.0594 -15.0594 -15.0304 -15.0304
   -14.1371 -14.1371 -14.0980 -14.0980 -14.0534 -14.0534 -13.9839 -13.9839
   -13.9296 -13.9296 -13.8957 -13.8957  -1.6622  -1.6622   1.2443   1.2443
     4.5328   4.5328   5.1690   5.1690   8.1688   8.1688   9.4537   9.4537
    11.3598  11.3598  11.9767  11.9767

     occupation numbers 
     1.0000   1.0000   1.0000   1.0000   1.0000   1.0000   1.0000   1.0000
     1.0000   1.0000   1.0000   1.0000   1.0000   1.0000   1.0000   1.0000
     1.0000   1.0000   1.0000   1.0000   1.0000   1.0000   1.0000   1.0000
     1.0000   1.0000   1.0000   1.0000   0.0000   0.0000   0.0000   0.0000
     0.0000   0.0000   0.0000   0.0000

          k =-0.1768-0.5303 0.5303 (  3004 PWs)   bands (ev):

   -15.1257 -15.1257 -15.0964 -15.0964 -15.0648 -15.0648 -15.0279 -15.0279
   -14.1325 -14.1325 -14.0997 -14.0997 -14.0541 -14.0541 -13.9896 -13.9896
   -13.9278 -13.9278 -13.8935 -13.8935  -1.3781  -1.3781   0.8248   0.8248
     4.2538   4.2538   5.1891   5.1891   8.1662   8.1662  10.0656  10.0656
    11.3420  11.3420  11.8590  11.8590

     occupation numbers 
     1.0000   1.0000   1.0000   1.0000   1.0000   1.0000   1.0000   1.0000
     1.0000   1.0000   1.0000   1.0000   1.0000   1.0000   1.0000   1.0000
     1.0000   1.0000   1.0000   1.0000   1.0000   1.0000   1.0000   1.0000
[...]

   -15.1261 -15.1261 -15.0950 -15.0950 -15.0666 -15.0666 -15.0269 -15.0269
   -14.1331 -14.1331 -14.0978 -14.0978 -14.0522 -14.0522 -13.9947 -13.9947
   -13.9283 -13.9283 -13.8910 -13.8910  -1.3030  -1.3030   0.7615   0.7615
     4.1397   4.1397   5.0159   5.0159   8.8119   8.8119   9.9141   9.9141
    10.8481  10.8481  12.3827  12.3828

     occupation numbers 
     1.0000   1.0000   1.0000   1.0000   1.0000   1.0000   1.0000   1.0000
     1.0000   1.0000   1.0000   1.0000   1.0000   1.0000   1.0000   1.0000
     1.0000   1.0000   1.0000   1.0000   1.0000   1.0000   1.0000   1.0000
     1.0000   1.0000   1.0000   1.0000   0.0000   0.0000   0.0000   0.0000
     0.0000   0.0000   0.0000   0.0000

          k =-0.1326-0.3977 0.5745 (  2999 PWs)   bands (ev):

   -15.1267 -15.1267 -15.0921 -15.0921 -15.0698 -15.0698 -15.0258 -15.0258
   -14.1321 -14.1321 -14.0968 -14.0968 -14.0522 -14.0521 -13.9982 -13.9982
   -13.9282 -13.9282 -13.8893 -13.8893  -1.1213  -1.1213   0.5279   0.5279
     4.0201   4.0201   4.9980   4.9980   8.8330   8.8330  10.0892  10.0892
    11.3521  11.3521  12.0653  12.0653

     occupation numbers 
     1.0000   1.0000   1.0000   1.0000   1.0000   1.0000   1.0000   1.0000
     1.0000   1.0000   1.0000   1.0000   1.0000   1.0000   1.0000   1.0000
     1.0000   1.0000   1.0000   1.0000   1.0000   1.0000   1.0000   1.0000
     1.0000   1.0000   1.0000   1.0000   0.0000   0.0000   0.0000   0.0000
     0.0000   0.0000   0.0000   0.0000

          k =-0.0884-0.3536 0.5303 (  3004 PWs)   bands (ev):

   -15.1270 -15.1270 -15.0916 -15.0916 -15.0704 -15.0704 -15.0255 -15.0255
   -14.1326 -14.1326 -14.0969 -14.0969 -14.0519 -14.0519 -13.9978 -13.9978
   -13.9283 -13.9283 -13.8895 -13.8895  -1.1759  -1.1759   0.5972   0.5972
     3.9876   3.9876   5.0664   5.0664   8.8769   8.8769  10.0830  10.0830
    11.4098  11.4098  12.0315  12.0315

     occupation numbers 
     1.0000   1.0000   1.0000   1.0000   1.0000   1.0000   1.0000   1.0000
     1.0000   1.0000   1.0000   1.0000   1.0000   1.0000   1.0000   1.0000
     1.0000   1.0000   1.0000   1.0000   1.0000   1.0000   1.0000   1.0000
     1.0000   1.0000   1.0000   1.0000   0.0000   0.0000   0.0000   0.0000
     0.0000   0.0000   0.0000   0.0000

          k =-0.0442-0.3094 0.4861 (  3006 PWs)   bands (ev):

   -15.1268 -15.1268 -15.0937 -15.0937 -15.0682 -15.0681 -15.0262 -15.0262
   -14.1346 -14.1346 -14.0976 -14.0976 -14.0516 -14.0516 -13.9933 -13.9933
   -13.9285 -13.9285 -13.8917 -13.8917  -1.4196  -1.4196   0.9165   0.9165
     4.0589   4.0589   5.2083   5.2083   8.9242   8.9242   9.9713   9.9713
    10.8512  10.8512  12.2384  12.2384

     occupation numbers 
     1.0000   1.0000   1.0000   1.0000   1.0000   1.0000   1.0000   1.0000
     1.0000   1.0000   1.0000   1.0000   1.0000   1.0000   1.0000   1.0000
     1.0000   1.0000   1.0000   1.0000   1.0000   1.0000   1.0000   1.0000
     1.0000   1.0000   1.0000   1.0000   0.0000   0.0000   0.0000   0.0000
     0.0000   0.0000   0.0000   0.0000

          k = 0.0000-0.2652 0.4419 (  3011 PWs)   bands (ev):

   -15.1263 -15.1263 -15.0972 -15.0972 -15.0643 -15.0643 -15.0277 -15.0277
   -14.1392 -14.1392 -14.0965 -14.0965 -14.0517 -14.0517 -13.9861 -13.9861
   -13.9297 -13.9297 -13.8950 -13.8950  -1.7178  -1.7178   1.3353   1.3353
     4.2528   4.2528   5.3985   5.3985   8.9146   8.9147   9.6283   9.6283
    10.6777  10.6777  12.0110  12.0110

     occupation numbers 
     1.0000   1.0000   1.0000   1.0000   1.0000   1.0000   1.0000   1.0000
     1.0000   1.0000   1.0000   1.0000   1.0000   1.0000   1.0000   1.0000
     1.0000   1.0000   1.0000   1.0000   1.0000   1.0000   1.0000   1.0000
     1.0000   1.0000   1.0000   1.0000   0.0000   0.0000   0.0000   0.0000
     0.0000   0.0000   0.0000   0.0000

          k =-0.1768-0.5303 0.7071 (  2992 PWs)   bands (ev):

   -15.1234 -15.1234 -15.1018 -15.1018 -15.0591 -15.0591 -15.0306 -15.0306
   -14.1337 -14.1337 -14.0993 -14.0993 -14.0501 -14.0501 -13.9939 -13.9939
   -13.9269 -13.9269 -13.8931 -13.8931  -1.4265  -1.4265   0.9543   0.9543
     4.4176   4.4176   4.8748   4.8748   8.5675   8.5675   8.9608   8.9608
    11.3617  11.3617  12.9606  12.9606

     occupation numbers 
     1.0000   1.0000   1.0000   1.0000   1.0000   1.0000   1.0000   1.0000
     1.0000   1.0000   1.0000   1.0000   1.0000   1.0000   1.0000   1.0000
     1.0000   1.0000   1.0000   1.0000   1.0000   1.0000   1.0000   1.0000
     1.0000   1.0000   1.0000   1.0000   0.0000   0.0000   0.0000   0.0000
     0.0000   0.0000   0.0000   0.0000

          k =-0.1326-0.4861 0.6629 (  2998 PWs)   bands (ev):

   -15.1245 -15.1245 -15.0986 -15.0986 -15.0629 -15.0629 -15.0284 -15.0284
   -14.1321 -14.1321 -14.0978 -14.0978 -14.0478 -14.0478 -14.0028 -14.0028
   -13.9265 -13.9265 -13.8896 -13.8896  -1.1226  -1.1226   0.5707   0.5707
     4.1901   4.1901   4.7526   4.7526   8.7390   8.7390   9.4250   9.4250
    11.1895  11.1895  12.9165  12.9165

     occupation numbers 
     1.0000   1.0000   1.0000   1.0000   1.0000   1.0000   1.0000   1.0000
     1.0000   1.0000   1.0000   1.0000   1.0000   1.0000   1.0000   1.0000
     1.0000   1.0000   1.0000   1.0000   1.0000   1.0000   1.0000   1.0000
     1.0000   1.0000   1.0000   1.0000   0.0000   0.0000   0.0000   0.0000
     0.0000   0.0000   0.0000   0.0000

          k =-0.0884-0.4419 0.6187 (  3004 PWs)   bands (ev):

   -15.1255 -15.1255 -15.0955 -15.0955 -15.0665 -15.0665 -15.0267 -15.0267
   -14.1323 -14.1323 -14.0950 -14.0950 -14.0460 -14.0460 -14.0090 -14.0090
   -13.9271 -13.9271 -13.8869 -13.8869  -0.8846  -0.8846   0.2954   0.2954
     3.9949   3.9949   4.7412   4.7412   8.7983   8.7983  10.1382  10.1382
    11.0909  11.0909  12.3463  12.3463

     occupation numbers 
     1.0000   1.0000   1.0000   1.0000   1.0000   1.0000   1.0000   1.0000
     1.0000   1.0000   1.0000   1.0000   1.0000   1.0000   1.0000   1.0000
     1.0000   1.0000   1.0000   1.0000   1.0000   1.0000   1.0000   1.0000
     1.0000   1.0000   1.0000   1.0000   0.0000   0.0000   0.0000   0.0000
     0.0000   0.0000   0.0000   0.0000

          k =-0.0442-0.3977 0.5745 (  2994 PWs)   bands (ev):

   -15.1263 -15.1263 -15.0931 -15.0931 -15.0691 -15.0691 -15.0256 -15.0256
   -14.1328 -14.1328 -14.0939 -14.0939 -14.0462 -14.0462 -14.0094 -14.0094
   -13.9278 -13.9278 -13.8862 -13.8862  -0.8866  -0.8866   0.3003   0.3003
     3.8839   3.8839   4.8287   4.8287   8.8749   8.8749  10.5969  10.5969
    11.2989  11.2989  11.6376  11.6376

     occupation numbers 
     1.0000   1.0000   1.0000   1.0000   1.0000   1.0000   1.0000   1.0000
     1.0000   1.0000   1.0000   1.0000   1.0000   1.0000   1.0000   1.0000
     1.0000   1.0000   1.0000   1.0000   1.0000   1.0000   1.0000   1.0000
     1.0000   1.0000   1.0000   1.0000   0.0000   0.0000   0.0000   0.0000
     0.0000   0.0000   0.0000   0.0000

          k = 0.0000-0.3536 0.5303 (  2995 PWs)   bands (ev):

   -15.1267 -15.1267 -15.0924 -15.0924 -15.0698 -15.0698 -15.0254 -15.0254
   -14.1333 -14.1333 -14.0954 -14.0954 -14.0486 -14.0486 -14.0033 -14.0033
   -13.9281 -13.9281 -13.8879 -13.8879  -1.1220  -1.1220   0.5691   0.5691
     3.8969   3.8969   4.9933   4.9933   8.9500   8.9500  10.4636  10.4636
    10.9298  10.9298  12.1076  12.1076

     occupation numbers 
     1.0000   1.0000   1.0000   1.0000   1.0000   1.0000   1.0000   1.0000
     1.0000   1.0000   1.0000   1.0000   1.0000   1.0000   1.0000   1.0000
     1.0000   1.0000   1.0000   1.0000   1.0000   1.0000   1.0000   1.0000
     1.0000   1.0000   1.0000   1.0000   0.0000   0.0000   0.0000   0.0000
     0.0000   0.0000   0.0000   0.0000

          k =-0.0884-0.5303 0.7071 (  2993 PWs)   bands (ev):

   -15.1226 -15.1226 -15.1019 -15.1019 -15.0591 -15.0591 -15.0307 -15.0307
   -14.1299 -14.1299 -14.1001 -14.1001 -14.0424 -14.0424 -14.0100 -14.0100
   -13.9231 -13.9231 -13.8905 -13.8905  -0.9002  -0.9002   0.3035   0.3035
     4.3363   4.3363   4.5931   4.5931   8.5324   8.5324   8.7870   8.7870
    12.0282  12.0282  13.2510  13.2510

     occupation numbers 
     1.0000   1.0000   1.0000   1.0000   1.0000   1.0000   1.0000   1.0000
     1.0000   1.0000   1.0000   1.0000   1.0000   1.0000   1.0000   1.0000
     1.0000   1.0000   1.0000   1.0000   1.0000   1.0000   1.0000   1.0000
     1.0000   1.0000   1.0000   1.0000   0.0000   0.0000   0.0000   0.0000
     0.0000   0.0000   0.0000   0.0000

          k =-0.0442-0.4861 0.6629 (  2992 PWs)   bands (ev):

   -15.1239 -15.1239 -15.0989 -15.0989 -15.0627 -15.0627 -15.0285 -15.0285
   -14.1313 -14.1313 -14.0963 -14.0963 -14.0387 -14.0387 -14.0177 -14.0176
   -13.9248 -13.9248 -13.8872 -13.8872  -0.6168  -0.6168   0.0040   0.0040
     4.1333   4.1333   4.5461   4.5461   8.6895   8.6895   9.3710   9.3710
    11.8464  11.8464  12.5645  12.5645

     occupation numbers 
     1.0000   1.0000   1.0000   1.0000   1.0000   1.0000   1.0000   1.0000
     1.0000   1.0000   1.0000   1.0000   1.0000   1.0000   1.0000   1.0000
     1.0000   1.0000   1.0000   1.0000   1.0000   1.0000   1.0000   1.0000
     1.0000   1.0000   1.0000   1.0000   0.0000   0.0000   0.0000   0.0000
     0.0000   0.0000   0.0000   0.0000

          k = 0.0000-0.4419 0.6187 (  2996 PWs)   bands (ev):

   -15.1252 -15.1252 -15.0958 -15.0958 -15.0663 -15.0663 -15.0266 -15.0266
   -14.1325 -14.1325 -14.0936 -14.0936 -14.0403 -14.0403 -14.0175 -14.0175
   -13.9267 -13.9267 -13.8855 -13.8855  -0.6189  -0.6189   0.0155   0.0155
     3.9460   3.9460   4.6458   4.6458   8.7793   8.7793  10.1758  10.1758
    11.6547  11.6547  11.7540  11.7540

     occupation numbers 
     1.0000   1.0000   1.0000   1.0000   1.0000   1.0000   1.0000   1.0000
     1.0000   1.0000   1.0000   1.0000   1.0000   1.0000   1.0000   1.0000
     1.0000   1.0000   1.0000   1.0000   1.0000   1.0000   1.0000   1.0000
     1.0000   1.0000   1.0000   1.0000   0.0000   0.0000   0.0000   0.0000
     0.0000   0.0000   0.0000   0.0000

          k =-0.7071 0.1768 0.0000 (  2986 PWs)   bands (ev):

   -15.1222 -15.1222 -15.1020 -15.1020 -15.0589 -15.0589 -15.0308 -15.0308
   -14.1293 -14.1293 -14.0997 -14.0997 -14.0330 -14.0330 -14.0224 -14.0224
   -13.9217 -13.9217 -13.8896 -13.8896  -0.3347  -0.3347  -0.3038  -0.3038
     4.3345   4.3345   4.4725   4.4725   8.5492   8.5492   8.6889   8.6890
    12.6688  12.6688  12.8310  12.8310

     occupation numbers 
     1.0000   1.0000   1.0000   1.0000   1.0000   1.0000   1.0000   1.0000
     1.0000   1.0000   1.0000   1.0000   1.0000   1.0000   1.0000   1.0000
     1.0000   1.0000   1.0000   1.0000   1.0000   1.0000   1.0000   1.0000
     1.0000   1.0000   1.0000   1.0000   0.0000   0.0000   0.0000   0.0000
     0.0000   0.0000   0.0000   0.0000

          k =-0.1768-0.4419 0.7071 (  3000 PWs)   bands (ev):

   -15.1257 -15.1257 -15.0963 -15.0963 -15.0655 -15.0655 -15.0271 -15.0271
   -14.1338 -14.1338 -14.0969 -14.0969 -14.0499 -14.0499 -13.9982 -13.9982
   -13.9282 -13.9282 -13.8899 -13.8899  -1.2927  -1.2927   0.7818   0.7818
     4.1134   4.1134   4.9085   4.9085   9.2623   9.2623   9.5403   9.5403
    10.6344  10.6344  12.6934  12.6934

     occupation numbers 
     1.0000   1.0000   1.0000   1.0000   1.0000   1.0000   1.0000   1.0000
     1.0000   1.0000   1.0000   1.0000   1.0000   1.0000   1.0000   1.0000
     1.0000   1.0000   1.0000   1.0000   1.0000   1.0000   1.0000   1.0000
     1.0000   1.0000   1.0000   1.0000   0.0000   0.0000   0.0000   0.0000
     0.0000   0.0000   0.0000   0.0000

          k =-0.1326-0.3977 0.6629 (  3005 PWs)   bands (ev):

   -15.1261 -15.1261 -15.0941 -15.0941 -15.0681 -15.0680 -15.0260 -15.0260
   -14.1331 -14.1331 -14.0946 -14.0946 -14.0477 -14.0477 -14.0062 -14.0061
   -13.9282 -13.9282 -13.8869 -13.8869  -1.0092  -1.0092   0.4432   0.4432
     3.9861   3.9861   4.7539   4.7539   9.3339   9.3339   9.9832   9.9832
    10.7443  10.7443  12.2334  12.2334

     occupation numbers 
     1.0000   1.0000   1.0000   1.0000   1.0000   1.0000   1.0000   1.0000
     1.0000   1.0000   1.0000   1.0000   1.0000   1.0000   1.0000   1.0000
     1.0000   1.0000   1.0000   1.0000   1.0000   1.0000   1.0000   1.0000
     1.0000   1.0000   1.0000   1.0000   0.0000   0.0000   0.0000   0.0000
     0.0000   0.0000   0.0000   0.0000

          k =-0.0884-0.3536 0.6187 (  3014 PWs)   bands (ev):

   -15.1263 -15.1263 -15.0933 -15.0933 -15.0690 -15.0690 -15.0256 -15.0256
   -14.1331 -14.1331 -14.0933 -14.0933 -14.0467 -14.0467 -14.0093 -14.0093
   -13.9283 -13.9283 -13.8858 -13.8858  -0.8713  -0.8713   0.2858   0.2858
     3.9456   3.9456   4.6974   4.6974   9.3390   9.3390  10.1021  10.1021
    11.2440  11.2441  11.5784  11.5784

     occupation numbers 
     1.0000   1.0000   1.0000   1.0000   1.0000   1.0000   1.0000   1.0000
     1.0000   1.0000   1.0000   1.0000   1.0000   1.0000   1.0000   1.0000
     1.0000   1.0000   1.0000   1.0000   1.0000   1.0000   1.0000   1.0000
     1.0000   1.0000   1.0000   1.0000   0.0000   0.0000   0.0000   0.0000
     0.0000   0.0000   0.0000   0.0000

          k =-0.0884-0.4419 0.7071 (  2996 PWs)   bands (ev):

   -15.1250 -15.1250 -15.0968 -15.0967 -15.0653 -15.0653 -15.0271 -15.0271
   -14.1325 -14.1325 -14.0944 -14.0944 -14.0433 -14.0433 -14.0127 -14.0127
   -13.9271 -13.9271 -13.8862 -13.8862  -0.8168  -0.8168   0.2337   0.2337
     4.0968   4.0968   4.5225   4.5225   9.3212   9.3212   9.5363   9.5363
    11.0129  11.0129  12.3996  12.3996

     occupation numbers 
     1.0000   1.0000   1.0000   1.0000   1.0000   1.0000   1.0000   1.0000
     1.0000   1.0000   1.0000   1.0000   1.0000   1.0000   1.0000   1.0000
     1.0000   1.0000   1.0000   1.0000   1.0000   1.0000   1.0000   1.0000
     1.0000   1.0000   1.0000   1.0000   0.0000   0.0000   0.0000   0.0000
     0.0000   0.0000   0.0000   0.0000

          k =-0.0442-0.3977 0.6629 (  3005 PWs)   bands (ev):

   -15.1255 -15.1255 -15.0952 -15.0952 -15.0672 -15.0672 -15.0260 -15.0260
   -14.1333 -14.1333 -14.0918 -14.0918 -14.0404 -14.0404 -14.0186 -14.0186
   -13.9279 -13.9279 -13.8842 -13.8842  -0.5973  -0.5973   0.0049   0.0049
     4.0148   4.0148   4.4432   4.4432   9.4632   9.4632  10.1717  10.1717
    10.9375  10.9375  11.5511  11.5511

     occupation numbers 
     1.0000   1.0000   1.0000   1.0000   1.0000   1.0000   1.0000   1.0000
     1.0000   1.0000   1.0000   1.0000   1.0000   1.0000   1.0000   1.0000
     1.0000   1.0000   1.0000   1.0000   1.0000   1.0000   1.0000   1.0000
     1.0000   1.0000   1.0000   1.0000   0.0000   0.0000   0.0000   0.0000
     0.0000   0.0000   0.0000   0.0000

          k =-0.0000-0.3536 0.6187 (  3003 PWs)   bands (ev):

   -15.1259 -15.1259 -15.0942 -15.0941 -15.0683 -15.0683 -15.0257 -15.0256
   -14.1334 -14.1334 -14.0919 -14.0919 -14.0427 -14.0427 -14.0155 -14.0155
   -13.9283 -13.9283 -13.8844 -13.8844  -0.7190  -0.7190   0.1345   0.1345
     3.9541   3.9541   4.5425   4.5425   9.5121   9.5121  10.3533  10.3533
    10.8248  10.8248  11.4588  11.4588

     occupation numbers 
     1.0000   1.0000   1.0000   1.0000   1.0000   1.0000   1.0000   1.0000
     1.0000   1.0000   1.0000   1.0000   1.0000   1.0000   1.0000   1.0000
     1.0000   1.0000   1.0000   1.0000   1.0000   1.0000   1.0000   1.0000
     1.0000   1.0000   1.0000   1.0000   0.0000   0.0000   0.0000   0.0000
     0.0000   0.0000   0.0000   0.0000

          k =-0.7071 0.2652 0.0000 (  3004 PWs)   bands (ev):

   -15.1247 -15.1247 -15.0972 -15.0972 -15.0650 -15.0649 -15.0271 -15.0271
   -14.1326 -14.1326 -14.0931 -14.0931 -14.0358 -14.0358 -14.0231 -14.0231
   -13.9266 -13.9266 -13.8848 -13.8848  -0.3237  -0.3237  -0.2826  -0.2826
     4.1584   4.1584   4.3227   4.3227   9.3202   9.3202   9.5168   9.5168
    11.6263  11.6263  11.7327  11.7327

     occupation numbers 
     1.0000   1.0000   1.0000   1.0000   1.0000   1.0000   1.0000   1.0000
     1.0000   1.0000   1.0000   1.0000   1.0000   1.0000   1.0000   1.0000
     1.0000   1.0000   1.0000   1.0000   1.0000   1.0000   1.0000   1.0000
     1.0000   1.0000   1.0000   1.0000   0.0000   0.0000   0.0000   0.0000
     0.0000   0.0000   0.0000   0.0000

          k =-0.7071 0.3536 0.0000 (  2996 PWs)   bands (ev):

   -15.1255 -15.1255 -15.0951 -15.0950 -15.0675 -15.0674 -15.0258 -15.0258
   -14.1337 -14.1337 -14.0904 -14.0904 -14.0368 -14.0368 -14.0237 -14.0237
   -13.9282 -13.9282 -13.8832 -13.8832  -0.3188  -0.3188  -0.2740  -0.2740
     4.0925   4.0925   4.2647   4.2647   9.9156   9.9156  10.2381  10.2381
    10.9151  10.9151  10.9363  10.9363

     occupation numbers 
     1.0000   1.0000   1.0000   1.0000   1.0000   1.0000   1.0000   1.0000
     1.0000   1.0000   1.0000   1.0000   1.0000   1.0000   1.0000   1.0000
     1.0000   1.0000   1.0000   1.0000   1.0000   1.0000   1.0000   1.0000
     1.0000   1.0000   1.0000   1.0000   0.0000   0.0000   0.0000   0.0000
     0.0000   0.0000   0.0000   0.0000

     the Fermi energy is     6.9520 ev

!    total energy              =    -325.83692533 Ry
     Harris-Foulkes estimate   =    -325.83692526 Ry
     estimated scf accuracy    <       0.00000011 Ry

     The total energy is the sum of the following terms:

     one-electron contribution =    -157.73618530 Ry
     hartree contribution      =      95.53027185 Ry
     xc contribution           =     -96.10121646 Ry
     ewald contribution        =    -167.52979536 Ry
     smearing contrib. (-TS)   =      -0.00000006 Ry

     convergence has been achieved in   5 iterations

     Writing output data file Sn.save
 
     init_run     :      3.66s CPU      3.99s WALL (       1 calls)
     electrons    :     73.77s CPU     77.04s WALL (       1 calls)

     Called by init_run:
     wfcinit      :      3.36s CPU      3.49s WALL (       1 calls)
     potinit      :      0.01s CPU      0.02s WALL (       1 calls)

     Called by electrons:
     c_bands      :     61.97s CPU     64.85s WALL (       6 calls)
     sum_band     :     11.51s CPU     11.84s WALL (       6 calls)
     v_of_rho     :      0.03s CPU      0.03s WALL (       6 calls)
     v_h          :      0.00s CPU      0.00s WALL (       6 calls)
     v_xc         :      0.02s CPU      0.03s WALL (       6 calls)
     newd         :      0.29s CPU      0.31s WALL (       6 calls)
     mix_rho      :      0.01s CPU      0.02s WALL (       6 calls)

     Called by c_bands:
     init_us_2    :      0.17s CPU      0.23s WALL (    1885 calls)
     cegterg      :     58.38s CPU     61.00s WALL (     870 calls)

     Called by sum_band:
     sum_band:bec :      1.91s CPU      1.92s WALL (     870 calls)
     addusdens    :      0.11s CPU      0.13s WALL (       6 calls)

     Called by *egterg:
     h_psi        :     46.22s CPU     47.67s WALL (    3075 calls)
     s_psi        :      1.78s CPU      1.79s WALL (    3075 calls)
     g_psi        :      0.12s CPU      0.12s WALL (    2060 calls)
     cdiaghg      :      7.01s CPU      7.15s WALL (    2785 calls)
     cegterg:over :      2.34s CPU      2.36s WALL (    2060 calls)
     cegterg:upda :      1.01s CPU      1.02s WALL (    2060 calls)
     cegterg:last :      0.52s CPU      0.53s WALL (     870 calls)

     Called by h_psi:
     h_psi:vloc   :     42.12s CPU     43.50s WALL (    3075 calls)
     h_psi:vnl    :      3.98s CPU      4.04s WALL (    3075 calls)
     add_vuspsi   :      1.99s CPU      2.00s WALL (    3075 calls)

     General routines
     calbec       :      2.59s CPU      2.65s WALL (    3945 calls)
     fft          :      0.04s CPU      0.06s WALL (     116 calls)
     fftw         :     46.89s CPU     48.47s WALL (  390948 calls)
     davcio       :      0.03s CPU      0.18s WALL (     145 calls)
 
     Parallel routines
     fft_scatter  :     25.26s CPU     26.25s WALL (  391064 calls)
 
     PWSCF        :  1m18.31s CPU     1m22.34s WALL

 
   This run was terminated on:  19:53:30  15Mar2020            

=------------------------------------------------------------------------------=
   JOB DONE.
=------------------------------------------------------------------------------=
