
     Program PWSCF v.5.4.0 starts on 28Feb2020 at  7: 9:55 

     This program is part of the open-source Quantum ESPRESSO suite
     for quantum simulation of materials; please cite
         "P. Giannozzi et al., J. Phys.:Condens. Matter 21 395502 (2009);
          URL http://www.quantum-espresso.org", 
     in publications or presentations arising from this work. More details at
     http://www.quantum-espresso.org/quote

     Parallel version (MPI & OpenMP), running on      16 processor cores
     Number of MPI processes:                16
     Threads/MPI process:                     1
     R & G space division:  proc/nbgrp/npool/nimage =      16
     Waiting for input...
     Reading input from standard input
Warning: card &IONS ignored
Warning: card / ignored
Warning: card &CELL ignored
Warning: card / ignored

     Current dimensions of program PWSCF are:
     Max number of different atomic species (ntypx) = 10
     Max number of k-points (npk) =  40000
     Max angular momentum in pseudopotentials (lmaxx) =  3

     Subspace diagonalization in iterative solution of the eigenvalue problem:
     a serial algorithm will be used

 
     Parallelization info
     --------------------
     sticks:   dense  smooth     PW     G-vecs:    dense   smooth      PW
     Min         108     108     31                 2965     2965     461
     Max         109     109     32                 2966     2966     465
     Sum        1735    1735    499                47447    47447    7391
 

     Title: 
     Sn                                                                         


     bravais-lattice index     =            0
     lattice parameter (alat)  =       8.8459  a.u.
     unit-cell volume          =     489.4525 (a.u.)^3
     number of atoms/cell      =            2
     number of atomic types    =            1
     number of electrons       =        28.00
     number of Kohn-Sham states=           18
     kinetic-energy cutoff     =      80.0000  Ry
     charge density cutoff     =     320.0000  Ry
     convergence threshold     =      1.0E-06
     mixing beta               =       0.7000
     number of iterations used =            8  plain     mixing
     Exchange-correlation      = PBE ( 1  4  3  4 0 0)

     celldm(1)=   8.845897  celldm(2)=   0.000000  celldm(3)=   0.000000
     celldm(4)=   0.000000  celldm(5)=   0.000000  celldm(6)=   0.000000

     crystal axes: (cart. coord. in units of alat)
               a(1) = (   0.000000   0.707107   0.707107 )  
               a(2) = (   0.707107   0.000000   0.707107 )  
               a(3) = (   0.707107   0.707107   0.000000 )  

     reciprocal axes: (cart. coord. in units 2 pi/alat)
               b(1) = ( -0.707107  0.707107  0.707107 )  
               b(2) = (  0.707107 -0.707107  0.707107 )  
               b(3) = (  0.707107  0.707107 -0.707107 )  


     PseudoPot. # 1 for Sn read from file:
     ../PseudopotentialDatabase/Sn_ONCV_PBE-1.2.upf
     MD5 check sum: 6680f7ee4d83b53e0fcd4167fcb72813
     Pseudo is Norm-conserving, Zval = 14.0
     Generated using ONCVPSP code by D. R. Hamann
     Using radial grid of  602 points,  6 beta functions with: 
                l(1) =   0
                l(2) =   0
                l(3) =   1
                l(4) =   1
                l(5) =   2
                l(6) =   2

     atomic species   valence    mass     pseudopotential
        Sn            14.00   118.71000     Sn( 1.00)

     24 Sym. Ops. (no inversion) found
          (note: 24 additional sym.ops. were found but ignored
           their fractional translations are incommensurate with FFT grid)

                                    s                        frac. trans.

      isym =  1     identity                                     

 cryst.   s( 1) = (     1          0          0      )
                  (     0          1          0      )
                  (     0          0          1      )

 cart.    s( 1) = (  1.0000000  0.0000000  0.0000000 )
                  (  0.0000000  1.0000000  0.0000000 )
                  (  0.0000000  0.0000000  1.0000000 )


      isym =  2     180 deg rotation - cart. axis [0,0,1]        

 cryst.   s( 2) = (     0          1         -1      )
                  (     1          0         -1      )
                  (     0          0         -1      )

 cart.    s( 2) = ( -1.0000000  0.0000000  0.0000000 )
                  (  0.0000000 -1.0000000  0.0000000 )
                  (  0.0000000  0.0000000  1.0000000 )


      isym =  3     180 deg rotation - cart. axis [0,1,0]        

 cryst.   s( 3) = (     0         -1          1      )
                  (     0         -1          0      )
                  (     1         -1          0      )

 cart.    s( 3) = ( -1.0000000  0.0000000  0.0000000 )
                  (  0.0000000  1.0000000  0.0000000 )
                  (  0.0000000  0.0000000 -1.0000000 )


      isym =  4     180 deg rotation - cart. axis [1,0,0]        

 cryst.   s( 4) = (    -1          0          0      )
                  (    -1          0          1      )
                  (    -1          1          0      )

 cart.    s( 4) = (  1.0000000  0.0000000  0.0000000 )
                  (  0.0000000 -1.0000000  0.0000000 )
                  (  0.0000000  0.0000000 -1.0000000 )


      isym =  5     120 deg rotation - cart. axis [-1,-1,-1]     

 cryst.   s( 5) = (     0          0          1      )
                  (     1          0          0      )
                  (     0          1          0      )

 cart.    s( 5) = (  0.0000000  1.0000000  0.0000000 )
                  (  0.0000000  0.0000000  1.0000000 )
                  (  1.0000000  0.0000000  0.0000000 )


      isym =  6     120 deg rotation - cart. axis [-1,1,1]       

 cryst.   s( 6) = (     1         -1          0      )
                  (     0         -1          1      )
                  (     0         -1          0      )

 cart.    s( 6) = (  0.0000000 -1.0000000  0.0000000 )
                  (  0.0000000  0.0000000  1.0000000 )
                  ( -1.0000000  0.0000000  0.0000000 )


      isym =  7     120 deg rotation - cart. axis [1,1,-1]       

 cryst.   s( 7) = (    -1          1          0      )
                  (    -1          0          0      )
                  (    -1          0          1      )

 cart.    s( 7) = (  0.0000000  1.0000000  0.0000000 )
                  (  0.0000000  0.0000000 -1.0000000 )
                  ( -1.0000000  0.0000000  0.0000000 )


      isym =  8     120 deg rotation - cart. axis [1,-1,1]       

 cryst.   s( 8) = (     0          0         -1      )
                  (     0          1         -1      )
                  (     1          0         -1      )

 cart.    s( 8) = (  0.0000000 -1.0000000  0.0000000 )
                  (  0.0000000  0.0000000 -1.0000000 )
                  (  1.0000000  0.0000000  0.0000000 )


      isym =  9     120 deg rotation - cart. axis [1,1,1]        

 cryst.   s( 9) = (     0          1          0      )
                  (     0          0          1      )
                  (     1          0          0      )

 cart.    s( 9) = (  0.0000000  0.0000000  1.0000000 )
                  (  1.0000000  0.0000000  0.0000000 )
                  (  0.0000000  1.0000000  0.0000000 )


      isym = 10     120 deg rotation - cart. axis [-1,1,-1]      

 cryst.   s(10) = (    -1          0          1      )
                  (    -1          1          0      )
                  (    -1          0          0      )

 cart.    s(10) = (  0.0000000  0.0000000  1.0000000 )
                  ( -1.0000000  0.0000000  0.0000000 )
                  (  0.0000000 -1.0000000  0.0000000 )


      isym = 11     120 deg rotation - cart. axis [1,-1,-1]      

 cryst.   s(11) = (     1          0         -1      )
                  (     0          0         -1      )
                  (     0          1         -1      )

 cart.    s(11) = (  0.0000000  0.0000000 -1.0000000 )
                  ( -1.0000000  0.0000000  0.0000000 )
                  (  0.0000000  1.0000000  0.0000000 )


      isym = 12     120 deg rotation - cart. axis [-1,-1,1]      

 cryst.   s(12) = (     0         -1          0      )
                  (     1         -1          0      )
                  (     0         -1          1      )

 cart.    s(12) = (  0.0000000  0.0000000 -1.0000000 )
                  (  1.0000000  0.0000000  0.0000000 )
                  (  0.0000000 -1.0000000  0.0000000 )


      isym = 13     inv. 180 deg rotation - cart. axis [1,1,0]   

 cryst.   s(13) = (     1          0         -1      )
                  (     0          1         -1      )
                  (     0          0         -1      )

 cart.    s(13) = (  0.0000000 -1.0000000  0.0000000 )
                  ( -1.0000000  0.0000000  0.0000000 )
                  (  0.0000000  0.0000000  1.0000000 )


      isym = 14     inv. 180 deg rotation - cart. axis [1,-1,0]  

 cryst.   s(14) = (     0          1          0      )
                  (     1          0          0      )
                  (     0          0          1      )

 cart.    s(14) = (  0.0000000  1.0000000  0.0000000 )
                  (  1.0000000  0.0000000  0.0000000 )
                  (  0.0000000  0.0000000  1.0000000 )


      isym = 15     inv.  90 deg rotation - cart. axis [0,0,-1]  

 cryst.   s(15) = (     0         -1          0      )
                  (     0         -1          1      )
                  (     1         -1          0      )

 cart.    s(15) = (  0.0000000 -1.0000000  0.0000000 )
                  (  1.0000000  0.0000000  0.0000000 )
                  (  0.0000000  0.0000000 -1.0000000 )


      isym = 16     inv.  90 deg rotation - cart. axis [0,0,1]   

 cryst.   s(16) = (    -1          0          1      )
                  (    -1          0          0      )
                  (    -1          1          0      )

 cart.    s(16) = (  0.0000000  1.0000000  0.0000000 )
                  ( -1.0000000  0.0000000  0.0000000 )
                  (  0.0000000  0.0000000 -1.0000000 )


      isym = 17     inv. 180 deg rotation - cart. axis [1,0,1]   

 cryst.   s(17) = (     1         -1          0      )
                  (     0         -1          0      )
                  (     0         -1          1      )

 cart.    s(17) = (  0.0000000  0.0000000 -1.0000000 )
                  (  0.0000000  1.0000000  0.0000000 )
                  ( -1.0000000  0.0000000  0.0000000 )


      isym = 18     inv. 180 deg rotation - cart. axis [-1,0,1]  

 cryst.   s(18) = (     0          0          1      )
                  (     0          1          0      )
                  (     1          0          0      )

 cart.    s(18) = (  0.0000000  0.0000000  1.0000000 )
                  (  0.0000000  1.0000000  0.0000000 )
                  (  1.0000000  0.0000000  0.0000000 )


      isym = 19     inv.  90 deg rotation - cart. axis [0,1,0]   

 cryst.   s(19) = (     0          0         -1      )
                  (     1          0         -1      )
                  (     0          1         -1      )

 cart.    s(19) = (  0.0000000  0.0000000 -1.0000000 )
                  (  0.0000000 -1.0000000  0.0000000 )
                  (  1.0000000  0.0000000  0.0000000 )


      isym = 20     inv.  90 deg rotation - cart. axis [0,-1,0]  

 cryst.   s(20) = (    -1          1          0      )
                  (    -1          0          1      )
                  (    -1          0          0      )

 cart.    s(20) = (  0.0000000  0.0000000  1.0000000 )
                  (  0.0000000 -1.0000000  0.0000000 )
                  ( -1.0000000  0.0000000  0.0000000 )


      isym = 21     inv. 180 deg rotation - cart. axis [0,1,1]   

 cryst.   s(21) = (    -1          0          0      )
                  (    -1          1          0      )
                  (    -1          0          1      )

 cart.    s(21) = (  1.0000000  0.0000000  0.0000000 )
                  (  0.0000000  0.0000000 -1.0000000 )
                  (  0.0000000 -1.0000000  0.0000000 )


      isym = 22     inv. 180 deg rotation - cart. axis [0,1,-1]  

 cryst.   s(22) = (     1          0          0      )
                  (     0          0          1      )
                  (     0          1          0      )

 cart.    s(22) = (  1.0000000  0.0000000  0.0000000 )
                  (  0.0000000  0.0000000  1.0000000 )
                  (  0.0000000  1.0000000  0.0000000 )


      isym = 23     inv.  90 deg rotation - cart. axis [-1,0,0]  

 cryst.   s(23) = (     0          1         -1      )
                  (     0          0         -1      )
                  (     1          0         -1      )

 cart.    s(23) = ( -1.0000000  0.0000000  0.0000000 )
                  (  0.0000000  0.0000000 -1.0000000 )
                  (  0.0000000  1.0000000  0.0000000 )


      isym = 24     inv.  90 deg rotation - cart. axis [1,0,0]   

 cryst.   s(24) = (     0         -1          1      )
                  (     1         -1          0      )
                  (     0         -1          0      )

 cart.    s(24) = ( -1.0000000  0.0000000  0.0000000 )
                  (  0.0000000  0.0000000  1.0000000 )
                  (  0.0000000 -1.0000000  0.0000000 )


   Cartesian axes

     site n.     atom                  positions (alat units)
         1           Sn  tau(   1) = (   0.0000000   0.0000000   0.0000000  )
         2           Sn  tau(   2) = (   0.3535534   0.3535534   0.3535534  )

   Crystallographic axes

     site n.     atom                  positions (cryst. coord.)
         1           Sn  tau(   1) = (  0.0000000  0.0000000  0.0000000  )
         2           Sn  tau(   2) = (  0.2500000  0.2500000  0.2500000  )

     number of k points=    47  gaussian smearing, width (Ry)=  0.0001
                       cart. coord. in units 2pi/alat
        k(    1) = (   0.0000000   0.0000000   0.0000000), wk =   0.0020000
        k(    2) = (   0.0707107   0.0707107  -0.0707107), wk =   0.0160000
        k(    3) = (   0.1414214   0.1414214  -0.1414214), wk =   0.0160000
        k(    4) = (   0.2121320   0.2121320  -0.2121320), wk =   0.0160000
        k(    5) = (   0.2828427   0.2828427  -0.2828427), wk =   0.0160000
        k(    6) = (  -0.3535534  -0.3535534   0.3535534), wk =   0.0080000
        k(    7) = (   0.1414214   0.0000000   0.0000000), wk =   0.0120000
        k(    8) = (   0.2121320   0.0707107  -0.0707107), wk =   0.0480000
        k(    9) = (   0.2828427   0.1414214  -0.1414214), wk =   0.0480000
        k(   10) = (   0.3535534   0.2121320  -0.2121320), wk =   0.0480000
        k(   11) = (  -0.2828427  -0.4242641   0.4242641), wk =   0.0480000
        k(   12) = (  -0.2121320  -0.3535534   0.3535534), wk =   0.0480000
        k(   13) = (  -0.1414214  -0.2828427   0.2828427), wk =   0.0480000
        k(   14) = (  -0.0707107  -0.2121320   0.2121320), wk =   0.0480000
        k(   15) = (   0.0000000  -0.1414214   0.1414214), wk =   0.0240000
        k(   16) = (   0.2828427   0.0000000   0.0000000), wk =   0.0120000
        k(   17) = (   0.3535534   0.0707107  -0.0707107), wk =   0.0480000
        k(   18) = (   0.4242641   0.1414214  -0.1414214), wk =   0.0480000
        k(   19) = (  -0.2121320  -0.4949747   0.4949747), wk =   0.0480000
        k(   20) = (  -0.1414214  -0.4242641   0.4242641), wk =   0.0480000
        k(   21) = (  -0.0707107  -0.3535534   0.3535534), wk =   0.0480000
        k(   22) = (   0.0000000  -0.2828427   0.2828427), wk =   0.0240000
        k(   23) = (   0.4242641   0.0000000   0.0000000), wk =   0.0120000
        k(   24) = (   0.4949747   0.0707107  -0.0707107), wk =   0.0480000
        k(   25) = (  -0.1414214  -0.5656854   0.5656854), wk =   0.0480000
        k(   26) = (  -0.0707107  -0.4949747   0.4949747), wk =   0.0480000
        k(   27) = (  -0.0000000  -0.4242641   0.4242641), wk =   0.0240000
        k(   28) = (   0.5656854   0.0000000   0.0000000), wk =   0.0120000
        k(   29) = (  -0.0707107  -0.6363961   0.6363961), wk =   0.0480000
        k(   30) = (   0.0000000  -0.5656854   0.5656854), wk =   0.0240000
        k(   31) = (  -0.7071068   0.0000000   0.0000000), wk =   0.0060000
        k(   32) = (   0.2828427   0.1414214   0.0000000), wk =   0.0480000
        k(   33) = (   0.3535534   0.2121320  -0.0707107), wk =   0.0960000
        k(   34) = (  -0.2828427  -0.4242641   0.5656854), wk =   0.0960000
        k(   35) = (  -0.2121320  -0.3535534   0.4949747), wk =   0.0480000
        k(   36) = (   0.4242641   0.1414214  -0.0000000), wk =   0.0480000
        k(   37) = (  -0.2121320  -0.4949747   0.6363961), wk =   0.0960000
        k(   38) = (  -0.1414214  -0.4242641   0.5656854), wk =   0.0960000
        k(   39) = (  -0.0707107  -0.3535534   0.4949747), wk =   0.0960000
        k(   40) = (   0.0000000  -0.2828427   0.4242641), wk =   0.0480000
        k(   41) = (  -0.1414214  -0.5656854   0.7071068), wk =   0.0480000
        k(   42) = (  -0.0707107  -0.4949747   0.6363961), wk =   0.0960000
        k(   43) = (  -0.0000000  -0.4242641   0.5656854), wk =   0.0480000
        k(   44) = (  -0.7071068   0.1414214   0.0000000), wk =   0.0240000
        k(   45) = (  -0.1414214  -0.4242641   0.7071068), wk =   0.0480000
        k(   46) = (  -0.0707107  -0.3535534   0.6363961), wk =   0.0480000
        k(   47) = (  -0.7071068   0.2828427   0.0000000), wk =   0.0240000

                       cryst. coord.
        k(    1) = (   0.0000000   0.0000000   0.0000000), wk =   0.0020000
        k(    2) = (   0.0000000   0.0000000   0.1000000), wk =   0.0160000
        k(    3) = (   0.0000000   0.0000000   0.2000000), wk =   0.0160000
        k(    4) = (   0.0000000   0.0000000   0.3000000), wk =   0.0160000
        k(    5) = (   0.0000000   0.0000000   0.4000000), wk =   0.0160000
        k(    6) = (   0.0000000   0.0000000  -0.5000000), wk =   0.0080000
        k(    7) = (   0.0000000   0.1000000   0.1000000), wk =   0.0120000
        k(    8) = (   0.0000000   0.1000000   0.2000000), wk =   0.0480000
        k(    9) = (   0.0000000   0.1000000   0.3000000), wk =   0.0480000
        k(   10) = (   0.0000000   0.1000000   0.4000000), wk =   0.0480000
        k(   11) = (   0.0000000   0.1000000  -0.5000000), wk =   0.0480000
        k(   12) = (   0.0000000   0.1000000  -0.4000000), wk =   0.0480000
        k(   13) = (   0.0000000   0.1000000  -0.3000000), wk =   0.0480000
        k(   14) = (   0.0000000   0.1000000  -0.2000000), wk =   0.0480000
        k(   15) = (   0.0000000   0.1000000  -0.1000000), wk =   0.0240000
        k(   16) = (   0.0000000   0.2000000   0.2000000), wk =   0.0120000
        k(   17) = (   0.0000000   0.2000000   0.3000000), wk =   0.0480000
        k(   18) = (   0.0000000   0.2000000   0.4000000), wk =   0.0480000
        k(   19) = (   0.0000000   0.2000000  -0.5000000), wk =   0.0480000
        k(   20) = (   0.0000000   0.2000000  -0.4000000), wk =   0.0480000
        k(   21) = (   0.0000000   0.2000000  -0.3000000), wk =   0.0480000
        k(   22) = (   0.0000000   0.2000000  -0.2000000), wk =   0.0240000
        k(   23) = (   0.0000000   0.3000000   0.3000000), wk =   0.0120000
        k(   24) = (   0.0000000   0.3000000   0.4000000), wk =   0.0480000
        k(   25) = (   0.0000000   0.3000000  -0.5000000), wk =   0.0480000
        k(   26) = (   0.0000000   0.3000000  -0.4000000), wk =   0.0480000
        k(   27) = (   0.0000000   0.3000000  -0.3000000), wk =   0.0240000
        k(   28) = (   0.0000000   0.4000000   0.4000000), wk =   0.0120000
        k(   29) = (   0.0000000   0.4000000  -0.5000000), wk =   0.0480000
        k(   30) = (   0.0000000   0.4000000  -0.4000000), wk =   0.0240000
        k(   31) = (   0.0000000  -0.5000000  -0.5000000), wk =   0.0060000
        k(   32) = (   0.1000000   0.2000000   0.3000000), wk =   0.0480000
        k(   33) = (   0.1000000   0.2000000   0.4000000), wk =   0.0960000
        k(   34) = (   0.1000000   0.2000000  -0.5000000), wk =   0.0960000
        k(   35) = (   0.1000000   0.2000000  -0.4000000), wk =   0.0480000
        k(   36) = (   0.1000000   0.3000000   0.4000000), wk =   0.0480000
        k(   37) = (   0.1000000   0.3000000  -0.5000000), wk =   0.0960000
        k(   38) = (   0.1000000   0.3000000  -0.4000000), wk =   0.0960000
        k(   39) = (   0.1000000   0.3000000  -0.3000000), wk =   0.0960000
        k(   40) = (   0.1000000   0.3000000  -0.2000000), wk =   0.0480000
        k(   41) = (   0.1000000   0.4000000  -0.5000000), wk =   0.0480000
        k(   42) = (   0.1000000   0.4000000  -0.4000000), wk =   0.0960000
        k(   43) = (   0.1000000   0.4000000  -0.3000000), wk =   0.0480000
        k(   44) = (   0.1000000  -0.5000000  -0.4000000), wk =   0.0240000
        k(   45) = (   0.2000000   0.4000000  -0.4000000), wk =   0.0480000
        k(   46) = (   0.2000000   0.4000000  -0.3000000), wk =   0.0480000
        k(   47) = (   0.2000000  -0.5000000  -0.3000000), wk =   0.0240000

     Dense  grid:    47447 G-vectors     FFT dimensions: (  54,  54,  54)

     Largest allocated arrays     est. size (Mb)     dimensions
        Kohn-Sham Wavefunctions         0.10 Mb     (     376,   18)
        NL pseudopotentials             0.21 Mb     (     376,   36)
        Each V/rho on FFT grid          0.18 Mb     (   11664)
        Each G-vector array             0.02 Mb     (    2965)
        G-vector shells                 0.00 Mb     (     414)
     Largest temporary arrays     est. size (Mb)     dimensions
        Auxiliary wavefunctions         0.41 Mb     (     376,   72)
        Each subspace H/S matrix        0.08 Mb     (      72,   72)
        Each <psi_i|beta_j> matrix      0.01 Mb     (      36,   18)
        Arrays for rho mixing           1.42 Mb     (   11664,    8)

     Initial potential from superposition of free atoms

     starting charge   27.82674, renormalised to   28.00000
     Starting wfc are random

     total cpu time spent up to now is        1.1 secs

     Self-consistent Calculation

     iteration #  1     ecut=    80.00 Ry     beta=0.70
     Davidson diagonalization with overlap
     ethr =  1.00E-02,  avg # of iterations =  7.0

     Threshold (ethr) on eigenvalues was too large:
     Diagonalizing with lowered threshold

     Davidson diagonalization with overlap
     ethr =  1.09E-04,  avg # of iterations =  1.9

     total cpu time spent up to now is       10.0 secs

     total energy              =    -241.29437269 Ry
     Harris-Foulkes estimate   =    -241.30525673 Ry
     estimated scf accuracy    <       0.03047020 Ry

     iteration #  2     ecut=    80.00 Ry     beta=0.70
     Davidson diagonalization with overlap
     ethr =  1.09E-04,  avg # of iterations =  2.0

     total cpu time spent up to now is       12.6 secs

     total energy              =    -241.29832993 Ry
     Harris-Foulkes estimate   =    -241.29834668 Ry
     estimated scf accuracy    <       0.00163361 Ry

     iteration #  3     ecut=    80.00 Ry     beta=0.70
     Davidson diagonalization with overlap
     ethr =  5.83E-06,  avg # of iterations =  2.9

     total cpu time spent up to now is       15.0 secs

     total energy              =    -241.29847081 Ry
     Harris-Foulkes estimate   =    -241.29844285 Ry
     estimated scf accuracy    <       0.00008820 Ry

     iteration #  4     ecut=    80.00 Ry     beta=0.70
     Davidson diagonalization with overlap
     ethr =  3.15E-07,  avg # of iterations =  2.0

     total cpu time spent up to now is       17.3 secs

     total energy              =    -241.29847568 Ry
     Harris-Foulkes estimate   =    -241.29847559 Ry
     estimated scf accuracy    <       0.00000130 Ry

     iteration #  5     ecut=    80.00 Ry     beta=0.70
     Davidson diagonalization with overlap
     ethr =  4.64E-09,  avg # of iterations =  2.2

     total cpu time spent up to now is       19.7 secs

     End of self-consistent calculation

          k = 0.0000 0.0000 0.0000 (  5961 PWs)   bands (ev):

   -13.0577 -13.0577 -13.0577 -13.0009 -13.0009 -12.7419 -12.7419 -12.7419
   -12.7356 -12.7356  -1.6400   7.5355   8.6656   8.6656   8.6656  10.7447
    10.7447  10.7447

     occupation numbers 
     1.0000   1.0000   1.0000   1.0000   1.0000   1.0000   1.0000   1.0000
     1.0000   1.0000   1.0000   1.0000   0.0000   0.0000   0.0000   0.0000
     0.0000   0.0000

          k = 0.0707 0.0707-0.0707 (  5916 PWs)   bands (ev):

   -13.0636 -13.0636 -13.0555 -12.9925 -12.9925 -12.7566 -12.7566 -12.7445
   -12.7225 -12.7225  -1.5491   6.6229   8.4893   8.4893   9.0056  10.9757
    10.9757  11.1146

     occupation numbers 
     1.0000   1.0000   1.0000   1.0000   1.0000   1.0000   1.0000   1.0000
     1.0000   1.0000   1.0000   1.0000   0.8750   0.8750   0.0000   0.0000
     0.0000   0.0000

          k = 0.1414 0.1414-0.1414 (  5946 PWs)   bands (ev):

   -13.0742 -13.0742 -13.0496 -12.9761 -12.9761 -12.7727 -12.7727 -12.7516
   -12.7100 -12.7100  -1.2826   5.2510   8.1438   8.1438   8.9409  11.4159
    11.4159  12.2008

     occupation numbers 
     1.0000   1.0000   1.0000   1.0000   1.0000   1.0000   1.0000   1.0000
     1.0000   1.0000   1.0000   1.0000   1.0000   1.0000   0.0000   0.0000
     0.0000   0.0000

          k = 0.2121 0.2121-0.2121 (  5945 PWs)   bands (ev):

   -13.0824 -13.0824 -13.0421 -12.9614 -12.9614 -12.7848 -12.7848 -12.7605
   -12.7016 -12.7016  -0.8673   3.9599   7.8299   7.8299   8.7056  11.7133
    11.7133  13.5769

     occupation numbers 
     1.0000   1.0000   1.0000   1.0000   1.0000   1.0000   1.0000   1.0000
     1.0000   1.0000   1.0000   1.0000   1.0000   1.0000   0.0000   0.0000
     0.0000   0.0000

          k = 0.2828 0.2828-0.2828 (  5927 PWs)   bands (ev):

   -13.0869 -13.0869 -13.0358 -12.9526 -12.9526 -12.7912 -12.7912 -12.7680
   -12.6971 -12.6971  -0.3922   2.9361   7.6246   7.6246   8.5300  11.7921
    11.7921  14.3713

     occupation numbers 
     1.0000   1.0000   1.0000   1.0000   1.0000   1.0000   1.0000   1.0000
     1.0000   1.0000   1.0000   1.0000   1.0000   1.0000   0.0000   0.0000
     0.0000   0.0000

          k =-0.3536-0.3536 0.3536 (  5936 PWs)   bands (ev):

   -13.0883 -13.0883 -13.0333 -12.9499 -12.9499 -12.7931 -12.7931 -12.7710
   -12.6957 -12.6957  -0.1365   2.4943   7.5541   7.5541   8.4681  11.7935
    11.7935  14.3127

     occupation numbers 
     1.0000   1.0000   1.0000   1.0000   1.0000   1.0000   1.0000   1.0000
     1.0000   1.0000   1.0000   1.0000   1.0000   1.0000   1.0000   0.0000
     0.0000   0.0000

          k = 0.1414 0.0000 0.0000 (  5934 PWs)   bands (ev):

   -13.0625 -13.0625 -13.0615 -12.9943 -12.9840 -12.7754 -12.7420 -12.7352
   -12.7352 -12.7174  -1.5184   6.5081   8.1983   8.1983   9.6302  10.4071
    11.3669  11.3669

     occupation numbers 
     1.0000   1.0000   1.0000   1.0000   1.0000   1.0000   1.0000   1.0000
     1.0000   1.0000   1.0000   1.0000   1.0000   1.0000   0.0000   0.0000
     0.0000   0.0000

          k = 0.2121 0.0707-0.0707 (  5927 PWs)   bands (ev):

   -13.0750 -13.0703 -13.0545 -12.9825 -12.9662 -12.7956 -12.7576 -12.7375
   -12.7210 -12.7072  -1.3089   5.4932   7.8174   7.8303   9.8557  10.5252
    11.8987  12.1215

     occupation numbers 
     1.0000   1.0000   1.0000   1.0000   1.0000   1.0000   1.0000   1.0000
     1.0000   1.0000   1.0000   1.0000   1.0000   1.0000   0.0000   0.0000
     0.0000   0.0000

          k = 0.2828 0.1414-0.1414 (  5938 PWs)   bands (ev):

   -13.0871 -13.0793 -13.0426 -12.9671 -12.9497 -12.8099 -12.7735 -12.7503
   -12.7086 -12.6955  -0.9381   4.2759   7.3877   7.5399   9.6447  11.0801
    12.2409  12.9033

     occupation numbers 
     1.0000   1.0000   1.0000   1.0000   1.0000   1.0000   1.0000   1.0000
     1.0000   1.0000   1.0000   1.0000   1.0000   1.0000   0.0000   0.0000
     0.0000   0.0000

          k = 0.3536 0.2121-0.2121 (  5911 PWs)   bands (ev):

   -13.0952 -13.0860 -13.0298 -12.9537 -12.9410 -12.8141 -12.7869 -12.7659
   -12.6996 -12.6876  -0.4640   3.1911   7.0309   7.3853   9.4194  11.4587
    12.2695  13.7169

     occupation numbers 
     1.0000   1.0000   1.0000   1.0000   1.0000   1.0000   1.0000   1.0000
     1.0000   1.0000   1.0000   1.0000   1.0000   1.0000   0.0000   0.0000
     0.0000   0.0000

          k =-0.2828-0.4243 0.4243 (  5921 PWs)   bands (ev):

   -13.0984 -13.0901 -13.0211 -12.9442 -12.9420 -12.8071 -12.7978 -12.7787
   -12.6936 -12.6849  -0.0851   2.5233   6.8080   7.3839   9.2865  11.6240
    12.1397  14.4685

     occupation numbers 
     1.0000   1.0000   1.0000   1.0000   1.0000   1.0000   1.0000   1.0000
     1.0000   1.0000   1.0000   1.0000   1.0000   1.0000   0.0000   0.0000
     0.0000   0.0000

          k =-0.2121-0.3536 0.3536 (  5915 PWs)   bands (ev):

   -13.0966 -13.0915 -13.0208 -12.9493 -12.9401 -12.8046 -12.7933 -12.7832
   -12.6908 -12.6880  -0.1789   2.6768   6.7438   7.5326   9.2712  11.7658
    11.9806  14.5170

     occupation numbers 
     1.0000   1.0000   1.0000   1.0000   1.0000   1.0000   1.0000   1.0000
     1.0000   1.0000   1.0000   1.0000   1.0000   1.0000   0.0000   0.0000
     0.0000   0.0000

          k =-0.1414-0.2828 0.2828 (  5917 PWs)   bands (ev):

   -13.0900 -13.0894 -13.0293 -12.9596 -12.9445 -12.8038 -12.7870 -12.7686
   -12.6969 -12.6919  -0.6286   3.5277   6.8567   7.8097   9.3645  11.7684
    11.8705  13.6327

     occupation numbers 
     1.0000   1.0000   1.0000   1.0000   1.0000   1.0000   1.0000   1.0000
     1.0000   1.0000   1.0000   1.0000   1.0000   1.0000   0.0000   0.0000
     0.0000   0.0000

          k =-0.0707-0.2121 0.2121 (  5929 PWs)   bands (ev):

   -13.0832 -13.0794 -13.0420 -12.9723 -12.9584 -12.7934 -12.7789 -12.7488
   -12.7109 -12.6976  -1.0793   4.6711   7.1711   8.1632   9.5031  11.4101
    11.6233  12.7190

     occupation numbers 
     1.0000   1.0000   1.0000   1.0000   1.0000   1.0000   1.0000   1.0000
     1.0000   1.0000   1.0000   1.0000   1.0000   1.0000   0.0000   0.0000
     0.0000   0.0000

          k = 0.0000-0.1414 0.1414 (  5935 PWs)   bands (ev):

   -13.0733 -13.0677 -13.0527 -12.9856 -12.9772 -12.7762 -12.7661 -12.7334
   -12.7283 -12.7080  -1.3990   5.8287   7.7397   8.4663   9.4381  11.0241
    11.1052  11.9682

     occupation numbers 
     1.0000   1.0000   1.0000   1.0000   1.0000   1.0000   1.0000   1.0000
     1.0000   1.0000   1.0000   1.0000   1.0000   1.0000   0.0000   0.0000
     0.0000   0.0000

          k = 0.2828 0.0000 0.0000 (  5914 PWs)   bands (ev):

   -13.0744 -13.0744 -13.0614 -12.9750 -12.9458 -12.8233 -12.7604 -12.7185
   -12.7185 -12.7137  -1.1562   5.1008   7.4503   7.4503   9.8522  10.5611
    12.5687  12.5687

     occupation numbers 
     1.0000   1.0000   1.0000   1.0000   1.0000   1.0000   1.0000   1.0000
     1.0000   1.0000   1.0000   1.0000   1.0000   1.0000   0.0000   0.0000
     0.0000   0.0000

          k = 0.3536 0.0707-0.0707 (  5933 PWs)   bands (ev):

   -13.0876 -13.0820 -13.0483 -12.9601 -12.9251 -12.8455 -12.7758 -12.7335
   -12.7071 -12.6972  -0.8346   4.2366   6.9902   7.1533   9.9267  10.6668
    12.8627  13.0851

     occupation numbers 
     1.0000   1.0000   1.0000   1.0000   1.0000   1.0000   1.0000   1.0000
     1.0000   1.0000   1.0000   1.0000   1.0000   1.0000   0.0000   0.0000
     0.0000   0.0000

          k = 0.4243 0.1414-0.1414 (  5896 PWs)   bands (ev):

   -13.1014 -13.0891 -13.0270 -12.9439 -12.9128 -12.8562 -12.7933 -12.7575
   -12.6965 -12.6813  -0.3811   3.2798   6.4623   7.0011   9.9671  11.2255
    12.8008  13.2020

     occupation numbers 
     1.0000   1.0000   1.0000   1.0000   1.0000   1.0000   1.0000   1.0000
     1.0000   1.0000   1.0000   1.0000   1.0000   1.0000   0.0000   0.0000
     0.0000   0.0000

          k =-0.2121-0.4950 0.4950 (  5913 PWs)   bands (ev):

   -13.1103 -13.0942 -13.0073 -12.9293 -12.9149 -12.8504 -12.8102 -12.7797
   -12.6887 -12.6717   0.0744   2.5237   6.0644   7.0141   9.8898  11.8185
    13.0271  13.2913

     occupation numbers 
     1.0000   1.0000   1.0000   1.0000   1.0000   1.0000   1.0000   1.0000
     1.0000   1.0000   1.0000   1.0000   1.0000   1.0000   0.0000   0.0000
     0.0000   0.0000

          k =-0.1414-0.4243 0.4243 (  5907 PWs)   bands (ev):

   -13.1120 -13.0968 -12.9979 -12.9295 -12.9197 -12.8303 -12.8232 -12.7922
   -12.6843 -12.6705   0.1559   2.4055   5.8713   7.1892   9.8925  12.0250
    12.7455  14.2541

     occupation numbers 
     1.0000   1.0000   1.0000   1.0000   1.0000   1.0000   1.0000   1.0000
     1.0000   1.0000   1.0000   1.0000   1.0000   1.0000   0.0000   0.0000
     0.0000   0.0000

          k =-0.0707-0.3536 0.3536 (  5914 PWs)   bands (ev):

   -13.1061 -13.0961 -13.0039 -12.9480 -12.9217 -12.8251 -12.8021 -12.7927
   -12.6841 -12.6785  -0.2418   3.0230   5.9350   7.4991   9.9628  12.1963
    12.3661  13.3917

     occupation numbers 
     1.0000   1.0000   1.0000   1.0000   1.0000   1.0000   1.0000   1.0000
     1.0000   1.0000   1.0000   1.0000   1.0000   1.0000   0.0000   0.0000
     0.0000   0.0000

          k = 0.0000-0.2828 0.2828 (  5943 PWs)   bands (ev):

   -13.0937 -13.0914 -13.0227 -12.9621 -12.9372 -12.8130 -12.7899 -12.7685
   -12.6944 -12.6885  -0.7150   3.8873   6.3400   7.8752   9.9457  11.8477
    12.0253  12.7313

     occupation numbers 
     1.0000   1.0000   1.0000   1.0000   1.0000   1.0000   1.0000   1.0000
     1.0000   1.0000   1.0000   1.0000   1.0000   1.0000   0.0000   0.0000
     0.0000   0.0000

          k = 0.4243 0.0000 0.0000 (  5898 PWs)   bands (ev):

   -13.0879 -13.0879 -13.0486 -12.9452 -12.8981 -12.8774 -12.7893 -12.7275
   -12.6991 -12.6991  -0.5613   3.7232   6.8345   6.8345   9.4561  10.4597
    13.9089  13.9089

     occupation numbers 
     1.0000   1.0000   1.0000   1.0000   1.0000   1.0000   1.0000   1.0000
     1.0000   1.0000   1.0000   1.0000   1.0000   1.0000   0.0000   0.0000
     0.0000   0.0000

          k = 0.4950 0.0707-0.0707 (  5911 PWs)   bands (ev):

   -13.0993 -13.0937 -13.0289 -12.9272 -12.8991 -12.8772 -12.8075 -12.7502
   -12.6903 -12.6838  -0.1397   2.9930   6.3944   6.6573   9.6199  10.4294
    13.8514  14.3134

     occupation numbers 
     1.0000   1.0000   1.0000   1.0000   1.0000   1.0000   1.0000   1.0000
     1.0000   1.0000   1.0000   1.0000   1.0000   1.0000   0.0000   0.0000
     0.0000   0.0000

          k =-0.1414-0.5657 0.5657 (  5902 PWs)   bands (ev):

   -13.1124 -13.0982 -13.0017 -12.9094 -12.9048 -12.8702 -12.8271 -12.7793
   -12.6835 -12.6687   0.3520   2.2984   5.8408   6.6490   9.7407  11.2550
    13.5810  14.2033

     occupation numbers 
     1.0000   1.0000   1.0000   1.0000   1.0000   1.0000   1.0000   1.0000
     1.0000   1.0000   1.0000   1.0000   1.0000   1.0000   0.0000   0.0000
     0.0000   0.0000

          k =-0.0707-0.4950 0.4950 (  5910 PWs)   bands (ev):

   -13.1195 -13.1005 -12.9857 -12.8961 -12.8929 -12.8796 -12.8435 -12.7958
   -12.6798 -12.6614   0.5851   2.0153   5.4813   6.8101   9.8276  12.5231
    13.4617  13.8067

     occupation numbers 
     1.0000   1.0000   1.0000   1.0000   1.0000   1.0000   1.0000   1.0000
     1.0000   1.0000   1.0000   1.0000   1.0000   1.0000   0.0000   0.0000
     0.0000   0.0000

          k =-0.0000-0.4243 0.4243 (  5898 PWs)   bands (ev):

   -13.1174 -13.1000 -12.9868 -12.9220 -12.9008 -12.8442 -12.8426 -12.7976
   -12.6799 -12.6646   0.2373   2.4354   5.4741   7.1158   9.9765  13.1266
    13.1645  13.2573

     occupation numbers 
     1.0000   1.0000   1.0000   1.0000   1.0000   1.0000   1.0000   1.0000
     1.0000   1.0000   1.0000   1.0000   1.0000   1.0000   0.0000   0.0000
     0.0000   0.0000

          k = 0.5657 0.0000 0.0000 (  5882 PWs)   bands (ev):

   -13.0980 -13.0980 -13.0216 -12.9320 -12.9078 -12.8471 -12.8258 -12.7569
   -12.6842 -12.6842   0.2513   2.4288   6.4448   6.4448   9.3202   9.8962
    15.2165  15.2167

     occupation numbers 
     1.0000   1.0000   1.0000   1.0000   1.0000   1.0000   1.0000   1.0000
     1.0000   1.0000   1.0000   1.0000   1.0000   1.0000   0.0000   0.0000
     0.0000   0.0000

          k =-0.0707-0.6364 0.6364 (  5899 PWs)   bands (ev):

   -13.1063 -13.1008 -12.9964 -12.9498 -12.8879 -12.8463 -12.8293 -12.7832
   -12.6799 -12.6743   0.7517   1.8183   6.0883   6.3995   9.5180  10.0472
    15.0936  15.3823

     occupation numbers 
     1.0000   1.0000   1.0000   1.0000   1.0000   1.0000   1.0000   1.0000
     1.0000   1.0000   1.0000   1.0000   1.0000   1.0000   0.0000   0.0000
     0.0000   0.0000

          k = 0.0000-0.5657 0.5657 (  5898 PWs)   bands (ev):

   -13.1165 -13.1018 -12.9810 -12.9322 -12.8757 -12.8607 -12.8452 -12.7988
   -12.6783 -12.6638   1.0156   1.5534   5.6249   6.5277   9.6352  11.1638
    14.5362  14.8211

     occupation numbers 
     1.0000   1.0000   1.0000   1.0000   1.0000   1.0000   1.0000   1.0000
     1.0000   1.0000   1.0000   1.0000   1.0000   1.0000   0.0000   0.0000
     0.0000   0.0000

          k =-0.7071 0.0000 0.0000 (  5914 PWs)   bands (ev):

   -13.1016 -13.1016 -12.9816 -12.9816 -12.8667 -12.8666 -12.7983 -12.7983
   -12.6786 -12.6786   1.2586   1.2587   6.3121   6.3121   9.4716   9.4716
    15.9596  15.9597

     occupation numbers 
     1.0000   1.0000   1.0000   1.0000   1.0000   1.0000   1.0000   1.0000
     1.0000   1.0000   1.0000   1.0000   1.0000   1.0000   0.0000   0.0000
     0.0000   0.0000

          k = 0.2828 0.1414 0.0000 (  5926 PWs)   bands (ev):

   -13.0836 -13.0803 -13.0454 -12.9709 -12.9468 -12.8170 -12.7695 -12.7417
   -12.7113 -12.6980  -1.0444   4.6928   7.0165   7.7537  10.2357  10.5321
    12.3630  12.5673

     occupation numbers 
     1.0000   1.0000   1.0000   1.0000   1.0000   1.0000   1.0000   1.0000
     1.0000   1.0000   1.0000   1.0000   1.0000   1.0000   0.0000   0.0000
     0.0000   0.0000

          k = 0.3536 0.2121-0.0707 (  5921 PWs)   bands (ev):

   -13.0953 -13.0897 -13.0272 -12.9568 -12.9299 -12.8315 -12.7836 -12.7632
   -12.6961 -12.6875  -0.6303   3.7057   6.4886   7.4734  10.1649  11.1203
    12.5689  12.9138

     occupation numbers 
     1.0000   1.0000   1.0000   1.0000   1.0000   1.0000   1.0000   1.0000
     1.0000   1.0000   1.0000   1.0000   1.0000   1.0000   0.0000   0.0000
     0.0000   0.0000

          k =-0.2828-0.4243 0.5657 (  5899 PWs)   bands (ev):

   -13.1050 -13.0943 -13.0102 -12.9432 -12.9230 -12.8339 -12.7981 -12.7838
   -12.6883 -12.6779  -0.1503   2.8109   6.2152   7.2233  10.0281  11.4910
    12.6844  13.5798

     occupation numbers 
     1.0000   1.0000   1.0000   1.0000   1.0000   1.0000   1.0000   1.0000
     1.0000   1.0000   1.0000   1.0000   1.0000   1.0000   0.0000   0.0000
     0.0000   0.0000

          k =-0.2121-0.3536 0.4950 (  5908 PWs)   bands (ev):

   -13.1085 -13.0958 -13.0033 -12.9343 -12.9253 -12.8281 -12.8112 -12.7900
   -12.6862 -12.6741   0.1149   2.3973   6.1322   7.1283   9.9751  11.5373
    12.7335  14.3515

     occupation numbers 
     1.0000   1.0000   1.0000   1.0000   1.0000   1.0000   1.0000   1.0000
     1.0000   1.0000   1.0000   1.0000   1.0000   1.0000   0.0000   0.0000
     0.0000   0.0000

          k = 0.4243 0.1414-0.0000 (  5914 PWs)   bands (ev):

   -13.0941 -13.0939 -13.0319 -12.9445 -12.9039 -12.8680 -12.7916 -12.7504
   -12.6920 -12.6889  -0.4651   3.5135   6.4485   6.9474  10.1222  10.6727
    12.8131  13.8099

     occupation numbers 
     1.0000   1.0000   1.0000   1.0000   1.0000   1.0000   1.0000   1.0000
     1.0000   1.0000   1.0000   1.0000   1.0000   1.0000   0.0000   0.0000
     0.0000   0.0000

          k =-0.2121-0.4950 0.6364 (  5910 PWs)   bands (ev):

   -13.1080 -13.0990 -13.0064 -12.9281 -12.8926 -12.8773 -12.8102 -12.7776
   -12.6834 -12.6742   0.0142   2.7381   5.9816   6.7286  10.3183  11.2746
    12.5843  14.1130

     occupation numbers 
     1.0000   1.0000   1.0000   1.0000   1.0000   1.0000   1.0000   1.0000
     1.0000   1.0000   1.0000   1.0000   1.0000   1.0000   0.0000   0.0000
     0.0000   0.0000

          k =-0.1414-0.4243 0.5657 (  5909 PWs)   bands (ev):

   -13.1161 -13.1017 -12.9871 -12.9150 -12.8955 -12.8704 -12.8287 -12.7963
   -12.6794 -12.6651   0.4102   2.1963   5.6776   6.6890  10.3467  11.9274
    12.9671  13.8886

     occupation numbers 
     1.0000   1.0000   1.0000   1.0000   1.0000   1.0000   1.0000   1.0000
     1.0000   1.0000   1.0000   1.0000   1.0000   1.0000   0.0000   0.0000
     0.0000   0.0000

          k =-0.0707-0.3536 0.4950 (  5900 PWs)   bands (ev):

   -13.1158 -13.1018 -12.9857 -12.9230 -12.8986 -12.8593 -12.8275 -12.7994
   -12.6786 -12.6660   0.2833   2.3619   5.6050   6.8562  10.4447  11.9285
    13.0530  13.8526

     occupation numbers 
     1.0000   1.0000   1.0000   1.0000   1.0000   1.0000   1.0000   1.0000
     1.0000   1.0000   1.0000   1.0000   1.0000   1.0000   0.0000   0.0000
     0.0000   0.0000

          k = 0.0000-0.2828 0.4243 (  5911 PWs)   bands (ev):

   -13.1070 -13.0987 -13.0025 -12.9425 -12.9094 -12.8495 -12.7989 -12.7905
   -12.6817 -12.6771  -0.1874   3.0181   5.8506   7.1683  10.5126  11.5512
    12.4590  13.5518

     occupation numbers 
     1.0000   1.0000   1.0000   1.0000   1.0000   1.0000   1.0000   1.0000
     1.0000   1.0000   1.0000   1.0000   1.0000   1.0000   0.0000   0.0000
     0.0000   0.0000

          k =-0.1414-0.5657 0.7071 (  5915 PWs)   bands (ev):

   -13.1040 -13.1030 -13.0058 -12.9199 -12.9085 -12.8569 -12.8270 -12.7741
   -12.6782 -12.6779   0.3188   2.3577   6.1322   6.3773   9.9435  10.3503
    13.7944  15.0951

     occupation numbers 
     1.0000   1.0000   1.0000   1.0000   1.0000   1.0000   1.0000   1.0000
     1.0000   1.0000   1.0000   1.0000   1.0000   1.0000   0.0000   0.0000
     0.0000   0.0000

          k =-0.0707-0.4950 0.6364 (  5902 PWs)   bands (ev):

   -13.1151 -13.1056 -12.9776 -12.9233 -12.8906 -12.8527 -12.8473 -12.8019
   -12.6748 -12.6653   0.7980   1.8022   5.7117   6.3130  10.1731  11.2285
    13.4958  14.5784

     occupation numbers 
     1.0000   1.0000   1.0000   1.0000   1.0000   1.0000   1.0000   1.0000
     1.0000   1.0000   1.0000   1.0000   1.0000   1.0000   0.0000   0.0000
     0.0000   0.0000

          k =-0.0000-0.4243 0.5657 (  5895 PWs)   bands (ev):

   -13.1200 -13.1053 -12.9725 -12.8949 -12.8926 -12.8732 -12.8539 -12.8066
   -12.6748 -12.6605   0.7530   1.8595   5.4536   6.5070  10.3252  12.5448
    13.2689  13.3243

     occupation numbers 
     1.0000   1.0000   1.0000   1.0000   1.0000   1.0000   1.0000   1.0000
     1.0000   1.0000   1.0000   1.0000   1.0000   1.0000   0.0000   0.0000
     0.0000   0.0000

          k =-0.7071 0.1414 0.0000 (  5912 PWs)   bands (ev):

   -13.1071 -13.1071 -12.9674 -12.9674 -12.8677 -12.8676 -12.8117 -12.8116
   -12.6731 -12.6731   1.2749   1.2749   6.1032   6.1032  10.0280  10.0280
    14.9674  14.9674

     occupation numbers 
     1.0000   1.0000   1.0000   1.0000   1.0000   1.0000   1.0000   1.0000
     1.0000   1.0000   1.0000   1.0000   1.0000   1.0000   0.0000   0.0000
     0.0000   0.0000

          k =-0.1414-0.4243 0.7071 (  5901 PWs)   bands (ev):

   -13.1146 -13.1077 -12.9769 -12.9100 -12.8960 -12.8722 -12.8339 -12.8043
   -12.6727 -12.6665   0.5026   2.1521   5.6627   6.3597  11.2241  11.3411
    12.3210  14.3351

     occupation numbers 
     1.0000   1.0000   1.0000   1.0000   1.0000   1.0000   1.0000   1.0000
     1.0000   1.0000   1.0000   1.0000   1.0000   1.0000   0.0000   0.0000
     0.0000   0.0000

          k =-0.0707-0.3536 0.6364 (  5914 PWs)   bands (ev):

   -13.1183 -13.1099 -12.9612 -12.9053 -12.8928 -12.8677 -12.8501 -12.8164
   -12.6703 -12.6621   0.8289   1.7896   5.5703   6.1920  11.2610  11.8681
    12.8269  13.1357

     occupation numbers 
     1.0000   1.0000   1.0000   1.0000   1.0000   1.0000   1.0000   1.0000
     1.0000   1.0000   1.0000   1.0000   1.0000   1.0000   0.0000   0.0000
     0.0000   0.0000

          k =-0.7071 0.2828 0.0000 (  5900 PWs)   bands (ev):

   -13.1145 -13.1145 -12.9404 -12.9404 -12.8722 -12.8721 -12.8343 -12.8342
   -12.6656 -12.6656   1.3018   1.3019   5.8284   5.8284  11.3156  11.3156
    13.2006  13.2006

     occupation numbers 
     1.0000   1.0000   1.0000   1.0000   1.0000   1.0000   1.0000   1.0000
     1.0000   1.0000   1.0000   1.0000   1.0000   1.0000   0.0000   0.0000
     0.0000   0.0000

     the Fermi energy is     8.4904 ev

!    total energy              =    -241.29847600 Ry
     Harris-Foulkes estimate   =    -241.29847599 Ry
     estimated scf accuracy    <       0.00000005 Ry

     The total energy is the sum of the following terms:

     one-electron contribution =    -107.84397454 Ry
     hartree contribution      =      64.76603499 Ry
     xc contribution           =     -29.42540987 Ry
     ewald contribution        =    -168.79512611 Ry
     smearing contrib. (-TS)   =      -0.00000047 Ry

     convergence has been achieved in   5 iterations

     Writing output data file Sn.save
 
     init_run     :      0.93s CPU      1.05s WALL (       1 calls)
     electrons    :     17.59s CPU     18.60s WALL (       1 calls)

     Called by init_run:
     wfcinit      :      0.73s CPU      0.79s WALL (       1 calls)
     potinit      :      0.02s CPU      0.02s WALL (       1 calls)

     Called by electrons:
     c_bands      :     15.57s CPU     16.52s WALL (       6 calls)
     sum_band     :      1.96s CPU      1.99s WALL (       6 calls)
     v_of_rho     :      0.06s CPU      0.06s WALL (       6 calls)
     v_h          :      0.00s CPU      0.01s WALL (       6 calls)
     v_xc         :      0.05s CPU      0.06s WALL (       6 calls)
     mix_rho      :      0.01s CPU      0.01s WALL (       6 calls)

     Called by c_bands:
     init_us_2    :      0.07s CPU      0.08s WALL (     611 calls)
     cegterg      :     15.11s CPU     16.03s WALL (     282 calls)

     Called by sum_band:

     Called by *egterg:
     h_psi        :     13.01s CPU     13.93s WALL (    1176 calls)
     g_psi        :      0.03s CPU      0.03s WALL (     847 calls)
     cdiaghg      :      0.75s CPU      0.76s WALL (    1082 calls)
     cegterg:over :      0.97s CPU      0.99s WALL (     847 calls)
     cegterg:upda :      0.14s CPU      0.14s WALL (     847 calls)
     cegterg:last :      0.09s CPU      0.09s WALL (     353 calls)

     Called by h_psi:
     h_psi:vloc   :     12.32s CPU     13.21s WALL (    1176 calls)
     h_psi:vnl    :      0.67s CPU      0.70s WALL (    1176 calls)
     add_vuspsi   :      0.16s CPU      0.16s WALL (    1176 calls)

     General routines
     calbec       :      0.50s CPU      0.53s WALL (    1176 calls)
     fft          :      0.05s CPU      0.06s WALL (      67 calls)
     fftw         :     13.56s CPU     14.44s WALL (   37978 calls)
     davcio       :      0.00s CPU      0.04s WALL (      47 calls)
 
     Parallel routines
     fft_scatter  :      8.90s CPU      9.47s WALL (   38045 calls)
 
     PWSCF        :    18.69s CPU        19.92s WALL

 
   This run was terminated on:   7:10:15  28Feb2020            

=------------------------------------------------------------------------------=
   JOB DONE.
=------------------------------------------------------------------------------=
