
     Program PWSCF v.5.4.0 starts on 27Feb2020 at 21:23:24 

     This program is part of the open-source Quantum ESPRESSO suite
     for quantum simulation of materials; please cite
         "P. Giannozzi et al., J. Phys.:Condens. Matter 21 395502 (2009);
          URL http://www.quantum-espresso.org", 
     in publications or presentations arising from this work. More details at
     http://www.quantum-espresso.org/quote

     Parallel version (MPI & OpenMP), running on      16 processor cores
     Number of MPI processes:                16
     Threads/MPI process:                     1
     R & G space division:  proc/nbgrp/npool/nimage =      16
     Waiting for input...
     Reading input from standard input
Warning: card &IONS ignored
Warning: card / ignored
Warning: card &CELL ignored
Warning: card / ignored

     Current dimensions of program PWSCF are:
     Max number of different atomic species (ntypx) = 10
     Max number of k-points (npk) =  40000
     Max angular momentum in pseudopotentials (lmaxx) =  3

     Subspace diagonalization in iterative solution of the eigenvalue problem:
     a serial algorithm will be used

 
     Parallelization info
     --------------------
     sticks:   dense  smooth     PW     G-vecs:    dense   smooth      PW
     Min         203     203     57                 7712     7712    1134
     Max         204     204     58                 7717     7717    1138
     Sum        3259    3259    913               123429   123429   18149
 

     Title: 
     Sn                                                                         


     bravais-lattice index     =            0
     lattice parameter (alat)  =       8.8993  a.u.
     unit-cell volume          =     498.3785 (a.u.)^3
     number of atoms/cell      =            2
     number of atomic types    =            1
     number of electrons       =        28.00
     number of Kohn-Sham states=           18
     kinetic-energy cutoff     =     150.0000  Ry
     charge density cutoff     =     600.0000  Ry
     convergence threshold     =      1.0E-06
     mixing beta               =       0.7000
     number of iterations used =            8  plain     mixing
     Exchange-correlation      = PBE ( 1  4  3  4 0 0)

     celldm(1)=   8.899346  celldm(2)=   0.000000  celldm(3)=   0.000000
     celldm(4)=   0.000000  celldm(5)=   0.000000  celldm(6)=   0.000000

     crystal axes: (cart. coord. in units of alat)
               a(1) = (   0.000000   0.707107   0.707107 )  
               a(2) = (   0.707107   0.000000   0.707107 )  
               a(3) = (   0.707107   0.707107   0.000000 )  

     reciprocal axes: (cart. coord. in units 2 pi/alat)
               b(1) = ( -0.707107  0.707107  0.707107 )  
               b(2) = (  0.707107 -0.707107  0.707107 )  
               b(3) = (  0.707107  0.707107 -0.707107 )  


     PseudoPot. # 1 for Sn read from file:
     ../PseudopotentialDatabase/Sn_ONCV_PBE_FR-1.1.upf
     MD5 check sum: 6dd2180f739ea5ae1610ead5e1628a0e
     Pseudo is Norm-conserving, Zval = 14.0
     Generated using ONCVPSP code by D. R. Hamann
     Using radial grid of  602 points,  6 beta functions with: 
                l(1) =   0
                l(2) =   0
                l(3) =   1
                l(4) =   1
                l(5) =   2
                l(6) =   2

     atomic species   valence    mass     pseudopotential
        Sn            14.00   118.71000     Sn( 1.00)

     48 Sym. Ops., with inversion, found (24 have fractional translation)


                                    s                        frac. trans.

      isym =  1     identity                                     

 cryst.   s( 1) = (     1          0          0      )
                  (     0          1          0      )
                  (     0          0          1      )

 cart.    s( 1) = (  1.0000000  0.0000000  0.0000000 )
                  (  0.0000000  1.0000000  0.0000000 )
                  (  0.0000000  0.0000000  1.0000000 )


      isym =  2     180 deg rotation - cart. axis [0,0,1]        

 cryst.   s( 2) = (     0          1         -1      )
                  (     1          0         -1      )
                  (     0          0         -1      )

 cart.    s( 2) = ( -1.0000000  0.0000000  0.0000000 )
                  (  0.0000000 -1.0000000  0.0000000 )
                  (  0.0000000  0.0000000  1.0000000 )


      isym =  3     180 deg rotation - cart. axis [0,1,0]        

 cryst.   s( 3) = (     0         -1          1      )
                  (     0         -1          0      )
                  (     1         -1          0      )

 cart.    s( 3) = ( -1.0000000  0.0000000  0.0000000 )
                  (  0.0000000  1.0000000  0.0000000 )
                  (  0.0000000  0.0000000 -1.0000000 )


      isym =  4     180 deg rotation - cart. axis [1,0,0]        

 cryst.   s( 4) = (    -1          0          0      )
                  (    -1          0          1      )
                  (    -1          1          0      )

 cart.    s( 4) = (  1.0000000  0.0000000  0.0000000 )
                  (  0.0000000 -1.0000000  0.0000000 )
                  (  0.0000000  0.0000000 -1.0000000 )


      isym =  5     180 deg rotation - cart. axis [1,1,0]        

 cryst.   s( 5) = (    -1          0          1      )    f =( -0.2500000 )
                  (     0         -1          1      )       ( -0.2500000 )
                  (     0          0          1      )       ( -0.2500000 )

 cart.    s( 5) = (  0.0000000  1.0000000  0.0000000 )    f =( -0.3535534 )
                  (  1.0000000  0.0000000  0.0000000 )       ( -0.3535534 )
                  (  0.0000000  0.0000000 -1.0000000 )       ( -0.3535534 )


      isym =  6     180 deg rotation - cart. axis [1,-1,0]       

 cryst.   s( 6) = (     0         -1          0      )    f =( -0.2500000 )
                  (    -1          0          0      )       ( -0.2500000 )
                  (     0          0         -1      )       ( -0.2500000 )

 cart.    s( 6) = (  0.0000000 -1.0000000  0.0000000 )    f =( -0.3535534 )
                  ( -1.0000000  0.0000000  0.0000000 )       ( -0.3535534 )
                  (  0.0000000  0.0000000 -1.0000000 )       ( -0.3535534 )


      isym =  7      90 deg rotation - cart. axis [0,0,-1]       

 cryst.   s( 7) = (     0          1          0      )    f =( -0.2500000 )
                  (     0          1         -1      )       ( -0.2500000 )
                  (    -1          1          0      )       ( -0.2500000 )

 cart.    s( 7) = (  0.0000000  1.0000000  0.0000000 )    f =( -0.3535534 )
                  ( -1.0000000  0.0000000  0.0000000 )       ( -0.3535534 )
                  (  0.0000000  0.0000000  1.0000000 )       ( -0.3535534 )


      isym =  8      90 deg rotation - cart. axis [0,0,1]        

 cryst.   s( 8) = (     1          0         -1      )    f =( -0.2500000 )
                  (     1          0          0      )       ( -0.2500000 )
                  (     1         -1          0      )       ( -0.2500000 )

 cart.    s( 8) = (  0.0000000 -1.0000000  0.0000000 )    f =( -0.3535534 )
                  (  1.0000000  0.0000000  0.0000000 )       ( -0.3535534 )
                  (  0.0000000  0.0000000  1.0000000 )       ( -0.3535534 )


      isym =  9     180 deg rotation - cart. axis [1,0,1]        

 cryst.   s( 9) = (    -1          1          0      )    f =( -0.2500000 )
                  (     0          1          0      )       ( -0.2500000 )
                  (     0          1         -1      )       ( -0.2500000 )

 cart.    s( 9) = (  0.0000000  0.0000000  1.0000000 )    f =( -0.3535534 )
                  (  0.0000000 -1.0000000  0.0000000 )       ( -0.3535534 )
                  (  1.0000000  0.0000000  0.0000000 )       ( -0.3535534 )


      isym = 10     180 deg rotation - cart. axis [-1,0,1]       

 cryst.   s(10) = (     0          0         -1      )    f =( -0.2500000 )
                  (     0         -1          0      )       ( -0.2500000 )
                  (    -1          0          0      )       ( -0.2500000 )

 cart.    s(10) = (  0.0000000  0.0000000 -1.0000000 )    f =( -0.3535534 )
                  (  0.0000000 -1.0000000  0.0000000 )       ( -0.3535534 )
                  ( -1.0000000  0.0000000  0.0000000 )       ( -0.3535534 )


      isym = 11      90 deg rotation - cart. axis [0,1,0]        

 cryst.   s(11) = (     0          0          1      )    f =( -0.2500000 )
                  (    -1          0          1      )       ( -0.2500000 )
                  (     0         -1          1      )       ( -0.2500000 )

 cart.    s(11) = (  0.0000000  0.0000000  1.0000000 )    f =( -0.3535534 )
                  (  0.0000000  1.0000000  0.0000000 )       ( -0.3535534 )
                  ( -1.0000000  0.0000000  0.0000000 )       ( -0.3535534 )


      isym = 12      90 deg rotation - cart. axis [0,-1,0]       

 cryst.   s(12) = (     1         -1          0      )    f =( -0.2500000 )
                  (     1          0         -1      )       ( -0.2500000 )
                  (     1          0          0      )       ( -0.2500000 )

 cart.    s(12) = (  0.0000000  0.0000000 -1.0000000 )    f =( -0.3535534 )
                  (  0.0000000  1.0000000  0.0000000 )       ( -0.3535534 )
                  (  1.0000000  0.0000000  0.0000000 )       ( -0.3535534 )


      isym = 13     180 deg rotation - cart. axis [0,1,1]        

 cryst.   s(13) = (     1          0          0      )    f =( -0.2500000 )
                  (     1         -1          0      )       ( -0.2500000 )
                  (     1          0         -1      )       ( -0.2500000 )

 cart.    s(13) = ( -1.0000000  0.0000000  0.0000000 )    f =( -0.3535534 )
                  (  0.0000000  0.0000000  1.0000000 )       ( -0.3535534 )
                  (  0.0000000  1.0000000  0.0000000 )       ( -0.3535534 )


      isym = 14     180 deg rotation - cart. axis [0,1,-1]       

 cryst.   s(14) = (    -1          0          0      )    f =( -0.2500000 )
                  (     0          0         -1      )       ( -0.2500000 )
                  (     0         -1          0      )       ( -0.2500000 )

 cart.    s(14) = ( -1.0000000  0.0000000  0.0000000 )    f =( -0.3535534 )
                  (  0.0000000  0.0000000 -1.0000000 )       ( -0.3535534 )
                  (  0.0000000 -1.0000000  0.0000000 )       ( -0.3535534 )


      isym = 15      90 deg rotation - cart. axis [-1,0,0]       

 cryst.   s(15) = (     0         -1          1      )    f =( -0.2500000 )
                  (     0          0          1      )       ( -0.2500000 )
                  (    -1          0          1      )       ( -0.2500000 )

 cart.    s(15) = (  1.0000000  0.0000000  0.0000000 )    f =( -0.3535534 )
                  (  0.0000000  0.0000000  1.0000000 )       ( -0.3535534 )
                  (  0.0000000 -1.0000000  0.0000000 )       ( -0.3535534 )


      isym = 16      90 deg rotation - cart. axis [1,0,0]        

 cryst.   s(16) = (     0          1         -1      )    f =( -0.2500000 )
                  (    -1          1          0      )       ( -0.2500000 )
                  (     0          1          0      )       ( -0.2500000 )

 cart.    s(16) = (  1.0000000  0.0000000  0.0000000 )    f =( -0.3535534 )
                  (  0.0000000  0.0000000 -1.0000000 )       ( -0.3535534 )
                  (  0.0000000  1.0000000  0.0000000 )       ( -0.3535534 )


      isym = 17     120 deg rotation - cart. axis [-1,-1,-1]     

 cryst.   s(17) = (     0          0          1      )
                  (     1          0          0      )
                  (     0          1          0      )

 cart.    s(17) = (  0.0000000  1.0000000  0.0000000 )
                  (  0.0000000  0.0000000  1.0000000 )
                  (  1.0000000  0.0000000  0.0000000 )


      isym = 18     120 deg rotation - cart. axis [-1,1,1]       

 cryst.   s(18) = (     1         -1          0      )
                  (     0         -1          1      )
                  (     0         -1          0      )

 cart.    s(18) = (  0.0000000 -1.0000000  0.0000000 )
                  (  0.0000000  0.0000000  1.0000000 )
                  ( -1.0000000  0.0000000  0.0000000 )


      isym = 19     120 deg rotation - cart. axis [1,1,-1]       

 cryst.   s(19) = (    -1          1          0      )
                  (    -1          0          0      )
                  (    -1          0          1      )

 cart.    s(19) = (  0.0000000  1.0000000  0.0000000 )
                  (  0.0000000  0.0000000 -1.0000000 )
                  ( -1.0000000  0.0000000  0.0000000 )


      isym = 20     120 deg rotation - cart. axis [1,-1,1]       

 cryst.   s(20) = (     0          0         -1      )
                  (     0          1         -1      )
                  (     1          0         -1      )

 cart.    s(20) = (  0.0000000 -1.0000000  0.0000000 )
                  (  0.0000000  0.0000000 -1.0000000 )
                  (  1.0000000  0.0000000  0.0000000 )


      isym = 21     120 deg rotation - cart. axis [1,1,1]        

 cryst.   s(21) = (     0          1          0      )
                  (     0          0          1      )
                  (     1          0          0      )

 cart.    s(21) = (  0.0000000  0.0000000  1.0000000 )
                  (  1.0000000  0.0000000  0.0000000 )
                  (  0.0000000  1.0000000  0.0000000 )


      isym = 22     120 deg rotation - cart. axis [-1,1,-1]      

 cryst.   s(22) = (    -1          0          1      )
                  (    -1          1          0      )
                  (    -1          0          0      )

 cart.    s(22) = (  0.0000000  0.0000000  1.0000000 )
                  ( -1.0000000  0.0000000  0.0000000 )
                  (  0.0000000 -1.0000000  0.0000000 )


      isym = 23     120 deg rotation - cart. axis [1,-1,-1]      

 cryst.   s(23) = (     1          0         -1      )
                  (     0          0         -1      )
                  (     0          1         -1      )

 cart.    s(23) = (  0.0000000  0.0000000 -1.0000000 )
                  ( -1.0000000  0.0000000  0.0000000 )
                  (  0.0000000  1.0000000  0.0000000 )


      isym = 24     120 deg rotation - cart. axis [-1,-1,1]      

 cryst.   s(24) = (     0         -1          0      )
                  (     1         -1          0      )
                  (     0         -1          1      )

 cart.    s(24) = (  0.0000000  0.0000000 -1.0000000 )
                  (  1.0000000  0.0000000  0.0000000 )
                  (  0.0000000 -1.0000000  0.0000000 )


      isym = 25     inversion                                    

 cryst.   s(25) = (    -1          0          0      )    f =( -0.2500000 )
                  (     0         -1          0      )       ( -0.2500000 )
                  (     0          0         -1      )       ( -0.2500000 )

 cart.    s(25) = ( -1.0000000  0.0000000  0.0000000 )    f =( -0.3535534 )
                  (  0.0000000 -1.0000000  0.0000000 )       ( -0.3535534 )
                  (  0.0000000  0.0000000 -1.0000000 )       ( -0.3535534 )


      isym = 26     inv. 180 deg rotation - cart. axis [0,0,1]   

 cryst.   s(26) = (     0         -1          1      )    f =( -0.2500000 )
                  (    -1          0          1      )       ( -0.2500000 )
                  (     0          0          1      )       ( -0.2500000 )

 cart.    s(26) = (  1.0000000  0.0000000  0.0000000 )    f =( -0.3535534 )
                  (  0.0000000  1.0000000  0.0000000 )       ( -0.3535534 )
                  (  0.0000000  0.0000000 -1.0000000 )       ( -0.3535534 )


      isym = 27     inv. 180 deg rotation - cart. axis [0,1,0]   

 cryst.   s(27) = (     0          1         -1      )    f =( -0.2500000 )
                  (     0          1          0      )       ( -0.2500000 )
                  (    -1          1          0      )       ( -0.2500000 )

 cart.    s(27) = (  1.0000000  0.0000000  0.0000000 )    f =( -0.3535534 )
                  (  0.0000000 -1.0000000  0.0000000 )       ( -0.3535534 )
                  (  0.0000000  0.0000000  1.0000000 )       ( -0.3535534 )


      isym = 28     inv. 180 deg rotation - cart. axis [1,0,0]   

 cryst.   s(28) = (     1          0          0      )    f =( -0.2500000 )
                  (     1          0         -1      )       ( -0.2500000 )
                  (     1         -1          0      )       ( -0.2500000 )

 cart.    s(28) = ( -1.0000000  0.0000000  0.0000000 )    f =( -0.3535534 )
                  (  0.0000000  1.0000000  0.0000000 )       ( -0.3535534 )
                  (  0.0000000  0.0000000  1.0000000 )       ( -0.3535534 )


      isym = 29     inv. 180 deg rotation - cart. axis [1,1,0]   

 cryst.   s(29) = (     1          0         -1      )
                  (     0          1         -1      )
                  (     0          0         -1      )

 cart.    s(29) = (  0.0000000 -1.0000000  0.0000000 )
                  ( -1.0000000  0.0000000  0.0000000 )
                  (  0.0000000  0.0000000  1.0000000 )


      isym = 30     inv. 180 deg rotation - cart. axis [1,-1,0]  

 cryst.   s(30) = (     0          1          0      )
                  (     1          0          0      )
                  (     0          0          1      )

 cart.    s(30) = (  0.0000000  1.0000000  0.0000000 )
                  (  1.0000000  0.0000000  0.0000000 )
                  (  0.0000000  0.0000000  1.0000000 )


      isym = 31     inv.  90 deg rotation - cart. axis [0,0,-1]  

 cryst.   s(31) = (     0         -1          0      )
                  (     0         -1          1      )
                  (     1         -1          0      )

 cart.    s(31) = (  0.0000000 -1.0000000  0.0000000 )
                  (  1.0000000  0.0000000  0.0000000 )
                  (  0.0000000  0.0000000 -1.0000000 )


      isym = 32     inv.  90 deg rotation - cart. axis [0,0,1]   

 cryst.   s(32) = (    -1          0          1      )
                  (    -1          0          0      )
                  (    -1          1          0      )

 cart.    s(32) = (  0.0000000  1.0000000  0.0000000 )
                  ( -1.0000000  0.0000000  0.0000000 )
                  (  0.0000000  0.0000000 -1.0000000 )


      isym = 33     inv. 180 deg rotation - cart. axis [1,0,1]   

 cryst.   s(33) = (     1         -1          0      )
                  (     0         -1          0      )
                  (     0         -1          1      )

 cart.    s(33) = (  0.0000000  0.0000000 -1.0000000 )
                  (  0.0000000  1.0000000  0.0000000 )
                  ( -1.0000000  0.0000000  0.0000000 )


      isym = 34     inv. 180 deg rotation - cart. axis [-1,0,1]  

 cryst.   s(34) = (     0          0          1      )
                  (     0          1          0      )
                  (     1          0          0      )

 cart.    s(34) = (  0.0000000  0.0000000  1.0000000 )
                  (  0.0000000  1.0000000  0.0000000 )
                  (  1.0000000  0.0000000  0.0000000 )


      isym = 35     inv.  90 deg rotation - cart. axis [0,1,0]   

 cryst.   s(35) = (     0          0         -1      )
                  (     1          0         -1      )
                  (     0          1         -1      )

 cart.    s(35) = (  0.0000000  0.0000000 -1.0000000 )
                  (  0.0000000 -1.0000000  0.0000000 )
                  (  1.0000000  0.0000000  0.0000000 )


      isym = 36     inv.  90 deg rotation - cart. axis [0,-1,0]  

 cryst.   s(36) = (    -1          1          0      )
                  (    -1          0          1      )
                  (    -1          0          0      )

 cart.    s(36) = (  0.0000000  0.0000000  1.0000000 )
                  (  0.0000000 -1.0000000  0.0000000 )
                  ( -1.0000000  0.0000000  0.0000000 )


      isym = 37     inv. 180 deg rotation - cart. axis [0,1,1]   

 cryst.   s(37) = (    -1          0          0      )
                  (    -1          1          0      )
                  (    -1          0          1      )

 cart.    s(37) = (  1.0000000  0.0000000  0.0000000 )
                  (  0.0000000  0.0000000 -1.0000000 )
                  (  0.0000000 -1.0000000  0.0000000 )


      isym = 38     inv. 180 deg rotation - cart. axis [0,1,-1]  

 cryst.   s(38) = (     1          0          0      )
                  (     0          0          1      )
                  (     0          1          0      )

 cart.    s(38) = (  1.0000000  0.0000000  0.0000000 )
                  (  0.0000000  0.0000000  1.0000000 )
                  (  0.0000000  1.0000000  0.0000000 )


      isym = 39     inv.  90 deg rotation - cart. axis [-1,0,0]  

 cryst.   s(39) = (     0          1         -1      )
                  (     0          0         -1      )
                  (     1          0         -1      )

 cart.    s(39) = ( -1.0000000  0.0000000  0.0000000 )
                  (  0.0000000  0.0000000 -1.0000000 )
                  (  0.0000000  1.0000000  0.0000000 )


      isym = 40     inv.  90 deg rotation - cart. axis [1,0,0]   

 cryst.   s(40) = (     0         -1          1      )
                  (     1         -1          0      )
                  (     0         -1          0      )

 cart.    s(40) = ( -1.0000000  0.0000000  0.0000000 )
                  (  0.0000000  0.0000000  1.0000000 )
                  (  0.0000000 -1.0000000  0.0000000 )


      isym = 41     inv. 120 deg rotation - cart. axis [-1,-1,-1]

 cryst.   s(41) = (     0          0         -1      )    f =( -0.2500000 )
                  (    -1          0          0      )       ( -0.2500000 )
                  (     0         -1          0      )       ( -0.2500000 )

 cart.    s(41) = (  0.0000000 -1.0000000  0.0000000 )    f =( -0.3535534 )
                  (  0.0000000  0.0000000 -1.0000000 )       ( -0.3535534 )
                  ( -1.0000000  0.0000000  0.0000000 )       ( -0.3535534 )


      isym = 42     inv. 120 deg rotation - cart. axis [-1,1,1]  

 cryst.   s(42) = (    -1          1          0      )    f =( -0.2500000 )
                  (     0          1         -1      )       ( -0.2500000 )
                  (     0          1          0      )       ( -0.2500000 )

 cart.    s(42) = (  0.0000000  1.0000000  0.0000000 )    f =( -0.3535534 )
                  (  0.0000000  0.0000000 -1.0000000 )       ( -0.3535534 )
                  (  1.0000000  0.0000000  0.0000000 )       ( -0.3535534 )


      isym = 43     inv. 120 deg rotation - cart. axis [1,1,-1]  

 cryst.   s(43) = (     1         -1          0      )    f =( -0.2500000 )
                  (     1          0          0      )       ( -0.2500000 )
                  (     1          0         -1      )       ( -0.2500000 )

 cart.    s(43) = (  0.0000000 -1.0000000  0.0000000 )    f =( -0.3535534 )
                  (  0.0000000  0.0000000  1.0000000 )       ( -0.3535534 )
                  (  1.0000000  0.0000000  0.0000000 )       ( -0.3535534 )


      isym = 44     inv. 120 deg rotation - cart. axis [1,-1,1]  

 cryst.   s(44) = (     0          0          1      )    f =( -0.2500000 )
                  (     0         -1          1      )       ( -0.2500000 )
                  (    -1          0          1      )       ( -0.2500000 )

 cart.    s(44) = (  0.0000000  1.0000000  0.0000000 )    f =( -0.3535534 )
                  (  0.0000000  0.0000000  1.0000000 )       ( -0.3535534 )
                  ( -1.0000000  0.0000000  0.0000000 )       ( -0.3535534 )


      isym = 45     inv. 120 deg rotation - cart. axis [1,1,1]   

 cryst.   s(45) = (     0         -1          0      )    f =( -0.2500000 )
                  (     0          0         -1      )       ( -0.2500000 )
                  (    -1          0          0      )       ( -0.2500000 )

 cart.    s(45) = (  0.0000000  0.0000000 -1.0000000 )    f =( -0.3535534 )
                  ( -1.0000000  0.0000000  0.0000000 )       ( -0.3535534 )
                  (  0.0000000 -1.0000000  0.0000000 )       ( -0.3535534 )


      isym = 46     inv. 120 deg rotation - cart. axis [-1,1,-1] 

 cryst.   s(46) = (     1          0         -1      )    f =( -0.2500000 )
                  (     1         -1          0      )       ( -0.2500000 )
                  (     1          0          0      )       ( -0.2500000 )

 cart.    s(46) = (  0.0000000  0.0000000 -1.0000000 )    f =( -0.3535534 )
                  (  1.0000000  0.0000000  0.0000000 )       ( -0.3535534 )
                  (  0.0000000  1.0000000  0.0000000 )       ( -0.3535534 )


      isym = 47     inv. 120 deg rotation - cart. axis [1,-1,-1] 

 cryst.   s(47) = (    -1          0          1      )    f =( -0.2500000 )
                  (     0          0          1      )       ( -0.2500000 )
                  (     0         -1          1      )       ( -0.2500000 )

 cart.    s(47) = (  0.0000000  0.0000000  1.0000000 )    f =( -0.3535534 )
                  (  1.0000000  0.0000000  0.0000000 )       ( -0.3535534 )
                  (  0.0000000 -1.0000000  0.0000000 )       ( -0.3535534 )


      isym = 48     inv. 120 deg rotation - cart. axis [-1,-1,1] 

 cryst.   s(48) = (     0          1          0      )    f =( -0.2500000 )
                  (    -1          1          0      )       ( -0.2500000 )
                  (     0          1         -1      )       ( -0.2500000 )

 cart.    s(48) = (  0.0000000  0.0000000  1.0000000 )    f =( -0.3535534 )
                  ( -1.0000000  0.0000000  0.0000000 )       ( -0.3535534 )
                  (  0.0000000  1.0000000  0.0000000 )       ( -0.3535534 )


   Cartesian axes

     site n.     atom                  positions (alat units)
         1           Sn  tau(   1) = (   0.0000000   0.0000000   0.0000000  )
         2           Sn  tau(   2) = (   0.3535534   0.3535534   0.3535534  )

   Crystallographic axes

     site n.     atom                  positions (cryst. coord.)
         1           Sn  tau(   1) = (  0.0000000  0.0000000  0.0000000  )
         2           Sn  tau(   2) = (  0.2500000  0.2500000  0.2500000  )

     number of k points=  1661  gaussian smearing, width (Ry)=  0.0001
                       cart. coord. in units 2pi/alat
        k(    1) = (   0.0000000   0.0000000   0.0000000), wk =   0.0000312
        k(    2) = (   0.0176777   0.0176777  -0.0176777), wk =   0.0002500
        k(    3) = (   0.0353553   0.0353553  -0.0353553), wk =   0.0002500
        k(    4) = (   0.0530330   0.0530330  -0.0530330), wk =   0.0002500
        k(    5) = (   0.0707107   0.0707107  -0.0707107), wk =   0.0002500
        k(    6) = (   0.0883883   0.0883883  -0.0883883), wk =   0.0002500
        k(    7) = (   0.1060660   0.1060660  -0.1060660), wk =   0.0002500
        k(    8) = (   0.1237437   0.1237437  -0.1237437), wk =   0.0002500
        k(    9) = (   0.1414214   0.1414214  -0.1414214), wk =   0.0002500
        k(   10) = (   0.1590990   0.1590990  -0.1590990), wk =   0.0002500
        k(   11) = (   0.1767767   0.1767767  -0.1767767), wk =   0.0002500
        k(   12) = (   0.1944544   0.1944544  -0.1944544), wk =   0.0002500
        k(   13) = (   0.2121320   0.2121320  -0.2121320), wk =   0.0002500
        k(   14) = (   0.2298097   0.2298097  -0.2298097), wk =   0.0002500
        k(   15) = (   0.2474874   0.2474874  -0.2474874), wk =   0.0002500
        k(   16) = (   0.2651650   0.2651650  -0.2651650), wk =   0.0002500
        k(   17) = (   0.2828427   0.2828427  -0.2828427), wk =   0.0002500
        k(   18) = (   0.3005204   0.3005204  -0.3005204), wk =   0.0002500
        k(   19) = (   0.3181981   0.3181981  -0.3181981), wk =   0.0002500
        k(   20) = (   0.3358757   0.3358757  -0.3358757), wk =   0.0002500
        k(   21) = (  -0.3535534  -0.3535534   0.3535534), wk =   0.0001250
        k(   22) = (   0.0353553   0.0000000   0.0000000), wk =   0.0001875
        k(   23) = (   0.0530330   0.0176777  -0.0176777), wk =   0.0007500
        k(   24) = (   0.0707107   0.0353553  -0.0353553), wk =   0.0007500
        k(   25) = (   0.0883883   0.0530330  -0.0530330), wk =   0.0007500
        k(   26) = (   0.1060660   0.0707107  -0.0707107), wk =   0.0007500
        k(   27) = (   0.1237437   0.0883883  -0.0883883), wk =   0.0007500
        k(   28) = (   0.1414214   0.1060660  -0.1060660), wk =   0.0007500
        k(   29) = (   0.1590990   0.1237437  -0.1237437), wk =   0.0007500
        k(   30) = (   0.1767767   0.1414214  -0.1414214), wk =   0.0007500
        k(   31) = (   0.1944544   0.1590990  -0.1590990), wk =   0.0007500
        k(   32) = (   0.2121320   0.1767767  -0.1767767), wk =   0.0007500
        k(   33) = (   0.2298097   0.1944544  -0.1944544), wk =   0.0007500
        k(   34) = (   0.2474874   0.2121320  -0.2121320), wk =   0.0007500
        k(   35) = (   0.2651650   0.2298097  -0.2298097), wk =   0.0007500
        k(   36) = (   0.2828427   0.2474874  -0.2474874), wk =   0.0007500
        k(   37) = (   0.3005204   0.2651650  -0.2651650), wk =   0.0007500
        k(   38) = (   0.3181981   0.2828427  -0.2828427), wk =   0.0007500
        k(   39) = (   0.3358757   0.3005204  -0.3005204), wk =   0.0007500
        k(   40) = (   0.3535534   0.3181981  -0.3181981), wk =   0.0007500
        k(   41) = (  -0.3358757  -0.3712311   0.3712311), wk =   0.0007500
        k(   42) = (  -0.3181981  -0.3535534   0.3535534), wk =   0.0007500
        k(   43) = (  -0.3005204  -0.3358757   0.3358757), wk =   0.0007500
        k(   44) = (  -0.2828427  -0.3181981   0.3181981), wk =   0.0007500
        k(   45) = (  -0.2651650  -0.3005204   0.3005204), wk =   0.0007500
        k(   46) = (  -0.2474874  -0.2828427   0.2828427), wk =   0.0007500
        k(   47) = (  -0.2298097  -0.2651650   0.2651650), wk =   0.0007500
        k(   48) = (  -0.2121320  -0.2474874   0.2474874), wk =   0.0007500
        k(   49) = (  -0.1944544  -0.2298097   0.2298097), wk =   0.0007500
        k(   50) = (  -0.1767767  -0.2121320   0.2121320), wk =   0.0007500
        k(   51) = (  -0.1590990  -0.1944544   0.1944544), wk =   0.0007500
        k(   52) = (  -0.1414214  -0.1767767   0.1767767), wk =   0.0007500
        k(   53) = (  -0.1237437  -0.1590990   0.1590990), wk =   0.0007500
        k(   54) = (  -0.1060660  -0.1414214   0.1414214), wk =   0.0007500
        k(   55) = (  -0.0883883  -0.1237437   0.1237437), wk =   0.0007500
        k(   56) = (  -0.0707107  -0.1060660   0.1060660), wk =   0.0007500
        k(   57) = (  -0.0530330  -0.0883883   0.0883883), wk =   0.0007500
        k(   58) = (  -0.0353553  -0.0707107   0.0707107), wk =   0.0007500
        k(   59) = (  -0.0176777  -0.0530330   0.0530330), wk =   0.0007500
        k(   60) = (  -0.0000000  -0.0353553   0.0353553), wk =   0.0003750
        k(   61) = (   0.0707107   0.0000000   0.0000000), wk =   0.0001875
        k(   62) = (   0.0883883   0.0176777  -0.0176777), wk =   0.0007500
        k(   63) = (   0.1060660   0.0353553  -0.0353553), wk =   0.0007500
        k(   64) = (   0.1237437   0.0530330  -0.0530330), wk =   0.0007500
        k(   65) = (   0.1414214   0.0707107  -0.0707107), wk =   0.0007500
        k(   66) = (   0.1590990   0.0883883  -0.0883883), wk =   0.0007500
        k(   67) = (   0.1767767   0.1060660  -0.1060660), wk =   0.0007500
        k(   68) = (   0.1944544   0.1237437  -0.1237437), wk =   0.0007500
        k(   69) = (   0.2121320   0.1414214  -0.1414214), wk =   0.0007500
        k(   70) = (   0.2298097   0.1590990  -0.1590990), wk =   0.0007500
        k(   71) = (   0.2474874   0.1767767  -0.1767767), wk =   0.0007500
        k(   72) = (   0.2651650   0.1944544  -0.1944544), wk =   0.0007500
        k(   73) = (   0.2828427   0.2121320  -0.2121320), wk =   0.0007500
        k(   74) = (   0.3005204   0.2298097  -0.2298097), wk =   0.0007500
        k(   75) = (   0.3181981   0.2474874  -0.2474874), wk =   0.0007500
        k(   76) = (   0.3358757   0.2651650  -0.2651650), wk =   0.0007500
        k(   77) = (   0.3535534   0.2828427  -0.2828427), wk =   0.0007500
        k(   78) = (   0.3712311   0.3005204  -0.3005204), wk =   0.0007500
        k(   79) = (  -0.3181981  -0.3889087   0.3889087), wk =   0.0007500
        k(   80) = (  -0.3005204  -0.3712311   0.3712311), wk =   0.0007500
        k(   81) = (  -0.2828427  -0.3535534   0.3535534), wk =   0.0007500
        k(   82) = (  -0.2651650  -0.3358757   0.3358757), wk =   0.0007500
        k(   83) = (  -0.2474874  -0.3181981   0.3181981), wk =   0.0007500
        k(   84) = (  -0.2298097  -0.3005204   0.3005204), wk =   0.0007500
        k(   85) = (  -0.2121320  -0.2828427   0.2828427), wk =   0.0007500
        k(   86) = (  -0.1944544  -0.2651650   0.2651650), wk =   0.0007500
        k(   87) = (  -0.1767767  -0.2474874   0.2474874), wk =   0.0007500
        k(   88) = (  -0.1590990  -0.2298097   0.2298097), wk =   0.0007500
        k(   89) = (  -0.1414214  -0.2121320   0.2121320), wk =   0.0007500
        k(   90) = (  -0.1237437  -0.1944544   0.1944544), wk =   0.0007500
        k(   91) = (  -0.1060660  -0.1767767   0.1767767), wk =   0.0007500
        k(   92) = (  -0.0883883  -0.1590990   0.1590990), wk =   0.0007500
        k(   93) = (  -0.0707107  -0.1414214   0.1414214), wk =   0.0007500
        k(   94) = (  -0.0530330  -0.1237437   0.1237437), wk =   0.0007500
        k(   95) = (  -0.0353553  -0.1060660   0.1060660), wk =   0.0007500
        k(   96) = (  -0.0176777  -0.0883883   0.0883883), wk =   0.0007500
        k(   97) = (  -0.0000000  -0.0707107   0.0707107), wk =   0.0003750
        k(   98) = (   0.1060660   0.0000000   0.0000000), wk =   0.0001875
        k(   99) = (   0.1237437   0.0176777  -0.0176777), wk =   0.0007500
        k(  100) = (   0.1414214   0.0353553  -0.0353553), wk =   0.0007500
        k(  101) = (   0.1590990   0.0530330  -0.0530330), wk =   0.0007500
        k(  102) = (   0.1767767   0.0707107  -0.0707107), wk =   0.0007500
        k(  103) = (   0.1944544   0.0883883  -0.0883883), wk =   0.0007500
        k(  104) = (   0.2121320   0.1060660  -0.1060660), wk =   0.0007500
        k(  105) = (   0.2298097   0.1237437  -0.1237437), wk =   0.0007500
        k(  106) = (   0.2474874   0.1414214  -0.1414214), wk =   0.0007500
        k(  107) = (   0.2651650   0.1590990  -0.1590990), wk =   0.0007500
        k(  108) = (   0.2828427   0.1767767  -0.1767767), wk =   0.0007500
        k(  109) = (   0.3005204   0.1944544  -0.1944544), wk =   0.0007500
        k(  110) = (   0.3181981   0.2121320  -0.2121320), wk =   0.0007500
        k(  111) = (   0.3358757   0.2298097  -0.2298097), wk =   0.0007500
        k(  112) = (   0.3535534   0.2474874  -0.2474874), wk =   0.0007500
        k(  113) = (   0.3712311   0.2651650  -0.2651650), wk =   0.0007500
        k(  114) = (   0.3889087   0.2828427  -0.2828427), wk =   0.0007500
        k(  115) = (  -0.3005204  -0.4065864   0.4065864), wk =   0.0007500
        k(  116) = (  -0.2828427  -0.3889087   0.3889087), wk =   0.0007500
        k(  117) = (  -0.2651650  -0.3712311   0.3712311), wk =   0.0007500
        k(  118) = (  -0.2474874  -0.3535534   0.3535534), wk =   0.0007500
        k(  119) = (  -0.2298097  -0.3358757   0.3358757), wk =   0.0007500
        k(  120) = (  -0.2121320  -0.3181981   0.3181981), wk =   0.0007500
        k(  121) = (  -0.1944544  -0.3005204   0.3005204), wk =   0.0007500
        k(  122) = (  -0.1767767  -0.2828427   0.2828427), wk =   0.0007500
        k(  123) = (  -0.1590990  -0.2651650   0.2651650), wk =   0.0007500
        k(  124) = (  -0.1414214  -0.2474874   0.2474874), wk =   0.0007500
        k(  125) = (  -0.1237437  -0.2298097   0.2298097), wk =   0.0007500
        k(  126) = (  -0.1060660  -0.2121320   0.2121320), wk =   0.0007500
        k(  127) = (  -0.0883883  -0.1944544   0.1944544), wk =   0.0007500
        k(  128) = (  -0.0707107  -0.1767767   0.1767767), wk =   0.0007500
        k(  129) = (  -0.0530330  -0.1590990   0.1590990), wk =   0.0007500
        k(  130) = (  -0.0353553  -0.1414214   0.1414214), wk =   0.0007500
        k(  131) = (  -0.0176777  -0.1237437   0.1237437), wk =   0.0007500
        k(  132) = (   0.0000000  -0.1060660   0.1060660), wk =   0.0003750
        k(  133) = (   0.1414214   0.0000000   0.0000000), wk =   0.0001875
        k(  134) = (   0.1590990   0.0176777  -0.0176777), wk =   0.0007500
        k(  135) = (   0.1767767   0.0353553  -0.0353553), wk =   0.0007500
        k(  136) = (   0.1944544   0.0530330  -0.0530330), wk =   0.0007500
        k(  137) = (   0.2121320   0.0707107  -0.0707107), wk =   0.0007500
        k(  138) = (   0.2298097   0.0883883  -0.0883883), wk =   0.0007500
        k(  139) = (   0.2474874   0.1060660  -0.1060660), wk =   0.0007500
        k(  140) = (   0.2651650   0.1237437  -0.1237437), wk =   0.0007500
        k(  141) = (   0.2828427   0.1414214  -0.1414214), wk =   0.0007500
        k(  142) = (   0.3005204   0.1590990  -0.1590990), wk =   0.0007500
        k(  143) = (   0.3181981   0.1767767  -0.1767767), wk =   0.0007500
        k(  144) = (   0.3358757   0.1944544  -0.1944544), wk =   0.0007500
        k(  145) = (   0.3535534   0.2121320  -0.2121320), wk =   0.0007500
        k(  146) = (   0.3712311   0.2298097  -0.2298097), wk =   0.0007500
        k(  147) = (   0.3889087   0.2474874  -0.2474874), wk =   0.0007500
        k(  148) = (   0.4065864   0.2651650  -0.2651650), wk =   0.0007500
        k(  149) = (  -0.2828427  -0.4242641   0.4242641), wk =   0.0007500
        k(  150) = (  -0.2651650  -0.4065864   0.4065864), wk =   0.0007500
        k(  151) = (  -0.2474874  -0.3889087   0.3889087), wk =   0.0007500
        k(  152) = (  -0.2298097  -0.3712311   0.3712311), wk =   0.0007500
        k(  153) = (  -0.2121320  -0.3535534   0.3535534), wk =   0.0007500
        k(  154) = (  -0.1944544  -0.3358757   0.3358757), wk =   0.0007500
        k(  155) = (  -0.1767767  -0.3181981   0.3181981), wk =   0.0007500
        k(  156) = (  -0.1590990  -0.3005204   0.3005204), wk =   0.0007500
        k(  157) = (  -0.1414214  -0.2828427   0.2828427), wk =   0.0007500
        k(  158) = (  -0.1237437  -0.2651650   0.2651650), wk =   0.0007500
        k(  159) = (  -0.1060660  -0.2474874   0.2474874), wk =   0.0007500
        k(  160) = (  -0.0883883  -0.2298097   0.2298097), wk =   0.0007500
        k(  161) = (  -0.0707107  -0.2121320   0.2121320), wk =   0.0007500
        k(  162) = (  -0.0530330  -0.1944544   0.1944544), wk =   0.0007500
        k(  163) = (  -0.0353553  -0.1767767   0.1767767), wk =   0.0007500
        k(  164) = (  -0.0176777  -0.1590990   0.1590990), wk =   0.0007500
        k(  165) = (   0.0000000  -0.1414214   0.1414214), wk =   0.0003750
        k(  166) = (   0.1767767   0.0000000   0.0000000), wk =   0.0001875
        k(  167) = (   0.1944544   0.0176777  -0.0176777), wk =   0.0007500
        k(  168) = (   0.2121320   0.0353553  -0.0353553), wk =   0.0007500
        k(  169) = (   0.2298097   0.0530330  -0.0530330), wk =   0.0007500
        k(  170) = (   0.2474874   0.0707107  -0.0707107), wk =   0.0007500
        k(  171) = (   0.2651650   0.0883883  -0.0883883), wk =   0.0007500
        k(  172) = (   0.2828427   0.1060660  -0.1060660), wk =   0.0007500
        k(  173) = (   0.3005204   0.1237437  -0.1237437), wk =   0.0007500
        k(  174) = (   0.3181981   0.1414214  -0.1414214), wk =   0.0007500
        k(  175) = (   0.3358757   0.1590990  -0.1590990), wk =   0.0007500
        k(  176) = (   0.3535534   0.1767767  -0.1767767), wk =   0.0007500
        k(  177) = (   0.3712311   0.1944544  -0.1944544), wk =   0.0007500
        k(  178) = (   0.3889087   0.2121320  -0.2121320), wk =   0.0007500
        k(  179) = (   0.4065864   0.2298097  -0.2298097), wk =   0.0007500
        k(  180) = (   0.4242641   0.2474874  -0.2474874), wk =   0.0007500
        k(  181) = (  -0.2651650  -0.4419417   0.4419417), wk =   0.0007500
        k(  182) = (  -0.2474874  -0.4242641   0.4242641), wk =   0.0007500
        k(  183) = (  -0.2298097  -0.4065864   0.4065864), wk =   0.0007500
        k(  184) = (  -0.2121320  -0.3889087   0.3889087), wk =   0.0007500
        k(  185) = (  -0.1944544  -0.3712311   0.3712311), wk =   0.0007500
        k(  186) = (  -0.1767767  -0.3535534   0.3535534), wk =   0.0007500
        k(  187) = (  -0.1590990  -0.3358757   0.3358757), wk =   0.0007500
        k(  188) = (  -0.1414214  -0.3181981   0.3181981), wk =   0.0007500
        k(  189) = (  -0.1237437  -0.3005204   0.3005204), wk =   0.0007500
        k(  190) = (  -0.1060660  -0.2828427   0.2828427), wk =   0.0007500
        k(  191) = (  -0.0883883  -0.2651650   0.2651650), wk =   0.0007500
        k(  192) = (  -0.0707107  -0.2474874   0.2474874), wk =   0.0007500
        k(  193) = (  -0.0530330  -0.2298097   0.2298097), wk =   0.0007500
        k(  194) = (  -0.0353553  -0.2121320   0.2121320), wk =   0.0007500
        k(  195) = (  -0.0176777  -0.1944544   0.1944544), wk =   0.0007500
        k(  196) = (   0.0000000  -0.1767767   0.1767767), wk =   0.0003750
        k(  197) = (   0.2121320   0.0000000   0.0000000), wk =   0.0001875
        k(  198) = (   0.2298097   0.0176777  -0.0176777), wk =   0.0007500
        k(  199) = (   0.2474874   0.0353553  -0.0353553), wk =   0.0007500
        k(  200) = (   0.2651650   0.0530330  -0.0530330), wk =   0.0007500
        k(  201) = (   0.2828427   0.0707107  -0.0707107), wk =   0.0007500
        k(  202) = (   0.3005204   0.0883883  -0.0883883), wk =   0.0007500
        k(  203) = (   0.3181981   0.1060660  -0.1060660), wk =   0.0007500
        k(  204) = (   0.3358757   0.1237437  -0.1237437), wk =   0.0007500
        k(  205) = (   0.3535534   0.1414214  -0.1414214), wk =   0.0007500
        k(  206) = (   0.3712311   0.1590990  -0.1590990), wk =   0.0007500
        k(  207) = (   0.3889087   0.1767767  -0.1767767), wk =   0.0007500
        k(  208) = (   0.4065864   0.1944544  -0.1944544), wk =   0.0007500
        k(  209) = (   0.4242641   0.2121320  -0.2121320), wk =   0.0007500
        k(  210) = (   0.4419417   0.2298097  -0.2298097), wk =   0.0007500
        k(  211) = (  -0.2474874  -0.4596194   0.4596194), wk =   0.0007500
        k(  212) = (  -0.2298097  -0.4419417   0.4419417), wk =   0.0007500
        k(  213) = (  -0.2121320  -0.4242641   0.4242641), wk =   0.0007500
        k(  214) = (  -0.1944544  -0.4065864   0.4065864), wk =   0.0007500
        k(  215) = (  -0.1767767  -0.3889087   0.3889087), wk =   0.0007500
        k(  216) = (  -0.1590990  -0.3712311   0.3712311), wk =   0.0007500
        k(  217) = (  -0.1414214  -0.3535534   0.3535534), wk =   0.0007500
        k(  218) = (  -0.1237437  -0.3358757   0.3358757), wk =   0.0007500
        k(  219) = (  -0.1060660  -0.3181981   0.3181981), wk =   0.0007500
        k(  220) = (  -0.0883883  -0.3005204   0.3005204), wk =   0.0007500
        k(  221) = (  -0.0707107  -0.2828427   0.2828427), wk =   0.0007500
        k(  222) = (  -0.0530330  -0.2651650   0.2651650), wk =   0.0007500
        k(  223) = (  -0.0353553  -0.2474874   0.2474874), wk =   0.0007500
        k(  224) = (  -0.0176777  -0.2298097   0.2298097), wk =   0.0007500
        k(  225) = (  -0.0000000  -0.2121320   0.2121320), wk =   0.0003750
        k(  226) = (   0.2474874   0.0000000   0.0000000), wk =   0.0001875
        k(  227) = (   0.2651650   0.0176777  -0.0176777), wk =   0.0007500
        k(  228) = (   0.2828427   0.0353553  -0.0353553), wk =   0.0007500
        k(  229) = (   0.3005204   0.0530330  -0.0530330), wk =   0.0007500
        k(  230) = (   0.3181981   0.0707107  -0.0707107), wk =   0.0007500
        k(  231) = (   0.3358757   0.0883883  -0.0883883), wk =   0.0007500
        k(  232) = (   0.3535534   0.1060660  -0.1060660), wk =   0.0007500
        k(  233) = (   0.3712311   0.1237437  -0.1237437), wk =   0.0007500
        k(  234) = (   0.3889087   0.1414214  -0.1414214), wk =   0.0007500
        k(  235) = (   0.4065864   0.1590990  -0.1590990), wk =   0.0007500
        k(  236) = (   0.4242641   0.1767767  -0.1767767), wk =   0.0007500
        k(  237) = (   0.4419417   0.1944544  -0.1944544), wk =   0.0007500
        k(  238) = (   0.4596194   0.2121320  -0.2121320), wk =   0.0007500
        k(  239) = (  -0.2298097  -0.4772971   0.4772971), wk =   0.0007500
        k(  240) = (  -0.2121320  -0.4596194   0.4596194), wk =   0.0007500
        k(  241) = (  -0.1944544  -0.4419417   0.4419417), wk =   0.0007500
        k(  242) = (  -0.1767767  -0.4242641   0.4242641), wk =   0.0007500
        k(  243) = (  -0.1590990  -0.4065864   0.4065864), wk =   0.0007500
        k(  244) = (  -0.1414214  -0.3889087   0.3889087), wk =   0.0007500
        k(  245) = (  -0.1237437  -0.3712311   0.3712311), wk =   0.0007500
        k(  246) = (  -0.1060660  -0.3535534   0.3535534), wk =   0.0007500
        k(  247) = (  -0.0883883  -0.3358757   0.3358757), wk =   0.0007500
        k(  248) = (  -0.0707107  -0.3181981   0.3181981), wk =   0.0007500
        k(  249) = (  -0.0530330  -0.3005204   0.3005204), wk =   0.0007500
        k(  250) = (  -0.0353553  -0.2828427   0.2828427), wk =   0.0007500
        k(  251) = (  -0.0176777  -0.2651650   0.2651650), wk =   0.0007500
        k(  252) = (  -0.0000000  -0.2474874   0.2474874), wk =   0.0003750
        k(  253) = (   0.2828427   0.0000000   0.0000000), wk =   0.0001875
        k(  254) = (   0.3005204   0.0176777  -0.0176777), wk =   0.0007500
        k(  255) = (   0.3181981   0.0353553  -0.0353553), wk =   0.0007500
        k(  256) = (   0.3358757   0.0530330  -0.0530330), wk =   0.0007500
        k(  257) = (   0.3535534   0.0707107  -0.0707107), wk =   0.0007500
        k(  258) = (   0.3712311   0.0883883  -0.0883883), wk =   0.0007500
        k(  259) = (   0.3889087   0.1060660  -0.1060660), wk =   0.0007500
        k(  260) = (   0.4065864   0.1237437  -0.1237437), wk =   0.0007500
        k(  261) = (   0.4242641   0.1414214  -0.1414214), wk =   0.0007500
        k(  262) = (   0.4419417   0.1590990  -0.1590990), wk =   0.0007500
        k(  263) = (   0.4596194   0.1767767  -0.1767767), wk =   0.0007500
        k(  264) = (   0.4772971   0.1944544  -0.1944544), wk =   0.0007500
        k(  265) = (  -0.2121320  -0.4949747   0.4949747), wk =   0.0007500
        k(  266) = (  -0.1944544  -0.4772971   0.4772971), wk =   0.0007500
        k(  267) = (  -0.1767767  -0.4596194   0.4596194), wk =   0.0007500
        k(  268) = (  -0.1590990  -0.4419417   0.4419417), wk =   0.0007500
        k(  269) = (  -0.1414214  -0.4242641   0.4242641), wk =   0.0007500
        k(  270) = (  -0.1237437  -0.4065864   0.4065864), wk =   0.0007500
        k(  271) = (  -0.1060660  -0.3889087   0.3889087), wk =   0.0007500
        k(  272) = (  -0.0883883  -0.3712311   0.3712311), wk =   0.0007500
        k(  273) = (  -0.0707107  -0.3535534   0.3535534), wk =   0.0007500
        k(  274) = (  -0.0530330  -0.3358757   0.3358757), wk =   0.0007500
        k(  275) = (  -0.0353553  -0.3181981   0.3181981), wk =   0.0007500
        k(  276) = (  -0.0176777  -0.3005204   0.3005204), wk =   0.0007500
        k(  277) = (   0.0000000  -0.2828427   0.2828427), wk =   0.0003750
        k(  278) = (   0.3181981   0.0000000   0.0000000), wk =   0.0001875
        k(  279) = (   0.3358757   0.0176777  -0.0176777), wk =   0.0007500
        k(  280) = (   0.3535534   0.0353553  -0.0353553), wk =   0.0007500
        k(  281) = (   0.3712311   0.0530330  -0.0530330), wk =   0.0007500
        k(  282) = (   0.3889087   0.0707107  -0.0707107), wk =   0.0007500
        k(  283) = (   0.4065864   0.0883883  -0.0883883), wk =   0.0007500
        k(  284) = (   0.4242641   0.1060660  -0.1060660), wk =   0.0007500
        k(  285) = (   0.4419417   0.1237437  -0.1237437), wk =   0.0007500
        k(  286) = (   0.4596194   0.1414214  -0.1414214), wk =   0.0007500
        k(  287) = (   0.4772971   0.1590990  -0.1590990), wk =   0.0007500
        k(  288) = (   0.4949747   0.1767767  -0.1767767), wk =   0.0007500
        k(  289) = (  -0.1944544  -0.5126524   0.5126524), wk =   0.0007500
        k(  290) = (  -0.1767767  -0.4949747   0.4949747), wk =   0.0007500
        k(  291) = (  -0.1590990  -0.4772971   0.4772971), wk =   0.0007500
        k(  292) = (  -0.1414214  -0.4596194   0.4596194), wk =   0.0007500
        k(  293) = (  -0.1237437  -0.4419417   0.4419417), wk =   0.0007500
        k(  294) = (  -0.1060660  -0.4242641   0.4242641), wk =   0.0007500
        k(  295) = (  -0.0883883  -0.4065864   0.4065864), wk =   0.0007500
        k(  296) = (  -0.0707107  -0.3889087   0.3889087), wk =   0.0007500
        k(  297) = (  -0.0530330  -0.3712311   0.3712311), wk =   0.0007500
        k(  298) = (  -0.0353553  -0.3535534   0.3535534), wk =   0.0007500
        k(  299) = (  -0.0176777  -0.3358757   0.3358757), wk =   0.0007500
        k(  300) = (   0.0000000  -0.3181981   0.3181981), wk =   0.0003750
        k(  301) = (   0.3535534   0.0000000   0.0000000), wk =   0.0001875
        k(  302) = (   0.3712311   0.0176777  -0.0176777), wk =   0.0007500
        k(  303) = (   0.3889087   0.0353553  -0.0353553), wk =   0.0007500
        k(  304) = (   0.4065864   0.0530330  -0.0530330), wk =   0.0007500
        k(  305) = (   0.4242641   0.0707107  -0.0707107), wk =   0.0007500
        k(  306) = (   0.4419417   0.0883883  -0.0883883), wk =   0.0007500
        k(  307) = (   0.4596194   0.1060660  -0.1060660), wk =   0.0007500
        k(  308) = (   0.4772971   0.1237437  -0.1237437), wk =   0.0007500
        k(  309) = (   0.4949747   0.1414214  -0.1414214), wk =   0.0007500
        k(  310) = (   0.5126524   0.1590990  -0.1590990), wk =   0.0007500
        k(  311) = (  -0.1767767  -0.5303301   0.5303301), wk =   0.0007500
        k(  312) = (  -0.1590990  -0.5126524   0.5126524), wk =   0.0007500
        k(  313) = (  -0.1414214  -0.4949747   0.4949747), wk =   0.0007500
        k(  314) = (  -0.1237437  -0.4772971   0.4772971), wk =   0.0007500
        k(  315) = (  -0.1060660  -0.4596194   0.4596194), wk =   0.0007500
        k(  316) = (  -0.0883883  -0.4419417   0.4419417), wk =   0.0007500
        k(  317) = (  -0.0707107  -0.4242641   0.4242641), wk =   0.0007500
        k(  318) = (  -0.0530330  -0.4065864   0.4065864), wk =   0.0007500
        k(  319) = (  -0.0353553  -0.3889087   0.3889087), wk =   0.0007500
        k(  320) = (  -0.0176777  -0.3712311   0.3712311), wk =   0.0007500
        k(  321) = (   0.0000000  -0.3535534   0.3535534), wk =   0.0003750
        k(  322) = (   0.3889087   0.0000000   0.0000000), wk =   0.0001875
        k(  323) = (   0.4065864   0.0176777  -0.0176777), wk =   0.0007500
        k(  324) = (   0.4242641   0.0353553  -0.0353553), wk =   0.0007500
        k(  325) = (   0.4419417   0.0530330  -0.0530330), wk =   0.0007500
        k(  326) = (   0.4596194   0.0707107  -0.0707107), wk =   0.0007500
        k(  327) = (   0.4772971   0.0883883  -0.0883883), wk =   0.0007500
        k(  328) = (   0.4949747   0.1060660  -0.1060660), wk =   0.0007500
        k(  329) = (   0.5126524   0.1237437  -0.1237437), wk =   0.0007500
        k(  330) = (   0.5303301   0.1414214  -0.1414214), wk =   0.0007500
        k(  331) = (  -0.1590990  -0.5480078   0.5480078), wk =   0.0007500
        k(  332) = (  -0.1414214  -0.5303301   0.5303301), wk =   0.0007500
        k(  333) = (  -0.1237437  -0.5126524   0.5126524), wk =   0.0007500
        k(  334) = (  -0.1060660  -0.4949747   0.4949747), wk =   0.0007500
        k(  335) = (  -0.0883883  -0.4772971   0.4772971), wk =   0.0007500
        k(  336) = (  -0.0707107  -0.4596194   0.4596194), wk =   0.0007500
        k(  337) = (  -0.0530330  -0.4419417   0.4419417), wk =   0.0007500
        k(  338) = (  -0.0353553  -0.4242641   0.4242641), wk =   0.0007500
        k(  339) = (  -0.0176777  -0.4065864   0.4065864), wk =   0.0007500
        k(  340) = (   0.0000000  -0.3889087   0.3889087), wk =   0.0003750
        k(  341) = (   0.4242641   0.0000000   0.0000000), wk =   0.0001875
        k(  342) = (   0.4419417   0.0176777  -0.0176777), wk =   0.0007500
        k(  343) = (   0.4596194   0.0353553  -0.0353553), wk =   0.0007500
        k(  344) = (   0.4772971   0.0530330  -0.0530330), wk =   0.0007500
        k(  345) = (   0.4949747   0.0707107  -0.0707107), wk =   0.0007500
        k(  346) = (   0.5126524   0.0883883  -0.0883883), wk =   0.0007500
        k(  347) = (   0.5303301   0.1060660  -0.1060660), wk =   0.0007500
        k(  348) = (   0.5480078   0.1237437  -0.1237437), wk =   0.0007500
        k(  349) = (  -0.1414214  -0.5656854   0.5656854), wk =   0.0007500
        k(  350) = (  -0.1237437  -0.5480078   0.5480078), wk =   0.0007500
        k(  351) = (  -0.1060660  -0.5303301   0.5303301), wk =   0.0007500
        k(  352) = (  -0.0883883  -0.5126524   0.5126524), wk =   0.0007500
        k(  353) = (  -0.0707107  -0.4949747   0.4949747), wk =   0.0007500
        k(  354) = (  -0.0530330  -0.4772971   0.4772971), wk =   0.0007500
        k(  355) = (  -0.0353553  -0.4596194   0.4596194), wk =   0.0007500
        k(  356) = (  -0.0176777  -0.4419417   0.4419417), wk =   0.0007500
        k(  357) = (  -0.0000000  -0.4242641   0.4242641), wk =   0.0003750
        k(  358) = (   0.4596194   0.0000000   0.0000000), wk =   0.0001875
        k(  359) = (   0.4772971   0.0176777  -0.0176777), wk =   0.0007500
        k(  360) = (   0.4949747   0.0353553  -0.0353553), wk =   0.0007500
        k(  361) = (   0.5126524   0.0530330  -0.0530330), wk =   0.0007500
        k(  362) = (   0.5303301   0.0707107  -0.0707107), wk =   0.0007500
        k(  363) = (   0.5480078   0.0883883  -0.0883883), wk =   0.0007500
        k(  364) = (   0.5656854   0.1060660  -0.1060660), wk =   0.0007500
        k(  365) = (  -0.1237437  -0.5833631   0.5833631), wk =   0.0007500
        k(  366) = (  -0.1060660  -0.5656854   0.5656854), wk =   0.0007500
        k(  367) = (  -0.0883883  -0.5480078   0.5480078), wk =   0.0007500
        k(  368) = (  -0.0707107  -0.5303301   0.5303301), wk =   0.0007500
        k(  369) = (  -0.0530330  -0.5126524   0.5126524), wk =   0.0007500
        k(  370) = (  -0.0353553  -0.4949747   0.4949747), wk =   0.0007500
        k(  371) = (  -0.0176777  -0.4772971   0.4772971), wk =   0.0007500
        k(  372) = (   0.0000000  -0.4596194   0.4596194), wk =   0.0003750
        k(  373) = (   0.4949747   0.0000000   0.0000000), wk =   0.0001875
        k(  374) = (   0.5126524   0.0176777  -0.0176777), wk =   0.0007500
        k(  375) = (   0.5303301   0.0353553  -0.0353553), wk =   0.0007500
        k(  376) = (   0.5480078   0.0530330  -0.0530330), wk =   0.0007500
        k(  377) = (   0.5656854   0.0707107  -0.0707107), wk =   0.0007500
        k(  378) = (   0.5833631   0.0883883  -0.0883883), wk =   0.0007500
        k(  379) = (  -0.1060660  -0.6010408   0.6010408), wk =   0.0007500
        k(  380) = (  -0.0883883  -0.5833631   0.5833631), wk =   0.0007500
        k(  381) = (  -0.0707107  -0.5656854   0.5656854), wk =   0.0007500
        k(  382) = (  -0.0530330  -0.5480078   0.5480078), wk =   0.0007500
        k(  383) = (  -0.0353553  -0.5303301   0.5303301), wk =   0.0007500
        k(  384) = (  -0.0176777  -0.5126524   0.5126524), wk =   0.0007500
        k(  385) = (   0.0000000  -0.4949747   0.4949747), wk =   0.0003750
        k(  386) = (   0.5303301   0.0000000   0.0000000), wk =   0.0001875
        k(  387) = (   0.5480078   0.0176777  -0.0176777), wk =   0.0007500
        k(  388) = (   0.5656854   0.0353553  -0.0353553), wk =   0.0007500
        k(  389) = (   0.5833631   0.0530330  -0.0530330), wk =   0.0007500
        k(  390) = (   0.6010408   0.0707107  -0.0707107), wk =   0.0007500
        k(  391) = (  -0.0883883  -0.6187184   0.6187184), wk =   0.0007500
        k(  392) = (  -0.0707107  -0.6010408   0.6010408), wk =   0.0007500
        k(  393) = (  -0.0530330  -0.5833631   0.5833631), wk =   0.0007500
        k(  394) = (  -0.0353553  -0.5656854   0.5656854), wk =   0.0007500
        k(  395) = (  -0.0176777  -0.5480078   0.5480078), wk =   0.0007500
        k(  396) = (   0.0000000  -0.5303301   0.5303301), wk =   0.0003750
        k(  397) = (   0.5656854   0.0000000   0.0000000), wk =   0.0001875
        k(  398) = (   0.5833631   0.0176777  -0.0176777), wk =   0.0007500
        k(  399) = (   0.6010408   0.0353553  -0.0353553), wk =   0.0007500
        k(  400) = (   0.6187184   0.0530330  -0.0530330), wk =   0.0007500
        k(  401) = (  -0.0707107  -0.6363961   0.6363961), wk =   0.0007500
        k(  402) = (  -0.0530330  -0.6187184   0.6187184), wk =   0.0007500
        k(  403) = (  -0.0353553  -0.6010408   0.6010408), wk =   0.0007500
        k(  404) = (  -0.0176777  -0.5833631   0.5833631), wk =   0.0007500
        k(  405) = (   0.0000000  -0.5656854   0.5656854), wk =   0.0003750
        k(  406) = (   0.6010408   0.0000000   0.0000000), wk =   0.0001875
        k(  407) = (   0.6187184   0.0176777  -0.0176777), wk =   0.0007500
        k(  408) = (   0.6363961   0.0353553  -0.0353553), wk =   0.0007500
        k(  409) = (  -0.0530330  -0.6540738   0.6540738), wk =   0.0007500
        k(  410) = (  -0.0353553  -0.6363961   0.6363961), wk =   0.0007500
        k(  411) = (  -0.0176777  -0.6187184   0.6187184), wk =   0.0007500
        k(  412) = (  -0.0000000  -0.6010408   0.6010408), wk =   0.0003750
        k(  413) = (   0.6363961   0.0000000   0.0000000), wk =   0.0001875
        k(  414) = (   0.6540738   0.0176777  -0.0176777), wk =   0.0007500
        k(  415) = (  -0.0353553  -0.6717514   0.6717514), wk =   0.0007500
        k(  416) = (  -0.0176777  -0.6540738   0.6540738), wk =   0.0007500
        k(  417) = (   0.0000000  -0.6363961   0.6363961), wk =   0.0003750
        k(  418) = (   0.6717514   0.0000000   0.0000000), wk =   0.0001875
        k(  419) = (  -0.0176777  -0.6894291   0.6894291), wk =   0.0007500
        k(  420) = (   0.0000000  -0.6717514   0.6717514), wk =   0.0003750
        k(  421) = (  -0.7071068   0.0000000   0.0000000), wk =   0.0000937
        k(  422) = (   0.0707107   0.0353553   0.0000000), wk =   0.0007500
        k(  423) = (   0.0883883   0.0530330  -0.0176777), wk =   0.0015000
        k(  424) = (   0.1060660   0.0707107  -0.0353553), wk =   0.0015000
        k(  425) = (   0.1237437   0.0883883  -0.0530330), wk =   0.0015000
        k(  426) = (   0.1414214   0.1060660  -0.0707107), wk =   0.0015000
        k(  427) = (   0.1590990   0.1237437  -0.0883883), wk =   0.0015000
        k(  428) = (   0.1767767   0.1414214  -0.1060660), wk =   0.0015000
        k(  429) = (   0.1944544   0.1590990  -0.1237437), wk =   0.0015000
        k(  430) = (   0.2121320   0.1767767  -0.1414214), wk =   0.0015000
        k(  431) = (   0.2298097   0.1944544  -0.1590990), wk =   0.0015000
        k(  432) = (   0.2474874   0.2121320  -0.1767767), wk =   0.0015000
        k(  433) = (   0.2651650   0.2298097  -0.1944544), wk =   0.0015000
        k(  434) = (   0.2828427   0.2474874  -0.2121320), wk =   0.0015000
        k(  435) = (   0.3005204   0.2651650  -0.2298097), wk =   0.0015000
        k(  436) = (   0.3181981   0.2828427  -0.2474874), wk =   0.0015000
        k(  437) = (   0.3358757   0.3005204  -0.2651650), wk =   0.0015000
        k(  438) = (   0.3535534   0.3181981  -0.2828427), wk =   0.0015000
        k(  439) = (  -0.3358757  -0.3712311   0.4065864), wk =   0.0015000
        k(  440) = (  -0.3181981  -0.3535534   0.3889087), wk =   0.0007500
        k(  441) = (   0.1060660   0.0353553  -0.0000000), wk =   0.0007500
        k(  442) = (   0.1237437   0.0530330  -0.0176777), wk =   0.0015000
        k(  443) = (   0.1414214   0.0707107  -0.0353553), wk =   0.0015000
        k(  444) = (   0.1590990   0.0883883  -0.0530330), wk =   0.0015000
        k(  445) = (   0.1767767   0.1060660  -0.0707107), wk =   0.0015000
        k(  446) = (   0.1944544   0.1237437  -0.0883883), wk =   0.0015000
        k(  447) = (   0.2121320   0.1414214  -0.1060660), wk =   0.0015000
        k(  448) = (   0.2298097   0.1590990  -0.1237437), wk =   0.0015000
        k(  449) = (   0.2474874   0.1767767  -0.1414214), wk =   0.0015000
        k(  450) = (   0.2651650   0.1944544  -0.1590990), wk =   0.0015000
        k(  451) = (   0.2828427   0.2121320  -0.1767767), wk =   0.0015000
        k(  452) = (   0.3005204   0.2298097  -0.1944544), wk =   0.0015000
        k(  453) = (   0.3181981   0.2474874  -0.2121320), wk =   0.0015000
        k(  454) = (   0.3358757   0.2651650  -0.2298097), wk =   0.0015000
        k(  455) = (   0.3535534   0.2828427  -0.2474874), wk =   0.0015000
        k(  456) = (   0.3712311   0.3005204  -0.2651650), wk =   0.0015000
        k(  457) = (  -0.3181981  -0.3889087   0.4242641), wk =   0.0015000
        k(  458) = (  -0.3005204  -0.3712311   0.4065864), wk =   0.0015000
        k(  459) = (  -0.2828427  -0.3535534   0.3889087), wk =   0.0015000
        k(  460) = (  -0.2651650  -0.3358757   0.3712311), wk =   0.0015000
        k(  461) = (  -0.2474874  -0.3181981   0.3535534), wk =   0.0015000
        k(  462) = (  -0.2298097  -0.3005204   0.3358757), wk =   0.0015000
        k(  463) = (  -0.2121320  -0.2828427   0.3181981), wk =   0.0015000
        k(  464) = (  -0.1944544  -0.2651650   0.3005204), wk =   0.0015000
        k(  465) = (  -0.1767767  -0.2474874   0.2828427), wk =   0.0015000
        k(  466) = (  -0.1590990  -0.2298097   0.2651650), wk =   0.0015000
        k(  467) = (  -0.1414214  -0.2121320   0.2474874), wk =   0.0015000
        k(  468) = (  -0.1237437  -0.1944544   0.2298097), wk =   0.0015000
        k(  469) = (  -0.1060660  -0.1767767   0.2121320), wk =   0.0015000
        k(  470) = (  -0.0883883  -0.1590990   0.1944544), wk =   0.0015000
        k(  471) = (  -0.0707107  -0.1414214   0.1767767), wk =   0.0015000
        k(  472) = (  -0.0530330  -0.1237437   0.1590990), wk =   0.0015000
        k(  473) = (  -0.0353553  -0.1060660   0.1414214), wk =   0.0015000
        k(  474) = (  -0.0176777  -0.0883883   0.1237437), wk =   0.0015000
        k(  475) = (  -0.0000000  -0.0707107   0.1060660), wk =   0.0007500
        k(  476) = (   0.1414214   0.0353553   0.0000000), wk =   0.0007500
        k(  477) = (   0.1590990   0.0530330  -0.0176777), wk =   0.0015000
        k(  478) = (   0.1767767   0.0707107  -0.0353553), wk =   0.0015000
        k(  479) = (   0.1944544   0.0883883  -0.0530330), wk =   0.0015000
        k(  480) = (   0.2121320   0.1060660  -0.0707107), wk =   0.0015000
        k(  481) = (   0.2298097   0.1237437  -0.0883883), wk =   0.0015000
        k(  482) = (   0.2474874   0.1414214  -0.1060660), wk =   0.0015000
        k(  483) = (   0.2651650   0.1590990  -0.1237437), wk =   0.0015000
        k(  484) = (   0.2828427   0.1767767  -0.1414214), wk =   0.0015000
        k(  485) = (   0.3005204   0.1944544  -0.1590990), wk =   0.0015000
        k(  486) = (   0.3181981   0.2121320  -0.1767767), wk =   0.0015000
        k(  487) = (   0.3358757   0.2298097  -0.1944544), wk =   0.0015000
        k(  488) = (   0.3535534   0.2474874  -0.2121320), wk =   0.0015000
        k(  489) = (   0.3712311   0.2651650  -0.2298097), wk =   0.0015000
        k(  490) = (   0.3889087   0.2828427  -0.2474874), wk =   0.0015000
        k(  491) = (  -0.3005204  -0.4065864   0.4419417), wk =   0.0015000
        k(  492) = (  -0.2828427  -0.3889087   0.4242641), wk =   0.0015000
        k(  493) = (  -0.2651650  -0.3712311   0.4065864), wk =   0.0015000
        k(  494) = (  -0.2474874  -0.3535534   0.3889087), wk =   0.0015000
        k(  495) = (  -0.2298097  -0.3358757   0.3712311), wk =   0.0015000
        k(  496) = (  -0.2121320  -0.3181981   0.3535534), wk =   0.0015000
        k(  497) = (  -0.1944544  -0.3005204   0.3358757), wk =   0.0015000
        k(  498) = (  -0.1767767  -0.2828427   0.3181981), wk =   0.0015000
        k(  499) = (  -0.1590990  -0.2651650   0.3005204), wk =   0.0015000
        k(  500) = (  -0.1414214  -0.2474874   0.2828427), wk =   0.0015000
        k(  501) = (  -0.1237437  -0.2298097   0.2651650), wk =   0.0015000
        k(  502) = (  -0.1060660  -0.2121320   0.2474874), wk =   0.0015000
        k(  503) = (  -0.0883883  -0.1944544   0.2298097), wk =   0.0015000
        k(  504) = (  -0.0707107  -0.1767767   0.2121320), wk =   0.0015000
        k(  505) = (  -0.0530330  -0.1590990   0.1944544), wk =   0.0015000
        k(  506) = (  -0.0353553  -0.1414214   0.1767767), wk =   0.0015000
        k(  507) = (  -0.0176777  -0.1237437   0.1590990), wk =   0.0015000
        k(  508) = (   0.0000000  -0.1060660   0.1414214), wk =   0.0007500
        k(  509) = (   0.1767767   0.0353553   0.0000000), wk =   0.0007500
        k(  510) = (   0.1944544   0.0530330  -0.0176777), wk =   0.0015000
        k(  511) = (   0.2121320   0.0707107  -0.0353553), wk =   0.0015000
        k(  512) = (   0.2298097   0.0883883  -0.0530330), wk =   0.0015000
        k(  513) = (   0.2474874   0.1060660  -0.0707107), wk =   0.0015000
        k(  514) = (   0.2651650   0.1237437  -0.0883883), wk =   0.0015000
        k(  515) = (   0.2828427   0.1414214  -0.1060660), wk =   0.0015000
        k(  516) = (   0.3005204   0.1590990  -0.1237437), wk =   0.0015000
        k(  517) = (   0.3181981   0.1767767  -0.1414214), wk =   0.0015000
        k(  518) = (   0.3358757   0.1944544  -0.1590990), wk =   0.0015000
        k(  519) = (   0.3535534   0.2121320  -0.1767767), wk =   0.0015000
        k(  520) = (   0.3712311   0.2298097  -0.1944544), wk =   0.0015000
        k(  521) = (   0.3889087   0.2474874  -0.2121320), wk =   0.0015000
        k(  522) = (   0.4065864   0.2651650  -0.2298097), wk =   0.0015000
        k(  523) = (  -0.2828427  -0.4242641   0.4596194), wk =   0.0015000
        k(  524) = (  -0.2651650  -0.4065864   0.4419417), wk =   0.0015000
        k(  525) = (  -0.2474874  -0.3889087   0.4242641), wk =   0.0015000
        k(  526) = (  -0.2298097  -0.3712311   0.4065864), wk =   0.0015000
        k(  527) = (  -0.2121320  -0.3535534   0.3889087), wk =   0.0015000
        k(  528) = (  -0.1944544  -0.3358757   0.3712311), wk =   0.0015000
        k(  529) = (  -0.1767767  -0.3181981   0.3535534), wk =   0.0015000
        k(  530) = (  -0.1590990  -0.3005204   0.3358757), wk =   0.0015000
        k(  531) = (  -0.1414214  -0.2828427   0.3181981), wk =   0.0015000
        k(  532) = (  -0.1237437  -0.2651650   0.3005204), wk =   0.0015000
        k(  533) = (  -0.1060660  -0.2474874   0.2828427), wk =   0.0015000
        k(  534) = (  -0.0883883  -0.2298097   0.2651650), wk =   0.0015000
        k(  535) = (  -0.0707107  -0.2121320   0.2474874), wk =   0.0015000
        k(  536) = (  -0.0530330  -0.1944544   0.2298097), wk =   0.0015000
        k(  537) = (  -0.0353553  -0.1767767   0.2121320), wk =   0.0015000
        k(  538) = (  -0.0176777  -0.1590990   0.1944544), wk =   0.0015000
        k(  539) = (   0.0000000  -0.1414214   0.1767767), wk =   0.0007500
        k(  540) = (   0.2121320   0.0353553   0.0000000), wk =   0.0007500
        k(  541) = (   0.2298097   0.0530330  -0.0176777), wk =   0.0015000
        k(  542) = (   0.2474874   0.0707107  -0.0353553), wk =   0.0015000
        k(  543) = (   0.2651650   0.0883883  -0.0530330), wk =   0.0015000
        k(  544) = (   0.2828427   0.1060660  -0.0707107), wk =   0.0015000
        k(  545) = (   0.3005204   0.1237437  -0.0883883), wk =   0.0015000
        k(  546) = (   0.3181981   0.1414214  -0.1060660), wk =   0.0015000
        k(  547) = (   0.3358757   0.1590990  -0.1237437), wk =   0.0015000
        k(  548) = (   0.3535534   0.1767767  -0.1414214), wk =   0.0015000
        k(  549) = (   0.3712311   0.1944544  -0.1590990), wk =   0.0015000
        k(  550) = (   0.3889087   0.2121320  -0.1767767), wk =   0.0015000
        k(  551) = (   0.4065864   0.2298097  -0.1944544), wk =   0.0015000
        k(  552) = (   0.4242641   0.2474874  -0.2121320), wk =   0.0015000
        k(  553) = (  -0.2651650  -0.4419417   0.4772971), wk =   0.0015000
        k(  554) = (  -0.2474874  -0.4242641   0.4596194), wk =   0.0015000
        k(  555) = (  -0.2298097  -0.4065864   0.4419417), wk =   0.0015000
        k(  556) = (  -0.2121320  -0.3889087   0.4242641), wk =   0.0015000
        k(  557) = (  -0.1944544  -0.3712311   0.4065864), wk =   0.0015000
        k(  558) = (  -0.1767767  -0.3535534   0.3889087), wk =   0.0015000
        k(  559) = (  -0.1590990  -0.3358757   0.3712311), wk =   0.0015000
        k(  560) = (  -0.1414214  -0.3181981   0.3535534), wk =   0.0015000
        k(  561) = (  -0.1237437  -0.3005204   0.3358757), wk =   0.0015000
        k(  562) = (  -0.1060660  -0.2828427   0.3181981), wk =   0.0015000
        k(  563) = (  -0.0883883  -0.2651650   0.3005204), wk =   0.0015000
        k(  564) = (  -0.0707107  -0.2474874   0.2828427), wk =   0.0015000
        k(  565) = (  -0.0530330  -0.2298097   0.2651650), wk =   0.0015000
        k(  566) = (  -0.0353553  -0.2121320   0.2474874), wk =   0.0015000
        k(  567) = (  -0.0176777  -0.1944544   0.2298097), wk =   0.0015000
        k(  568) = (  -0.0000000  -0.1767767   0.2121320), wk =   0.0007500
        k(  569) = (   0.2474874   0.0353553  -0.0000000), wk =   0.0007500
        k(  570) = (   0.2651650   0.0530330  -0.0176777), wk =   0.0015000
        k(  571) = (   0.2828427   0.0707107  -0.0353553), wk =   0.0015000
        k(  572) = (   0.3005204   0.0883883  -0.0530330), wk =   0.0015000
        k(  573) = (   0.3181981   0.1060660  -0.0707107), wk =   0.0015000
        k(  574) = (   0.3358757   0.1237437  -0.0883883), wk =   0.0015000
        k(  575) = (   0.3535534   0.1414214  -0.1060660), wk =   0.0015000
        k(  576) = (   0.3712311   0.1590990  -0.1237437), wk =   0.0015000
        k(  577) = (   0.3889087   0.1767767  -0.1414214), wk =   0.0015000
        k(  578) = (   0.4065864   0.1944544  -0.1590990), wk =   0.0015000
        k(  579) = (   0.4242641   0.2121320  -0.1767767), wk =   0.0015000
        k(  580) = (   0.4419417   0.2298097  -0.1944544), wk =   0.0015000
        k(  581) = (  -0.2474874  -0.4596194   0.4949747), wk =   0.0015000
        k(  582) = (  -0.2298097  -0.4419417   0.4772971), wk =   0.0015000
        k(  583) = (  -0.2121320  -0.4242641   0.4596194), wk =   0.0015000
        k(  584) = (  -0.1944544  -0.4065864   0.4419417), wk =   0.0015000
        k(  585) = (  -0.1767767  -0.3889087   0.4242641), wk =   0.0015000
        k(  586) = (  -0.1590990  -0.3712311   0.4065864), wk =   0.0015000
        k(  587) = (  -0.1414214  -0.3535534   0.3889087), wk =   0.0015000
        k(  588) = (  -0.1237437  -0.3358757   0.3712311), wk =   0.0015000
        k(  589) = (  -0.1060660  -0.3181981   0.3535534), wk =   0.0015000
        k(  590) = (  -0.0883883  -0.3005204   0.3358757), wk =   0.0015000
        k(  591) = (  -0.0707107  -0.2828427   0.3181981), wk =   0.0015000
        k(  592) = (  -0.0530330  -0.2651650   0.3005204), wk =   0.0015000
        k(  593) = (  -0.0353553  -0.2474874   0.2828427), wk =   0.0015000
        k(  594) = (  -0.0176777  -0.2298097   0.2651650), wk =   0.0015000
        k(  595) = (  -0.0000000  -0.2121320   0.2474874), wk =   0.0007500
        k(  596) = (   0.2828427   0.0353553   0.0000000), wk =   0.0007500
        k(  597) = (   0.3005204   0.0530330  -0.0176777), wk =   0.0015000
        k(  598) = (   0.3181981   0.0707107  -0.0353553), wk =   0.0015000
        k(  599) = (   0.3358757   0.0883883  -0.0530330), wk =   0.0015000
        k(  600) = (   0.3535534   0.1060660  -0.0707107), wk =   0.0015000
        k(  601) = (   0.3712311   0.1237437  -0.0883883), wk =   0.0015000
        k(  602) = (   0.3889087   0.1414214  -0.1060660), wk =   0.0015000
        k(  603) = (   0.4065864   0.1590990  -0.1237437), wk =   0.0015000
        k(  604) = (   0.4242641   0.1767767  -0.1414214), wk =   0.0015000
        k(  605) = (   0.4419417   0.1944544  -0.1590990), wk =   0.0015000
        k(  606) = (   0.4596194   0.2121320  -0.1767767), wk =   0.0015000
        k(  607) = (  -0.2298097  -0.4772971   0.5126524), wk =   0.0015000
        k(  608) = (  -0.2121320  -0.4596194   0.4949747), wk =   0.0015000
        k(  609) = (  -0.1944544  -0.4419417   0.4772971), wk =   0.0015000
        k(  610) = (  -0.1767767  -0.4242641   0.4596194), wk =   0.0015000
        k(  611) = (  -0.1590990  -0.4065864   0.4419417), wk =   0.0015000
        k(  612) = (  -0.1414214  -0.3889087   0.4242641), wk =   0.0015000
        k(  613) = (  -0.1237437  -0.3712311   0.4065864), wk =   0.0015000
        k(  614) = (  -0.1060660  -0.3535534   0.3889087), wk =   0.0015000
        k(  615) = (  -0.0883883  -0.3358757   0.3712311), wk =   0.0015000
        k(  616) = (  -0.0707107  -0.3181981   0.3535534), wk =   0.0015000
        k(  617) = (  -0.0530330  -0.3005204   0.3358757), wk =   0.0015000
        k(  618) = (  -0.0353553  -0.2828427   0.3181981), wk =   0.0015000
        k(  619) = (  -0.0176777  -0.2651650   0.3005204), wk =   0.0015000
        k(  620) = (  -0.0000000  -0.2474874   0.2828427), wk =   0.0007500
        k(  621) = (   0.3181981   0.0353553   0.0000000), wk =   0.0007500
        k(  622) = (   0.3358757   0.0530330  -0.0176777), wk =   0.0015000
        k(  623) = (   0.3535534   0.0707107  -0.0353553), wk =   0.0015000
        k(  624) = (   0.3712311   0.0883883  -0.0530330), wk =   0.0015000
        k(  625) = (   0.3889087   0.1060660  -0.0707107), wk =   0.0015000
        k(  626) = (   0.4065864   0.1237437  -0.0883883), wk =   0.0015000
        k(  627) = (   0.4242641   0.1414214  -0.1060660), wk =   0.0015000
        k(  628) = (   0.4419417   0.1590990  -0.1237437), wk =   0.0015000
        k(  629) = (   0.4596194   0.1767767  -0.1414214), wk =   0.0015000
        k(  630) = (   0.4772971   0.1944544  -0.1590990), wk =   0.0015000
        k(  631) = (  -0.2121320  -0.4949747   0.5303301), wk =   0.0015000
        k(  632) = (  -0.1944544  -0.4772971   0.5126524), wk =   0.0015000
        k(  633) = (  -0.1767767  -0.4596194   0.4949747), wk =   0.0015000
        k(  634) = (  -0.1590990  -0.4419417   0.4772971), wk =   0.0015000
        k(  635) = (  -0.1414214  -0.4242641   0.4596194), wk =   0.0015000
        k(  636) = (  -0.1237437  -0.4065864   0.4419417), wk =   0.0015000
        k(  637) = (  -0.1060660  -0.3889087   0.4242641), wk =   0.0015000
        k(  638) = (  -0.0883883  -0.3712311   0.4065864), wk =   0.0015000
        k(  639) = (  -0.0707107  -0.3535534   0.3889087), wk =   0.0015000
        k(  640) = (  -0.0530330  -0.3358757   0.3712311), wk =   0.0015000
        k(  641) = (  -0.0353553  -0.3181981   0.3535534), wk =   0.0015000
        k(  642) = (  -0.0176777  -0.3005204   0.3358757), wk =   0.0015000
        k(  643) = (   0.0000000  -0.2828427   0.3181981), wk =   0.0007500
        k(  644) = (   0.3535534   0.0353553  -0.0000000), wk =   0.0007500
        k(  645) = (   0.3712311   0.0530330  -0.0176777), wk =   0.0015000
        k(  646) = (   0.3889087   0.0707107  -0.0353553), wk =   0.0015000
        k(  647) = (   0.4065864   0.0883883  -0.0530330), wk =   0.0015000
        k(  648) = (   0.4242641   0.1060660  -0.0707107), wk =   0.0015000
        k(  649) = (   0.4419417   0.1237437  -0.0883883), wk =   0.0015000
        k(  650) = (   0.4596194   0.1414214  -0.1060660), wk =   0.0015000
        k(  651) = (   0.4772971   0.1590990  -0.1237437), wk =   0.0015000
        k(  652) = (   0.4949747   0.1767767  -0.1414214), wk =   0.0015000
        k(  653) = (  -0.1944544  -0.5126524   0.5480078), wk =   0.0015000
        k(  654) = (  -0.1767767  -0.4949747   0.5303301), wk =   0.0015000
        k(  655) = (  -0.1590990  -0.4772971   0.5126524), wk =   0.0015000
        k(  656) = (  -0.1414214  -0.4596194   0.4949747), wk =   0.0015000
        k(  657) = (  -0.1237437  -0.4419417   0.4772971), wk =   0.0015000
        k(  658) = (  -0.1060660  -0.4242641   0.4596194), wk =   0.0015000
        k(  659) = (  -0.0883883  -0.4065864   0.4419417), wk =   0.0015000
        k(  660) = (  -0.0707107  -0.3889087   0.4242641), wk =   0.0015000
        k(  661) = (  -0.0530330  -0.3712311   0.4065864), wk =   0.0015000
        k(  662) = (  -0.0353553  -0.3535534   0.3889087), wk =   0.0015000
        k(  663) = (  -0.0176777  -0.3358757   0.3712311), wk =   0.0015000
        k(  664) = (   0.0000000  -0.3181981   0.3535534), wk =   0.0007500
        k(  665) = (   0.3889087   0.0353553   0.0000000), wk =   0.0007500
        k(  666) = (   0.4065864   0.0530330  -0.0176777), wk =   0.0015000
        k(  667) = (   0.4242641   0.0707107  -0.0353553), wk =   0.0015000
        k(  668) = (   0.4419417   0.0883883  -0.0530330), wk =   0.0015000
        k(  669) = (   0.4596194   0.1060660  -0.0707107), wk =   0.0015000
        k(  670) = (   0.4772971   0.1237437  -0.0883883), wk =   0.0015000
        k(  671) = (   0.4949747   0.1414214  -0.1060660), wk =   0.0015000
        k(  672) = (   0.5126524   0.1590990  -0.1237437), wk =   0.0015000
        k(  673) = (  -0.1767767  -0.5303301   0.5656854), wk =   0.0015000
        k(  674) = (  -0.1590990  -0.5126524   0.5480078), wk =   0.0015000
        k(  675) = (  -0.1414214  -0.4949747   0.5303301), wk =   0.0015000
        k(  676) = (  -0.1237437  -0.4772971   0.5126524), wk =   0.0015000
        k(  677) = (  -0.1060660  -0.4596194   0.4949747), wk =   0.0015000
        k(  678) = (  -0.0883883  -0.4419417   0.4772971), wk =   0.0015000
        k(  679) = (  -0.0707107  -0.4242641   0.4596194), wk =   0.0015000
        k(  680) = (  -0.0530330  -0.4065864   0.4419417), wk =   0.0015000
        k(  681) = (  -0.0353553  -0.3889087   0.4242641), wk =   0.0015000
        k(  682) = (  -0.0176777  -0.3712311   0.4065864), wk =   0.0015000
        k(  683) = (   0.0000000  -0.3535534   0.3889087), wk =   0.0007500
        k(  684) = (   0.4242641   0.0353553  -0.0000000), wk =   0.0007500
        k(  685) = (   0.4419417   0.0530330  -0.0176777), wk =   0.0015000
        k(  686) = (   0.4596194   0.0707107  -0.0353553), wk =   0.0015000
        k(  687) = (   0.4772971   0.0883883  -0.0530330), wk =   0.0015000
        k(  688) = (   0.4949747   0.1060660  -0.0707107), wk =   0.0015000
        k(  689) = (   0.5126524   0.1237437  -0.0883883), wk =   0.0015000
        k(  690) = (   0.5303301   0.1414214  -0.1060660), wk =   0.0015000
        k(  691) = (  -0.1590990  -0.5480078   0.5833631), wk =   0.0015000
        k(  692) = (  -0.1414214  -0.5303301   0.5656854), wk =   0.0015000
        k(  693) = (  -0.1237437  -0.5126524   0.5480078), wk =   0.0015000
        k(  694) = (  -0.1060660  -0.4949747   0.5303301), wk =   0.0015000
        k(  695) = (  -0.0883883  -0.4772971   0.5126524), wk =   0.0015000
        k(  696) = (  -0.0707107  -0.4596194   0.4949747), wk =   0.0015000
        k(  697) = (  -0.0530330  -0.4419417   0.4772971), wk =   0.0015000
        k(  698) = (  -0.0353553  -0.4242641   0.4596194), wk =   0.0015000
        k(  699) = (  -0.0176777  -0.4065864   0.4419417), wk =   0.0015000
        k(  700) = (  -0.0000000  -0.3889087   0.4242641), wk =   0.0007500
        k(  701) = (   0.4596194   0.0353553   0.0000000), wk =   0.0007500
        k(  702) = (   0.4772971   0.0530330  -0.0176777), wk =   0.0015000
        k(  703) = (   0.4949747   0.0707107  -0.0353553), wk =   0.0015000
        k(  704) = (   0.5126524   0.0883883  -0.0530330), wk =   0.0015000
[...]
        k( 1434) = (   0.1250000   0.2750000  -0.1750000), wk =   0.0015000
        k( 1435) = (   0.1250000   0.2750000  -0.1500000), wk =   0.0007500
        k( 1436) = (   0.1250000   0.3000000   0.4250000), wk =   0.0007500
        k( 1437) = (   0.1250000   0.3000000   0.4500000), wk =   0.0015000
        k( 1438) = (   0.1250000   0.3000000   0.4750000), wk =   0.0015000
        k( 1439) = (   0.1250000   0.3000000  -0.5000000), wk =   0.0015000
        k( 1440) = (   0.1250000   0.3000000  -0.4750000), wk =   0.0015000
        k( 1441) = (   0.1250000   0.3000000  -0.4500000), wk =   0.0015000
        k( 1442) = (   0.1250000   0.3000000  -0.4250000), wk =   0.0015000
        k( 1443) = (   0.1250000   0.3000000  -0.4000000), wk =   0.0015000
        k( 1444) = (   0.1250000   0.3000000  -0.3750000), wk =   0.0015000
        k( 1445) = (   0.1250000   0.3000000  -0.3500000), wk =   0.0015000
        k( 1446) = (   0.1250000   0.3000000  -0.3250000), wk =   0.0015000
        k( 1447) = (   0.1250000   0.3000000  -0.3000000), wk =   0.0015000
        k( 1448) = (   0.1250000   0.3000000  -0.2750000), wk =   0.0015000
        k( 1449) = (   0.1250000   0.3000000  -0.2500000), wk =   0.0015000
        k( 1450) = (   0.1250000   0.3000000  -0.2250000), wk =   0.0015000
        k( 1451) = (   0.1250000   0.3000000  -0.2000000), wk =   0.0015000
        k( 1452) = (   0.1250000   0.3000000  -0.1750000), wk =   0.0007500
        k( 1453) = (   0.1250000   0.3250000   0.4500000), wk =   0.0007500
        k( 1454) = (   0.1250000   0.3250000   0.4750000), wk =   0.0015000
        k( 1455) = (   0.1250000   0.3250000  -0.5000000), wk =   0.0015000
        k( 1456) = (   0.1250000   0.3250000  -0.4750000), wk =   0.0015000
        k( 1457) = (   0.1250000   0.3250000  -0.4500000), wk =   0.0015000
        k( 1458) = (   0.1250000   0.3250000  -0.4250000), wk =   0.0015000
        k( 1459) = (   0.1250000   0.3250000  -0.4000000), wk =   0.0015000
        k( 1460) = (   0.1250000   0.3250000  -0.3750000), wk =   0.0015000
        k( 1461) = (   0.1250000   0.3250000  -0.3500000), wk =   0.0015000
        k( 1462) = (   0.1250000   0.3250000  -0.3250000), wk =   0.0015000
        k( 1463) = (   0.1250000   0.3250000  -0.3000000), wk =   0.0015000
        k( 1464) = (   0.1250000   0.3250000  -0.2750000), wk =   0.0015000
        k( 1465) = (   0.1250000   0.3250000  -0.2500000), wk =   0.0015000
        k( 1466) = (   0.1250000   0.3250000  -0.2250000), wk =   0.0015000
        k( 1467) = (   0.1250000   0.3250000  -0.2000000), wk =   0.0007500
        k( 1468) = (   0.1250000   0.3500000   0.4750000), wk =   0.0007500
        k( 1469) = (   0.1250000   0.3500000  -0.5000000), wk =   0.0015000
        k( 1470) = (   0.1250000   0.3500000  -0.4750000), wk =   0.0015000
        k( 1471) = (   0.1250000   0.3500000  -0.4500000), wk =   0.0015000
        k( 1472) = (   0.1250000   0.3500000  -0.4250000), wk =   0.0015000
        k( 1473) = (   0.1250000   0.3500000  -0.4000000), wk =   0.0015000
        k( 1474) = (   0.1250000   0.3500000  -0.3750000), wk =   0.0015000
        k( 1475) = (   0.1250000   0.3500000  -0.3500000), wk =   0.0015000
        k( 1476) = (   0.1250000   0.3500000  -0.3250000), wk =   0.0015000
        k( 1477) = (   0.1250000   0.3500000  -0.3000000), wk =   0.0015000
        k( 1478) = (   0.1250000   0.3500000  -0.2750000), wk =   0.0015000
        k( 1479) = (   0.1250000   0.3500000  -0.2500000), wk =   0.0015000
        k( 1480) = (   0.1250000   0.3500000  -0.2250000), wk =   0.0007500
        k( 1481) = (   0.1250000   0.3750000  -0.5000000), wk =   0.0007500
        k( 1482) = (   0.1250000   0.3750000  -0.4750000), wk =   0.0015000
        k( 1483) = (   0.1250000   0.3750000  -0.4500000), wk =   0.0015000
        k( 1484) = (   0.1250000   0.3750000  -0.4250000), wk =   0.0015000
        k( 1485) = (   0.1250000   0.3750000  -0.4000000), wk =   0.0015000
        k( 1486) = (   0.1250000   0.3750000  -0.3750000), wk =   0.0015000
        k( 1487) = (   0.1250000   0.3750000  -0.3500000), wk =   0.0015000
        k( 1488) = (   0.1250000   0.3750000  -0.3250000), wk =   0.0015000
        k( 1489) = (   0.1250000   0.3750000  -0.3000000), wk =   0.0015000
        k( 1490) = (   0.1250000   0.3750000  -0.2750000), wk =   0.0015000
        k( 1491) = (   0.1250000   0.3750000  -0.2500000), wk =   0.0007500
        k( 1492) = (   0.1250000   0.4000000  -0.4750000), wk =   0.0007500
        k( 1493) = (   0.1250000   0.4000000  -0.4500000), wk =   0.0015000
        k( 1494) = (   0.1250000   0.4000000  -0.4250000), wk =   0.0015000
        k( 1495) = (   0.1250000   0.4000000  -0.4000000), wk =   0.0015000
        k( 1496) = (   0.1250000   0.4000000  -0.3750000), wk =   0.0015000
        k( 1497) = (   0.1250000   0.4000000  -0.3500000), wk =   0.0015000
        k( 1498) = (   0.1250000   0.4000000  -0.3250000), wk =   0.0015000
        k( 1499) = (   0.1250000   0.4000000  -0.3000000), wk =   0.0015000
        k( 1500) = (   0.1250000   0.4000000  -0.2750000), wk =   0.0007500
        k( 1501) = (   0.1250000   0.4250000  -0.4500000), wk =   0.0007500
        k( 1502) = (   0.1250000   0.4250000  -0.4250000), wk =   0.0015000
        k( 1503) = (   0.1250000   0.4250000  -0.4000000), wk =   0.0015000
        k( 1504) = (   0.1250000   0.4250000  -0.3750000), wk =   0.0015000
        k( 1505) = (   0.1250000   0.4250000  -0.3500000), wk =   0.0015000
        k( 1506) = (   0.1250000   0.4250000  -0.3250000), wk =   0.0015000
        k( 1507) = (   0.1250000   0.4250000  -0.3000000), wk =   0.0007500
        k( 1508) = (   0.1250000   0.4500000  -0.4250000), wk =   0.0007500
        k( 1509) = (   0.1250000   0.4500000  -0.4000000), wk =   0.0015000
        k( 1510) = (   0.1250000   0.4500000  -0.3750000), wk =   0.0015000
        k( 1511) = (   0.1250000   0.4500000  -0.3500000), wk =   0.0015000
        k( 1512) = (   0.1250000   0.4500000  -0.3250000), wk =   0.0007500
        k( 1513) = (   0.1250000   0.4750000  -0.4000000), wk =   0.0007500
        k( 1514) = (   0.1250000   0.4750000  -0.3750000), wk =   0.0015000
        k( 1515) = (   0.1250000   0.4750000  -0.3500000), wk =   0.0007500
        k( 1516) = (   0.1250000  -0.5000000  -0.3750000), wk =   0.0003750
        k( 1517) = (   0.1500000   0.3000000   0.4500000), wk =   0.0007500
        k( 1518) = (   0.1500000   0.3000000   0.4750000), wk =   0.0015000
        k( 1519) = (   0.1500000   0.3000000  -0.5000000), wk =   0.0015000
        k( 1520) = (   0.1500000   0.3000000  -0.4750000), wk =   0.0015000
        k( 1521) = (   0.1500000   0.3000000  -0.4500000), wk =   0.0015000
        k( 1522) = (   0.1500000   0.3000000  -0.4250000), wk =   0.0015000
        k( 1523) = (   0.1500000   0.3000000  -0.4000000), wk =   0.0015000
        k( 1524) = (   0.1500000   0.3000000  -0.3750000), wk =   0.0015000
        k( 1525) = (   0.1500000   0.3000000  -0.3500000), wk =   0.0007500
        k( 1526) = (   0.1500000   0.3250000   0.4750000), wk =   0.0007500
        k( 1527) = (   0.1500000   0.3250000  -0.5000000), wk =   0.0015000
        k( 1528) = (   0.1500000   0.3250000  -0.4750000), wk =   0.0015000
        k( 1529) = (   0.1500000   0.3250000  -0.4500000), wk =   0.0015000
        k( 1530) = (   0.1500000   0.3250000  -0.4250000), wk =   0.0015000
        k( 1531) = (   0.1500000   0.3250000  -0.4000000), wk =   0.0015000
        k( 1532) = (   0.1500000   0.3250000  -0.3750000), wk =   0.0015000
        k( 1533) = (   0.1500000   0.3250000  -0.3500000), wk =   0.0015000
        k( 1534) = (   0.1500000   0.3250000  -0.3250000), wk =   0.0015000
        k( 1535) = (   0.1500000   0.3250000  -0.3000000), wk =   0.0015000
        k( 1536) = (   0.1500000   0.3250000  -0.2750000), wk =   0.0015000
        k( 1537) = (   0.1500000   0.3250000  -0.2500000), wk =   0.0015000
        k( 1538) = (   0.1500000   0.3250000  -0.2250000), wk =   0.0015000
        k( 1539) = (   0.1500000   0.3250000  -0.2000000), wk =   0.0015000
        k( 1540) = (   0.1500000   0.3250000  -0.1750000), wk =   0.0007500
        k( 1541) = (   0.1500000   0.3500000  -0.5000000), wk =   0.0007500
        k( 1542) = (   0.1500000   0.3500000  -0.4750000), wk =   0.0015000
        k( 1543) = (   0.1500000   0.3500000  -0.4500000), wk =   0.0015000
        k( 1544) = (   0.1500000   0.3500000  -0.4250000), wk =   0.0015000
        k( 1545) = (   0.1500000   0.3500000  -0.4000000), wk =   0.0015000
        k( 1546) = (   0.1500000   0.3500000  -0.3750000), wk =   0.0015000
        k( 1547) = (   0.1500000   0.3500000  -0.3500000), wk =   0.0015000
        k( 1548) = (   0.1500000   0.3500000  -0.3250000), wk =   0.0015000
        k( 1549) = (   0.1500000   0.3500000  -0.3000000), wk =   0.0015000
        k( 1550) = (   0.1500000   0.3500000  -0.2750000), wk =   0.0015000
        k( 1551) = (   0.1500000   0.3500000  -0.2500000), wk =   0.0015000
        k( 1552) = (   0.1500000   0.3500000  -0.2250000), wk =   0.0015000
        k( 1553) = (   0.1500000   0.3500000  -0.2000000), wk =   0.0007500
        k( 1554) = (   0.1500000   0.3750000  -0.4750000), wk =   0.0007500
        k( 1555) = (   0.1500000   0.3750000  -0.4500000), wk =   0.0015000
        k( 1556) = (   0.1500000   0.3750000  -0.4250000), wk =   0.0015000
        k( 1557) = (   0.1500000   0.3750000  -0.4000000), wk =   0.0015000
        k( 1558) = (   0.1500000   0.3750000  -0.3750000), wk =   0.0015000
        k( 1559) = (   0.1500000   0.3750000  -0.3500000), wk =   0.0015000
        k( 1560) = (   0.1500000   0.3750000  -0.3250000), wk =   0.0015000
        k( 1561) = (   0.1500000   0.3750000  -0.3000000), wk =   0.0015000
        k( 1562) = (   0.1500000   0.3750000  -0.2750000), wk =   0.0015000
        k( 1563) = (   0.1500000   0.3750000  -0.2500000), wk =   0.0015000
        k( 1564) = (   0.1500000   0.3750000  -0.2250000), wk =   0.0007500
        k( 1565) = (   0.1500000   0.4000000  -0.4500000), wk =   0.0007500
        k( 1566) = (   0.1500000   0.4000000  -0.4250000), wk =   0.0015000
        k( 1567) = (   0.1500000   0.4000000  -0.4000000), wk =   0.0015000
        k( 1568) = (   0.1500000   0.4000000  -0.3750000), wk =   0.0015000
        k( 1569) = (   0.1500000   0.4000000  -0.3500000), wk =   0.0015000
        k( 1570) = (   0.1500000   0.4000000  -0.3250000), wk =   0.0015000
        k( 1571) = (   0.1500000   0.4000000  -0.3000000), wk =   0.0015000
        k( 1572) = (   0.1500000   0.4000000  -0.2750000), wk =   0.0015000
        k( 1573) = (   0.1500000   0.4000000  -0.2500000), wk =   0.0007500
        k( 1574) = (   0.1500000   0.4250000  -0.4250000), wk =   0.0007500
        k( 1575) = (   0.1500000   0.4250000  -0.4000000), wk =   0.0015000
        k( 1576) = (   0.1500000   0.4250000  -0.3750000), wk =   0.0015000
        k( 1577) = (   0.1500000   0.4250000  -0.3500000), wk =   0.0015000
        k( 1578) = (   0.1500000   0.4250000  -0.3250000), wk =   0.0015000
        k( 1579) = (   0.1500000   0.4250000  -0.3000000), wk =   0.0015000
        k( 1580) = (   0.1500000   0.4250000  -0.2750000), wk =   0.0007500
        k( 1581) = (   0.1500000   0.4500000  -0.4000000), wk =   0.0007500
        k( 1582) = (   0.1500000   0.4500000  -0.3750000), wk =   0.0015000
        k( 1583) = (   0.1500000   0.4500000  -0.3500000), wk =   0.0015000
        k( 1584) = (   0.1500000   0.4500000  -0.3250000), wk =   0.0015000
        k( 1585) = (   0.1500000   0.4500000  -0.3000000), wk =   0.0007500
        k( 1586) = (   0.1500000   0.4750000  -0.3750000), wk =   0.0007500
        k( 1587) = (   0.1500000   0.4750000  -0.3500000), wk =   0.0015000
        k( 1588) = (   0.1500000   0.4750000  -0.3250000), wk =   0.0007500
        k( 1589) = (   0.1500000  -0.5000000  -0.3500000), wk =   0.0003750
        k( 1590) = (   0.1750000   0.3500000  -0.4750000), wk =   0.0007500
        k( 1591) = (   0.1750000   0.3500000  -0.4500000), wk =   0.0015000
        k( 1592) = (   0.1750000   0.3500000  -0.4250000), wk =   0.0015000
        k( 1593) = (   0.1750000   0.3500000  -0.4000000), wk =   0.0015000
        k( 1594) = (   0.1750000   0.3500000  -0.3750000), wk =   0.0015000
        k( 1595) = (   0.1750000   0.3500000  -0.3500000), wk =   0.0015000
        k( 1596) = (   0.1750000   0.3500000  -0.3250000), wk =   0.0007500
        k( 1597) = (   0.1750000   0.3750000  -0.4500000), wk =   0.0007500
        k( 1598) = (   0.1750000   0.3750000  -0.4250000), wk =   0.0015000
        k( 1599) = (   0.1750000   0.3750000  -0.4000000), wk =   0.0015000
        k( 1600) = (   0.1750000   0.3750000  -0.3750000), wk =   0.0015000
        k( 1601) = (   0.1750000   0.3750000  -0.3500000), wk =   0.0015000
        k( 1602) = (   0.1750000   0.3750000  -0.3250000), wk =   0.0015000
        k( 1603) = (   0.1750000   0.3750000  -0.3000000), wk =   0.0015000
        k( 1604) = (   0.1750000   0.3750000  -0.2750000), wk =   0.0015000
        k( 1605) = (   0.1750000   0.3750000  -0.2500000), wk =   0.0015000
        k( 1606) = (   0.1750000   0.3750000  -0.2250000), wk =   0.0015000
        k( 1607) = (   0.1750000   0.3750000  -0.2000000), wk =   0.0007500
        k( 1608) = (   0.1750000   0.4000000  -0.4250000), wk =   0.0007500
        k( 1609) = (   0.1750000   0.4000000  -0.4000000), wk =   0.0015000
        k( 1610) = (   0.1750000   0.4000000  -0.3750000), wk =   0.0015000
        k( 1611) = (   0.1750000   0.4000000  -0.3500000), wk =   0.0015000
        k( 1612) = (   0.1750000   0.4000000  -0.3250000), wk =   0.0015000
        k( 1613) = (   0.1750000   0.4000000  -0.3000000), wk =   0.0015000
        k( 1614) = (   0.1750000   0.4000000  -0.2750000), wk =   0.0015000
        k( 1615) = (   0.1750000   0.4000000  -0.2500000), wk =   0.0015000
        k( 1616) = (   0.1750000   0.4000000  -0.2250000), wk =   0.0007500
        k( 1617) = (   0.1750000   0.4250000  -0.4000000), wk =   0.0007500
        k( 1618) = (   0.1750000   0.4250000  -0.3750000), wk =   0.0015000
        k( 1619) = (   0.1750000   0.4250000  -0.3500000), wk =   0.0015000
        k( 1620) = (   0.1750000   0.4250000  -0.3250000), wk =   0.0015000
        k( 1621) = (   0.1750000   0.4250000  -0.3000000), wk =   0.0015000
        k( 1622) = (   0.1750000   0.4250000  -0.2750000), wk =   0.0015000
        k( 1623) = (   0.1750000   0.4250000  -0.2500000), wk =   0.0007500
        k( 1624) = (   0.1750000   0.4500000  -0.3750000), wk =   0.0007500
        k( 1625) = (   0.1750000   0.4500000  -0.3500000), wk =   0.0015000
        k( 1626) = (   0.1750000   0.4500000  -0.3250000), wk =   0.0015000
        k( 1627) = (   0.1750000   0.4500000  -0.3000000), wk =   0.0015000
        k( 1628) = (   0.1750000   0.4500000  -0.2750000), wk =   0.0007500
        k( 1629) = (   0.1750000   0.4750000  -0.3500000), wk =   0.0007500
        k( 1630) = (   0.1750000   0.4750000  -0.3250000), wk =   0.0015000
        k( 1631) = (   0.1750000   0.4750000  -0.3000000), wk =   0.0007500
        k( 1632) = (   0.1750000  -0.5000000  -0.3250000), wk =   0.0003750
        k( 1633) = (   0.2000000   0.4000000  -0.4000000), wk =   0.0007500
        k( 1634) = (   0.2000000   0.4000000  -0.3750000), wk =   0.0015000
        k( 1635) = (   0.2000000   0.4000000  -0.3500000), wk =   0.0015000
        k( 1636) = (   0.2000000   0.4000000  -0.3250000), wk =   0.0015000
        k( 1637) = (   0.2000000   0.4000000  -0.3000000), wk =   0.0007500
        k( 1638) = (   0.2000000   0.4250000  -0.3750000), wk =   0.0007500
        k( 1639) = (   0.2000000   0.4250000  -0.3500000), wk =   0.0015000
        k( 1640) = (   0.2000000   0.4250000  -0.3250000), wk =   0.0015000
        k( 1641) = (   0.2000000   0.4250000  -0.3000000), wk =   0.0015000
        k( 1642) = (   0.2000000   0.4250000  -0.2750000), wk =   0.0015000
        k( 1643) = (   0.2000000   0.4250000  -0.2500000), wk =   0.0015000
        k( 1644) = (   0.2000000   0.4250000  -0.2250000), wk =   0.0007500
        k( 1645) = (   0.2000000   0.4500000  -0.3500000), wk =   0.0007500
        k( 1646) = (   0.2000000   0.4500000  -0.3250000), wk =   0.0015000
        k( 1647) = (   0.2000000   0.4500000  -0.3000000), wk =   0.0015000
        k( 1648) = (   0.2000000   0.4500000  -0.2750000), wk =   0.0015000
        k( 1649) = (   0.2000000   0.4500000  -0.2500000), wk =   0.0007500
        k( 1650) = (   0.2000000   0.4750000  -0.3250000), wk =   0.0007500
        k( 1651) = (   0.2000000   0.4750000  -0.3000000), wk =   0.0015000
        k( 1652) = (   0.2000000   0.4750000  -0.2750000), wk =   0.0007500
        k( 1653) = (   0.2000000  -0.5000000  -0.3000000), wk =   0.0003750
        k( 1654) = (   0.2250000   0.4500000  -0.3250000), wk =   0.0007500
        k( 1655) = (   0.2250000   0.4500000  -0.3000000), wk =   0.0015000
        k( 1656) = (   0.2250000   0.4500000  -0.2750000), wk =   0.0007500
        k( 1657) = (   0.2250000   0.4750000  -0.3000000), wk =   0.0007500
        k( 1658) = (   0.2250000   0.4750000  -0.2750000), wk =   0.0015000
        k( 1659) = (   0.2250000   0.4750000  -0.2500000), wk =   0.0007500
        k( 1660) = (   0.2250000  -0.5000000  -0.2750000), wk =   0.0003750
        k( 1661) = (   0.2500000  -0.5000000  -0.2500000), wk =   0.0001875

     Dense  grid:   123429 G-vectors     FFT dimensions: (  72,  72,  72)

     Largest allocated arrays     est. size (Mb)     dimensions
        Kohn-Sham Wavefunctions         0.27 Mb     (     977,   18)
        NL pseudopotentials             0.54 Mb     (     977,   36)
        Each V/rho on FFT grid          0.40 Mb     (   25920)
        Each G-vector array             0.06 Mb     (    7712)
        G-vector shells                 0.01 Mb     (     793)
     Largest temporary arrays     est. size (Mb)     dimensions
        Auxiliary wavefunctions         1.07 Mb     (     977,   72)
        Each subspace H/S matrix        0.08 Mb     (      72,   72)
        Each <psi_i|beta_j> matrix      0.01 Mb     (      36,   18)
        Arrays for rho mixing           3.16 Mb     (   25920,    8)

     Initial potential from superposition of free atoms

     starting charge   27.82601, renormalised to   28.00000
     Starting wfc are random

     total cpu time spent up to now is       74.3 secs

     Self-consistent Calculation

     iteration #  1     ecut=   150.00 Ry     beta=0.70
     Davidson diagonalization with overlap
     ethr =  1.00E-02,  avg # of iterations =  7.0

     total cpu time spent up to now is      666.3 secs

     total energy              =    -233.14051848 Ry
     Harris-Foulkes estimate   =    -234.57563080 Ry
     estimated scf accuracy    <       2.29106205 Ry

     iteration #  2     ecut=   150.00 Ry     beta=0.70
     Davidson diagonalization with overlap
     ethr =  8.18E-03,  avg # of iterations =  2.0

     total cpu time spent up to now is      891.2 secs

     total energy              =    -233.44535931 Ry
     Harris-Foulkes estimate   =    -233.46935046 Ry
     estimated scf accuracy    <       0.06199857 Ry

     iteration #  3     ecut=   150.00 Ry     beta=0.70
     Davidson diagonalization with overlap
     ethr =  2.21E-04,  avg # of iterations =  2.2

     total cpu time spent up to now is     1098.3 secs

     total energy              =    -233.44823335 Ry
     Harris-Foulkes estimate   =    -233.44907205 Ry
     estimated scf accuracy    <       0.00284604 Ry

     iteration #  4     ecut=   150.00 Ry     beta=0.70
     Davidson diagonalization with overlap
     ethr =  1.02E-05,  avg # of iterations =  2.0

     total cpu time spent up to now is     1298.2 secs

     total energy              =    -233.44838177 Ry
     Harris-Foulkes estimate   =    -233.44837956 Ry
     estimated scf accuracy    <       0.00002930 Ry

     iteration #  5     ecut=   150.00 Ry     beta=0.70
     Davidson diagonalization with overlap
     ethr =  1.05E-07,  avg # of iterations =  2.4
