
     Program PWSCF v.5.4.0 starts on 21Feb2020 at  0:52:48 

     This program is part of the open-source Quantum ESPRESSO suite
     for quantum simulation of materials; please cite
         "P. Giannozzi et al., J. Phys.:Condens. Matter 21 395502 (2009);
          URL http://www.quantum-espresso.org", 
     in publications or presentations arising from this work. More details at
     http://www.quantum-espresso.org/quote

     Parallel version (MPI & OpenMP), running on      16 processor cores
     Number of MPI processes:                16
     Threads/MPI process:                     1
     R & G space division:  proc/nbgrp/npool/nimage =      16
     Waiting for input...
     Reading input from standard input
Warning: card &IONS ignored
Warning: card / ignored
Warning: card &CELL ignored
Warning: card / ignored

     Current dimensions of program PWSCF are:
     Max number of different atomic species (ntypx) = 10
     Max number of k-points (npk) =  40000
     Max angular momentum in pseudopotentials (lmaxx) =  3

     Subspace diagonalization in iterative solution of the eigenvalue problem:
     a serial algorithm will be used

 
     Parallelization info
     --------------------
     sticks:   dense  smooth     PW     G-vecs:    dense   smooth      PW
     Min         109     109     31                 3006     3006     473
     Max         111     111     32                 3009     3009     477
     Sum        1759    1759    511                48119    48119    7583
 

     Title: 
     Sn                                                                         


     bravais-lattice index     =            0
     lattice parameter (alat)  =       8.8993  a.u.
     unit-cell volume          =     498.3785 (a.u.)^3
     number of atoms/cell      =            2
     number of atomic types    =            1
     number of electrons       =        28.00
     number of Kohn-Sham states=           18
     kinetic-energy cutoff     =      80.0000  Ry
     charge density cutoff     =     320.0000  Ry
     convergence threshold     =      1.0E-06
     mixing beta               =       0.7000
     number of iterations used =            8  plain     mixing
     Exchange-correlation      = PBE ( 1  4  3  4 0 0)

     celldm(1)=   8.899346  celldm(2)=   0.000000  celldm(3)=   0.000000
     celldm(4)=   0.000000  celldm(5)=   0.000000  celldm(6)=   0.000000

     crystal axes: (cart. coord. in units of alat)
               a(1) = (   0.000000   0.707107   0.707107 )  
               a(2) = (   0.707107   0.000000   0.707107 )  
               a(3) = (   0.707107   0.707107   0.000000 )  

     reciprocal axes: (cart. coord. in units 2 pi/alat)
               b(1) = ( -0.707107  0.707107  0.707107 )  
               b(2) = (  0.707107 -0.707107  0.707107 )  
               b(3) = (  0.707107  0.707107 -0.707107 )  


     PseudoPot. # 1 for Sn read from file:
     ../PseudopotentialDatabase/Sn_ONCV_PBE-1.0.upf
     MD5 check sum: 4ecdb67ea6112684f1b2ae1cab9d4ca6
     Pseudo is Norm-conserving, Zval = 14.0
     Generated using ONCVPSP code by D. R. Hamann
     Using radial grid of  602 points,  6 beta functions with: 
                l(1) =   0
                l(2) =   0
                l(3) =   1
                l(4) =   1
                l(5) =   2
                l(6) =   2

     atomic species   valence    mass     pseudopotential
        Sn            14.00   118.71000     Sn( 1.00)

     24 Sym. Ops. (no inversion) found
          (note: 24 additional sym.ops. were found but ignored
           their fractional translations are incommensurate with FFT grid)

                                    s                        frac. trans.

      isym =  1     identity                                     

 cryst.   s( 1) = (     1          0          0      )
                  (     0          1          0      )
                  (     0          0          1      )

 cart.    s( 1) = (  1.0000000  0.0000000  0.0000000 )
                  (  0.0000000  1.0000000  0.0000000 )
                  (  0.0000000  0.0000000  1.0000000 )


      isym =  2     180 deg rotation - cart. axis [0,0,1]        

 cryst.   s( 2) = (     0          1         -1      )
                  (     1          0         -1      )
                  (     0          0         -1      )

 cart.    s( 2) = ( -1.0000000  0.0000000  0.0000000 )
                  (  0.0000000 -1.0000000  0.0000000 )
                  (  0.0000000  0.0000000  1.0000000 )


      isym =  3     180 deg rotation - cart. axis [0,1,0]        

 cryst.   s( 3) = (     0         -1          1      )
                  (     0         -1          0      )
                  (     1         -1          0      )

 cart.    s( 3) = ( -1.0000000  0.0000000  0.0000000 )
                  (  0.0000000  1.0000000  0.0000000 )
                  (  0.0000000  0.0000000 -1.0000000 )


      isym =  4     180 deg rotation - cart. axis [1,0,0]        

 cryst.   s( 4) = (    -1          0          0      )
                  (    -1          0          1      )
                  (    -1          1          0      )

 cart.    s( 4) = (  1.0000000  0.0000000  0.0000000 )
                  (  0.0000000 -1.0000000  0.0000000 )
                  (  0.0000000  0.0000000 -1.0000000 )


      isym =  5     120 deg rotation - cart. axis [-1,-1,-1]     

 cryst.   s( 5) = (     0          0          1      )
                  (     1          0          0      )
                  (     0          1          0      )

 cart.    s( 5) = (  0.0000000  1.0000000  0.0000000 )
                  (  0.0000000  0.0000000  1.0000000 )
                  (  1.0000000  0.0000000  0.0000000 )


      isym =  6     120 deg rotation - cart. axis [-1,1,1]       

 cryst.   s( 6) = (     1         -1          0      )
                  (     0         -1          1      )
                  (     0         -1          0      )

 cart.    s( 6) = (  0.0000000 -1.0000000  0.0000000 )
                  (  0.0000000  0.0000000  1.0000000 )
                  ( -1.0000000  0.0000000  0.0000000 )


      isym =  7     120 deg rotation - cart. axis [1,1,-1]       

 cryst.   s( 7) = (    -1          1          0      )
                  (    -1          0          0      )
                  (    -1          0          1      )

 cart.    s( 7) = (  0.0000000  1.0000000  0.0000000 )
                  (  0.0000000  0.0000000 -1.0000000 )
                  ( -1.0000000  0.0000000  0.0000000 )


      isym =  8     120 deg rotation - cart. axis [1,-1,1]       

 cryst.   s( 8) = (     0          0         -1      )
                  (     0          1         -1      )
                  (     1          0         -1      )

 cart.    s( 8) = (  0.0000000 -1.0000000  0.0000000 )
                  (  0.0000000  0.0000000 -1.0000000 )
                  (  1.0000000  0.0000000  0.0000000 )


      isym =  9     120 deg rotation - cart. axis [1,1,1]        

 cryst.   s( 9) = (     0          1          0      )
                  (     0          0          1      )
                  (     1          0          0      )

 cart.    s( 9) = (  0.0000000  0.0000000  1.0000000 )
                  (  1.0000000  0.0000000  0.0000000 )
                  (  0.0000000  1.0000000  0.0000000 )


      isym = 10     120 deg rotation - cart. axis [-1,1,-1]      

 cryst.   s(10) = (    -1          0          1      )
                  (    -1          1          0      )
                  (    -1          0          0      )

 cart.    s(10) = (  0.0000000  0.0000000  1.0000000 )
                  ( -1.0000000  0.0000000  0.0000000 )
                  (  0.0000000 -1.0000000  0.0000000 )


      isym = 11     120 deg rotation - cart. axis [1,-1,-1]      

 cryst.   s(11) = (     1          0         -1      )
                  (     0          0         -1      )
                  (     0          1         -1      )

 cart.    s(11) = (  0.0000000  0.0000000 -1.0000000 )
                  ( -1.0000000  0.0000000  0.0000000 )
                  (  0.0000000  1.0000000  0.0000000 )


      isym = 12     120 deg rotation - cart. axis [-1,-1,1]      

 cryst.   s(12) = (     0         -1          0      )
                  (     1         -1          0      )
                  (     0         -1          1      )

 cart.    s(12) = (  0.0000000  0.0000000 -1.0000000 )
                  (  1.0000000  0.0000000  0.0000000 )
                  (  0.0000000 -1.0000000  0.0000000 )


      isym = 13     inv. 180 deg rotation - cart. axis [1,1,0]   

 cryst.   s(13) = (     1          0         -1      )
                  (     0          1         -1      )
                  (     0          0         -1      )

 cart.    s(13) = (  0.0000000 -1.0000000  0.0000000 )
                  ( -1.0000000  0.0000000  0.0000000 )
                  (  0.0000000  0.0000000  1.0000000 )


      isym = 14     inv. 180 deg rotation - cart. axis [1,-1,0]  

 cryst.   s(14) = (     0          1          0      )
                  (     1          0          0      )
                  (     0          0          1      )

 cart.    s(14) = (  0.0000000  1.0000000  0.0000000 )
                  (  1.0000000  0.0000000  0.0000000 )
                  (  0.0000000  0.0000000  1.0000000 )


      isym = 15     inv.  90 deg rotation - cart. axis [0,0,-1]  

 cryst.   s(15) = (     0         -1          0      )
                  (     0         -1          1      )
                  (     1         -1          0      )

 cart.    s(15) = (  0.0000000 -1.0000000  0.0000000 )
                  (  1.0000000  0.0000000  0.0000000 )
                  (  0.0000000  0.0000000 -1.0000000 )


      isym = 16     inv.  90 deg rotation - cart. axis [0,0,1]   

 cryst.   s(16) = (    -1          0          1      )
                  (    -1          0          0      )
                  (    -1          1          0      )

 cart.    s(16) = (  0.0000000  1.0000000  0.0000000 )
                  ( -1.0000000  0.0000000  0.0000000 )
                  (  0.0000000  0.0000000 -1.0000000 )


      isym = 17     inv. 180 deg rotation - cart. axis [1,0,1]   

 cryst.   s(17) = (     1         -1          0      )
                  (     0         -1          0      )
                  (     0         -1          1      )

 cart.    s(17) = (  0.0000000  0.0000000 -1.0000000 )
                  (  0.0000000  1.0000000  0.0000000 )
                  ( -1.0000000  0.0000000  0.0000000 )


      isym = 18     inv. 180 deg rotation - cart. axis [-1,0,1]  

 cryst.   s(18) = (     0          0          1      )
                  (     0          1          0      )
                  (     1          0          0      )

 cart.    s(18) = (  0.0000000  0.0000000  1.0000000 )
                  (  0.0000000  1.0000000  0.0000000 )
                  (  1.0000000  0.0000000  0.0000000 )


      isym = 19     inv.  90 deg rotation - cart. axis [0,1,0]   

 cryst.   s(19) = (     0          0         -1      )
                  (     1          0         -1      )
                  (     0          1         -1      )

 cart.    s(19) = (  0.0000000  0.0000000 -1.0000000 )
                  (  0.0000000 -1.0000000  0.0000000 )
                  (  1.0000000  0.0000000  0.0000000 )


      isym = 20     inv.  90 deg rotation - cart. axis [0,-1,0]  

 cryst.   s(20) = (    -1          1          0      )
                  (    -1          0          1      )
                  (    -1          0          0      )

 cart.    s(20) = (  0.0000000  0.0000000  1.0000000 )
                  (  0.0000000 -1.0000000  0.0000000 )
                  ( -1.0000000  0.0000000  0.0000000 )


      isym = 21     inv. 180 deg rotation - cart. axis [0,1,1]   

 cryst.   s(21) = (    -1          0          0      )
                  (    -1          1          0      )
                  (    -1          0          1      )

 cart.    s(21) = (  1.0000000  0.0000000  0.0000000 )
                  (  0.0000000  0.0000000 -1.0000000 )
                  (  0.0000000 -1.0000000  0.0000000 )


      isym = 22     inv. 180 deg rotation - cart. axis [0,1,-1]  

 cryst.   s(22) = (     1          0          0      )
                  (     0          0          1      )
                  (     0          1          0      )

 cart.    s(22) = (  1.0000000  0.0000000  0.0000000 )
                  (  0.0000000  0.0000000  1.0000000 )
                  (  0.0000000  1.0000000  0.0000000 )


      isym = 23     inv.  90 deg rotation - cart. axis [-1,0,0]  

 cryst.   s(23) = (     0          1         -1      )
                  (     0          0         -1      )
                  (     1          0         -1      )

 cart.    s(23) = ( -1.0000000  0.0000000  0.0000000 )
                  (  0.0000000  0.0000000 -1.0000000 )
                  (  0.0000000  1.0000000  0.0000000 )


      isym = 24     inv.  90 deg rotation - cart. axis [1,0,0]   

 cryst.   s(24) = (     0         -1          1      )
                  (     1         -1          0      )
                  (     0         -1          0      )

 cart.    s(24) = ( -1.0000000  0.0000000  0.0000000 )
                  (  0.0000000  0.0000000  1.0000000 )
                  (  0.0000000 -1.0000000  0.0000000 )


   Cartesian axes

     site n.     atom                  positions (alat units)
         1           Sn  tau(   1) = (   0.0000000   0.0000000   0.0000000  )
         2           Sn  tau(   2) = (   0.3535534   0.3535534   0.3535534  )

   Crystallographic axes

     site n.     atom                  positions (cryst. coord.)
         1           Sn  tau(   1) = (  0.0000000  0.0000000  0.0000000  )
         2           Sn  tau(   2) = (  0.2500000  0.2500000  0.2500000  )

     number of k points=   256  gaussian smearing, width (Ry)=  0.0100
                       cart. coord. in units 2pi/alat
        k(    1) = (   0.0000000   0.0000000   0.0000000), wk =   0.0002500
        k(    2) = (   0.0353553   0.0353553  -0.0353553), wk =   0.0020000
        k(    3) = (   0.0707107   0.0707107  -0.0707107), wk =   0.0020000
        k(    4) = (   0.1060660   0.1060660  -0.1060660), wk =   0.0020000
        k(    5) = (   0.1414214   0.1414214  -0.1414214), wk =   0.0020000
        k(    6) = (   0.1767767   0.1767767  -0.1767767), wk =   0.0020000
        k(    7) = (   0.2121320   0.2121320  -0.2121320), wk =   0.0020000
        k(    8) = (   0.2474874   0.2474874  -0.2474874), wk =   0.0020000
        k(    9) = (   0.2828427   0.2828427  -0.2828427), wk =   0.0020000
        k(   10) = (   0.3181981   0.3181981  -0.3181981), wk =   0.0020000
        k(   11) = (  -0.3535534  -0.3535534   0.3535534), wk =   0.0010000
        k(   12) = (   0.0707107   0.0000000   0.0000000), wk =   0.0015000
        k(   13) = (   0.1060660   0.0353553  -0.0353553), wk =   0.0060000
        k(   14) = (   0.1414214   0.0707107  -0.0707107), wk =   0.0060000
        k(   15) = (   0.1767767   0.1060660  -0.1060660), wk =   0.0060000
        k(   16) = (   0.2121320   0.1414214  -0.1414214), wk =   0.0060000
        k(   17) = (   0.2474874   0.1767767  -0.1767767), wk =   0.0060000
        k(   18) = (   0.2828427   0.2121320  -0.2121320), wk =   0.0060000
        k(   19) = (   0.3181981   0.2474874  -0.2474874), wk =   0.0060000
        k(   20) = (   0.3535534   0.2828427  -0.2828427), wk =   0.0060000
        k(   21) = (  -0.3181981  -0.3889087   0.3889087), wk =   0.0060000
        k(   22) = (  -0.2828427  -0.3535534   0.3535534), wk =   0.0060000
        k(   23) = (  -0.2474874  -0.3181981   0.3181981), wk =   0.0060000
        k(   24) = (  -0.2121320  -0.2828427   0.2828427), wk =   0.0060000
        k(   25) = (  -0.1767767  -0.2474874   0.2474874), wk =   0.0060000
        k(   26) = (  -0.1414214  -0.2121320   0.2121320), wk =   0.0060000
        k(   27) = (  -0.1060660  -0.1767767   0.1767767), wk =   0.0060000
        k(   28) = (  -0.0707107  -0.1414214   0.1414214), wk =   0.0060000
        k(   29) = (  -0.0353553  -0.1060660   0.1060660), wk =   0.0060000
        k(   30) = (  -0.0000000  -0.0707107   0.0707107), wk =   0.0030000
        k(   31) = (   0.1414214   0.0000000   0.0000000), wk =   0.0015000
        k(   32) = (   0.1767767   0.0353553  -0.0353553), wk =   0.0060000
        k(   33) = (   0.2121320   0.0707107  -0.0707107), wk =   0.0060000
        k(   34) = (   0.2474874   0.1060660  -0.1060660), wk =   0.0060000
        k(   35) = (   0.2828427   0.1414214  -0.1414214), wk =   0.0060000
        k(   36) = (   0.3181981   0.1767767  -0.1767767), wk =   0.0060000
        k(   37) = (   0.3535534   0.2121320  -0.2121320), wk =   0.0060000
        k(   38) = (   0.3889087   0.2474874  -0.2474874), wk =   0.0060000
        k(   39) = (  -0.2828427  -0.4242641   0.4242641), wk =   0.0060000
        k(   40) = (  -0.2474874  -0.3889087   0.3889087), wk =   0.0060000
        k(   41) = (  -0.2121320  -0.3535534   0.3535534), wk =   0.0060000
        k(   42) = (  -0.1767767  -0.3181981   0.3181981), wk =   0.0060000
        k(   43) = (  -0.1414214  -0.2828427   0.2828427), wk =   0.0060000
        k(   44) = (  -0.1060660  -0.2474874   0.2474874), wk =   0.0060000
        k(   45) = (  -0.0707107  -0.2121320   0.2121320), wk =   0.0060000
        k(   46) = (  -0.0353553  -0.1767767   0.1767767), wk =   0.0060000
        k(   47) = (   0.0000000  -0.1414214   0.1414214), wk =   0.0030000
        k(   48) = (   0.2121320   0.0000000   0.0000000), wk =   0.0015000
        k(   49) = (   0.2474874   0.0353553  -0.0353553), wk =   0.0060000
        k(   50) = (   0.2828427   0.0707107  -0.0707107), wk =   0.0060000
        k(   51) = (   0.3181981   0.1060660  -0.1060660), wk =   0.0060000
        k(   52) = (   0.3535534   0.1414214  -0.1414214), wk =   0.0060000
        k(   53) = (   0.3889087   0.1767767  -0.1767767), wk =   0.0060000
        k(   54) = (   0.4242641   0.2121320  -0.2121320), wk =   0.0060000
        k(   55) = (  -0.2474874  -0.4596194   0.4596194), wk =   0.0060000
        k(   56) = (  -0.2121320  -0.4242641   0.4242641), wk =   0.0060000
        k(   57) = (  -0.1767767  -0.3889087   0.3889087), wk =   0.0060000
        k(   58) = (  -0.1414214  -0.3535534   0.3535534), wk =   0.0060000
        k(   59) = (  -0.1060660  -0.3181981   0.3181981), wk =   0.0060000
        k(   60) = (  -0.0707107  -0.2828427   0.2828427), wk =   0.0060000
        k(   61) = (  -0.0353553  -0.2474874   0.2474874), wk =   0.0060000
        k(   62) = (  -0.0000000  -0.2121320   0.2121320), wk =   0.0030000
        k(   63) = (   0.2828427   0.0000000   0.0000000), wk =   0.0015000
        k(   64) = (   0.3181981   0.0353553  -0.0353553), wk =   0.0060000
        k(   65) = (   0.3535534   0.0707107  -0.0707107), wk =   0.0060000
        k(   66) = (   0.3889087   0.1060660  -0.1060660), wk =   0.0060000
        k(   67) = (   0.4242641   0.1414214  -0.1414214), wk =   0.0060000
        k(   68) = (   0.4596194   0.1767767  -0.1767767), wk =   0.0060000
        k(   69) = (  -0.2121320  -0.4949747   0.4949747), wk =   0.0060000
        k(   70) = (  -0.1767767  -0.4596194   0.4596194), wk =   0.0060000
        k(   71) = (  -0.1414214  -0.4242641   0.4242641), wk =   0.0060000
        k(   72) = (  -0.1060660  -0.3889087   0.3889087), wk =   0.0060000
        k(   73) = (  -0.0707107  -0.3535534   0.3535534), wk =   0.0060000
        k(   74) = (  -0.0353553  -0.3181981   0.3181981), wk =   0.0060000
        k(   75) = (   0.0000000  -0.2828427   0.2828427), wk =   0.0030000
        k(   76) = (   0.3535534   0.0000000   0.0000000), wk =   0.0015000
        k(   77) = (   0.3889087   0.0353553  -0.0353553), wk =   0.0060000
        k(   78) = (   0.4242641   0.0707107  -0.0707107), wk =   0.0060000
        k(   79) = (   0.4596194   0.1060660  -0.1060660), wk =   0.0060000
        k(   80) = (   0.4949747   0.1414214  -0.1414214), wk =   0.0060000
        k(   81) = (  -0.1767767  -0.5303301   0.5303301), wk =   0.0060000
        k(   82) = (  -0.1414214  -0.4949747   0.4949747), wk =   0.0060000
        k(   83) = (  -0.1060660  -0.4596194   0.4596194), wk =   0.0060000
        k(   84) = (  -0.0707107  -0.4242641   0.4242641), wk =   0.0060000
        k(   85) = (  -0.0353553  -0.3889087   0.3889087), wk =   0.0060000
        k(   86) = (   0.0000000  -0.3535534   0.3535534), wk =   0.0030000
        k(   87) = (   0.4242641   0.0000000   0.0000000), wk =   0.0015000
        k(   88) = (   0.4596194   0.0353553  -0.0353553), wk =   0.0060000
        k(   89) = (   0.4949747   0.0707107  -0.0707107), wk =   0.0060000
        k(   90) = (   0.5303301   0.1060660  -0.1060660), wk =   0.0060000
        k(   91) = (  -0.1414214  -0.5656854   0.5656854), wk =   0.0060000
        k(   92) = (  -0.1060660  -0.5303301   0.5303301), wk =   0.0060000
        k(   93) = (  -0.0707107  -0.4949747   0.4949747), wk =   0.0060000
        k(   94) = (  -0.0353553  -0.4596194   0.4596194), wk =   0.0060000
        k(   95) = (  -0.0000000  -0.4242641   0.4242641), wk =   0.0030000
        k(   96) = (   0.4949747   0.0000000   0.0000000), wk =   0.0015000
        k(   97) = (   0.5303301   0.0353553  -0.0353553), wk =   0.0060000
        k(   98) = (   0.5656854   0.0707107  -0.0707107), wk =   0.0060000
        k(   99) = (  -0.1060660  -0.6010408   0.6010408), wk =   0.0060000
        k(  100) = (  -0.0707107  -0.5656854   0.5656854), wk =   0.0060000
        k(  101) = (  -0.0353553  -0.5303301   0.5303301), wk =   0.0060000
        k(  102) = (   0.0000000  -0.4949747   0.4949747), wk =   0.0030000
        k(  103) = (   0.5656854   0.0000000   0.0000000), wk =   0.0015000
        k(  104) = (   0.6010408   0.0353553  -0.0353553), wk =   0.0060000
        k(  105) = (  -0.0707107  -0.6363961   0.6363961), wk =   0.0060000
        k(  106) = (  -0.0353553  -0.6010408   0.6010408), wk =   0.0060000
        k(  107) = (   0.0000000  -0.5656854   0.5656854), wk =   0.0030000
        k(  108) = (   0.6363961   0.0000000   0.0000000), wk =   0.0015000
        k(  109) = (  -0.0353553  -0.6717514   0.6717514), wk =   0.0060000
        k(  110) = (   0.0000000  -0.6363961   0.6363961), wk =   0.0030000
        k(  111) = (  -0.7071068   0.0000000   0.0000000), wk =   0.0007500
        k(  112) = (   0.1414214   0.0707107   0.0000000), wk =   0.0060000
        k(  113) = (   0.1767767   0.1060660  -0.0353553), wk =   0.0120000
        k(  114) = (   0.2121320   0.1414214  -0.0707107), wk =   0.0120000
        k(  115) = (   0.2474874   0.1767767  -0.1060660), wk =   0.0120000
        k(  116) = (   0.2828427   0.2121320  -0.1414214), wk =   0.0120000
        k(  117) = (   0.3181981   0.2474874  -0.1767767), wk =   0.0120000
        k(  118) = (   0.3535534   0.2828427  -0.2121320), wk =   0.0120000
        k(  119) = (  -0.3181981  -0.3889087   0.4596194), wk =   0.0120000
        k(  120) = (  -0.2828427  -0.3535534   0.4242641), wk =   0.0060000
        k(  121) = (   0.2121320   0.0707107  -0.0000000), wk =   0.0060000
        k(  122) = (   0.2474874   0.1060660  -0.0353553), wk =   0.0120000
        k(  123) = (   0.2828427   0.1414214  -0.0707107), wk =   0.0120000
        k(  124) = (   0.3181981   0.1767767  -0.1060660), wk =   0.0120000
        k(  125) = (   0.3535534   0.2121320  -0.1414214), wk =   0.0120000
        k(  126) = (   0.3889087   0.2474874  -0.1767767), wk =   0.0120000
        k(  127) = (  -0.2828427  -0.4242641   0.4949747), wk =   0.0120000
        k(  128) = (  -0.2474874  -0.3889087   0.4596194), wk =   0.0120000
        k(  129) = (  -0.2121320  -0.3535534   0.4242641), wk =   0.0120000
        k(  130) = (  -0.1767767  -0.3181981   0.3889087), wk =   0.0120000
        k(  131) = (  -0.1414214  -0.2828427   0.3535534), wk =   0.0120000
        k(  132) = (  -0.1060660  -0.2474874   0.3181981), wk =   0.0120000
        k(  133) = (  -0.0707107  -0.2121320   0.2828427), wk =   0.0120000
        k(  134) = (  -0.0353553  -0.1767767   0.2474874), wk =   0.0120000
        k(  135) = (   0.0000000  -0.1414214   0.2121320), wk =   0.0060000
        k(  136) = (   0.2828427   0.0707107   0.0000000), wk =   0.0060000
        k(  137) = (   0.3181981   0.1060660  -0.0353553), wk =   0.0120000
        k(  138) = (   0.3535534   0.1414214  -0.0707107), wk =   0.0120000
        k(  139) = (   0.3889087   0.1767767  -0.1060660), wk =   0.0120000
        k(  140) = (   0.4242641   0.2121320  -0.1414214), wk =   0.0120000
        k(  141) = (  -0.2474874  -0.4596194   0.5303301), wk =   0.0120000
        k(  142) = (  -0.2121320  -0.4242641   0.4949747), wk =   0.0120000
        k(  143) = (  -0.1767767  -0.3889087   0.4596194), wk =   0.0120000
        k(  144) = (  -0.1414214  -0.3535534   0.4242641), wk =   0.0120000
        k(  145) = (  -0.1060660  -0.3181981   0.3889087), wk =   0.0120000
        k(  146) = (  -0.0707107  -0.2828427   0.3535534), wk =   0.0120000
        k(  147) = (  -0.0353553  -0.2474874   0.3181981), wk =   0.0120000
        k(  148) = (  -0.0000000  -0.2121320   0.2828427), wk =   0.0060000
        k(  149) = (   0.3535534   0.0707107   0.0000000), wk =   0.0060000
        k(  150) = (   0.3889087   0.1060660  -0.0353553), wk =   0.0120000
        k(  151) = (   0.4242641   0.1414214  -0.0707107), wk =   0.0120000
        k(  152) = (   0.4596194   0.1767767  -0.1060660), wk =   0.0120000
        k(  153) = (  -0.2121320  -0.4949747   0.5656854), wk =   0.0120000
        k(  154) = (  -0.1767767  -0.4596194   0.5303301), wk =   0.0120000
        k(  155) = (  -0.1414214  -0.4242641   0.4949747), wk =   0.0120000
        k(  156) = (  -0.1060660  -0.3889087   0.4596194), wk =   0.0120000
        k(  157) = (  -0.0707107  -0.3535534   0.4242641), wk =   0.0120000
        k(  158) = (  -0.0353553  -0.3181981   0.3889087), wk =   0.0120000
        k(  159) = (   0.0000000  -0.2828427   0.3535534), wk =   0.0060000
        k(  160) = (   0.4242641   0.0707107   0.0000000), wk =   0.0060000
        k(  161) = (   0.4596194   0.1060660  -0.0353553), wk =   0.0120000
        k(  162) = (   0.4949747   0.1414214  -0.0707107), wk =   0.0120000
        k(  163) = (  -0.1767767  -0.5303301   0.6010408), wk =   0.0120000
        k(  164) = (  -0.1414214  -0.4949747   0.5656854), wk =   0.0120000
        k(  165) = (  -0.1060660  -0.4596194   0.5303301), wk =   0.0120000
        k(  166) = (  -0.0707107  -0.4242641   0.4949747), wk =   0.0120000
        k(  167) = (  -0.0353553  -0.3889087   0.4596194), wk =   0.0120000
        k(  168) = (  -0.0000000  -0.3535534   0.4242641), wk =   0.0060000
        k(  169) = (   0.4949747   0.0707107  -0.0000000), wk =   0.0060000
        k(  170) = (   0.5303301   0.1060660  -0.0353553), wk =   0.0120000
        k(  171) = (  -0.1414214  -0.5656854   0.6363961), wk =   0.0120000
        k(  172) = (  -0.1060660  -0.5303301   0.6010408), wk =   0.0120000
        k(  173) = (  -0.0707107  -0.4949747   0.5656854), wk =   0.0120000
        k(  174) = (  -0.0353553  -0.4596194   0.5303301), wk =   0.0120000
        k(  175) = (  -0.0000000  -0.4242641   0.4949747), wk =   0.0060000
        k(  176) = (   0.5656854   0.0707107   0.0000000), wk =   0.0060000
        k(  177) = (  -0.1060660  -0.6010408   0.6717514), wk =   0.0120000
        k(  178) = (  -0.0707107  -0.5656854   0.6363961), wk =   0.0120000
        k(  179) = (  -0.0353553  -0.5303301   0.6010408), wk =   0.0120000
        k(  180) = (   0.0000000  -0.4949747   0.5656854), wk =   0.0060000
        k(  181) = (  -0.0707107  -0.6363961   0.7071068), wk =   0.0060000
        k(  182) = (  -0.0353553  -0.6010408   0.6717514), wk =   0.0120000
        k(  183) = (   0.0000000  -0.5656854   0.6363961), wk =   0.0060000
        k(  184) = (  -0.7071068   0.0707107  -0.0000000), wk =   0.0030000
        k(  185) = (   0.2828427   0.1414214   0.0000000), wk =   0.0060000
        k(  186) = (   0.3181981   0.1767767  -0.0353553), wk =   0.0120000
        k(  187) = (   0.3535534   0.2121320  -0.0707107), wk =   0.0120000
        k(  188) = (   0.3889087   0.2474874  -0.1060660), wk =   0.0120000
        k(  189) = (  -0.2828427  -0.4242641   0.5656854), wk =   0.0120000
        k(  190) = (  -0.2474874  -0.3889087   0.5303301), wk =   0.0120000
        k(  191) = (  -0.2121320  -0.3535534   0.4949747), wk =   0.0060000
        k(  192) = (   0.3535534   0.1414214   0.0000000), wk =   0.0060000
        k(  193) = (   0.3889087   0.1767767  -0.0353553), wk =   0.0120000
        k(  194) = (   0.4242641   0.2121320  -0.0707107), wk =   0.0120000
        k(  195) = (  -0.2474874  -0.4596194   0.6010408), wk =   0.0120000
        k(  196) = (  -0.2121320  -0.4242641   0.5656854), wk =   0.0120000
        k(  197) = (  -0.1767767  -0.3889087   0.5303301), wk =   0.0120000
        k(  198) = (  -0.1414214  -0.3535534   0.4949747), wk =   0.0120000
        k(  199) = (  -0.1060660  -0.3181981   0.4596194), wk =   0.0120000
        k(  200) = (  -0.0707107  -0.2828427   0.4242641), wk =   0.0120000
        k(  201) = (  -0.0353553  -0.2474874   0.3889087), wk =   0.0120000
        k(  202) = (  -0.0000000  -0.2121320   0.3535534), wk =   0.0060000
        k(  203) = (   0.4242641   0.1414214  -0.0000000), wk =   0.0060000
        k(  204) = (   0.4596194   0.1767767  -0.0353553), wk =   0.0120000
        k(  205) = (  -0.2121320  -0.4949747   0.6363961), wk =   0.0120000
        k(  206) = (  -0.1767767  -0.4596194   0.6010408), wk =   0.0120000
        k(  207) = (  -0.1414214  -0.4242641   0.5656854), wk =   0.0120000
        k(  208) = (  -0.1060660  -0.3889087   0.5303301), wk =   0.0120000
        k(  209) = (  -0.0707107  -0.3535534   0.4949747), wk =   0.0120000
        k(  210) = (  -0.0353553  -0.3181981   0.4596194), wk =   0.0120000
        k(  211) = (   0.0000000  -0.2828427   0.4242641), wk =   0.0060000
        k(  212) = (   0.4949747   0.1414214   0.0000000), wk =   0.0060000
        k(  213) = (  -0.1767767  -0.5303301   0.6717514), wk =   0.0120000
        k(  214) = (  -0.1414214  -0.4949747   0.6363961), wk =   0.0120000
        k(  215) = (  -0.1060660  -0.4596194   0.6010408), wk =   0.0120000
        k(  216) = (  -0.0707107  -0.4242641   0.5656854), wk =   0.0120000
        k(  217) = (  -0.0353553  -0.3889087   0.5303301), wk =   0.0120000
        k(  218) = (  -0.0000000  -0.3535534   0.4949747), wk =   0.0060000
        k(  219) = (  -0.1414214  -0.5656854   0.7071068), wk =   0.0060000
        k(  220) = (  -0.1060660  -0.5303301   0.6717514), wk =   0.0120000
        k(  221) = (  -0.0707107  -0.4949747   0.6363961), wk =   0.0120000
        k(  222) = (  -0.0353553  -0.4596194   0.6010408), wk =   0.0120000
        k(  223) = (  -0.0000000  -0.4242641   0.5656854), wk =   0.0060000
        k(  224) = (  -0.0707107  -0.5656854   0.7071068), wk =   0.0060000
        k(  225) = (  -0.0353553  -0.5303301   0.6717514), wk =   0.0120000
        k(  226) = (   0.0000000  -0.4949747   0.6363961), wk =   0.0060000
        k(  227) = (  -0.7071068   0.1414214   0.0000000), wk =   0.0030000
        k(  228) = (   0.4242641   0.2121320  -0.0000000), wk =   0.0060000
        k(  229) = (  -0.2474874  -0.4596194   0.6717514), wk =   0.0120000
        k(  230) = (  -0.2121320  -0.4242641   0.6363961), wk =   0.0120000
        k(  231) = (  -0.1767767  -0.3889087   0.6010408), wk =   0.0120000
        k(  232) = (  -0.1414214  -0.3535534   0.5656854), wk =   0.0060000
        k(  233) = (  -0.2121320  -0.4949747   0.7071068), wk =   0.0060000
        k(  234) = (  -0.1767767  -0.4596194   0.6717514), wk =   0.0120000
        k(  235) = (  -0.1414214  -0.4242641   0.6363961), wk =   0.0120000
        k(  236) = (  -0.1060660  -0.3889087   0.6010408), wk =   0.0120000
        k(  237) = (  -0.0707107  -0.3535534   0.5656854), wk =   0.0120000
        k(  238) = (  -0.0353553  -0.3181981   0.5303301), wk =   0.0120000
        k(  239) = (   0.0000000  -0.2828427   0.4949747), wk =   0.0060000
        k(  240) = (  -0.1414214  -0.4949747   0.7071068), wk =   0.0060000
        k(  241) = (  -0.1060660  -0.4596194   0.6717514), wk =   0.0120000
        k(  242) = (  -0.0707107  -0.4242641   0.6363961), wk =   0.0120000
        k(  243) = (  -0.0353553  -0.3889087   0.6010408), wk =   0.0120000
        k(  244) = (   0.0000000  -0.3535534   0.5656854), wk =   0.0060000
        k(  245) = (  -0.0707107  -0.4949747   0.7071068), wk =   0.0060000
        k(  246) = (  -0.0353553  -0.4596194   0.6717514), wk =   0.0120000
        k(  247) = (  -0.0000000  -0.4242641   0.6363961), wk =   0.0060000
        k(  248) = (  -0.7071068   0.2121320   0.0000000), wk =   0.0030000
        k(  249) = (  -0.1414214  -0.4242641   0.7071068), wk =   0.0060000
        k(  250) = (  -0.1060660  -0.3889087   0.6717514), wk =   0.0120000
        k(  251) = (  -0.0707107  -0.3535534   0.6363961), wk =   0.0060000
        k(  252) = (  -0.0707107  -0.4242641   0.7071068), wk =   0.0060000
        k(  253) = (  -0.0353553  -0.3889087   0.6717514), wk =   0.0120000
        k(  254) = (   0.0000000  -0.3535534   0.6363961), wk =   0.0060000
        k(  255) = (  -0.7071068   0.2828427   0.0000000), wk =   0.0030000
        k(  256) = (  -0.7071068   0.3535534   0.0000000), wk =   0.0015000

                       cryst. coord.
        k(    1) = (   0.0000000   0.0000000   0.0000000), wk =   0.0002500
        k(    2) = (   0.0000000   0.0000000   0.0500000), wk =   0.0020000
        k(    3) = (   0.0000000   0.0000000   0.1000000), wk =   0.0020000
        k(    4) = (   0.0000000   0.0000000   0.1500000), wk =   0.0020000
        k(    5) = (   0.0000000   0.0000000   0.2000000), wk =   0.0020000
        k(    6) = (   0.0000000   0.0000000   0.2500000), wk =   0.0020000
        k(    7) = (   0.0000000   0.0000000   0.3000000), wk =   0.0020000
        k(    8) = (   0.0000000   0.0000000   0.3500000), wk =   0.0020000
        k(    9) = (   0.0000000   0.0000000   0.4000000), wk =   0.0020000
        k(   10) = (   0.0000000   0.0000000   0.4500000), wk =   0.0020000
        k(   11) = (   0.0000000   0.0000000  -0.5000000), wk =   0.0010000
        k(   12) = (   0.0000000   0.0500000   0.0500000), wk =   0.0015000
        k(   13) = (   0.0000000   0.0500000   0.1000000), wk =   0.0060000
        k(   14) = (   0.0000000   0.0500000   0.1500000), wk =   0.0060000
        k(   15) = (   0.0000000   0.0500000   0.2000000), wk =   0.0060000
        k(   16) = (   0.0000000   0.0500000   0.2500000), wk =   0.0060000
        k(   17) = (   0.0000000   0.0500000   0.3000000), wk =   0.0060000
        k(   18) = (   0.0000000   0.0500000   0.3500000), wk =   0.0060000
        k(   19) = (   0.0000000   0.0500000   0.4000000), wk =   0.0060000
        k(   20) = (   0.0000000   0.0500000   0.4500000), wk =   0.0060000
        k(   21) = (   0.0000000   0.0500000  -0.5000000), wk =   0.0060000
        k(   22) = (   0.0000000   0.0500000  -0.4500000), wk =   0.0060000
        k(   23) = (   0.0000000   0.0500000  -0.4000000), wk =   0.0060000
        k(   24) = (   0.0000000   0.0500000  -0.3500000), wk =   0.0060000
        k(   25) = (   0.0000000   0.0500000  -0.3000000), wk =   0.0060000
        k(   26) = (   0.0000000   0.0500000  -0.2500000), wk =   0.0060000
        k(   27) = (   0.0000000   0.0500000  -0.2000000), wk =   0.0060000
        k(   28) = (   0.0000000   0.0500000  -0.1500000), wk =   0.0060000
        k(   29) = (   0.0000000   0.0500000  -0.1000000), wk =   0.0060000
        k(   30) = (   0.0000000   0.0500000  -0.0500000), wk =   0.0030000
        k(   31) = (   0.0000000   0.1000000   0.1000000), wk =   0.0015000
        k(   32) = (   0.0000000   0.1000000   0.1500000), wk =   0.0060000
        k(   33) = (   0.0000000   0.1000000   0.2000000), wk =   0.0060000
        k(   34) = (   0.0000000   0.1000000   0.2500000), wk =   0.0060000
        k(   35) = (   0.0000000   0.1000000   0.3000000), wk =   0.0060000
        k(   36) = (   0.0000000   0.1000000   0.3500000), wk =   0.0060000
        k(   37) = (   0.0000000   0.1000000   0.4000000), wk =   0.0060000
        k(   38) = (   0.0000000   0.1000000   0.4500000), wk =   0.0060000
        k(   39) = (   0.0000000   0.1000000  -0.5000000), wk =   0.0060000
        k(   40) = (   0.0000000   0.1000000  -0.4500000), wk =   0.0060000
        k(   41) = (   0.0000000   0.1000000  -0.4000000), wk =   0.0060000
        k(   42) = (   0.0000000   0.1000000  -0.3500000), wk =   0.0060000
        k(   43) = (   0.0000000   0.1000000  -0.3000000), wk =   0.0060000
        k(   44) = (   0.0000000   0.1000000  -0.2500000), wk =   0.0060000
        k(   45) = (   0.0000000   0.1000000  -0.2000000), wk =   0.0060000
        k(   46) = (   0.0000000   0.1000000  -0.1500000), wk =   0.0060000
        k(   47) = (   0.0000000   0.1000000  -0.1000000), wk =   0.0030000
        k(   48) = (   0.0000000   0.1500000   0.1500000), wk =   0.0015000
        k(   49) = (   0.0000000   0.1500000   0.2000000), wk =   0.0060000
        k(   50) = (   0.0000000   0.1500000   0.2500000), wk =   0.0060000
        k(   51) = (   0.0000000   0.1500000   0.3000000), wk =   0.0060000
        k(   52) = (   0.0000000   0.1500000   0.3500000), wk =   0.0060000
        k(   53) = (   0.0000000   0.1500000   0.4000000), wk =   0.0060000
        k(   54) = (   0.0000000   0.1500000   0.4500000), wk =   0.0060000
        k(   55) = (   0.0000000   0.1500000  -0.5000000), wk =   0.0060000
        k(   56) = (   0.0000000   0.1500000  -0.4500000), wk =   0.0060000
        k(   57) = (   0.0000000   0.1500000  -0.4000000), wk =   0.0060000
        k(   58) = (   0.0000000   0.1500000  -0.3500000), wk =   0.0060000
        k(   59) = (   0.0000000   0.1500000  -0.3000000), wk =   0.0060000
        k(   60) = (   0.0000000   0.1500000  -0.2500000), wk =   0.0060000
        k(   61) = (   0.0000000   0.1500000  -0.2000000), wk =   0.0060000
        k(   62) = (   0.0000000   0.1500000  -0.1500000), wk =   0.0030000
        k(   63) = (   0.0000000   0.2000000   0.2000000), wk =   0.0015000
        k(   64) = (   0.0000000   0.2000000   0.2500000), wk =   0.0060000
        k(   65) = (   0.0000000   0.2000000   0.3000000), wk =   0.0060000
        k(   66) = (   0.0000000   0.2000000   0.3500000), wk =   0.0060000
        k(   67) = (   0.0000000   0.2000000   0.4000000), wk =   0.0060000
        k(   68) = (   0.0000000   0.2000000   0.4500000), wk =   0.0060000
        k(   69) = (   0.0000000   0.2000000  -0.5000000), wk =   0.0060000
        k(   70) = (   0.0000000   0.2000000  -0.4500000), wk =   0.0060000
        k(   71) = (   0.0000000   0.2000000  -0.4000000), wk =   0.0060000
        k(   72) = (   0.0000000   0.2000000  -0.3500000), wk =   0.0060000
        k(   73) = (   0.0000000   0.2000000  -0.3000000), wk =   0.0060000
        k(   74) = (   0.0000000   0.2000000  -0.2500000), wk =   0.0060000
        k(   75) = (   0.0000000   0.2000000  -0.2000000), wk =   0.0030000
        k(   76) = (   0.0000000   0.2500000   0.2500000), wk =   0.0015000
        k(   77) = (   0.0000000   0.2500000   0.3000000), wk =   0.0060000
        k(   78) = (   0.0000000   0.2500000   0.3500000), wk =   0.0060000
        k(   79) = (   0.0000000   0.2500000   0.4000000), wk =   0.0060000
        k(   80) = (   0.0000000   0.2500000   0.4500000), wk =   0.0060000
        k(   81) = (   0.0000000   0.2500000  -0.5000000), wk =   0.0060000
        k(   82) = (   0.0000000   0.2500000  -0.4500000), wk =   0.0060000
        k(   83) = (   0.0000000   0.2500000  -0.4000000), wk =   0.0060000
        k(   84) = (   0.0000000   0.2500000  -0.3500000), wk =   0.0060000
        k(   85) = (   0.0000000   0.2500000  -0.3000000), wk =   0.0060000
        k(   86) = (   0.0000000   0.2500000  -0.2500000), wk =   0.0030000
        k(   87) = (   0.0000000   0.3000000   0.3000000), wk =   0.0015000
        k(   88) = (   0.0000000   0.3000000   0.3500000), wk =   0.0060000
        k(   89) = (   0.0000000   0.3000000   0.4000000), wk =   0.0060000
        k(   90) = (   0.0000000   0.3000000   0.4500000), wk =   0.0060000
        k(   91) = (   0.0000000   0.3000000  -0.5000000), wk =   0.0060000
        k(   92) = (   0.0000000   0.3000000  -0.4500000), wk =   0.0060000
        k(   93) = (   0.0000000   0.3000000  -0.4000000), wk =   0.0060000
        k(   94) = (   0.0000000   0.3000000  -0.3500000), wk =   0.0060000
        k(   95) = (   0.0000000   0.3000000  -0.3000000), wk =   0.0030000
        k(   96) = (   0.0000000   0.3500000   0.3500000), wk =   0.0015000
        k(   97) = (   0.0000000   0.3500000   0.4000000), wk =   0.0060000
        k(   98) = (   0.0000000   0.3500000   0.4500000), wk =   0.0060000
        k(   99) = (   0.0000000   0.3500000  -0.5000000), wk =   0.0060000
        k(  100) = (   0.0000000   0.3500000  -0.4500000), wk =   0.0060000
        k(  101) = (   0.0000000   0.3500000  -0.4000000), wk =   0.0060000
        k(  102) = (   0.0000000   0.3500000  -0.3500000), wk =   0.0030000
        k(  103) = (   0.0000000   0.4000000   0.4000000), wk =   0.0015000
        k(  104) = (   0.0000000   0.4000000   0.4500000), wk =   0.0060000
        k(  105) = (   0.0000000   0.4000000  -0.5000000), wk =   0.0060000
        k(  106) = (   0.0000000   0.4000000  -0.4500000), wk =   0.0060000
        k(  107) = (   0.0000000   0.4000000  -0.4000000), wk =   0.0030000
        k(  108) = (   0.0000000   0.4500000   0.4500000), wk =   0.0015000
        k(  109) = (   0.0000000   0.4500000  -0.5000000), wk =   0.0060000
        k(  110) = (   0.0000000   0.4500000  -0.4500000), wk =   0.0030000
        k(  111) = (   0.0000000  -0.5000000  -0.5000000), wk =   0.0007500
        k(  112) = (   0.0500000   0.1000000   0.1500000), wk =   0.0060000
        k(  113) = (   0.0500000   0.1000000   0.2000000), wk =   0.0120000
        k(  114) = (   0.0500000   0.1000000   0.2500000), wk =   0.0120000
        k(  115) = (   0.0500000   0.1000000   0.3000000), wk =   0.0120000
        k(  116) = (   0.0500000   0.1000000   0.3500000), wk =   0.0120000
        k(  117) = (   0.0500000   0.1000000   0.4000000), wk =   0.0120000
        k(  118) = (   0.0500000   0.1000000   0.4500000), wk =   0.0120000
        k(  119) = (   0.0500000   0.1000000  -0.5000000), wk =   0.0120000
        k(  120) = (   0.0500000   0.1000000  -0.4500000), wk =   0.0060000
        k(  121) = (   0.0500000   0.1500000   0.2000000), wk =   0.0060000
        k(  122) = (   0.0500000   0.1500000   0.2500000), wk =   0.0120000
        k(  123) = (   0.0500000   0.1500000   0.3000000), wk =   0.0120000
        k(  124) = (   0.0500000   0.1500000   0.3500000), wk =   0.0120000
        k(  125) = (   0.0500000   0.1500000   0.4000000), wk =   0.0120000
        k(  126) = (   0.0500000   0.1500000   0.4500000), wk =   0.0120000
        k(  127) = (   0.0500000   0.1500000  -0.5000000), wk =   0.0120000
        k(  128) = (   0.0500000   0.1500000  -0.4500000), wk =   0.0120000
        k(  129) = (   0.0500000   0.1500000  -0.4000000), wk =   0.0120000
        k(  130) = (   0.0500000   0.1500000  -0.3500000), wk =   0.0120000
        k(  131) = (   0.0500000   0.1500000  -0.3000000), wk =   0.0120000
        k(  132) = (   0.0500000   0.1500000  -0.2500000), wk =   0.0120000
        k(  133) = (   0.0500000   0.1500000  -0.2000000), wk =   0.0120000
        k(  134) = (   0.0500000   0.1500000  -0.1500000), wk =   0.0120000
        k(  135) = (   0.0500000   0.1500000  -0.1000000), wk =   0.0060000
        k(  136) = (   0.0500000   0.2000000   0.2500000), wk =   0.0060000
        k(  137) = (   0.0500000   0.2000000   0.3000000), wk =   0.0120000
        k(  138) = (   0.0500000   0.2000000   0.3500000), wk =   0.0120000
        k(  139) = (   0.0500000   0.2000000   0.4000000), wk =   0.0120000
        k(  140) = (   0.0500000   0.2000000   0.4500000), wk =   0.0120000
        k(  141) = (   0.0500000   0.2000000  -0.5000000), wk =   0.0120000
        k(  142) = (   0.0500000   0.2000000  -0.4500000), wk =   0.0120000
        k(  143) = (   0.0500000   0.2000000  -0.4000000), wk =   0.0120000
        k(  144) = (   0.0500000   0.2000000  -0.3500000), wk =   0.0120000
        k(  145) = (   0.0500000   0.2000000  -0.3000000), wk =   0.0120000
        k(  146) = (   0.0500000   0.2000000  -0.2500000), wk =   0.0120000
        k(  147) = (   0.0500000   0.2000000  -0.2000000), wk =   0.0120000
        k(  148) = (   0.0500000   0.2000000  -0.1500000), wk =   0.0060000
        k(  149) = (   0.0500000   0.2500000   0.3000000), wk =   0.0060000
        k(  150) = (   0.0500000   0.2500000   0.3500000), wk =   0.0120000
        k(  151) = (   0.0500000   0.2500000   0.4000000), wk =   0.0120000
        k(  152) = (   0.0500000   0.2500000   0.4500000), wk =   0.0120000
        k(  153) = (   0.0500000   0.2500000  -0.5000000), wk =   0.0120000
        k(  154) = (   0.0500000   0.2500000  -0.4500000), wk =   0.0120000
        k(  155) = (   0.0500000   0.2500000  -0.4000000), wk =   0.0120000
        k(  156) = (   0.0500000   0.2500000  -0.3500000), wk =   0.0120000
        k(  157) = (   0.0500000   0.2500000  -0.3000000), wk =   0.0120000
        k(  158) = (   0.0500000   0.2500000  -0.2500000), wk =   0.0120000
        k(  159) = (   0.0500000   0.2500000  -0.2000000), wk =   0.0060000
        k(  160) = (   0.0500000   0.3000000   0.3500000), wk =   0.0060000
        k(  161) = (   0.0500000   0.3000000   0.4000000), wk =   0.0120000
        k(  162) = (   0.0500000   0.3000000   0.4500000), wk =   0.0120000
        k(  163) = (   0.0500000   0.3000000  -0.5000000), wk =   0.0120000
        k(  164) = (   0.0500000   0.3000000  -0.4500000), wk =   0.0120000
        k(  165) = (   0.0500000   0.3000000  -0.4000000), wk =   0.0120000
        k(  166) = (   0.0500000   0.3000000  -0.3500000), wk =   0.0120000
        k(  167) = (   0.0500000   0.3000000  -0.3000000), wk =   0.0120000
        k(  168) = (   0.0500000   0.3000000  -0.2500000), wk =   0.0060000
        k(  169) = (   0.0500000   0.3500000   0.4000000), wk =   0.0060000
        k(  170) = (   0.0500000   0.3500000   0.4500000), wk =   0.0120000
        k(  171) = (   0.0500000   0.3500000  -0.5000000), wk =   0.0120000
        k(  172) = (   0.0500000   0.3500000  -0.4500000), wk =   0.0120000
        k(  173) = (   0.0500000   0.3500000  -0.4000000), wk =   0.0120000
        k(  174) = (   0.0500000   0.3500000  -0.3500000), wk =   0.0120000
        k(  175) = (   0.0500000   0.3500000  -0.3000000), wk =   0.0060000
        k(  176) = (   0.0500000   0.4000000   0.4500000), wk =   0.0060000
        k(  177) = (   0.0500000   0.4000000  -0.5000000), wk =   0.0120000
        k(  178) = (   0.0500000   0.4000000  -0.4500000), wk =   0.0120000
        k(  179) = (   0.0500000   0.4000000  -0.4000000), wk =   0.0120000
        k(  180) = (   0.0500000   0.4000000  -0.3500000), wk =   0.0060000
        k(  181) = (   0.0500000   0.4500000  -0.5000000), wk =   0.0060000
        k(  182) = (   0.0500000   0.4500000  -0.4500000), wk =   0.0120000
        k(  183) = (   0.0500000   0.4500000  -0.4000000), wk =   0.0060000
        k(  184) = (   0.0500000  -0.5000000  -0.4500000), wk =   0.0030000
        k(  185) = (   0.1000000   0.2000000   0.3000000), wk =   0.0060000
        k(  186) = (   0.1000000   0.2000000   0.3500000), wk =   0.0120000
        k(  187) = (   0.1000000   0.2000000   0.4000000), wk =   0.0120000
        k(  188) = (   0.1000000   0.2000000   0.4500000), wk =   0.0120000
        k(  189) = (   0.1000000   0.2000000  -0.5000000), wk =   0.0120000
        k(  190) = (   0.1000000   0.2000000  -0.4500000), wk =   0.0120000
        k(  191) = (   0.1000000   0.2000000  -0.4000000), wk =   0.0060000
        k(  192) = (   0.1000000   0.2500000   0.3500000), wk =   0.0060000
        k(  193) = (   0.1000000   0.2500000   0.4000000), wk =   0.0120000
        k(  194) = (   0.1000000   0.2500000   0.4500000), wk =   0.0120000
        k(  195) = (   0.1000000   0.2500000  -0.5000000), wk =   0.0120000
        k(  196) = (   0.1000000   0.2500000  -0.4500000), wk =   0.0120000
        k(  197) = (   0.1000000   0.2500000  -0.4000000), wk =   0.0120000
        k(  198) = (   0.1000000   0.2500000  -0.3500000), wk =   0.0120000
        k(  199) = (   0.1000000   0.2500000  -0.3000000), wk =   0.0120000
        k(  200) = (   0.1000000   0.2500000  -0.2500000), wk =   0.0120000
        k(  201) = (   0.1000000   0.2500000  -0.2000000), wk =   0.0120000
        k(  202) = (   0.1000000   0.2500000  -0.1500000), wk =   0.0060000
        k(  203) = (   0.1000000   0.3000000   0.4000000), wk =   0.0060000
        k(  204) = (   0.1000000   0.3000000   0.4500000), wk =   0.0120000
        k(  205) = (   0.1000000   0.3000000  -0.5000000), wk =   0.0120000
        k(  206) = (   0.1000000   0.3000000  -0.4500000), wk =   0.0120000
        k(  207) = (   0.1000000   0.3000000  -0.4000000), wk =   0.0120000
        k(  208) = (   0.1000000   0.3000000  -0.3500000), wk =   0.0120000
        k(  209) = (   0.1000000   0.3000000  -0.3000000), wk =   0.0120000
        k(  210) = (   0.1000000   0.3000000  -0.2500000), wk =   0.0120000
        k(  211) = (   0.1000000   0.3000000  -0.2000000), wk =   0.0060000
        k(  212) = (   0.1000000   0.3500000   0.4500000), wk =   0.0060000
        k(  213) = (   0.1000000   0.3500000  -0.5000000), wk =   0.0120000
        k(  214) = (   0.1000000   0.3500000  -0.4500000), wk =   0.0120000
        k(  215) = (   0.1000000   0.3500000  -0.4000000), wk =   0.0120000
        k(  216) = (   0.1000000   0.3500000  -0.3500000), wk =   0.0120000
        k(  217) = (   0.1000000   0.3500000  -0.3000000), wk =   0.0120000
        k(  218) = (   0.1000000   0.3500000  -0.2500000), wk =   0.0060000
        k(  219) = (   0.1000000   0.4000000  -0.5000000), wk =   0.0060000
        k(  220) = (   0.1000000   0.4000000  -0.4500000), wk =   0.0120000
        k(  221) = (   0.1000000   0.4000000  -0.4000000), wk =   0.0120000
        k(  222) = (   0.1000000   0.4000000  -0.3500000), wk =   0.0120000
        k(  223) = (   0.1000000   0.4000000  -0.3000000), wk =   0.0060000
        k(  224) = (   0.1000000   0.4500000  -0.4500000), wk =   0.0060000
        k(  225) = (   0.1000000   0.4500000  -0.4000000), wk =   0.0120000
        k(  226) = (   0.1000000   0.4500000  -0.3500000), wk =   0.0060000
        k(  227) = (   0.1000000  -0.5000000  -0.4000000), wk =   0.0030000
        k(  228) = (   0.1500000   0.3000000   0.4500000), wk =   0.0060000
        k(  229) = (   0.1500000   0.3000000  -0.5000000), wk =   0.0120000
        k(  230) = (   0.1500000   0.3000000  -0.4500000), wk =   0.0120000
        k(  231) = (   0.1500000   0.3000000  -0.4000000), wk =   0.0120000
        k(  232) = (   0.1500000   0.3000000  -0.3500000), wk =   0.0060000
        k(  233) = (   0.1500000   0.3500000  -0.5000000), wk =   0.0060000
        k(  234) = (   0.1500000   0.3500000  -0.4500000), wk =   0.0120000
        k(  235) = (   0.1500000   0.3500000  -0.4000000), wk =   0.0120000
        k(  236) = (   0.1500000   0.3500000  -0.3500000), wk =   0.0120000
        k(  237) = (   0.1500000   0.3500000  -0.3000000), wk =   0.0120000
        k(  238) = (   0.1500000   0.3500000  -0.2500000), wk =   0.0120000
        k(  239) = (   0.1500000   0.3500000  -0.2000000), wk =   0.0060000
        k(  240) = (   0.1500000   0.4000000  -0.4500000), wk =   0.0060000
        k(  241) = (   0.1500000   0.4000000  -0.4000000), wk =   0.0120000
        k(  242) = (   0.1500000   0.4000000  -0.3500000), wk =   0.0120000
        k(  243) = (   0.1500000   0.4000000  -0.3000000), wk =   0.0120000
        k(  244) = (   0.1500000   0.4000000  -0.2500000), wk =   0.0060000
        k(  245) = (   0.1500000   0.4500000  -0.4000000), wk =   0.0060000
        k(  246) = (   0.1500000   0.4500000  -0.3500000), wk =   0.0120000
        k(  247) = (   0.1500000   0.4500000  -0.3000000), wk =   0.0060000
        k(  248) = (   0.1500000  -0.5000000  -0.3500000), wk =   0.0030000
        k(  249) = (   0.2000000   0.4000000  -0.4000000), wk =   0.0060000
        k(  250) = (   0.2000000   0.4000000  -0.3500000), wk =   0.0120000
        k(  251) = (   0.2000000   0.4000000  -0.3000000), wk =   0.0060000
        k(  252) = (   0.2000000   0.4500000  -0.3500000), wk =   0.0060000
        k(  253) = (   0.2000000   0.4500000  -0.3000000), wk =   0.0120000
        k(  254) = (   0.2000000   0.4500000  -0.2500000), wk =   0.0060000
        k(  255) = (   0.2000000  -0.5000000  -0.3000000), wk =   0.0030000
        k(  256) = (   0.2500000  -0.5000000  -0.2500000), wk =   0.0015000

     Dense  grid:    48119 G-vectors     FFT dimensions: (  54,  54,  54)

     Largest allocated arrays     est. size (Mb)     dimensions
        Kohn-Sham Wavefunctions         0.11 Mb     (     384,   18)
        NL pseudopotentials             0.21 Mb     (     384,   36)
        Each V/rho on FFT grid          0.18 Mb     (   11664)
        Each G-vector array             0.02 Mb     (    3009)
        G-vector shells                 0.00 Mb     (     416)
     Largest temporary arrays     est. size (Mb)     dimensions
        Auxiliary wavefunctions         0.42 Mb     (     384,   72)
        Each subspace H/S matrix        0.08 Mb     (      72,   72)
        Each <psi_i|beta_j> matrix      0.01 Mb     (      36,   18)
        Arrays for rho mixing           1.42 Mb     (   11664,    8)

     Initial potential from superposition of free atoms

     starting charge   27.82674, renormalised to   28.00000
     Starting wfc are random

     total cpu time spent up to now is        2.6 secs

     Self-consistent Calculation

     iteration #  1     ecut=    80.00 Ry     beta=0.70
     Davidson diagonalization with overlap
     ethr =  1.00E-02,  avg # of iterations =  7.6

     Threshold (ethr) on eigenvalues was too large:
     Diagonalizing with lowered threshold

     Davidson diagonalization with overlap
     ethr =  1.16E-04,  avg # of iterations =  6.0

     total cpu time spent up to now is       32.7 secs

     total energy              =    -256.21710443 Ry
     Harris-Foulkes estimate   =    -256.22997465 Ry
     estimated scf accuracy    <       0.03204184 Ry

     iteration #  2     ecut=    80.00 Ry     beta=0.70
     Davidson diagonalization with overlap
     ethr =  1.14E-04,  avg # of iterations =  2.0

     total cpu time spent up to now is       40.2 secs

     total energy              =    -256.22157202 Ry
     Harris-Foulkes estimate   =    -256.22181006 Ry
     estimated scf accuracy    <       0.00184560 Ry

     iteration #  3     ecut=    80.00 Ry     beta=0.70
     Davidson diagonalization with overlap
     ethr =  6.59E-06,  avg # of iterations =  2.9

     total cpu time spent up to now is       47.3 secs

     total energy              =    -256.22174868 Ry
     Harris-Foulkes estimate   =    -256.22173008 Ry
     estimated scf accuracy    <       0.00010956 Ry

     iteration #  4     ecut=    80.00 Ry     beta=0.70
     Davidson diagonalization with overlap
     ethr =  3.91E-07,  avg # of iterations =  2.6

     total cpu time spent up to now is       54.2 secs

     End of self-consistent calculation

          k = 0.0000 0.0000 0.0000 (  5985 PWs)   bands (ev):

   -14.0574 -14.0574 -14.0574 -14.0082 -14.0082 -13.7581 -13.7581 -13.7581
   -13.7569 -13.7569  -2.5776   6.3618   7.6174   7.6174   7.6174   9.4127
     9.4149   9.6834

     occupation numbers 
     1.0000   1.0000   1.0000   1.0000   1.0000   1.0000   1.0000   1.0000
     1.0000   1.0000   1.0000   1.0000   0.2380   0.2380   0.2380   0.0000
     0.0000   0.0000

          k = 0.0354 0.0354-0.0354 (  5991 PWs)   bands (ev):

   -14.0591 -14.0591 -14.0569 -14.0059 -14.0059 -13.7661 -13.7661 -13.7587
   -13.7493 -13.7493  -2.5553   6.0873   7.5699   7.5699   7.7556   9.4127
     9.4149   9.7455

     occupation numbers 
     1.0000   1.0000   1.0000   1.0000   1.0000   1.0000   1.0000   1.0000
     1.0000   1.0000   1.0000   1.0000   0.4136   0.4136   0.0158   0.0000
     0.0000   0.0000

          k = 0.0707 0.0707-0.0707 (  6030 PWs)   bands (ev):

   -14.0634 -14.0634 -14.0553 -14.0000 -14.0000 -13.7747 -13.7747 -13.7605
   -13.7418 -13.7418  -2.4885   5.5147   7.4457   7.4457   7.9133   9.4126
     9.4149   9.9091

     occupation numbers 
     1.0000   1.0000   1.0000   1.0000   1.0000   1.0000   1.0000   1.0000
     1.0000   1.0000   1.0000   1.0000   0.8581   0.8581   0.0001   0.0000
     0.0000   0.0000

          k = 0.1061 0.1061-0.1061 (  6021 PWs)   bands (ev):

   -14.0685 -14.0685 -14.0529 -13.9923 -13.9923 -13.7830 -13.7830 -13.7634
   -13.7350 -13.7350  -2.3783   4.8584   7.2816   7.2816   7.9290   9.4127
     9.4149  10.1246

     occupation numbers 
     1.0000   1.0000   1.0000   1.0000   1.0000   1.0000   1.0000   1.0000
     1.0000   1.0000   1.0000   1.0000   0.9973   0.9973   0.0000   0.0000
     0.0000   0.0000

          k = 0.1414 0.1414-0.1414 (  6036 PWs)   bands (ev):

   -14.0735 -14.0735 -14.0498 -13.9843 -13.9843 -13.7906 -13.7906 -13.7671
   -13.7293 -13.7293  -2.2271   4.1894   7.1079   7.1079   7.8483   9.4126
     9.4149  10.3418

     occupation numbers 
     1.0000   1.0000   1.0000   1.0000   1.0000   1.0000   1.0000   1.0000
     1.0000   1.0000   1.0000   1.0000   1.0000   1.0000   0.0009   0.0000
     0.0000   0.0000

          k = 0.1768 0.1768-0.1768 (  6024 PWs)   bands (ev):

   -14.0778 -14.0778 -14.0463 -13.9768 -13.9768 -13.7973 -13.7973 -13.7713
   -13.7245 -13.7245  -2.0388   3.5397   6.9436   6.9436   7.7328   9.4127
     9.4149  10.5206

     occupation numbers 
     1.0000   1.0000   1.0000   1.0000   1.0000   1.0000   1.0000   1.0000
     1.0000   1.0000   1.0000   1.0000   1.0000   1.0000   0.0279   0.0000
     0.0000   0.0000

          k = 0.2121 0.2121-0.2121 (  6033 PWs)   bands (ev):

   -14.0813 -14.0813 -14.0427 -13.9704 -13.9704 -13.8026 -13.8026 -13.7756
   -13.7208 -13.7208  -1.8204   2.9312   6.8001   6.8001   7.6171   9.4127
     9.4149  10.6396

     occupation numbers 
     1.0000   1.0000   1.0000   1.0000   1.0000   1.0000   1.0000   1.0000
     1.0000   1.0000   1.0000   1.0000   1.0000   1.0000   0.2392   0.0000
     0.0000   0.0000

          k = 0.2475 0.2475-0.2475 (  6044 PWs)   bands (ev):

   -14.0838 -14.0838 -14.0394 -13.9655 -13.9655 -13.8066 -13.8066 -13.7795
   -13.7180 -13.7180  -1.5848   2.3854   6.6839   6.6839   7.5179   9.4127
     9.4149  10.7012

     occupation numbers 
     1.0000   1.0000   1.0000   1.0000   1.0000   1.0000   1.0000   1.0000
     1.0000   1.0000   1.0000   1.0000   1.0000   1.0000   0.6264   0.0000
     0.0000   0.0000

          k = 0.2828 0.2828-0.2828 (  6026 PWs)   bands (ev):

   -14.0855 -14.0855 -14.0368 -13.9621 -13.9621 -13.8092 -13.8092 -13.7826
   -13.7161 -13.7161  -1.3563   1.9320   6.5987   6.5987   7.4434   9.4127
     9.4149  10.7238

     occupation numbers 
     1.0000   1.0000   1.0000   1.0000   1.0000   1.0000   1.0000   1.0000
     1.0000   1.0000   1.0000   1.0000   1.0000   1.0000   0.8636   0.0000
     0.0000   0.0000

          k = 0.3182 0.3182-0.3182 (  6032 PWs)   bands (ev):

   -14.0865 -14.0865 -14.0350 -13.9601 -13.9601 -13.8107 -13.8107 -13.7847
   -13.7151 -13.7151  -1.1778   1.6173   6.5468   6.5468   7.3975   9.4127
     9.4149  10.7280

     occupation numbers 
     1.0000   1.0000   1.0000   1.0000   1.0000   1.0000   1.0000   1.0000
     1.0000   1.0000   1.0000   1.0000   1.0000   1.0000   0.9422   0.0000
     0.0000   0.0000

          k =-0.3536-0.3536 0.3536 (  6062 PWs)   bands (ev):

   -14.0868 -14.0868 -14.0344 -13.9595 -13.9595 -13.8111 -13.8111 -13.7854
   -13.7147 -13.7147  -1.1076   1.5016   6.5294   6.5294   7.3820   9.4127
     9.4149  10.7278

     occupation numbers 
     1.0000   1.0000   1.0000   1.0000   1.0000   1.0000   1.0000   1.0000
     1.0000   1.0000   1.0000   1.0000   1.0000   1.0000   0.9586   0.0000
     0.0000   0.0000

          k = 0.0707 0.0000 0.0000 (  6006 PWs)   bands (ev):

   -14.0589 -14.0586 -14.0586 -14.0066 -14.0036 -13.7731 -13.7584 -13.7564
   -13.7564 -13.7455  -2.5478   6.0245   7.4797   7.4797   7.9430   9.4126
     9.4149   9.5868

     occupation numbers 
     1.0000   1.0000   1.0000   1.0000   1.0000   1.0000   1.0000   1.0000
     1.0000   1.0000   1.0000   1.0000   0.7638   0.7638   0.0000   0.0000
     0.0000   0.0000

          k = 0.1061 0.0354-0.0354 (  6033 PWs)   bands (ev):

   -14.0632 -14.0612 -14.0573 -14.0030 -13.9976 -13.7820 -13.7662 -13.7564
   -13.7490 -13.7396  -2.4957   5.5979   7.3289   7.3595   8.1657   9.4125
     9.4149   9.5762

     occupation numbers 
     1.0000   1.0000   1.0000   1.0000   1.0000   1.0000   1.0000   1.0000
     1.0000   1.0000   1.0000   1.0000   0.9889   0.9755   0.0000   0.0000
     0.0000   0.0000

          k = 0.1414 0.0707-0.0707 (  6020 PWs)   bands (ev):

   -14.0688 -14.0657 -14.0548 -13.9967 -13.9896 -13.7908 -13.7745 -13.7588
   -13.7416 -13.7332  -2.3999   5.0068   7.1528   7.2106   8.2450   9.4126
     9.4149   9.7164

     occupation numbers 
     1.0000   1.0000   1.0000   1.0000   1.0000   1.0000   1.0000   1.0000
     1.0000   1.0000   1.0000   1.0000   1.0000   0.9998   0.0000   0.0000
     0.0000   0.0000

          k = 0.1768 0.1061-0.1061 (  6026 PWs)   bands (ev):

   -14.0743 -14.0706 -14.0514 -13.9892 -13.9812 -13.7989 -13.7824 -13.7626
   -13.7350 -13.7272  -2.2621   4.3649   6.9774   7.0307   8.1991   9.4140
     9.9459  10.5312

     occupation numbers 
     1.0000   1.0000   1.0000   1.0000   1.0000   1.0000   1.0000   1.0000
     1.0000   1.0000   1.0000   1.0000   1.0000   1.0000   0.0000   0.0000
     0.0000   0.0000

          k = 0.2121 0.1414-0.1414 (  6030 PWs)   bands (ev):

   -14.0793 -14.0751 -14.0473 -13.9816 -13.9732 -13.8058 -13.7897 -13.7674
   -13.7293 -13.7220  -2.0855   3.7226   6.8184   6.8441   8.0950   9.4128
     9.4150  10.1861

     occupation numbers 
     1.0000   1.0000   1.0000   1.0000   1.0000   1.0000   1.0000   1.0000
     1.0000   1.0000   1.0000   1.0000   1.0000   1.0000   0.0000   0.0000
     0.0000   0.0000

          k = 0.2475 0.1768-0.1768 (  6033 PWs)   bands (ev):

   -14.0834 -14.0790 -14.0429 -13.9747 -13.9665 -13.8110 -13.7961 -13.7727
   -13.7246 -13.7178  -1.8761   3.1085   6.6692   6.6851   7.9779   9.4127
     9.4150  10.3794

     occupation numbers 
     1.0000   1.0000   1.0000   1.0000   1.0000   1.0000   1.0000   1.0000
     1.0000   1.0000   1.0000   1.0000   1.0000   1.0000   0.0000   0.0000
     0.0000   0.0000

          k = 0.2828 0.2121-0.2121 (  6038 PWs)   bands (ev):

   -14.0864 -14.0822 -14.0386 -13.9689 -13.9615 -13.8144 -13.8015 -13.7780
   -13.7208 -13.7147  -1.6441   2.5458   6.5168   6.5828   7.8701   9.4127
     9.4149  10.5079

     occupation numbers 
     1.0000   1.0000   1.0000   1.0000   1.0000   1.0000   1.0000   1.0000
     1.0000   1.0000   1.0000   1.0000   1.0000   1.0000   0.0004   0.0000
     0.0000   0.0000

          k = 0.3182 0.2475-0.2475 (  6045 PWs)   bands (ev):

   -14.0885 -14.0845 -14.0349 -13.9641 -13.9585 -13.8157 -13.8060 -13.7828
   -13.7179 -13.7126  -1.4093   2.0616   6.3930   6.5145   7.7830   9.4127
     9.4149  10.5840

     occupation numbers 
     1.0000   1.0000   1.0000   1.0000   1.0000   1.0000   1.0000   1.0000
     1.0000   1.0000   1.0000   1.0000   1.0000   1.0000   0.0075   0.0000
     0.0000   0.0000

          k = 0.3536 0.2828-0.2828 (  6032 PWs)   bands (ev):

   -14.0896 -14.0862 -14.0322 -13.9605 -13.9573 -13.8153 -13.8096 -13.7865
   -13.7157 -13.7116  -1.2077   1.6965   6.3016   6.4818   7.7221   9.4127
     9.4149  10.6316

     occupation numbers 
     1.0000   1.0000   1.0000   1.0000   1.0000   1.0000   1.0000   1.0000
     1.0000   1.0000   1.0000   1.0000   1.0000   1.0000   0.0359   0.0000
     0.0000   0.0000

          k =-0.3182-0.3889 0.3889 (  6036 PWs)   bands (ev):

   -14.0899 -14.0873 -14.0308 -13.9581 -13.9577 -13.8136 -13.8123 -13.7887
   -13.7142 -13.7116  -1.0949   1.5090   6.2449   6.4850   7.6903   9.4127
     9.4149  10.6702

     occupation numbers 
     1.0000   1.0000   1.0000   1.0000   1.0000   1.0000   1.0000   1.0000
     1.0000   1.0000   1.0000   1.0000   1.0000   1.0000   0.0707   0.0000
     0.0000   0.0000

          k =-0.2828-0.3536 0.3536 (  6033 PWs)   bands (ev):

   -14.0893 -14.0877 -14.0309 -13.9594 -13.9570 -13.8141 -13.8112 -13.7888
   -13.7134 -13.7125  -1.1190   1.5481   6.2243   6.5237   7.6888   9.4127
     9.4149  10.7096

     occupation numbers 
     1.0000   1.0000   1.0000   1.0000   1.0000   1.0000   1.0000   1.0000
     1.0000   1.0000   1.0000   1.0000   1.0000   1.0000   0.0729   0.0000
     0.0000   0.0000

          k =-0.2475-0.3182 0.3182 (  6038 PWs)   bands (ev):

   -14.0879 -14.0875 -14.0325 -13.9621 -13.9573 -13.8146 -13.8084 -13.7867
   -13.7143 -13.7134  -1.2683   1.8021   6.2410   6.5966   7.7173   9.4128
     9.4150  10.7324

     occupation numbers 
     1.0000   1.0000   1.0000   1.0000   1.0000   1.0000   1.0000   1.0000
     1.0000   1.0000   1.0000   1.0000   1.0000   1.0000   0.0400   0.0000
     0.0000   0.0000

          k =-0.2121-0.2828 0.2828 (  6048 PWs)   bands (ev):

   -14.0864 -14.0857 -14.0354 -13.9660 -13.9593 -13.8137 -13.8053 -13.7827
   -13.7171 -13.7144  -1.4864   2.2127   6.2952   6.7015   7.7744   9.4129
     9.4150  10.6759

     occupation numbers 
     1.0000   1.0000   1.0000   1.0000   1.0000   1.0000   1.0000   1.0000
     1.0000   1.0000   1.0000   1.0000   1.0000   1.0000   0.0095   0.0000
     0.0000   0.0000

          k =-0.1768-0.2475 0.2475 (  6032 PWs)   bands (ev):

   -14.0845 -14.0827 -14.0392 -13.9709 -13.9633 -13.8110 -13.8015 -13.7774
   -13.7209 -13.7162  -1.7233   2.7266   6.3870   6.8349   7.8564   9.4127
     9.4149  10.5886

     occupation numbers 
     1.0000   1.0000   1.0000   1.0000   1.0000   1.0000   1.0000   1.0000
     1.0000   1.0000   1.0000   1.0000   1.0000   1.0000   0.0007   0.0000
     0.0000   0.0000

          k =-0.1414-0.2121 0.2121 (  6024 PWs)   bands (ev):

   -14.0816 -14.0788 -14.0436 -13.9768 -13.9692 -13.8065 -13.7967 -13.7716
   -13.7256 -13.7192  -1.9493   3.3087   6.5155   6.9915   7.9559   9.4127
     9.4149  10.4546

     occupation numbers 
     1.0000   1.0000   1.0000   1.0000   1.0000   1.0000   1.0000   1.0000
     1.0000   1.0000   1.0000   1.0000   1.0000   1.0000   0.0000   0.0000
     0.0000   0.0000

          k =-0.1061-0.1768 0.1768 (  6034 PWs)   bands (ev):

   -14.0777 -14.0742 -14.0479 -13.9837 -13.9766 -13.8002 -13.7908 -13.7658
   -13.7312 -13.7232  -2.1486   3.9336   6.6790   7.1624   8.0577   9.4127
     9.4149  10.2723

     occupation numbers 
     1.0000   1.0000   1.0000   1.0000   1.0000   1.0000   1.0000   1.0000
     1.0000   1.0000   1.0000   1.0000   1.0000   1.0000   0.0000   0.0000
     0.0000   0.0000

          k =-0.0707-0.1414 0.1414 (  6033 PWs)   bands (ev):

   -14.0729 -14.0690 -14.0519 -13.9911 -13.9850 -13.7926 -13.7841 -13.7606
   -13.7378 -13.7284  -2.3127   4.5769   6.8746   7.3333   8.1306   9.4127
     9.4149  10.0641

     occupation numbers 
     1.0000   1.0000   1.0000   1.0000   1.0000   1.0000   1.0000   1.0000
     1.0000   1.0000   1.0000   1.0000   1.0000   0.9875   0.0000   0.0000
     0.0000   0.0000

          k =-0.0354-0.1061 0.1061 (  6023 PWs)   bands (ev):

   -14.0676 -14.0638 -14.0551 -13.9982 -13.9935 -13.7841 -13.7767 -13.7563
   -13.7450 -13.7345  -2.4367   5.2045   7.0977   7.4802   8.1177   9.4146
     9.8731   9.9439

     occupation numbers 
     1.0000   1.0000   1.0000   1.0000   1.0000   1.0000   1.0000   1.0000
     1.0000   1.0000   1.0000   1.0000   1.0000   0.7622   0.0000   0.0000
     0.0000   0.0000

          k =-0.0000-0.0707 0.0707 (  6023 PWs)   bands (ev):

   -14.0626 -14.0598 -14.0569 -14.0037 -14.0010 -13.7751 -13.7694 -13.7548
   -13.7509 -13.7416  -2.5180   5.7525   7.3426   7.5694   7.9629   9.4126
     9.4149   9.7523

     occupation numbers 
     1.0000   1.0000   1.0000   1.0000   1.0000   1.0000   1.0000   1.0000
     1.0000   1.0000   1.0000   1.0000   0.9840   0.4154   0.0000   0.0000
     0.0000   0.0000

          k = 0.1414 0.0000 0.0000 (  6034 PWs)   bands (ev):

   -14.0620 -14.0620 -14.0617 -14.0019 -13.9915 -13.7920 -13.7629 -13.7518
   -13.7518 -13.7375  -2.4583   5.3973   7.1626   7.1626   8.5210   9.3512
     9.4136   9.4157

     occupation numbers 
     1.0000   1.0000   1.0000   1.0000   1.0000   1.0000   1.0000   1.0000
     1.0000   1.0000   1.0000   1.0000   1.0000   1.0000   0.0000   0.0000
     0.0000   0.0000

          k = 0.1768 0.0354-0.0354 (  6028 PWs)   bands (ev):

   -14.0679 -14.0652 -14.0590 -13.9972 -13.9833 -13.8020 -13.7692 -13.7512
   -13.7459 -13.7331  -2.3769   4.9670   6.9795   6.9844   8.7248   9.3125
     9.4136   9.4157

     occupation numbers 
     1.0000   1.0000   1.0000   1.0000   1.0000   1.0000   1.0000   1.0000
     1.0000   1.0000   1.0000   1.0000   1.0000   1.0000   0.0000   0.0000
     0.0000   0.0000

          k = 0.2121 0.0707-0.0707 (  6024 PWs)   bands (ev):

   -14.0744 -14.0696 -14.0548 -13.9906 -13.9744 -13.8112 -13.7771 -13.7545
   -13.7389 -13.7271  -2.2528   4.4173   6.7853   6.8025   8.7492   9.4108
     9.4148   9.4659

     occupation numbers 
     1.0000   1.0000   1.0000   1.0000   1.0000   1.0000   1.0000   1.0000
     1.0000   1.0000   1.0000   1.0000   1.0000   1.0000   0.0000   0.0000
     0.0000   0.0000

          k = 0.2475 0.1061-0.1061 (  6029 PWs)   bands (ev):

   -14.0805 -14.0741 -14.0495 -13.9832 -13.9659 -13.8191 -13.7849 -13.7601
   -13.7326 -13.7209  -2.0888   3.8250   6.5703   6.6457   8.6668   9.4126
     9.4150   9.7284

     occupation numbers 
     1.0000   1.0000   1.0000   1.0000   1.0000   1.0000   1.0000   1.0000
     1.0000   1.0000   1.0000   1.0000   1.0000   1.0000   0.0000   0.0000
     0.0000   0.0000

          k = 0.2828 0.1414-0.1414 (  6033 PWs)   bands (ev):

   -14.0858 -14.0782 -14.0435 -13.9760 -13.9587 -13.8251 -13.7924 -13.7669
   -13.7270 -13.7153  -1.8894   3.2343   6.3601   6.5176   8.5499   9.4127
     9.4150  10.0095

     occupation numbers 
     1.0000   1.0000   1.0000   1.0000   1.0000   1.0000   1.0000   1.0000
     1.0000   1.0000   1.0000   1.0000   1.0000   1.0000   0.0000   0.0000
     0.0000   0.0000

          k = 0.3182 0.1768-0.1768 (  6035 PWs)   bands (ev):

   -14.0902 -14.0817 -14.0372 -13.9692 -13.9535 -13.8287 -13.7992 -13.7744
   -13.7223 -13.7108  -1.6631   2.6753   6.1698   6.4232   8.4322   9.4127
     9.4150  10.2387

     occupation numbers 
     1.0000   1.0000   1.0000   1.0000   1.0000   1.0000   1.0000   1.0000
     1.0000   1.0000   1.0000   1.0000   1.0000   1.0000   0.0000   0.0000
     0.0000   0.0000

          k = 0.3536 0.2121-0.2121 (  6030 PWs)   bands (ev):

   -14.0935 -14.0846 -14.0313 -13.9633 -13.9507 -13.8295 -13.8053 -13.7817
   -13.7183 -13.7074  -1.4257   2.1766   6.0083   6.3655   8.3296   9.4127
     9.4150  10.3920

     occupation numbers 
     1.0000   1.0000   1.0000   1.0000   1.0000   1.0000   1.0000   1.0000
     1.0000   1.0000   1.0000   1.0000   1.0000   1.0000   0.0000   0.0000
     0.0000   0.0000

          k = 0.3889 0.2475-0.2475 (  6032 PWs)   bands (ev):

   -14.0955 -14.0869 -14.0263 -13.9582 -13.9502 -13.8276 -13.8108 -13.7884
   -13.7151 -13.7053  -1.2067   1.7752   5.8805   6.3455   8.2503   9.4127
     9.4149  10.4891

     occupation numbers 
     1.0000   1.0000   1.0000   1.0000   1.0000   1.0000   1.0000   1.0000
     1.0000   1.0000   1.0000   1.0000   1.0000   1.0000   0.0000   0.0000
     0.0000   0.0000

          k =-0.2828-0.4243 0.4243 (  6031 PWs)   bands (ev):

   -14.0964 -14.0885 -14.0229 -13.9542 -13.9518 -13.8234 -13.8156 -13.7936
   -13.7127 -13.7046  -1.0566   1.5260   5.7896   6.3636   8.1984   9.4127
     9.4149  10.5618

     occupation numbers 
     1.0000   1.0000   1.0000   1.0000   1.0000   1.0000   1.0000   1.0000
     1.0000   1.0000   1.0000   1.0000   1.0000   1.0000   0.0000   0.0000
     0.0000   0.0000

          k =-0.2475-0.3889 0.3889 (  6035 PWs)   bands (ev):

   -14.0961 -14.0896 -14.0216 -13.9549 -13.9514 -13.8194 -13.8175 -13.7969
   -13.7110 -13.7053  -1.0332   1.4889   5.7382   6.4186   8.1757   9.4127
     9.4149  10.6305

     occupation numbers 
     1.0000   1.0000   1.0000   1.0000   1.0000   1.0000   1.0000   1.0000
     1.0000   1.0000   1.0000   1.0000   1.0000   1.0000   0.0000   0.0000
     0.0000   0.0000

          k =-0.2121-0.3536 0.3536 (  6030 PWs)   bands (ev):

   -14.0947 -14.0899 -14.0225 -13.9590 -13.9501 -13.8218 -13.8113 -13.7971
   -13.7103 -13.7074  -1.1478   1.6754   5.7283   6.5087   8.1821   9.4127
     9.4149  10.7016

     occupation numbers 
     1.0000   1.0000   1.0000   1.0000   1.0000   1.0000   1.0000   1.0000
     1.0000   1.0000   1.0000   1.0000   1.0000   1.0000   0.0000   0.0000
     0.0000   0.0000

          k =-0.1768-0.3182 0.3182 (  6028 PWs)   bands (ev):

   -14.0920 -14.0895 -14.0257 -13.9636 -13.9510 -13.8223 -13.8070 -13.7926
   -13.7109 -13.7105  -1.3511   2.0343   5.7622   6.6307   8.2158   9.4127
     9.4149  10.7665

     occupation numbers 
     1.0000   1.0000   1.0000   1.0000   1.0000   1.0000   1.0000   1.0000
     1.0000   1.0000   1.0000   1.0000   1.0000   1.0000   0.0000   0.0000
     0.0000   0.0000

          k =-0.1414-0.2828 0.2828 (  6034 PWs)   bands (ev):

   -14.0884 -14.0881 -14.0306 -13.9688 -13.9542 -13.8206 -13.8040 -13.7846
   -13.7157 -13.7117  -1.5867   2.5049   5.8421   6.7798   8.2721   9.4127
     9.4150  10.6950

     occupation numbers 
     1.0000   1.0000   1.0000   1.0000   1.0000   1.0000   1.0000   1.0000
     1.0000   1.0000   1.0000   1.0000   1.0000   1.0000   0.0000   0.0000
     0.0000   0.0000

          k =-0.1061-0.2475 0.2475 (  6026 PWs)   bands (ev):

   -14.0857 -14.0837 -14.0365 -13.9745 -13.9597 -13.8165 -13.8004 -13.7754
   -13.7218 -13.7141  -1.8186   3.0439   5.9715   6.9486   8.3414   9.4127
     9.4150  10.5351

     occupation numbers 
     1.0000   1.0000   1.0000   1.0000   1.0000   1.0000   1.0000   1.0000
     1.0000   1.0000   1.0000   1.0000   1.0000   1.0000   0.0000   0.0000
     0.0000   0.0000

          k =-0.0707-0.2121 0.2121 (  6016 PWs)   bands (ev):

   -14.0823 -14.0783 -14.0427 -13.9807 -13.9672 -13.8102 -13.7957 -13.7665
   -13.7291 -13.7176  -2.0278   3.6193   6.1550   7.1256   8.4040   9.4127
     9.4150  10.3382

     occupation numbers 
     1.0000   1.0000   1.0000   1.0000   1.0000   1.0000   1.0000   1.0000
     1.0000   1.0000   1.0000   1.0000   1.0000   1.0000   0.0000   0.0000
     0.0000   0.0000

          k =-0.0354-0.1768 0.1768 (  6031 PWs)   bands (ev):

   -14.0779 -14.0724 -14.0485 -13.9872 -13.9760 -13.8024 -13.7898 -13.7584
   -13.7372 -13.7222  -2.2039   4.1995   6.3999   7.2926   8.4213   9.4127
     9.4150  10.1305

     occupation numbers 
     1.0000   1.0000   1.0000   1.0000   1.0000   1.0000   1.0000   1.0000
     1.0000   1.0000   1.0000   1.0000   1.0000   0.9961   0.0000   0.0000
     0.0000   0.0000

          k = 0.0000-0.1414 0.1414 (  6017 PWs)   bands (ev):

   -14.0728 -14.0670 -14.0529 -13.9934 -13.9851 -13.7935 -13.7832 -13.7525
   -13.7452 -13.7279  -2.3413   4.7450   6.7150   7.4220   8.3340   9.4127
     9.4150   9.9581

     occupation numbers 
     1.0000   1.0000   1.0000   1.0000   1.0000   1.0000   1.0000   1.0000
     1.0000   1.0000   1.0000   1.0000   1.0000   0.9063   0.0000   0.0000
     0.0000   0.0000

          k = 0.2121 0.0000 0.0000 (  6034 PWs)   bands (ev):

   -14.0672 -14.0672 -14.0633 -13.9942 -13.9746 -13.8135 -13.7703 -13.7446
   -13.7446 -13.7336  -2.3098   4.7159   6.7924   6.7924   9.0667   9.0728
     9.4134   9.4161

     occupation numbers 
     1.0000   1.0000   1.0000   1.0000   1.0000   1.0000   1.0000   1.0000
     1.0000   1.0000   1.0000   1.0000   1.0000   1.0000   0.0000   0.0000
     0.0000   0.0000

          k = 0.2475 0.0354-0.0354 (  6032 PWs)   bands (ev):

   -14.0731 -14.0707 -14.0598 -13.9885 -13.9651 -13.8244 -13.7764 -13.7451
   -13.7393 -13.7295  -2.1995   4.3038   6.5932   6.6130   9.0220   9.2272
     9.4136   9.4173

     occupation numbers 
     1.0000   1.0000   1.0000   1.0000   1.0000   1.0000   1.0000   1.0000
     1.0000   1.0000   1.0000   1.0000   1.0000   1.0000   0.0000   0.0000
     0.0000   0.0000

          k = 0.2828 0.0707-0.0707 (  6023 PWs)   bands (ev):

   -14.0802 -14.0748 -14.0536 -13.9815 -13.9558 -13.8340 -13.7840 -13.7512
   -13.7331 -13.7221  -2.0483   3.8038   6.3609   6.4553   9.0303   9.3701
     9.4140   9.4239

     occupation numbers 
     1.0000   1.0000   1.0000   1.0000   1.0000   1.0000   1.0000   1.0000
     1.0000   1.0000   1.0000   1.0000   1.0000   1.0000   0.0000   0.0000
     0.0000   0.0000

          k = 0.3182 0.1061-0.1061 (  6029 PWs)   bands (ev):

   -14.0869 -14.0788 -14.0460 -13.9741 -13.9477 -13.8415 -13.7920 -13.7595
   -13.7272 -13.7149  -1.8599   3.2707   6.1156   6.3278   8.9642   9.4121
     9.4148   9.6566

     occupation numbers 
     1.0000   1.0000   1.0000   1.0000   1.0000   1.0000   1.0000   1.0000
     1.0000   1.0000   1.0000   1.0000   1.0000   1.0000   0.0000   0.0000
     0.0000   0.0000

          k = 0.3536 0.1414-0.1414 (  6031 PWs)   bands (ev):

   -14.0927 -14.0825 -14.0376 -13.9667 -13.9418 -13.8464 -13.7998 -13.7690
   -13.7219 -13.7085  -1.6410   2.7426   5.8824   6.2356   8.8630   9.4126
     9.4150   9.9783

     occupation numbers 
     1.0000   1.0000   1.0000   1.0000   1.0000   1.0000   1.0000   1.0000
     1.0000   1.0000   1.0000   1.0000   1.0000   1.0000   0.0000   0.0000
     0.0000   0.0000

          k = 0.3889 0.1768-0.1768 (  6032 PWs)   bands (ev):

   -14.0975 -14.0857 -14.0292 -13.9598 -13.9385 -13.8481 -13.8073 -13.7787
   -13.7173 -13.7033  -1.4041   2.2512   5.6767   6.1817   8.7630   9.4127
     9.4150  10.2524

     occupation numbers 
     1.0000   1.0000   1.0000   1.0000   1.0000   1.0000   1.0000   1.0000
     1.0000   1.0000   1.0000   1.0000   1.0000   1.0000   0.0000   0.0000
     0.0000   0.0000

          k = 0.4243 0.2121-0.2121 (  6026 PWs)   bands (ev):

   -14.1009 -14.0883 -14.0215 -13.9535 -13.9384 -13.8462 -13.8143 -13.7878
   -13.7135 -13.6995  -1.1731   1.8323   5.5070   6.1675   8.6804   9.4127
     9.4150  10.4340

     occupation numbers 
     1.0000   1.0000   1.0000   1.0000   1.0000   1.0000   1.0000   1.0000
     1.0000   1.0000   1.0000   1.0000   1.0000   1.0000   0.0000   0.0000
     0.0000   0.0000

          k =-0.2475-0.4596 0.4596 (  6022 PWs)   bands (ev):

   -14.1030 -14.0904 -14.0155 -13.9480 -13.9410 -13.8411 -13.8208 -13.7956
   -13.7105 -13.6974  -0.9917   1.5366   5.3782   6.1930   8.6225   9.4127
     9.4150  10.5472

     occupation numbers 
     1.0000   1.0000   1.0000   1.0000   1.0000   1.0000   1.0000   1.0000
     1.0000   1.0000   1.0000   1.0000   1.0000   1.0000   0.0000   0.0000
     0.0000   0.0000

          k =-0.2121-0.4243 0.4243 (  6019 PWs)   bands (ev):

   -14.1035 -14.0918 -14.0117 -13.9458 -13.9437 -13.8332 -13.8263 -13.8015
   -13.7083 -13.6971  -0.9219   1.4297   5.2938   6.2571   8.5919   9.4128
     9.4150  10.6343

     occupation numbers 
     1.0000   1.0000   1.0000   1.0000   1.0000   1.0000   1.0000   1.0000
     1.0000   1.0000   1.0000   1.0000   1.0000   1.0000   0.0000   0.0000
     0.0000   0.0000

          k =-0.1768-0.3889 0.3889 (  6028 PWs)   bands (ev):

   -14.1025 -14.0926 -14.0110 -13.9519 -13.9412 -13.8302 -13.8231 -13.8052
   -13.7070 -13.6986  -0.9974   1.5461   5.2575   6.3576   8.5882   9.4128
     9.4150  10.7197

     occupation numbers 
     1.0000   1.0000   1.0000   1.0000   1.0000   1.0000   1.0000   1.0000
[...]
     9.4184  11.3397

     occupation numbers 
     1.0000   1.0000   1.0000   1.0000   1.0000   1.0000   1.0000   1.0000
     1.0000   1.0000   1.0000   1.0000   1.0000   1.0000   0.0000   0.0000
     0.0000   0.0000

          k =-0.0000-0.3536 0.4950 (  6009 PWs)   bands (ev):

   -14.1138 -14.1008 -13.9870 -13.9316 -13.9045 -13.8776 -13.8461 -13.8169
   -13.6975 -13.6857  -0.6735   1.3558   4.5448   5.8153   9.3835   9.4134
     9.4276  11.1617

     occupation numbers 
     1.0000   1.0000   1.0000   1.0000   1.0000   1.0000   1.0000   1.0000
     1.0000   1.0000   1.0000   1.0000   1.0000   1.0000   0.0000   0.0000
     0.0000   0.0000

          k =-0.1414-0.5657 0.7071 (  6015 PWs)   bands (ev):

   -14.1016 -14.1008 -14.0096 -13.9286 -13.9205 -13.8699 -13.8434 -13.7910
   -13.6981 -13.6976  -0.6570   1.3419   5.1400   5.3803   8.8942   9.2835
     9.4136   9.4165

     occupation numbers 
     1.0000   1.0000   1.0000   1.0000   1.0000   1.0000   1.0000   1.0000
     1.0000   1.0000   1.0000   1.0000   1.0000   1.0000   0.0000   0.0000
     0.0000   0.0000

          k =-0.1061-0.5303 0.6718 (  6018 PWs)   bands (ev):

   -14.1073 -14.1025 -13.9950 -13.9332 -13.9117 -13.8647 -13.8533 -13.8057
   -13.6961 -13.6913  -0.4083   1.0421   4.9423   5.3062   9.0577   9.4115
     9.4147   9.5894

     occupation numbers 
     1.0000   1.0000   1.0000   1.0000   1.0000   1.0000   1.0000   1.0000
     1.0000   1.0000   1.0000   1.0000   1.0000   1.0000   0.0000   0.0000
     0.0000   0.0000

          k =-0.0707-0.4950 0.6364 (  6013 PWs)   bands (ev):

   -14.1123 -14.1033 -13.9828 -13.9316 -13.9034 -13.8661 -13.8623 -13.8176
   -13.6949 -13.6859  -0.1884   0.7977   4.7299   5.3174   9.1139   9.4126
     9.4151  10.1503

     occupation numbers 
     1.0000   1.0000   1.0000   1.0000   1.0000   1.0000   1.0000   1.0000
     1.0000   1.0000   1.0000   1.0000   1.0000   1.0000   0.0000   0.0000
     0.0000   0.0000

          k =-0.0354-0.4596 0.6010 (  6013 PWs)   bands (ev):

   -14.1157 -14.1035 -13.9773 -13.9213 -13.8986 -13.8750 -13.8691 -13.8227
   -13.6945 -13.6825  -0.1057   0.7133   4.5639   5.3883   9.1763   9.4128
     9.4154  10.8059

     occupation numbers 
     1.0000   1.0000   1.0000   1.0000   1.0000   1.0000   1.0000   1.0000
     1.0000   1.0000   1.0000   1.0000   1.0000   1.0000   0.0000   0.0000
     0.0000   0.0000

          k =-0.0000-0.4243 0.5657 (  5996 PWs)   bands (ev):

   -14.1170 -14.1030 -13.9779 -13.9048 -13.9046 -13.8860 -13.8684 -13.8222
   -13.6950 -13.6814  -0.2339   0.8553   4.4779   5.5072   9.2553   9.4130
     9.4161  11.4283

     occupation numbers 
     1.0000   1.0000   1.0000   1.0000   1.0000   1.0000   1.0000   1.0000
     1.0000   1.0000   1.0000   1.0000   1.0000   1.0000   0.0000   0.0000
     0.0000   0.0000

          k =-0.0707-0.5657 0.7071 (  6019 PWs)   bands (ev):

   -14.1040 -14.1035 -13.9928 -13.9518 -13.9015 -13.8623 -13.8478 -13.8076
   -13.6946 -13.6942  -0.2070   0.7987   5.0895   5.2089   8.9027   9.1077
     9.4132   9.4154

     occupation numbers 
     1.0000   1.0000   1.0000   1.0000   1.0000   1.0000   1.0000   1.0000
     1.0000   1.0000   1.0000   1.0000   1.0000   1.0000   0.0000   0.0000
     0.0000   0.0000

          k =-0.0354-0.5303 0.6718 (  6012 PWs)   bands (ev):

   -14.1089 -14.1042 -13.9786 -13.9536 -13.8925 -13.8724 -13.8453 -13.8215
   -13.6937 -13.6891   0.0357   0.5459   4.8986   5.1915   9.0293   9.4107
     9.4146   9.5157

     occupation numbers 
     1.0000   1.0000   1.0000   1.0000   1.0000   1.0000   1.0000   1.0000
     1.0000   1.0000   1.0000   1.0000   1.0000   1.0000   0.0000   0.0000
     0.0000   0.0000

          k = 0.0000-0.4950 0.6364 (  6012 PWs)   bands (ev):

   -14.1132 -14.1042 -13.9745 -13.9417 -13.8891 -13.8776 -13.8559 -13.8253
   -13.6937 -13.6848   0.0945   0.4961   4.6963   5.2652   9.0929   9.4126
     9.4151  10.1297

     occupation numbers 
     1.0000   1.0000   1.0000   1.0000   1.0000   1.0000   1.0000   1.0000
     1.0000   1.0000   1.0000   1.0000   1.0000   1.0000   0.0000   0.0000
     0.0000   0.0000

          k =-0.7071 0.1414 0.0000 (  6014 PWs)   bands (ev):

   -14.1046 -14.1046 -13.9735 -13.9733 -13.8822 -13.8815 -13.8269 -13.8267
   -13.6932 -13.6932   0.2801   0.2803   5.1119   5.1119   8.9756   8.9756
     9.4131   9.4152

     occupation numbers 
     1.0000   1.0000   1.0000   1.0000   1.0000   1.0000   1.0000   1.0000
     1.0000   1.0000   1.0000   1.0000   1.0000   1.0000   0.0000   0.0000
     0.0000   0.0000

          k = 0.4243 0.2121-0.0000 (  6033 PWs)   bands (ev):

   -14.0982 -14.0954 -14.0196 -13.9542 -13.9190 -13.8709 -13.8123 -13.7864
   -13.7043 -13.7043  -1.3104   2.2561   5.1449   6.0480   9.4107   9.4135
     9.6307   9.7187

     occupation numbers 
     1.0000   1.0000   1.0000   1.0000   1.0000   1.0000   1.0000   1.0000
     1.0000   1.0000   1.0000   1.0000   1.0000   1.0000   0.0000   0.0000
     0.0000   0.0000

          k =-0.2475-0.4596 0.6718 (  6027 PWs)   bands (ev):

   -14.1043 -14.0979 -14.0076 -13.9466 -13.9121 -13.8764 -13.8211 -13.7990
   -13.7016 -13.6965  -1.0729   1.8837   4.9320   5.9037   9.4108   9.4138
     9.6142  10.1117

     occupation numbers 
     1.0000   1.0000   1.0000   1.0000   1.0000   1.0000   1.0000   1.0000
     1.0000   1.0000   1.0000   1.0000   1.0000   1.0000   0.0000   0.0000
     0.0000   0.0000

          k =-0.2121-0.4243 0.6364 (  6023 PWs)   bands (ev):

   -14.1093 -14.0995 -13.9971 -13.9388 -13.9088 -13.8783 -13.8314 -13.8088
   -13.6997 -13.6906  -0.8353   1.5395   4.7875   5.7814   9.4104   9.4138
     9.5822  10.4182

     occupation numbers 
     1.0000   1.0000   1.0000   1.0000   1.0000   1.0000   1.0000   1.0000
     1.0000   1.0000   1.0000   1.0000   1.0000   1.0000   0.0000   0.0000
     0.0000   0.0000

          k =-0.1768-0.3889 0.6010 (  6021 PWs)   bands (ev):

   -14.1124 -14.1004 -13.9901 -13.9318 -13.9087 -13.8772 -13.8411 -13.8145
   -13.6985 -13.6869  -0.6404   1.2762   4.7047   5.7009   9.4101   9.4138
     9.5614  10.5267

     occupation numbers 
     1.0000   1.0000   1.0000   1.0000   1.0000   1.0000   1.0000   1.0000
     1.0000   1.0000   1.0000   1.0000   1.0000   1.0000   0.0000   0.0000
     0.0000   0.0000

          k =-0.1414-0.3536 0.5657 (  6020 PWs)   bands (ev):

   -14.1135 -14.1007 -13.9876 -13.9287 -13.9093 -13.8760 -13.8454 -13.8163
   -13.6981 -13.6856  -0.5600   1.1722   4.6778   5.6729   9.4099   9.4138
     9.5543  10.5437

     occupation numbers 
     1.0000   1.0000   1.0000   1.0000   1.0000   1.0000   1.0000   1.0000
     1.0000   1.0000   1.0000   1.0000   1.0000   1.0000   0.0000   0.0000
     0.0000   0.0000

          k =-0.2121-0.4950 0.7071 (  6028 PWs)   bands (ev):

   -14.1033 -14.0998 -14.0088 -13.9388 -13.8989 -13.8941 -13.8275 -13.7945
   -13.6995 -13.6972  -0.9656   1.7539   4.9826   5.6668   9.4114   9.4135
     9.5930   9.7823

     occupation numbers 
     1.0000   1.0000   1.0000   1.0000   1.0000   1.0000   1.0000   1.0000
     1.0000   1.0000   1.0000   1.0000   1.0000   1.0000   0.0000   0.0000
     0.0000   0.0000

          k =-0.1768-0.4596 0.6718 (  6034 PWs)   bands (ev):

   -14.1086 -14.1021 -13.9956 -13.9307 -13.8998 -13.8921 -13.8376 -13.8075
   -13.6969 -13.6909  -0.7222   1.4278   4.8068   5.5366   9.4116   9.4139
     9.6852  10.1764

     occupation numbers 
     1.0000   1.0000   1.0000   1.0000   1.0000   1.0000   1.0000   1.0000
     1.0000   1.0000   1.0000   1.0000   1.0000   1.0000   0.0000   0.0000
     0.0000   0.0000

          k =-0.1414-0.4243 0.6364 (  6017 PWs)   bands (ev):

   -14.1128 -14.1033 -13.9849 -13.9232 -13.9010 -13.8893 -13.8478 -13.8172
   -13.6953 -13.6861  -0.5012   1.1514   4.6775   5.4567   9.4116   9.4140
     9.7001  10.6122

     occupation numbers 
     1.0000   1.0000   1.0000   1.0000   1.0000   1.0000   1.0000   1.0000
     1.0000   1.0000   1.0000   1.0000   1.0000   1.0000   0.0000   0.0000
     0.0000   0.0000

          k =-0.1061-0.3889 0.6010 (  6020 PWs)   bands (ev):

   -14.1150 -14.1039 -13.9790 -13.9192 -13.8969 -13.8916 -13.8548 -13.8221
   -13.6946 -13.6836  -0.3731   0.9990   4.5974   5.4403   9.4117   9.4141
     9.7293  10.7713

     occupation numbers 
     1.0000   1.0000   1.0000   1.0000   1.0000   1.0000   1.0000   1.0000
     1.0000   1.0000   1.0000   1.0000   1.0000   1.0000   0.0000   0.0000
     0.0000   0.0000

          k =-0.0707-0.3536 0.5657 (  6011 PWs)   bands (ev):

   -14.1151 -14.1037 -13.9791 -13.9209 -13.8961 -13.8909 -13.8544 -13.8223
   -13.6947 -13.6837  -0.4152   1.0492   4.5733   5.4879   9.4118   9.4141
     9.7708  10.7608

     occupation numbers 
     1.0000   1.0000   1.0000   1.0000   1.0000   1.0000   1.0000   1.0000
     1.0000   1.0000   1.0000   1.0000   1.0000   1.0000   0.0000   0.0000
     0.0000   0.0000

          k =-0.0354-0.3182 0.5303 (  6020 PWs)   bands (ev):

   -14.1130 -14.1029 -13.9848 -13.9286 -13.8980 -13.8887 -13.8452 -13.8183
   -13.6956 -13.6862  -0.5972   1.2688   4.6150   5.5915   9.4118   9.4141
     9.8104  10.6492

     occupation numbers 
     1.0000   1.0000   1.0000   1.0000   1.0000   1.0000   1.0000   1.0000
     1.0000   1.0000   1.0000   1.0000   1.0000   1.0000   0.0000   0.0000
     0.0000   0.0000

          k = 0.0000-0.2828 0.4950 (  6018 PWs)   bands (ev):

   -14.1091 -14.1011 -13.9949 -13.9381 -13.9034 -13.8841 -13.8323 -13.8106
   -13.6977 -13.6910  -0.8332   1.5662   4.7323   5.7372   9.4117   9.4141
     9.8073  10.3453

     occupation numbers 
     1.0000   1.0000   1.0000   1.0000   1.0000   1.0000   1.0000   1.0000
     1.0000   1.0000   1.0000   1.0000   1.0000   1.0000   0.0000   0.0000
     0.0000   0.0000

          k =-0.1414-0.4950 0.7071 (  6019 PWs)   bands (ev):

   -14.1069 -14.1039 -13.9953 -13.9214 -13.9172 -13.8782 -13.8450 -13.8061
   -13.6948 -13.6922  -0.5793   1.2562   4.8945   5.3512   9.4109   9.4132
     9.5236   9.7449

     occupation numbers 
     1.0000   1.0000   1.0000   1.0000   1.0000   1.0000   1.0000   1.0000
     1.0000   1.0000   1.0000   1.0000   1.0000   1.0000   0.0000   0.0000
     0.0000   0.0000

          k =-0.1061-0.4596 0.6718 (  6017 PWs)   bands (ev):

   -14.1113 -14.1057 -13.9813 -13.9208 -13.9127 -13.8740 -13.8555 -13.8193
   -13.6927 -13.6872  -0.3395   0.9777   4.7529   5.2478   9.4117   9.4139
     9.6507  10.1994

     occupation numbers 
     1.0000   1.0000   1.0000   1.0000   1.0000   1.0000   1.0000   1.0000
     1.0000   1.0000   1.0000   1.0000   1.0000   1.0000   0.0000   0.0000
     0.0000   0.0000

          k =-0.0707-0.4243 0.6364 (  6016 PWs)   bands (ev):

   -14.1147 -14.1063 -13.9721 -13.9191 -13.9052 -13.8763 -13.8638 -13.8274
   -13.6919 -13.6836  -0.1675   0.7892   4.6264   5.2342   9.4118   9.4141
     9.7021  10.7928

     occupation numbers 
     1.0000   1.0000   1.0000   1.0000   1.0000   1.0000   1.0000   1.0000
     1.0000   1.0000   1.0000   1.0000   1.0000   1.0000   0.0000   0.0000
     0.0000   0.0000

          k =-0.0354-0.3889 0.6010 (  6012 PWs)   bands (ev):

   -14.1161 -14.1060 -13.9705 -13.9119 -13.9045 -13.8815 -13.8669 -13.8286
   -13.6921 -13.6822  -0.1793   0.8044   4.5454   5.2987   9.4119   9.4142
     9.7659  11.1695

     occupation numbers 
     1.0000   1.0000   1.0000   1.0000   1.0000   1.0000   1.0000   1.0000
     1.0000   1.0000   1.0000   1.0000   1.0000   1.0000   0.0000   0.0000
     0.0000   0.0000

          k = 0.0000-0.3536 0.5657 (  6019 PWs)   bands (ev):

   -14.1155 -14.1050 -13.9754 -13.9167 -13.8997 -13.8878 -13.8594 -13.8249
   -13.6933 -13.6832  -0.3606   1.0043   4.5363   5.4235   9.4120   9.4142
     9.8252  11.0596

     occupation numbers 
     1.0000   1.0000   1.0000   1.0000   1.0000   1.0000   1.0000   1.0000
     1.0000   1.0000   1.0000   1.0000   1.0000   1.0000   0.0000   0.0000
     0.0000   0.0000

          k =-0.0707-0.4950 0.7071 (  6017 PWs)   bands (ev):

   -14.1087 -14.1070 -13.9789 -13.9394 -13.9027 -13.8639 -13.8579 -13.8210
   -13.6911 -13.6895  -0.1572   0.7676   4.8849   5.1129   9.4105   9.4129
     9.5119   9.6426

     occupation numbers 
     1.0000   1.0000   1.0000   1.0000   1.0000   1.0000   1.0000   1.0000
     1.0000   1.0000   1.0000   1.0000   1.0000   1.0000   0.0000   0.0000
     0.0000   0.0000

          k =-0.0354-0.4596 0.6718 (  6015 PWs)   bands (ev):

   -14.1125 -14.1079 -13.9661 -13.9396 -13.8946 -13.8743 -13.8567 -13.8327
   -13.6901 -13.6856   0.0555   0.5499   4.7549   5.0704   9.4116   9.4139
     9.6233  10.1796

     occupation numbers 
     1.0000   1.0000   1.0000   1.0000   1.0000   1.0000   1.0000   1.0000
     1.0000   1.0000   1.0000   1.0000   1.0000   1.0000   0.0000   0.0000
     0.0000   0.0000

          k =-0.0000-0.4243 0.6364 (  6007 PWs)   bands (ev):

   -14.1152 -14.1074 -13.9649 -13.9273 -13.8951 -13.8767 -13.8667 -13.8333
   -13.6906 -13.6829   0.0341   0.5790   4.6145   5.1528   9.4118   9.4141
     9.6941  10.8318

     occupation numbers 
     1.0000   1.0000   1.0000   1.0000   1.0000   1.0000   1.0000   1.0000
     1.0000   1.0000   1.0000   1.0000   1.0000   1.0000   0.0000   0.0000
     0.0000   0.0000

          k =-0.7071 0.2121 0.0000 (  6018 PWs)   bands (ev):

   -14.1087 -14.1087 -13.9602 -13.9601 -13.8836 -13.8829 -13.8386 -13.8385
   -13.6892 -13.6892   0.2940   0.2942   4.9571   4.9572   9.4106   9.4127
     9.5547   9.5548

     occupation numbers 
     1.0000   1.0000   1.0000   1.0000   1.0000   1.0000   1.0000   1.0000
     1.0000   1.0000   1.0000   1.0000   1.0000   1.0000   0.0000   0.0000
     0.0000   0.0000

          k =-0.1414-0.4243 0.7071 (  6022 PWs)   bands (ev):

   -14.1119 -14.1054 -13.9818 -13.9216 -13.9060 -13.8849 -13.8495 -13.8197
   -13.6930 -13.6870  -0.4782   1.1411   4.6816   5.3641   9.4120   9.4142
    10.1161  10.2645

     occupation numbers 
     1.0000   1.0000   1.0000   1.0000   1.0000   1.0000   1.0000   1.0000
     1.0000   1.0000   1.0000   1.0000   1.0000   1.0000   0.0000   0.0000
     0.0000   0.0000

          k =-0.1061-0.3889 0.6718 (  6010 PWs)   bands (ev):

   -14.1145 -14.1070 -13.9712 -13.9146 -13.9087 -13.8802 -13.8607 -13.8283
   -13.6912 -13.6840  -0.2601   0.8959   4.6129   5.2436   9.4122   9.4143
    10.1544  10.6695

     occupation numbers 
     1.0000   1.0000   1.0000   1.0000   1.0000   1.0000   1.0000   1.0000
     1.0000   1.0000   1.0000   1.0000   1.0000   1.0000   0.0000   0.0000
     0.0000   0.0000

          k =-0.0707-0.3536 0.6364 (  6010 PWs)   bands (ev):

   -14.1154 -14.1075 -13.9671 -13.9153 -13.9044 -13.8807 -13.8647 -13.8316
   -13.6907 -13.6829  -0.1592   0.7857   4.5916   5.2003   9.4121   9.4143
    10.1580  10.7888

     occupation numbers 
     1.0000   1.0000   1.0000   1.0000   1.0000   1.0000   1.0000   1.0000
     1.0000   1.0000   1.0000   1.0000   1.0000   1.0000   0.0000   0.0000
     0.0000   0.0000

          k =-0.0707-0.4243 0.7071 (  6008 PWs)   bands (ev):

   -14.1128 -14.1092 -13.9660 -13.9275 -13.9040 -13.8674 -13.8663 -13.8327
   -13.6889 -13.6855  -0.0961   0.7198   4.7179   5.0619   9.4122   9.4143
    10.2295  10.2302

     occupation numbers 
     1.0000   1.0000   1.0000   1.0000   1.0000   1.0000   1.0000   1.0000
     1.0000   1.0000   1.0000   1.0000   1.0000   1.0000   0.0000   0.0000
     0.0000   0.0000

          k =-0.0354-0.3889 0.6718 (  6009 PWs)   bands (ev):

   -14.1144 -14.1101 -13.9566 -13.9293 -13.8970 -13.8771 -13.8635 -13.8403
   -13.6879 -13.6837   0.0681   0.5521   4.6776   4.9961   9.4122   9.4143
    10.2755  10.8065

     occupation numbers 
     1.0000   1.0000   1.0000   1.0000   1.0000   1.0000   1.0000   1.0000
     1.0000   1.0000   1.0000   1.0000   1.0000   1.0000   0.0000   0.0000
     0.0000   0.0000

          k = 0.0000-0.3536 0.6364 (  6005 PWs)   bands (ev):

   -14.1151 -14.1093 -13.9602 -13.9216 -13.9019 -13.8732 -13.8699 -13.8371
   -13.6888 -13.6831  -0.0304   0.6556   4.6224   5.0762   9.4122   9.4144
    10.3052  10.9551

     occupation numbers 
     1.0000   1.0000   1.0000   1.0000   1.0000   1.0000   1.0000   1.0000
     1.0000   1.0000   1.0000   1.0000   1.0000   1.0000   0.0000   0.0000
     0.0000   0.0000

          k =-0.7071 0.2828 0.0000 (  6012 PWs)   bands (ev):

   -14.1118 -14.1118 -13.9478 -13.9476 -13.8861 -13.8854 -13.8487 -13.8485
   -13.6862 -13.6862   0.3054   0.3057   4.8447   4.8447   9.4122   9.4143
    10.2316  10.2317

     occupation numbers 
     1.0000   1.0000   1.0000   1.0000   1.0000   1.0000   1.0000   1.0000
     1.0000   1.0000   1.0000   1.0000   1.0000   1.0000   0.0000   0.0000
     0.0000   0.0000

          k =-0.7071 0.3536 0.0000 (  6008 PWs)   bands (ev):

   -14.1129 -14.1129 -13.9422 -13.9419 -13.8878 -13.8871 -13.8526 -13.8524
   -13.6851 -13.6851   0.3098   0.3101   4.8041   4.8041   9.4122   9.4144
    10.7328  10.7329

     occupation numbers 
     1.0000   1.0000   1.0000   1.0000   1.0000   1.0000   1.0000   1.0000
     1.0000   1.0000   1.0000   1.0000   1.0000   1.0000   0.0000   0.0000
     0.0000   0.0000

     the Fermi energy is     7.5489 ev

!    total energy              =    -256.22175749 Ry
     Harris-Foulkes estimate   =    -256.22175714 Ry
     estimated scf accuracy    <       0.00000089 Ry

     The total energy is the sum of the following terms:

     one-electron contribution =    -136.18442055 Ry
     hartree contribution      =      79.21813801 Ry
     xc contribution           =     -31.47403802 Ry
     ewald contribution        =    -167.78134157 Ry
     smearing contrib. (-TS)   =      -0.00009535 Ry

     convergence has been achieved in   4 iterations

     Writing output data file Sn.save
 
     init_run     :      2.15s CPU      2.55s WALL (       1 calls)
     electrons    :     45.66s CPU     51.62s WALL (       1 calls)

     Called by init_run:
     wfcinit      :      2.00s CPU      2.33s WALL (       1 calls)
     potinit      :      0.01s CPU      0.01s WALL (       1 calls)

     Called by electrons:
     c_bands      :     41.00s CPU     46.81s WALL (       5 calls)
     sum_band     :      4.61s CPU      4.72s WALL (       5 calls)
     v_of_rho     :      0.04s CPU      0.04s WALL (       5 calls)
     v_h          :      0.00s CPU      0.00s WALL (       5 calls)
     v_xc         :      0.03s CPU      0.04s WALL (       5 calls)
     mix_rho      :      0.00s CPU      0.00s WALL (       5 calls)

     Called by c_bands:
     init_us_2    :      0.30s CPU      0.33s WALL (    2816 calls)
     cegterg      :     39.29s CPU     44.95s WALL (    1280 calls)

     Called by sum_band:

     Called by *egterg:
     h_psi        :     33.10s CPU     38.54s WALL (    6962 calls)
     g_psi        :      0.15s CPU      0.15s WALL (    5426 calls)
     cdiaghg      :      4.44s CPU      4.61s WALL (    6450 calls)
     cegterg:over :      1.29s CPU      1.43s WALL (    5426 calls)
     cegterg:upda :      0.57s CPU      0.59s WALL (    5426 calls)
     cegterg:last :      0.30s CPU      0.31s WALL (    1792 calls)

     Called by h_psi:
     h_psi:vloc   :     31.76s CPU     37.00s WALL (    6962 calls)
     h_psi:vnl    :      1.23s CPU      1.42s WALL (    6962 calls)
     add_vuspsi   :      0.41s CPU      0.48s WALL (    6962 calls)

     General routines
     calbec       :      0.79s CPU      0.92s WALL (    6962 calls)
     fft          :      0.02s CPU      0.02s WALL (      56 calls)
     fftw         :     33.33s CPU     38.34s WALL (  193446 calls)
     davcio       :      0.01s CPU      0.15s WALL (     256 calls)
 
     Parallel routines
     fft_scatter  :     13.87s CPU     15.98s WALL (  193502 calls)
 
     PWSCF        :    48.17s CPU        54.80s WALL

 
   This run was terminated on:   0:53:43  21Feb2020            

=------------------------------------------------------------------------------=
   JOB DONE.
=------------------------------------------------------------------------------=
