
     Program PWSCF v.5.4.0 starts on 15Mar2020 at 19:57:12 

     This program is part of the open-source Quantum ESPRESSO suite
     for quantum simulation of materials; please cite
         "P. Giannozzi et al., J. Phys.:Condens. Matter 21 395502 (2009);
          URL http://www.quantum-espresso.org", 
     in publications or presentations arising from this work. More details at
     http://www.quantum-espresso.org/quote

     Parallel version (MPI & OpenMP), running on      16 processor cores
     Number of MPI processes:                16
     Threads/MPI process:                     1
     R & G space division:  proc/nbgrp/npool/nimage =      16
     Waiting for input...
     Reading input from standard input
Warning: card &IONS ignored
Warning: card / ignored
Warning: card &CELL ignored
Warning: card / ignored

     Current dimensions of program PWSCF are:
     Max number of different atomic species (ntypx) = 10
     Max number of k-points (npk) =  40000
     Max angular momentum in pseudopotentials (lmaxx) =  3
               file Sn.pbe-dn-kjpaw_psl.0.2.UPF: wavefunction(s)  5P 4D renormalized
     Message from routine setup:
     At least one non s.o. pseudo

     Subspace diagonalization in iterative solution of the eigenvalue problem:
     a serial algorithm will be used

 
     Parallelization info
     --------------------
     sticks:   dense  smooth     PW     G-vecs:    dense   smooth      PW
     Min          74      74     22                 1722     1722     279
     Max          76      76     23                 1725     1725     281
     Sum        1201    1201    361                27581    27581    4477
 

     Title: 
     Sn                                                                         


     bravais-lattice index     =            0
     lattice parameter (alat)  =       8.9127  a.u.
     unit-cell volume          =     500.6268 (a.u.)^3
     number of atoms/cell      =            2
     number of atomic types    =            1
     number of electrons       =        28.00
     number of Kohn-Sham states=           36
     kinetic-energy cutoff     =      55.0000  Ry
     charge density cutoff     =     220.0000  Ry
     convergence threshold     =      1.0E-06
     mixing beta               =       0.7000
     number of iterations used =            8  plain     mixing
     Exchange-correlation      =  SLA  PW   PBX  PBC ( 1  4  3  4 0 0)
     Non magnetic calculation with spin-orbit


     celldm(1)=   8.912709  celldm(2)=   0.000000  celldm(3)=   0.000000
     celldm(4)=   0.000000  celldm(5)=   0.000000  celldm(6)=   0.000000

     crystal axes: (cart. coord. in units of alat)
               a(1) = (   0.000000   0.707107   0.707107 )  
               a(2) = (   0.707107   0.000000   0.707107 )  
               a(3) = (   0.707107   0.707107   0.000000 )  

     reciprocal axes: (cart. coord. in units 2 pi/alat)
               b(1) = ( -0.707107  0.707107  0.707107 )  
               b(2) = (  0.707107 -0.707107  0.707107 )  
               b(3) = (  0.707107  0.707107 -0.707107 )  


     PseudoPot. # 1 for Sn read from file:
     ../PseudopotentialDatabase/Sn.pbe-dn-kjpaw_psl.0.2.UPF
     MD5 check sum: b79c227927c2421b8b427190f2e58519
     Pseudo is Projector augmented-wave + core cor, Zval = 14.0
     Generated using "atomic" code by A. Dal Corso  v.5.0.2 svn rev. 9415
     Shape of augmentation charge: BESSEL
     Using radial grid of 1243 points,  6 beta functions with: 
                l(1) =   0
                l(2) =   0
                l(3) =   1
                l(4) =   1
                l(5) =   2
                l(6) =   2
     Q(r) pseudized with 0 coefficients 


     atomic species   valence    mass     pseudopotential
        Sn            14.00   118.71000     Sn( 1.00)

     24 Sym. Ops. (no inversion) found
          (note: 24 additional sym.ops. were found but ignored
           their fractional translations are incommensurate with FFT grid)

                                    s                        frac. trans.

      isym =  1     identity                                     

 cryst.   s( 1) = (     1          0          0      )
                  (     0          1          0      )
                  (     0          0          1      )

 cart.    s( 1) = (  1.0000000  0.0000000  0.0000000 )
                  (  0.0000000  1.0000000  0.0000000 )
                  (  0.0000000  0.0000000  1.0000000 )


      isym =  2     180 deg rotation - cart. axis [0,0,1]        

 cryst.   s( 2) = (     0          1         -1      )
                  (     1          0         -1      )
                  (     0          0         -1      )

 cart.    s( 2) = ( -1.0000000  0.0000000  0.0000000 )
                  (  0.0000000 -1.0000000  0.0000000 )
                  (  0.0000000  0.0000000  1.0000000 )


      isym =  3     180 deg rotation - cart. axis [0,1,0]        

 cryst.   s( 3) = (     0         -1          1      )
                  (     0         -1          0      )
                  (     1         -1          0      )

 cart.    s( 3) = ( -1.0000000  0.0000000  0.0000000 )
                  (  0.0000000  1.0000000  0.0000000 )
                  (  0.0000000  0.0000000 -1.0000000 )


      isym =  4     180 deg rotation - cart. axis [1,0,0]        

 cryst.   s( 4) = (    -1          0          0      )
                  (    -1          0          1      )
                  (    -1          1          0      )

 cart.    s( 4) = (  1.0000000  0.0000000  0.0000000 )
                  (  0.0000000 -1.0000000  0.0000000 )
                  (  0.0000000  0.0000000 -1.0000000 )


      isym =  5     120 deg rotation - cart. axis [-1,-1,-1]     

 cryst.   s( 5) = (     0          0          1      )
                  (     1          0          0      )
                  (     0          1          0      )

 cart.    s( 5) = (  0.0000000  1.0000000  0.0000000 )
                  (  0.0000000  0.0000000  1.0000000 )
                  (  1.0000000  0.0000000  0.0000000 )


      isym =  6     120 deg rotation - cart. axis [-1,1,1]       

 cryst.   s( 6) = (     1         -1          0      )
                  (     0         -1          1      )
                  (     0         -1          0      )

 cart.    s( 6) = (  0.0000000 -1.0000000  0.0000000 )
                  (  0.0000000  0.0000000  1.0000000 )
                  ( -1.0000000  0.0000000  0.0000000 )


      isym =  7     120 deg rotation - cart. axis [1,1,-1]       

 cryst.   s( 7) = (    -1          1          0      )
                  (    -1          0          0      )
                  (    -1          0          1      )

 cart.    s( 7) = (  0.0000000  1.0000000  0.0000000 )
                  (  0.0000000  0.0000000 -1.0000000 )
                  ( -1.0000000  0.0000000  0.0000000 )


      isym =  8     120 deg rotation - cart. axis [1,-1,1]       

 cryst.   s( 8) = (     0          0         -1      )
                  (     0          1         -1      )
                  (     1          0         -1      )

 cart.    s( 8) = (  0.0000000 -1.0000000  0.0000000 )
                  (  0.0000000  0.0000000 -1.0000000 )
                  (  1.0000000  0.0000000  0.0000000 )


      isym =  9     120 deg rotation - cart. axis [1,1,1]        

 cryst.   s( 9) = (     0          1          0      )
                  (     0          0          1      )
                  (     1          0          0      )

 cart.    s( 9) = (  0.0000000  0.0000000  1.0000000 )
                  (  1.0000000  0.0000000  0.0000000 )
                  (  0.0000000  1.0000000  0.0000000 )


      isym = 10     120 deg rotation - cart. axis [-1,1,-1]      

 cryst.   s(10) = (    -1          0          1      )
                  (    -1          1          0      )
                  (    -1          0          0      )

 cart.    s(10) = (  0.0000000  0.0000000  1.0000000 )
                  ( -1.0000000  0.0000000  0.0000000 )
                  (  0.0000000 -1.0000000  0.0000000 )


      isym = 11     120 deg rotation - cart. axis [1,-1,-1]      

 cryst.   s(11) = (     1          0         -1      )
                  (     0          0         -1      )
                  (     0          1         -1      )

 cart.    s(11) = (  0.0000000  0.0000000 -1.0000000 )
                  ( -1.0000000  0.0000000  0.0000000 )
                  (  0.0000000  1.0000000  0.0000000 )


      isym = 12     120 deg rotation - cart. axis [-1,-1,1]      

 cryst.   s(12) = (     0         -1          0      )
                  (     1         -1          0      )
                  (     0         -1          1      )

 cart.    s(12) = (  0.0000000  0.0000000 -1.0000000 )
                  (  1.0000000  0.0000000  0.0000000 )
                  (  0.0000000 -1.0000000  0.0000000 )


      isym = 13     inv. 180 deg rotation - cart. axis [1,1,0]   

 cryst.   s(13) = (     1          0         -1      )
                  (     0          1         -1      )
                  (     0          0         -1      )

 cart.    s(13) = (  0.0000000 -1.0000000  0.0000000 )
                  ( -1.0000000  0.0000000  0.0000000 )
                  (  0.0000000  0.0000000  1.0000000 )


      isym = 14     inv. 180 deg rotation - cart. axis [1,-1,0]  

 cryst.   s(14) = (     0          1          0      )
                  (     1          0          0      )
                  (     0          0          1      )

 cart.    s(14) = (  0.0000000  1.0000000  0.0000000 )
                  (  1.0000000  0.0000000  0.0000000 )
                  (  0.0000000  0.0000000  1.0000000 )


      isym = 15     inv.  90 deg rotation - cart. axis [0,0,-1]  

 cryst.   s(15) = (     0         -1          0      )
                  (     0         -1          1      )
                  (     1         -1          0      )

 cart.    s(15) = (  0.0000000 -1.0000000  0.0000000 )
                  (  1.0000000  0.0000000  0.0000000 )
                  (  0.0000000  0.0000000 -1.0000000 )


      isym = 16     inv.  90 deg rotation - cart. axis [0,0,1]   

 cryst.   s(16) = (    -1          0          1      )
                  (    -1          0          0      )
                  (    -1          1          0      )

 cart.    s(16) = (  0.0000000  1.0000000  0.0000000 )
                  ( -1.0000000  0.0000000  0.0000000 )
                  (  0.0000000  0.0000000 -1.0000000 )


      isym = 17     inv. 180 deg rotation - cart. axis [1,0,1]   

 cryst.   s(17) = (     1         -1          0      )
                  (     0         -1          0      )
                  (     0         -1          1      )

 cart.    s(17) = (  0.0000000  0.0000000 -1.0000000 )
                  (  0.0000000  1.0000000  0.0000000 )
                  ( -1.0000000  0.0000000  0.0000000 )


      isym = 18     inv. 180 deg rotation - cart. axis [-1,0,1]  

 cryst.   s(18) = (     0          0          1      )
                  (     0          1          0      )
                  (     1          0          0      )

 cart.    s(18) = (  0.0000000  0.0000000  1.0000000 )
                  (  0.0000000  1.0000000  0.0000000 )
                  (  1.0000000  0.0000000  0.0000000 )


      isym = 19     inv.  90 deg rotation - cart. axis [0,1,0]   

 cryst.   s(19) = (     0          0         -1      )
                  (     1          0         -1      )
                  (     0          1         -1      )

 cart.    s(19) = (  0.0000000  0.0000000 -1.0000000 )
                  (  0.0000000 -1.0000000  0.0000000 )
                  (  1.0000000  0.0000000  0.0000000 )


      isym = 20     inv.  90 deg rotation - cart. axis [0,-1,0]  

 cryst.   s(20) = (    -1          1          0      )
                  (    -1          0          1      )
                  (    -1          0          0      )

 cart.    s(20) = (  0.0000000  0.0000000  1.0000000 )
                  (  0.0000000 -1.0000000  0.0000000 )
                  ( -1.0000000  0.0000000  0.0000000 )


      isym = 21     inv. 180 deg rotation - cart. axis [0,1,1]   

 cryst.   s(21) = (    -1          0          0      )
                  (    -1          1          0      )
                  (    -1          0          1      )

 cart.    s(21) = (  1.0000000  0.0000000  0.0000000 )
                  (  0.0000000  0.0000000 -1.0000000 )
                  (  0.0000000 -1.0000000  0.0000000 )


      isym = 22     inv. 180 deg rotation - cart. axis [0,1,-1]  

 cryst.   s(22) = (     1          0          0      )
                  (     0          0          1      )
                  (     0          1          0      )

 cart.    s(22) = (  1.0000000  0.0000000  0.0000000 )
                  (  0.0000000  0.0000000  1.0000000 )
                  (  0.0000000  1.0000000  0.0000000 )


      isym = 23     inv.  90 deg rotation - cart. axis [-1,0,0]  

 cryst.   s(23) = (     0          1         -1      )
                  (     0          0         -1      )
                  (     1          0         -1      )

 cart.    s(23) = ( -1.0000000  0.0000000  0.0000000 )
                  (  0.0000000  0.0000000 -1.0000000 )
                  (  0.0000000  1.0000000  0.0000000 )


      isym = 24     inv.  90 deg rotation - cart. axis [1,0,0]   

 cryst.   s(24) = (     0         -1          1      )
                  (     1         -1          0      )
                  (     0         -1          0      )

 cart.    s(24) = ( -1.0000000  0.0000000  0.0000000 )
                  (  0.0000000  0.0000000  1.0000000 )
                  (  0.0000000 -1.0000000  0.0000000 )


   Cartesian axes

     site n.     atom                  positions (alat units)
         1           Sn  tau(   1) = (   0.0000000   0.0000000   0.0000000  )
         2           Sn  tau(   2) = (   0.3535534   0.3535534   0.3535534  )

   Crystallographic axes

     site n.     atom                  positions (cryst. coord.)
         1           Sn  tau(   1) = (  0.0000000  0.0000000  0.0000000  )
         2           Sn  tau(   2) = (  0.2500000  0.2500000  0.2500000  )

     number of k points=   145  gaussian smearing, width (Ry)=  0.0001
                       cart. coord. in units 2pi/alat
        k(    1) = (   0.0000000   0.0000000   0.0000000), wk =   0.0002441
        k(    2) = (   0.0441942   0.0441942  -0.0441942), wk =   0.0019531
        k(    3) = (   0.0883883   0.0883883  -0.0883883), wk =   0.0019531
        k(    4) = (   0.1325825   0.1325825  -0.1325825), wk =   0.0019531
        k(    5) = (   0.1767767   0.1767767  -0.1767767), wk =   0.0019531
        k(    6) = (   0.2209709   0.2209709  -0.2209709), wk =   0.0019531
        k(    7) = (   0.2651650   0.2651650  -0.2651650), wk =   0.0019531
        k(    8) = (   0.3093592   0.3093592  -0.3093592), wk =   0.0019531
        k(    9) = (  -0.3535534  -0.3535534   0.3535534), wk =   0.0009766
        k(   10) = (   0.0883883   0.0000000   0.0000000), wk =   0.0014648
        k(   11) = (   0.1325825   0.0441942  -0.0441942), wk =   0.0058594
        k(   12) = (   0.1767767   0.0883883  -0.0883883), wk =   0.0058594
        k(   13) = (   0.2209709   0.1325825  -0.1325825), wk =   0.0058594
        k(   14) = (   0.2651650   0.1767767  -0.1767767), wk =   0.0058594
        k(   15) = (   0.3093592   0.2209709  -0.2209709), wk =   0.0058594
        k(   16) = (   0.3535534   0.2651650  -0.2651650), wk =   0.0058594
        k(   17) = (  -0.3093592  -0.3977476   0.3977476), wk =   0.0058594
        k(   18) = (  -0.2651650  -0.3535534   0.3535534), wk =   0.0058594
        k(   19) = (  -0.2209709  -0.3093592   0.3093592), wk =   0.0058594
        k(   20) = (  -0.1767767  -0.2651650   0.2651650), wk =   0.0058594
        k(   21) = (  -0.1325825  -0.2209709   0.2209709), wk =   0.0058594
        k(   22) = (  -0.0883883  -0.1767767   0.1767767), wk =   0.0058594
        k(   23) = (  -0.0441942  -0.1325825   0.1325825), wk =   0.0058594
        k(   24) = (   0.0000000  -0.0883883   0.0883883), wk =   0.0029297
        k(   25) = (   0.1767767   0.0000000   0.0000000), wk =   0.0014648
        k(   26) = (   0.2209709   0.0441942  -0.0441942), wk =   0.0058594
        k(   27) = (   0.2651650   0.0883883  -0.0883883), wk =   0.0058594
        k(   28) = (   0.3093592   0.1325825  -0.1325825), wk =   0.0058594
        k(   29) = (   0.3535534   0.1767767  -0.1767767), wk =   0.0058594
        k(   30) = (   0.3977476   0.2209709  -0.2209709), wk =   0.0058594
        k(   31) = (  -0.2651650  -0.4419417   0.4419417), wk =   0.0058594
        k(   32) = (  -0.2209709  -0.3977476   0.3977476), wk =   0.0058594
        k(   33) = (  -0.1767767  -0.3535534   0.3535534), wk =   0.0058594
        k(   34) = (  -0.1325825  -0.3093592   0.3093592), wk =   0.0058594
        k(   35) = (  -0.0883883  -0.2651650   0.2651650), wk =   0.0058594
        k(   36) = (  -0.0441942  -0.2209709   0.2209709), wk =   0.0058594
        k(   37) = (   0.0000000  -0.1767767   0.1767767), wk =   0.0029297
        k(   38) = (   0.2651650   0.0000000   0.0000000), wk =   0.0014648
        k(   39) = (   0.3093592   0.0441942  -0.0441942), wk =   0.0058594
        k(   40) = (   0.3535534   0.0883883  -0.0883883), wk =   0.0058594
        k(   41) = (   0.3977476   0.1325825  -0.1325825), wk =   0.0058594
        k(   42) = (   0.4419417   0.1767767  -0.1767767), wk =   0.0058594
        k(   43) = (  -0.2209709  -0.4861359   0.4861359), wk =   0.0058594
        k(   44) = (  -0.1767767  -0.4419417   0.4419417), wk =   0.0058594
        k(   45) = (  -0.1325825  -0.3977476   0.3977476), wk =   0.0058594
        k(   46) = (  -0.0883883  -0.3535534   0.3535534), wk =   0.0058594
        k(   47) = (  -0.0441942  -0.3093592   0.3093592), wk =   0.0058594
        k(   48) = (   0.0000000  -0.2651650   0.2651650), wk =   0.0029297
        k(   49) = (   0.3535534   0.0000000   0.0000000), wk =   0.0014648
        k(   50) = (   0.3977476   0.0441942  -0.0441942), wk =   0.0058594
        k(   51) = (   0.4419417   0.0883883  -0.0883883), wk =   0.0058594
        k(   52) = (   0.4861359   0.1325825  -0.1325825), wk =   0.0058594
        k(   53) = (  -0.1767767  -0.5303301   0.5303301), wk =   0.0058594
        k(   54) = (  -0.1325825  -0.4861359   0.4861359), wk =   0.0058594
        k(   55) = (  -0.0883883  -0.4419417   0.4419417), wk =   0.0058594
        k(   56) = (  -0.0441942  -0.3977476   0.3977476), wk =   0.0058594
        k(   57) = (   0.0000000  -0.3535534   0.3535534), wk =   0.0029297
        k(   58) = (   0.4419417   0.0000000   0.0000000), wk =   0.0014648
        k(   59) = (   0.4861359   0.0441942  -0.0441942), wk =   0.0058594
        k(   60) = (   0.5303301   0.0883883  -0.0883883), wk =   0.0058594
        k(   61) = (  -0.1325825  -0.5745243   0.5745243), wk =   0.0058594
        k(   62) = (  -0.0883883  -0.5303301   0.5303301), wk =   0.0058594
        k(   63) = (  -0.0441942  -0.4861359   0.4861359), wk =   0.0058594
        k(   64) = (   0.0000000  -0.4419417   0.4419417), wk =   0.0029297
        k(   65) = (   0.5303301   0.0000000   0.0000000), wk =   0.0014648
        k(   66) = (   0.5745243   0.0441942  -0.0441942), wk =   0.0058594
        k(   67) = (  -0.0883883  -0.6187184   0.6187184), wk =   0.0058594
        k(   68) = (  -0.0441942  -0.5745243   0.5745243), wk =   0.0058594
        k(   69) = (   0.0000000  -0.5303301   0.5303301), wk =   0.0029297
        k(   70) = (   0.6187184   0.0000000   0.0000000), wk =   0.0014648
        k(   71) = (  -0.0441942  -0.6629126   0.6629126), wk =   0.0058594
        k(   72) = (   0.0000000  -0.6187184   0.6187184), wk =   0.0029297
        k(   73) = (  -0.7071068   0.0000000   0.0000000), wk =   0.0007324
        k(   74) = (   0.1767767   0.0883883   0.0000000), wk =   0.0058594
        k(   75) = (   0.2209709   0.1325825  -0.0441942), wk =   0.0117188
        k(   76) = (   0.2651650   0.1767767  -0.0883883), wk =   0.0117188
        k(   77) = (   0.3093592   0.2209709  -0.1325825), wk =   0.0117188
        k(   78) = (   0.3535534   0.2651650  -0.1767767), wk =   0.0117188
        k(   79) = (  -0.3093592  -0.3977476   0.4861359), wk =   0.0117188
        k(   80) = (  -0.2651650  -0.3535534   0.4419417), wk =   0.0058594
        k(   81) = (   0.2651650   0.0883883   0.0000000), wk =   0.0058594
        k(   82) = (   0.3093592   0.1325825  -0.0441942), wk =   0.0117188
        k(   83) = (   0.3535534   0.1767767  -0.0883883), wk =   0.0117188
        k(   84) = (   0.3977476   0.2209709  -0.1325825), wk =   0.0117188
        k(   85) = (  -0.2651650  -0.4419417   0.5303301), wk =   0.0117188
        k(   86) = (  -0.2209709  -0.3977476   0.4861359), wk =   0.0117188
        k(   87) = (  -0.1767767  -0.3535534   0.4419417), wk =   0.0117188
        k(   88) = (  -0.1325825  -0.3093592   0.3977476), wk =   0.0117188
        k(   89) = (  -0.0883883  -0.2651650   0.3535534), wk =   0.0117188
        k(   90) = (  -0.0441942  -0.2209709   0.3093592), wk =   0.0117188
        k(   91) = (   0.0000000  -0.1767767   0.2651650), wk =   0.0058594
        k(   92) = (   0.3535534   0.0883883   0.0000000), wk =   0.0058594
        k(   93) = (   0.3977476   0.1325825  -0.0441942), wk =   0.0117188
        k(   94) = (   0.4419417   0.1767767  -0.0883883), wk =   0.0117188
        k(   95) = (  -0.2209709  -0.4861359   0.5745243), wk =   0.0117188
        k(   96) = (  -0.1767767  -0.4419417   0.5303301), wk =   0.0117188
        k(   97) = (  -0.1325825  -0.3977476   0.4861359), wk =   0.0117188
        k(   98) = (  -0.0883883  -0.3535534   0.4419417), wk =   0.0117188
        k(   99) = (  -0.0441942  -0.3093592   0.3977476), wk =   0.0117188
        k(  100) = (   0.0000000  -0.2651650   0.3535534), wk =   0.0058594
        k(  101) = (   0.4419417   0.0883883   0.0000000), wk =   0.0058594
        k(  102) = (   0.4861359   0.1325825  -0.0441942), wk =   0.0117188
        k(  103) = (  -0.1767767  -0.5303301   0.6187184), wk =   0.0117188
        k(  104) = (  -0.1325825  -0.4861359   0.5745243), wk =   0.0117188
        k(  105) = (  -0.0883883  -0.4419417   0.5303301), wk =   0.0117188
        k(  106) = (  -0.0441942  -0.3977476   0.4861359), wk =   0.0117188
        k(  107) = (   0.0000000  -0.3535534   0.4419417), wk =   0.0058594
        k(  108) = (   0.5303301   0.0883883   0.0000000), wk =   0.0058594
        k(  109) = (  -0.1325825  -0.5745243   0.6629126), wk =   0.0117188
        k(  110) = (  -0.0883883  -0.5303301   0.6187184), wk =   0.0117188
        k(  111) = (  -0.0441942  -0.4861359   0.5745243), wk =   0.0117188
        k(  112) = (   0.0000000  -0.4419417   0.5303301), wk =   0.0058594
        k(  113) = (  -0.0883883  -0.6187184   0.7071068), wk =   0.0058594
        k(  114) = (  -0.0441942  -0.5745243   0.6629126), wk =   0.0117188
        k(  115) = (  -0.0000000  -0.5303301   0.6187184), wk =   0.0058594
        k(  116) = (  -0.7071068   0.0883883   0.0000000), wk =   0.0029297
        k(  117) = (   0.3535534   0.1767767   0.0000000), wk =   0.0058594
        k(  118) = (   0.3977476   0.2209709  -0.0441942), wk =   0.0117188
        k(  119) = (  -0.2651650  -0.4419417   0.6187184), wk =   0.0117188
        k(  120) = (  -0.2209709  -0.3977476   0.5745243), wk =   0.0117188
        k(  121) = (  -0.1767767  -0.3535534   0.5303301), wk =   0.0058594
        k(  122) = (   0.4419417   0.1767767   0.0000000), wk =   0.0058594
        k(  123) = (  -0.2209709  -0.4861359   0.6629126), wk =   0.0117188
        k(  124) = (  -0.1767767  -0.4419417   0.6187184), wk =   0.0117188
        k(  125) = (  -0.1325825  -0.3977476   0.5745243), wk =   0.0117188
        k(  126) = (  -0.0883883  -0.3535534   0.5303301), wk =   0.0117188
        k(  127) = (  -0.0441942  -0.3093592   0.4861359), wk =   0.0117188
        k(  128) = (   0.0000000  -0.2651650   0.4419417), wk =   0.0058594
        k(  129) = (  -0.1767767  -0.5303301   0.7071068), wk =   0.0058594
        k(  130) = (  -0.1325825  -0.4861359   0.6629126), wk =   0.0117188
        k(  131) = (  -0.0883883  -0.4419417   0.6187184), wk =   0.0117188
        k(  132) = (  -0.0441942  -0.3977476   0.5745243), wk =   0.0117188
        k(  133) = (   0.0000000  -0.3535534   0.5303301), wk =   0.0058594
        k(  134) = (  -0.0883883  -0.5303301   0.7071068), wk =   0.0058594
        k(  135) = (  -0.0441942  -0.4861359   0.6629126), wk =   0.0117188
        k(  136) = (   0.0000000  -0.4419417   0.6187184), wk =   0.0058594
        k(  137) = (  -0.7071068   0.1767767   0.0000000), wk =   0.0029297
        k(  138) = (  -0.1767767  -0.4419417   0.7071068), wk =   0.0058594
        k(  139) = (  -0.1325825  -0.3977476   0.6629126), wk =   0.0117188
        k(  140) = (  -0.0883883  -0.3535534   0.6187184), wk =   0.0058594
        k(  141) = (  -0.0883883  -0.4419417   0.7071068), wk =   0.0058594
        k(  142) = (  -0.0441942  -0.3977476   0.6629126), wk =   0.0117188
        k(  143) = (  -0.0000000  -0.3535534   0.6187184), wk =   0.0058594
        k(  144) = (  -0.7071068   0.2651650   0.0000000), wk =   0.0029297
        k(  145) = (  -0.7071068   0.3535534   0.0000000), wk =   0.0014648

                       cryst. coord.
        k(    1) = (   0.0000000   0.0000000   0.0000000), wk =   0.0002441
        k(    2) = (   0.0000000   0.0000000   0.0625000), wk =   0.0019531
        k(    3) = (   0.0000000   0.0000000   0.1250000), wk =   0.0019531
        k(    4) = (   0.0000000   0.0000000   0.1875000), wk =   0.0019531
        k(    5) = (   0.0000000   0.0000000   0.2500000), wk =   0.0019531
        k(    6) = (   0.0000000   0.0000000   0.3125000), wk =   0.0019531
        k(    7) = (   0.0000000   0.0000000   0.3750000), wk =   0.0019531
        k(    8) = (   0.0000000   0.0000000   0.4375000), wk =   0.0019531
        k(    9) = (   0.0000000   0.0000000  -0.5000000), wk =   0.0009766
        k(   10) = (   0.0000000   0.0625000   0.0625000), wk =   0.0014648
        k(   11) = (   0.0000000   0.0625000   0.1250000), wk =   0.0058594
        k(   12) = (   0.0000000   0.0625000   0.1875000), wk =   0.0058594
        k(   13) = (   0.0000000   0.0625000   0.2500000), wk =   0.0058594
        k(   14) = (   0.0000000   0.0625000   0.3125000), wk =   0.0058594
        k(   15) = (   0.0000000   0.0625000   0.3750000), wk =   0.0058594
        k(   16) = (   0.0000000   0.0625000   0.4375000), wk =   0.0058594
        k(   17) = (   0.0000000   0.0625000  -0.5000000), wk =   0.0058594
        k(   18) = (   0.0000000   0.0625000  -0.4375000), wk =   0.0058594
        k(   19) = (   0.0000000   0.0625000  -0.3750000), wk =   0.0058594
        k(   20) = (   0.0000000   0.0625000  -0.3125000), wk =   0.0058594
        k(   21) = (   0.0000000   0.0625000  -0.2500000), wk =   0.0058594
        k(   22) = (   0.0000000   0.0625000  -0.1875000), wk =   0.0058594
        k(   23) = (   0.0000000   0.0625000  -0.1250000), wk =   0.0058594
        k(   24) = (   0.0000000   0.0625000  -0.0625000), wk =   0.0029297
        k(   25) = (   0.0000000   0.1250000   0.1250000), wk =   0.0014648
        k(   26) = (   0.0000000   0.1250000   0.1875000), wk =   0.0058594
        k(   27) = (   0.0000000   0.1250000   0.2500000), wk =   0.0058594
        k(   28) = (   0.0000000   0.1250000   0.3125000), wk =   0.0058594
        k(   29) = (   0.0000000   0.1250000   0.3750000), wk =   0.0058594
        k(   30) = (   0.0000000   0.1250000   0.4375000), wk =   0.0058594
        k(   31) = (   0.0000000   0.1250000  -0.5000000), wk =   0.0058594
        k(   32) = (   0.0000000   0.1250000  -0.4375000), wk =   0.0058594
        k(   33) = (   0.0000000   0.1250000  -0.3750000), wk =   0.0058594
        k(   34) = (   0.0000000   0.1250000  -0.3125000), wk =   0.0058594
        k(   35) = (   0.0000000   0.1250000  -0.2500000), wk =   0.0058594
        k(   36) = (   0.0000000   0.1250000  -0.1875000), wk =   0.0058594
        k(   37) = (   0.0000000   0.1250000  -0.1250000), wk =   0.0029297
        k(   38) = (   0.0000000   0.1875000   0.1875000), wk =   0.0014648
        k(   39) = (   0.0000000   0.1875000   0.2500000), wk =   0.0058594
        k(   40) = (   0.0000000   0.1875000   0.3125000), wk =   0.0058594
        k(   41) = (   0.0000000   0.1875000   0.3750000), wk =   0.0058594
        k(   42) = (   0.0000000   0.1875000   0.4375000), wk =   0.0058594
        k(   43) = (   0.0000000   0.1875000  -0.5000000), wk =   0.0058594
        k(   44) = (   0.0000000   0.1875000  -0.4375000), wk =   0.0058594
        k(   45) = (   0.0000000   0.1875000  -0.3750000), wk =   0.0058594
        k(   46) = (   0.0000000   0.1875000  -0.3125000), wk =   0.0058594
        k(   47) = (   0.0000000   0.1875000  -0.2500000), wk =   0.0058594
        k(   48) = (   0.0000000   0.1875000  -0.1875000), wk =   0.0029297
        k(   49) = (   0.0000000   0.2500000   0.2500000), wk =   0.0014648
        k(   50) = (   0.0000000   0.2500000   0.3125000), wk =   0.0058594
        k(   51) = (   0.0000000   0.2500000   0.3750000), wk =   0.0058594
        k(   52) = (   0.0000000   0.2500000   0.4375000), wk =   0.0058594
        k(   53) = (   0.0000000   0.2500000  -0.5000000), wk =   0.0058594
        k(   54) = (   0.0000000   0.2500000  -0.4375000), wk =   0.0058594
        k(   55) = (   0.0000000   0.2500000  -0.3750000), wk =   0.0058594
        k(   56) = (   0.0000000   0.2500000  -0.3125000), wk =   0.0058594
        k(   57) = (   0.0000000   0.2500000  -0.2500000), wk =   0.0029297
        k(   58) = (   0.0000000   0.3125000   0.3125000), wk =   0.0014648
        k(   59) = (   0.0000000   0.3125000   0.3750000), wk =   0.0058594
        k(   60) = (   0.0000000   0.3125000   0.4375000), wk =   0.0058594
        k(   61) = (   0.0000000   0.3125000  -0.5000000), wk =   0.0058594
        k(   62) = (   0.0000000   0.3125000  -0.4375000), wk =   0.0058594
        k(   63) = (   0.0000000   0.3125000  -0.3750000), wk =   0.0058594
        k(   64) = (   0.0000000   0.3125000  -0.3125000), wk =   0.0029297
        k(   65) = (   0.0000000   0.3750000   0.3750000), wk =   0.0014648
        k(   66) = (   0.0000000   0.3750000   0.4375000), wk =   0.0058594
        k(   67) = (   0.0000000   0.3750000  -0.5000000), wk =   0.0058594
        k(   68) = (   0.0000000   0.3750000  -0.4375000), wk =   0.0058594
        k(   69) = (   0.0000000   0.3750000  -0.3750000), wk =   0.0029297
        k(   70) = (   0.0000000   0.4375000   0.4375000), wk =   0.0014648
        k(   71) = (   0.0000000   0.4375000  -0.5000000), wk =   0.0058594
        k(   72) = (   0.0000000   0.4375000  -0.4375000), wk =   0.0029297
        k(   73) = (   0.0000000  -0.5000000  -0.5000000), wk =   0.0007324
        k(   74) = (   0.0625000   0.1250000   0.1875000), wk =   0.0058594
        k(   75) = (   0.0625000   0.1250000   0.2500000), wk =   0.0117188
        k(   76) = (   0.0625000   0.1250000   0.3125000), wk =   0.0117188
        k(   77) = (   0.0625000   0.1250000   0.3750000), wk =   0.0117188
        k(   78) = (   0.0625000   0.1250000   0.4375000), wk =   0.0117188
        k(   79) = (   0.0625000   0.1250000  -0.5000000), wk =   0.0117188
        k(   80) = (   0.0625000   0.1250000  -0.4375000), wk =   0.0058594
        k(   81) = (   0.0625000   0.1875000   0.2500000), wk =   0.0058594
        k(   82) = (   0.0625000   0.1875000   0.3125000), wk =   0.0117188
        k(   83) = (   0.0625000   0.1875000   0.3750000), wk =   0.0117188
        k(   84) = (   0.0625000   0.1875000   0.4375000), wk =   0.0117188
        k(   85) = (   0.0625000   0.1875000  -0.5000000), wk =   0.0117188
        k(   86) = (   0.0625000   0.1875000  -0.4375000), wk =   0.0117188
        k(   87) = (   0.0625000   0.1875000  -0.3750000), wk =   0.0117188
        k(   88) = (   0.0625000   0.1875000  -0.3125000), wk =   0.0117188
        k(   89) = (   0.0625000   0.1875000  -0.2500000), wk =   0.0117188
        k(   90) = (   0.0625000   0.1875000  -0.1875000), wk =   0.0117188
        k(   91) = (   0.0625000   0.1875000  -0.1250000), wk =   0.0058594
        k(   92) = (   0.0625000   0.2500000   0.3125000), wk =   0.0058594
        k(   93) = (   0.0625000   0.2500000   0.3750000), wk =   0.0117188
        k(   94) = (   0.0625000   0.2500000   0.4375000), wk =   0.0117188
        k(   95) = (   0.0625000   0.2500000  -0.5000000), wk =   0.0117188
        k(   96) = (   0.0625000   0.2500000  -0.4375000), wk =   0.0117188
        k(   97) = (   0.0625000   0.2500000  -0.3750000), wk =   0.0117188
        k(   98) = (   0.0625000   0.2500000  -0.3125000), wk =   0.0117188
        k(   99) = (   0.0625000   0.2500000  -0.2500000), wk =   0.0117188
        k(  100) = (   0.0625000   0.2500000  -0.1875000), wk =   0.0058594
        k(  101) = (   0.0625000   0.3125000   0.3750000), wk =   0.0058594
        k(  102) = (   0.0625000   0.3125000   0.4375000), wk =   0.0117188
        k(  103) = (   0.0625000   0.3125000  -0.5000000), wk =   0.0117188
        k(  104) = (   0.0625000   0.3125000  -0.4375000), wk =   0.0117188
        k(  105) = (   0.0625000   0.3125000  -0.3750000), wk =   0.0117188
        k(  106) = (   0.0625000   0.3125000  -0.3125000), wk =   0.0117188
        k(  107) = (   0.0625000   0.3125000  -0.2500000), wk =   0.0058594
        k(  108) = (   0.0625000   0.3750000   0.4375000), wk =   0.0058594
        k(  109) = (   0.0625000   0.3750000  -0.5000000), wk =   0.0117188
        k(  110) = (   0.0625000   0.3750000  -0.4375000), wk =   0.0117188
        k(  111) = (   0.0625000   0.3750000  -0.3750000), wk =   0.0117188
        k(  112) = (   0.0625000   0.3750000  -0.3125000), wk =   0.0058594
        k(  113) = (   0.0625000   0.4375000  -0.5000000), wk =   0.0058594
        k(  114) = (   0.0625000   0.4375000  -0.4375000), wk =   0.0117188
        k(  115) = (   0.0625000   0.4375000  -0.3750000), wk =   0.0058594
        k(  116) = (   0.0625000  -0.5000000  -0.4375000), wk =   0.0029297
        k(  117) = (   0.1250000   0.2500000   0.3750000), wk =   0.0058594
        k(  118) = (   0.1250000   0.2500000   0.4375000), wk =   0.0117188
        k(  119) = (   0.1250000   0.2500000  -0.5000000), wk =   0.0117188
        k(  120) = (   0.1250000   0.2500000  -0.4375000), wk =   0.0117188
        k(  121) = (   0.1250000   0.2500000  -0.3750000), wk =   0.0058594
        k(  122) = (   0.1250000   0.3125000   0.4375000), wk =   0.0058594
        k(  123) = (   0.1250000   0.3125000  -0.5000000), wk =   0.0117188
        k(  124) = (   0.1250000   0.3125000  -0.4375000), wk =   0.0117188
        k(  125) = (   0.1250000   0.3125000  -0.3750000), wk =   0.0117188
        k(  126) = (   0.1250000   0.3125000  -0.3125000), wk =   0.0117188
        k(  127) = (   0.1250000   0.3125000  -0.2500000), wk =   0.0117188
        k(  128) = (   0.1250000   0.3125000  -0.1875000), wk =   0.0058594
        k(  129) = (   0.1250000   0.3750000  -0.5000000), wk =   0.0058594
        k(  130) = (   0.1250000   0.3750000  -0.4375000), wk =   0.0117188
        k(  131) = (   0.1250000   0.3750000  -0.3750000), wk =   0.0117188
        k(  132) = (   0.1250000   0.3750000  -0.3125000), wk =   0.0117188
        k(  133) = (   0.1250000   0.3750000  -0.2500000), wk =   0.0058594
        k(  134) = (   0.1250000   0.4375000  -0.4375000), wk =   0.0058594
        k(  135) = (   0.1250000   0.4375000  -0.3750000), wk =   0.0117188
        k(  136) = (   0.1250000   0.4375000  -0.3125000), wk =   0.0058594
        k(  137) = (   0.1250000  -0.5000000  -0.3750000), wk =   0.0029297
        k(  138) = (   0.1875000   0.3750000  -0.4375000), wk =   0.0058594
        k(  139) = (   0.1875000   0.3750000  -0.3750000), wk =   0.0117188
        k(  140) = (   0.1875000   0.3750000  -0.3125000), wk =   0.0058594
        k(  141) = (   0.1875000   0.4375000  -0.3750000), wk =   0.0058594
        k(  142) = (   0.1875000   0.4375000  -0.3125000), wk =   0.0117188
        k(  143) = (   0.1875000   0.4375000  -0.2500000), wk =   0.0058594
        k(  144) = (   0.1875000  -0.5000000  -0.3125000), wk =   0.0029297
        k(  145) = (   0.2500000  -0.5000000  -0.2500000), wk =   0.0014648

     Dense  grid:    27581 G-vectors     FFT dimensions: (  45,  45,  45)

     Largest allocated arrays     est. size (Mb)     dimensions
        Kohn-Sham Wavefunctions         0.24 Mb     (     446,   36)
        NL pseudopotentials             0.12 Mb     (     223,   36)
        Each V/rho on FFT grid          0.09 Mb     (    6075)
        Each G-vector array             0.01 Mb     (    1725)
        G-vector shells                 0.00 Mb     (     281)
     Largest temporary arrays     est. size (Mb)     dimensions
        Auxiliary wavefunctions         0.98 Mb     (     446,  144)
        Each subspace H/S matrix        0.32 Mb     (     144,  144)
        Each <psi_i|beta_j> matrix      0.04 Mb     (      36,   2,   36)
        Arrays for rho mixing           0.74 Mb     (    6075,    8)

     Check: negative/imaginary core charge=   -0.000021    0.000000

     Initial potential from superposition of free atoms

     starting charge   27.99723, renormalised to   28.00000
     Starting wfc are   36 randomized atomic wfcs
     Checking if some PAW data can be deallocated... 

     total cpu time spent up to now is       11.9 secs

     Self-consistent Calculation

     iteration #  1     ecut=    55.00 Ry     beta=0.70
     Davidson diagonalization with overlap
     ethr =  1.00E-02,  avg # of iterations =  3.9

     Threshold (ethr) on eigenvalues was too large:
     Diagonalizing with lowered threshold

     Davidson diagonalization with overlap
     ethr =  4.90E-05,  avg # of iterations =  4.2

     total cpu time spent up to now is      101.7 secs

     total energy              =    -884.12388332 Ry
     Harris-Foulkes estimate   =    -884.12817720 Ry
     estimated scf accuracy    <       0.02326217 Ry

     iteration #  2     ecut=    55.00 Ry     beta=0.70
     Davidson diagonalization with overlap
     ethr =  8.31E-05,  avg # of iterations =  1.0

     total cpu time spent up to now is      129.4 secs

     total energy              =    -884.12432535 Ry
     Harris-Foulkes estimate   =    -884.12467107 Ry
     estimated scf accuracy    <       0.00163380 Ry

     iteration #  3     ecut=    55.00 Ry     beta=0.70
     Davidson diagonalization with overlap
     ethr =  5.83E-06,  avg # of iterations =  2.5

     total cpu time spent up to now is      164.2 secs

     total energy              =    -884.12463077 Ry
     Harris-Foulkes estimate   =    -884.12475145 Ry
     estimated scf accuracy    <       0.00016198 Ry

     iteration #  4     ecut=    55.00 Ry     beta=0.70
     Davidson diagonalization with overlap
     ethr =  5.79E-07,  avg # of iterations =  3.0

     total cpu time spent up to now is      205.9 secs

     total energy              =    -884.12469887 Ry
     Harris-Foulkes estimate   =    -884.12469876 Ry
     estimated scf accuracy    <       0.00000803 Ry

     iteration #  5     ecut=    55.00 Ry     beta=0.70
     Davidson diagonalization with overlap
     ethr =  2.87E-08,  avg # of iterations =  3.0

     total cpu time spent up to now is      239.1 secs

     End of self-consistent calculation

          k = 0.0000 0.0000 0.0000 (  3479 PWs)   bands (ev):

   -14.0345 -14.0345 -14.0345 -14.0345 -14.0345 -14.0345 -13.9845 -13.9845
   -13.9845 -13.9845 -13.7382 -13.7382 -13.7382 -13.7382 -13.7382 -13.7382
   -13.7360 -13.7360 -13.7360 -13.7360  -2.5551  -2.5551   6.3290   6.3290
     7.6176   7.6176   7.6176   7.6176   7.6176   7.6176   9.6831   9.6831
     9.6831   9.6831   9.6831   9.6831

     occupation numbers 
     1.0000   1.0000   1.0000   1.0000   1.0000   1.0000   1.0000   1.0000
     1.0000   1.0000   1.0000   1.0000   1.0000   1.0000   1.0000   1.0000
     1.0000   1.0000   1.0000   1.0000   1.0000   1.0000   1.0000   1.0000
     0.0000   0.0000   0.0000   0.0000   0.0000   0.0000   0.0000   0.0000
     0.0000   0.0000   0.0000   0.0000

          k = 0.0442 0.0442-0.0442 (  3467 PWs)   bands (ev):

   -14.0370 -14.0370 -14.0370 -14.0370 -14.0336 -14.0336 -13.9811 -13.9811
   -13.9811 -13.9811 -13.7477 -13.7477 -13.7477 -13.7477 -13.7392 -13.7392
   -13.7271 -13.7271 -13.7271 -13.7271  -2.5204  -2.5204   5.9352   5.9352
     7.5451   7.5451   7.5451   7.5451   7.7984   7.7984   9.7781   9.7781
     9.7781   9.7781   9.8130   9.8130

     occupation numbers 
     1.0000   1.0000   1.0000   1.0000   1.0000   1.0000   1.0000   1.0000
     1.0000   1.0000   1.0000   1.0000   1.0000   1.0000   1.0000   1.0000
     1.0000   1.0000   1.0000   1.0000   1.0000   1.0000   1.0000   1.0000
     0.0295   0.0295   0.0295   0.0295   0.0000   0.0000   0.0000   0.0000
     0.0000   0.0000   0.0000   0.0000

          k = 0.0884 0.0884-0.0884 (  3467 PWs)   bands (ev):

   -14.0428 -14.0428 -14.0428 -14.0428 -14.0313 -14.0313 -13.9728 -13.9728
   -13.9728 -13.9728 -13.7581 -13.7581 -13.7581 -13.7581 -13.7420 -13.7420
   -13.7183 -13.7183 -13.7183 -13.7183  -2.4171  -2.4171   5.1750   5.1750
     7.3675   7.3675   7.3675   7.3675   7.9273   7.9273  10.0126  10.0126
    10.0126  10.0126  10.2467  10.2467

     occupation numbers 
     1.0000   1.0000   1.0000   1.0000   1.0000   1.0000   1.0000   1.0000
     1.0000   1.0000   1.0000   1.0000   1.0000   1.0000   1.0000   1.0000
     1.0000   1.0000   1.0000   1.0000   1.0000   1.0000   1.0000   1.0000
     1.0000   1.0000   1.0000   1.0000   0.0000   0.0000   0.0000   0.0000
     0.0000   0.0000   0.0000   0.0000

          k = 0.1326 0.1326-0.1326 (  3467 PWs)   bands (ev):

   -14.0491 -14.0491 -14.0491 -14.0491 -14.0277 -14.0277 -13.9629 -13.9629
   -13.9629 -13.9629 -13.7679 -13.7679 -13.7679 -13.7679 -13.7462 -13.7462
   -13.7108 -13.7108 -13.7108 -13.7108  -2.2480  -2.2480   4.3455   4.3455
     7.1527   7.1527   7.1527   7.1527   7.8637   7.8637  10.2883  10.2883
    10.2883  10.2883  10.9280  10.9280

     occupation numbers 
     1.0000   1.0000   1.0000   1.0000   1.0000   1.0000   1.0000   1.0000
     1.0000   1.0000   1.0000   1.0000   1.0000   1.0000   1.0000   1.0000
     1.0000   1.0000   1.0000   1.0000   1.0000   1.0000   1.0000   1.0000
     1.0000   1.0000   1.0000   1.0000   0.0000   0.0000   0.0000   0.0000
     0.0000   0.0000   0.0000   0.0000

          k = 0.1768 0.1768-0.1768 (  3455 PWs)   bands (ev):

   -14.0545 -14.0545 -14.0545 -14.0545 -14.0233 -14.0233 -13.9535 -13.9535
   -13.9535 -13.9535 -13.7761 -13.7761 -13.7761 -13.7761 -13.7512 -13.7512
   -13.7048 -13.7048 -13.7048 -13.7048  -2.0196  -2.0196   3.5339   3.5339
     6.9459   6.9459   6.9459   6.9459   7.7237   7.7237  10.5188  10.5188
    10.5188  10.5188  11.7375  11.7375

     occupation numbers 
     1.0000   1.0000   1.0000   1.0000   1.0000   1.0000   1.0000   1.0000
     1.0000   1.0000   1.0000   1.0000   1.0000   1.0000   1.0000   1.0000
     1.0000   1.0000   1.0000   1.0000   1.0000   1.0000   1.0000   1.0000
     1.0000   1.0000   1.0000   1.0000   0.0000   0.0000   0.0000   0.0000
     0.0000   0.0000   0.0000   0.0000

          k = 0.2210 0.2210-0.2210 (  3446 PWs)   bands (ev):

   -14.0587 -14.0587 -14.0587 -14.0587 -14.0189 -14.0189 -13.9459 -13.9459
   -13.9459 -13.9459 -13.7825 -13.7825 -13.7825 -13.7825 -13.7564 -13.7564
   -13.7004 -13.7004 -13.7004 -13.7004  -1.7450  -1.7450   2.7859   2.7859
     6.7711   6.7711   6.7711   6.7711   7.5816   7.5816  10.6582  10.6582
    10.6582  10.6582  12.6027  12.6028

     occupation numbers 
     1.0000   1.0000   1.0000   1.0000   1.0000   1.0000   1.0000   1.0000
     1.0000   1.0000   1.0000   1.0000   1.0000   1.0000   1.0000   1.0000
     1.0000   1.0000   1.0000   1.0000   1.0000   1.0000   1.0000   1.0000
     1.0000   1.0000   1.0000   1.0000   0.0000   0.0000   0.0000   0.0000
     0.0000   0.0000   0.0000   0.0000

          k = 0.2652 0.2652-0.2652 (  3452 PWs)   bands (ev):

   -14.0614 -14.0614 -14.0614 -14.0614 -14.0150 -14.0150 -13.9405 -13.9405
   -13.9405 -13.9405 -13.7867 -13.7867 -13.7867 -13.7867 -13.7609 -13.7609
   -13.6975 -13.6975 -13.6975 -13.6975  -1.4520  -1.4520   2.1460   2.1460
     6.6404   6.6404   6.6404   6.6404   7.4687   7.4687  10.7148  10.7148
    10.7148  10.7148  13.2731  13.2731

     occupation numbers 
     1.0000   1.0000   1.0000   1.0000   1.0000   1.0000   1.0000   1.0000
     1.0000   1.0000   1.0000   1.0000   1.0000   1.0000   1.0000   1.0000
     1.0000   1.0000   1.0000   1.0000   1.0000   1.0000   1.0000   1.0000
     1.0000   1.0000   1.0000   1.0000   1.0000   1.0000   0.0000   0.0000
     0.0000   0.0000   0.0000   0.0000

          k = 0.3094 0.3094-0.3094 (  3444 PWs)   bands (ev):

   -14.0630 -14.0630 -14.0630 -14.0630 -14.0124 -14.0124 -13.9374 -13.9374
   -13.9374 -13.9374 -13.7890 -13.7890 -13.7890 -13.7890 -13.7640 -13.7640
   -13.6958 -13.6958 -13.6958 -13.6958  -1.2007  -1.2007   1.6835   1.6835
     6.5600   6.5600   6.5600   6.5600   7.3977   7.3977  10.7268  10.7268
    10.7268  10.7268  13.3043  13.3043

     occupation numbers 
     1.0000   1.0000   1.0000   1.0000   1.0000   1.0000   1.0000   1.0000
     1.0000   1.0000   1.0000   1.0000   1.0000   1.0000   1.0000   1.0000
     1.0000   1.0000   1.0000   1.0000   1.0000   1.0000   1.0000   1.0000
     1.0000   1.0000   1.0000   1.0000   1.0000   1.0000   0.0000   0.0000
     0.0000   0.0000   0.0000   0.0000

          k =-0.3536-0.3536 0.3536 (  3444 PWs)   bands (ev):

   -14.0635 -14.0635 -14.0635 -14.0635 -14.0114 -14.0114 -13.9364 -13.9364
   -13.9364 -13.9364 -13.7897 -13.7897 -13.7897 -13.7897 -13.7651 -13.7651
   -13.6953 -13.6953 -13.6953 -13.6953  -1.0945  -1.0945   1.5064   1.5064
     6.5329   6.5329   6.5329   6.5329   7.3735   7.3735  10.7270  10.7270
    10.7270  10.7270  13.2797  13.2797

     occupation numbers 
     1.0000   1.0000   1.0000   1.0000   1.0000   1.0000   1.0000   1.0000
     1.0000   1.0000   1.0000   1.0000   1.0000   1.0000   1.0000   1.0000
     1.0000   1.0000   1.0000   1.0000   1.0000   1.0000   1.0000   1.0000
     1.0000   1.0000   1.0000   1.0000   1.0000   1.0000   0.0000   0.0000
     0.0000   0.0000   0.0000   0.0000

          k = 0.0884 0.0000 0.0000 (  3471 PWs)   bands (ev):

   -14.0365 -14.0365 -14.0363 -14.0363 -14.0363 -14.0363 -13.9820 -13.9820
   -13.9776 -13.9776 -13.7570 -13.7570 -13.7384 -13.7384 -13.7357 -13.7357
   -13.7357 -13.7357 -13.7229 -13.7229  -2.5087  -2.5087   5.8552   5.8552
     7.4122   7.4122   7.4122   7.4122   8.0723   8.0723   9.5384   9.5384
     9.9483   9.9483   9.9483   9.9483

     occupation numbers 
     1.0000   1.0000   1.0000   1.0000   1.0000   1.0000   1.0000   1.0000
     1.0000   1.0000   1.0000   1.0000   1.0000   1.0000   1.0000   1.0000
     1.0000   1.0000   1.0000   1.0000   1.0000   1.0000   1.0000   1.0000
     1.0000   1.0000   1.0000   1.0000   0.0000   0.0000   0.0000   0.0000
     0.0000   0.0000   0.0000   0.0000

          k = 0.1326 0.0442-0.0442 (  3461 PWs)   bands (ev):

   -14.0426 -14.0426 -14.0400 -14.0400 -14.0341 -14.0341 -13.9768 -13.9768
   -13.9691 -13.9691 -13.7683 -13.7683 -13.7478 -13.7478 -13.7358 -13.7358
   -13.7267 -13.7267 -13.7161 -13.7161  -2.4281  -2.4281   5.2916   5.2916
     7.2041   7.2041   7.2352   7.2352   8.3247   8.3247   9.5375   9.5375
    10.2317  10.2317  10.3058  10.3058

     occupation numbers 
     1.0000   1.0000   1.0000   1.0000   1.0000   1.0000   1.0000   1.0000
     1.0000   1.0000   1.0000   1.0000   1.0000   1.0000   1.0000   1.0000
     1.0000   1.0000   1.0000   1.0000   1.0000   1.0000   1.0000   1.0000
     1.0000   1.0000   1.0000   1.0000   0.0000   0.0000   0.0000   0.0000
     0.0000   0.0000   0.0000   0.0000

          k = 0.1768 0.0884-0.0884 (  3472 PWs)   bands (ev):

   -14.0498 -14.0498 -14.0458 -14.0458 -14.0300 -14.0300 -13.9683 -13.9683
   -13.9587 -13.9587 -13.7789 -13.7789 -13.7579 -13.7579 -13.7397 -13.7397
   -13.7180 -13.7180 -13.7085 -13.7085  -2.2805  -2.2805   4.5381   4.5381
     6.9816   6.9816   7.0176   7.0176   8.3429   8.3429   9.7646   9.7646
    10.5378  10.5378  10.8586  10.8586

     occupation numbers 
     1.0000   1.0000   1.0000   1.0000   1.0000   1.0000   1.0000   1.0000
     1.0000   1.0000   1.0000   1.0000   1.0000   1.0000   1.0000   1.0000
     1.0000   1.0000   1.0000   1.0000   1.0000   1.0000   1.0000   1.0000
     1.0000   1.0000   1.0000   1.0000   0.0000   0.0000   0.0000   0.0000
     0.0000   0.0000   0.0000   0.0000

          k = 0.2210 0.1326-0.1326 (  3455 PWs)   bands (ev):

   -14.0563 -14.0563 -14.0515 -14.0515 -14.0246 -14.0246 -13.9590 -13.9590
   -13.9486 -13.9486 -13.7877 -13.7877 -13.7671 -13.7671 -13.7457 -13.7457
   -13.7106 -13.7106 -13.7018 -13.7018  -2.0710  -2.0710   3.7499   3.7499
     6.7768   6.7768   6.7813   6.7813   8.2280   8.2280  10.0770  10.0770
    10.7855  10.7855  11.5044  11.5044

     occupation numbers 
     1.0000   1.0000   1.0000   1.0000   1.0000   1.0000   1.0000   1.0000
     1.0000   1.0000   1.0000   1.0000   1.0000   1.0000   1.0000   1.0000
     1.0000   1.0000   1.0000   1.0000   1.0000   1.0000   1.0000   1.0000
     1.0000   1.0000   1.0000   1.0000   0.0000   0.0000   0.0000   0.0000
     0.0000   0.0000   0.0000   0.0000

          k = 0.2652 0.1768-0.1768 (  3458 PWs)   bands (ev):

   -14.0616 -14.0616 -14.0563 -14.0563 -14.0187 -14.0187 -13.9505 -13.9505
   -13.9405 -13.9405 -13.7939 -13.7939 -13.7752 -13.7752 -13.7528 -13.7528
   -13.7047 -13.7047 -13.6965 -13.6965  -1.8096  -1.8096   2.9962   2.9962
     6.5513   6.5513   6.6221   6.6221   8.0825   8.0825  10.3375  10.3375
    10.9234  10.9234  12.1841  12.1841

     occupation numbers 
     1.0000   1.0000   1.0000   1.0000   1.0000   1.0000   1.0000   1.0000
     1.0000   1.0000   1.0000   1.0000   1.0000   1.0000   1.0000   1.0000
     1.0000   1.0000   1.0000   1.0000   1.0000   1.0000   1.0000   1.0000
     1.0000   1.0000   1.0000   1.0000   0.0000   0.0000   0.0000   0.0000
     0.0000   0.0000   0.0000   0.0000

          k = 0.3094 0.2210-0.2210 (  3454 PWs)   bands (ev):

   -14.0652 -14.0652 -14.0599 -14.0599 -14.0130 -14.0130 -13.9434 -13.9434
   -13.9352 -13.9352 -13.7969 -13.7969 -13.7819 -13.7819 -13.7598 -13.7598
   -13.7001 -13.7001 -13.6929 -13.6929  -1.5178  -1.5178   2.3259   2.3259
     6.3628   6.3628   6.5138   6.5138   7.9527   7.9527  10.4965  10.4965
    10.9546  10.9546  12.8553  12.8553

     occupation numbers 
     1.0000   1.0000   1.0000   1.0000   1.0000   1.0000   1.0000   1.0000
     1.0000   1.0000   1.0000   1.0000   1.0000   1.0000   1.0000   1.0000
     1.0000   1.0000   1.0000   1.0000   1.0000   1.0000   1.0000   1.0000
     1.0000   1.0000   1.0000   1.0000   0.0000   0.0000   0.0000   0.0000
     0.0000   0.0000   0.0000   0.0000

          k = 0.3536 0.2652-0.2652 (  3445 PWs)   bands (ev):

   -14.0673 -14.0673 -14.0625 -14.0625 -14.0085 -14.0085 -13.9380 -13.9380
   -13.9330 -13.9330 -13.7966 -13.7966 -13.7873 -13.7873 -13.7658 -13.7658
   -13.6967 -13.6967 -13.6909 -13.6909  -1.2425  -1.2425   1.8000   1.8000
     6.2222   6.2222   6.4608   6.4608   7.8582   7.8582  10.5833  10.5833
    10.9209  10.9209  13.2942  13.2942

     occupation numbers 
     1.0000   1.0000   1.0000   1.0000   1.0000   1.0000   1.0000   1.0000
     1.0000   1.0000   1.0000   1.0000   1.0000   1.0000   1.0000   1.0000
     1.0000   1.0000   1.0000   1.0000   1.0000   1.0000   1.0000   1.0000
     1.0000   1.0000   1.0000   1.0000   0.0000   0.0000   0.0000   0.0000
     0.0000   0.0000   0.0000   0.0000

          k =-0.3094-0.3977 0.3977 (  3447 PWs)   bands (ev):

   -14.0679 -14.0679 -14.0641 -14.0641 -14.0061 -14.0061 -13.9343 -13.9343
   -13.9336 -13.9336 -13.7938 -13.7938 -13.7914 -13.7914 -13.7697 -13.7697
   -13.6945 -13.6945 -13.6906 -13.6906  -1.0748  -1.0748   1.5172   1.5172
     6.1355   6.1355   6.4645   6.4645   7.8071   7.8071  10.6440  10.6440
    10.8629  10.8629  13.3913  13.3913

     occupation numbers 
     1.0000   1.0000   1.0000   1.0000   1.0000   1.0000   1.0000   1.0000
     1.0000   1.0000   1.0000   1.0000   1.0000   1.0000   1.0000   1.0000
     1.0000   1.0000   1.0000   1.0000   1.0000   1.0000   1.0000   1.0000
     1.0000   1.0000   1.0000   1.0000   0.0000   0.0000   0.0000   0.0000
     0.0000   0.0000   0.0000   0.0000

          k =-0.2652-0.3536 0.3536 (  3444 PWs)   bands (ev):

   -14.0671 -14.0671 -14.0648 -14.0648 -14.0061 -14.0061 -13.9362 -13.9362
   -13.9326 -13.9326 -13.7941 -13.7941 -13.7897 -13.7897 -13.7702 -13.7702
   -13.6933 -13.6933 -13.6920 -13.6920  -1.1118  -1.1118   1.5775   1.5775
     6.1062   6.1062   6.5240   6.5240   7.8028   7.8028  10.7040  10.7040
    10.8006  10.8006  13.4039  13.4039

     occupation numbers 
     1.0000   1.0000   1.0000   1.0000   1.0000   1.0000   1.0000   1.0000
     1.0000   1.0000   1.0000   1.0000   1.0000   1.0000   1.0000   1.0000
     1.0000   1.0000   1.0000   1.0000   1.0000   1.0000   1.0000   1.0000
     1.0000   1.0000   1.0000   1.0000   0.0000   0.0000   0.0000   0.0000
     0.0000   0.0000   0.0000   0.0000

          k =-0.2210-0.3094 0.3094 (  3450 PWs)   bands (ev):

   -14.0649 -14.0649 -14.0643 -14.0643 -14.0088 -14.0088 -13.9404 -13.9404
   -13.9333 -13.9333 -13.7948 -13.7948 -13.7858 -13.7858 -13.7666 -13.7666
   -13.6949 -13.6949 -13.6934 -13.6934  -1.3284  -1.3284   1.9552   1.9552
     6.1367   6.1367   6.6362   6.6362   7.8445   7.8445  10.7301  10.7301
    10.7600  10.7600  13.2850  13.2850

     occupation numbers 
     1.0000   1.0000   1.0000   1.0000   1.0000   1.0000   1.0000   1.0000
     1.0000   1.0000   1.0000   1.0000   1.0000   1.0000   1.0000   1.0000
     1.0000   1.0000   1.0000   1.0000   1.0000   1.0000   1.0000   1.0000
     1.0000   1.0000   1.0000   1.0000   0.0000   0.0000   0.0000   0.0000
     0.0000   0.0000   0.0000   0.0000

          k =-0.1768-0.2652 0.2652 (  3437 PWs)   bands (ev):

   -14.0625 -14.0625 -14.0613 -14.0613 -14.0135 -14.0135 -13.9460 -13.9460
   -13.9370 -13.9370 -13.7928 -13.7928 -13.7817 -13.7817 -13.7598 -13.7598
   -13.6995 -13.6995 -13.6950 -13.6950  -1.6169  -1.6169   2.5380   2.5380
     6.2285   6.2285   6.7952   6.7952   7.9278   7.9278  10.6270  10.6270
    10.7779  10.7779  12.7078  12.7079

     occupation numbers 
     1.0000   1.0000   1.0000   1.0000   1.0000   1.0000   1.0000   1.0000
     1.0000   1.0000   1.0000   1.0000   1.0000   1.0000   1.0000   1.0000
     1.0000   1.0000   1.0000   1.0000   1.0000   1.0000   1.0000   1.0000
     1.0000   1.0000   1.0000   1.0000   0.0000   0.0000   0.0000   0.0000
     0.0000   0.0000   0.0000   0.0000

          k =-0.1326-0.2210 0.2210 (  3451 PWs)   bands (ev):

   -14.0592 -14.0592 -14.0564 -14.0564 -14.0193 -14.0193 -13.9532 -13.9532
   -13.9439 -13.9439 -13.7877 -13.7877 -13.7764 -13.7764 -13.7517 -13.7517
   -13.7056 -13.7056 -13.6982 -13.6982  -1.9020  -1.9020   3.2406   3.2406
     6.3820   6.3820   6.9912   6.9912   8.0406   8.0406  10.4598  10.4598
    10.6903  10.6903  11.9768  11.9768

     occupation numbers 
     1.0000   1.0000   1.0000   1.0000   1.0000   1.0000   1.0000   1.0000
     1.0000   1.0000   1.0000   1.0000   1.0000   1.0000   1.0000   1.0000
     1.0000   1.0000   1.0000   1.0000   1.0000   1.0000   1.0000   1.0000
     1.0000   1.0000   1.0000   1.0000   0.0000   0.0000   0.0000   0.0000
     0.0000   0.0000   0.0000   0.0000

          k =-0.0884-0.1768 0.1768 (  3460 PWs)   bands (ev):

   -14.0544 -14.0544 -14.0504 -14.0504 -14.0251 -14.0251 -13.9616 -13.9616
   -13.9533 -13.9533 -13.7798 -13.7798 -13.7694 -13.7694 -13.7437 -13.7437
   -13.7131 -13.7131 -13.7031 -13.7031  -2.1476  -2.1476   4.0084   4.0084
     6.5970   6.5970   7.2067   7.2067   8.1537   8.1537  10.2240  10.2240
    10.4349  10.4349  11.3213  11.3213

     occupation numbers 
     1.0000   1.0000   1.0000   1.0000   1.0000   1.0000   1.0000   1.0000
     1.0000   1.0000   1.0000   1.0000   1.0000   1.0000   1.0000   1.0000
     1.0000   1.0000   1.0000   1.0000   1.0000   1.0000   1.0000   1.0000
     1.0000   1.0000   1.0000   1.0000   0.0000   0.0000   0.0000   0.0000
     0.0000   0.0000   0.0000   0.0000

          k =-0.0442-0.1326 0.1326 (  3466 PWs)   bands (ev):

   -14.0483 -14.0483 -14.0437 -14.0437 -14.0302 -14.0302 -13.9704 -13.9704
   -13.9640 -13.9640 -13.7699 -13.7699 -13.7611 -13.7611 -13.7367 -13.7367
   -13.7221 -13.7221 -13.7097 -13.7097  -2.3372  -2.3372   4.7875   4.7875
     6.8727   6.8727   7.4090   7.4090   8.1976   8.1976   9.9698   9.9698
    10.0785  10.0785  10.7487  10.7488

     occupation numbers 
     1.0000   1.0000   1.0000   1.0000   1.0000   1.0000   1.0000   1.0000
     1.0000   1.0000   1.0000   1.0000   1.0000   1.0000   1.0000   1.0000
     1.0000   1.0000   1.0000   1.0000   1.0000   1.0000   1.0000   1.0000
     1.0000   1.0000   1.0000   1.0000   0.0000   0.0000   0.0000   0.0000
     0.0000   0.0000   0.0000   0.0000

          k = 0.0000-0.0884 0.0884 (  3467 PWs)   bands (ev):

   -14.0418 -14.0418 -14.0382 -14.0382 -14.0334 -14.0334 -13.9779 -13.9779
   -13.9741 -13.9741 -13.7589 -13.7589 -13.7523 -13.7523 -13.7332 -13.7332
   -13.7302 -13.7302 -13.7178 -13.7178  -2.4627  -2.4627   5.4902   5.4902
     7.2080   7.2080   7.5425   7.5425   8.0582   8.0582   9.7906   9.7906
     9.8305   9.8305  10.2255  10.2255

     occupation numbers 
     1.0000   1.0000   1.0000   1.0000   1.0000   1.0000   1.0000   1.0000
     1.0000   1.0000   1.0000   1.0000   1.0000   1.0000   1.0000   1.0000
     1.0000   1.0000   1.0000   1.0000   1.0000   1.0000   1.0000   1.0000
     1.0000   1.0000   0.7940   0.7940   0.0000   0.0000   0.0000   0.0000
     0.0000   0.0000   0.0000   0.0000

          k = 0.1768 0.0000 0.0000 (  3459 PWs)   bands (ev):

   -14.0414 -14.0414 -14.0414 -14.0414 -14.0394 -14.0394 -13.9748 -13.9748
   -13.9604 -13.9604 -13.7816 -13.7816 -13.7453 -13.7453 -13.7287 -13.7287
   -13.7287 -13.7287 -13.7149 -13.7149  -2.3700  -2.3700   5.0418   5.0418
     6.9814   6.9814   6.9814   6.9814   8.7936   8.7936   9.2179   9.2179
    10.5563  10.5563  10.5563  10.5563

     occupation numbers 
     1.0000   1.0000   1.0000   1.0000   1.0000   1.0000   1.0000   1.0000
     1.0000   1.0000   1.0000   1.0000   1.0000   1.0000   1.0000   1.0000
     1.0000   1.0000   1.0000   1.0000   1.0000   1.0000   1.0000   1.0000
     1.0000   1.0000   1.0000   1.0000   0.0000   0.0000   0.0000   0.0000
     0.0000   0.0000   0.0000   0.0000

          k = 0.2210 0.0442-0.0442 (  3472 PWs)   bands (ev):

   -14.0489 -14.0489 -14.0457 -14.0457 -14.0353 -14.0353 -13.9681 -13.9681
   -13.9493 -13.9493 -13.7944 -13.7944 -13.7531 -13.7531 -13.7290 -13.7290
   -13.7216 -13.7216 -13.7096 -13.7096  -2.2443  -2.2443   4.4987   4.4987
     6.7380   6.7380   6.7540   6.7540   8.9765   8.9765   9.2127   9.2127
    10.9033  10.9033  10.9854  10.9854

     occupation numbers 
     1.0000   1.0000   1.0000   1.0000   1.0000   1.0000   1.0000   1.0000
     1.0000   1.0000   1.0000   1.0000   1.0000   1.0000   1.0000   1.0000
     1.0000   1.0000   1.0000   1.0000   1.0000   1.0000   1.0000   1.0000
     1.0000   1.0000   1.0000   1.0000   0.0000   0.0000   0.0000   0.0000
     0.0000   0.0000   0.0000   0.0000

          k = 0.2652 0.0884-0.0884 (  3457 PWs)   bands (ev):

   -14.0572 -14.0572 -14.0510 -14.0510 -14.0282 -14.0282 -13.9594 -13.9594
   -13.9383 -13.9383 -13.8053 -13.8053 -13.7628 -13.7628 -13.7356 -13.7356
   -13.7136 -13.7136 -13.7014 -13.7014  -2.0546  -2.0546   3.8228   3.8228
     6.4572   6.4572   6.5547   6.5547   8.9030   8.9030   9.5064   9.5064
    11.1926  11.1926  11.4214  11.4214

     occupation numbers 
     1.0000   1.0000   1.0000   1.0000   1.0000   1.0000   1.0000   1.0000
     1.0000   1.0000   1.0000   1.0000   1.0000   1.0000   1.0000   1.0000
     1.0000   1.0000   1.0000   1.0000   1.0000   1.0000   1.0000   1.0000
     1.0000   1.0000   1.0000   1.0000   0.0000   0.0000   0.0000   0.0000
     0.0000   0.0000   0.0000   0.0000

          k = 0.3094 0.1326-0.1326 (  3456 PWs)   bands (ev):

   -14.0645 -14.0645 -14.0560 -14.0560 -14.0196 -14.0196 -13.9503 -13.9503
   -13.9292 -13.9292 -13.8132 -13.8132 -13.7723 -13.7723 -13.7451 -13.7451
   -13.7065 -13.7065 -13.6938 -13.6938  -1.8087  -1.8087   3.1210   3.1210
     6.1736   6.1736   6.4013   6.4013   8.7612   8.7612   9.8905   9.8905
    11.3614  11.3614  11.7447  11.7447

     occupation numbers 
     1.0000   1.0000   1.0000   1.0000   1.0000   1.0000   1.0000   1.0000
     1.0000   1.0000   1.0000   1.0000   1.0000   1.0000   1.0000   1.0000
     1.0000   1.0000   1.0000   1.0000   1.0000   1.0000   1.0000   1.0000
     1.0000   1.0000   1.0000   1.0000   0.0000   0.0000   0.0000   0.0000
     0.0000   0.0000   0.0000   0.0000

          k = 0.3536 0.1768-0.1768 (  3452 PWs)   bands (ev):

   -14.0703 -14.0703 -14.0603 -14.0603 -14.0105 -14.0105 -13.9418 -13.9418
   -13.9235 -13.9235 -13.8168 -13.8168 -13.7812 -13.7812 -13.7557 -13.7557
   -13.7006 -13.7006 -13.6876 -13.6876  -1.5230  -1.5230   2.4601   2.4601
     5.9223   5.9223   6.3031   6.3031   8.6179   8.6179  10.2158  10.2158
    11.3978  11.3978  12.1049  12.1049

     occupation numbers 
     1.0000   1.0000   1.0000   1.0000   1.0000   1.0000   1.0000   1.0000
     1.0000   1.0000   1.0000   1.0000   1.0000   1.0000   1.0000   1.0000
     1.0000   1.0000   1.0000   1.0000   1.0000   1.0000   1.0000   1.0000
     1.0000   1.0000   1.0000   1.0000   0.0000   0.0000   0.0000   0.0000
     0.0000   0.0000   0.0000   0.0000

          k = 0.3977 0.2210-0.2210 (  3463 PWs)   bands (ev):

   -14.0743 -14.0743 -14.0636 -14.0636 -14.0022 -14.0022 -13.9344 -13.9344
   -13.9219 -13.9219 -13.8157 -13.8157 -13.7893 -13.7893 -13.7659 -13.7659
   -13.6958 -13.6958 -13.6834 -13.6834  -1.2330  -1.2330   1.9021   1.9021
     5.7209   5.7209   6.2646   6.2646   8.5014   8.5014  10.4156  10.4156
    11.3419  11.3419  12.6246  12.6246

     occupation numbers 
     1.0000   1.0000   1.0000   1.0000   1.0000   1.0000   1.0000   1.0000
     1.0000   1.0000   1.0000   1.0000   1.0000   1.0000   1.0000   1.0000
     1.0000   1.0000   1.0000   1.0000   1.0000   1.0000   1.0000   1.0000
     1.0000   1.0000   1.0000   1.0000   0.0000   0.0000   0.0000   0.0000
     0.0000   0.0000   0.0000   0.0000

          k =-0.2652-0.4419 0.4419 (  3450 PWs)   bands (ev):

   -14.0763 -14.0763 -14.0660 -14.0660 -13.9961 -13.9961 -13.9283 -13.9283
   -13.9242 -13.9242 -13.8100 -13.8100 -13.7964 -13.7964 -13.7743 -13.7743
   -13.6923 -13.6923 -13.6816 -13.6816  -1.0149  -1.0149   1.5369   1.5369
     5.5787   5.5787   6.2867   6.2867   8.4245   8.4245  10.5352  10.5352
    11.2420  11.2420  13.1955  13.1955

     occupation numbers 
     1.0000   1.0000   1.0000   1.0000   1.0000   1.0000   1.0000   1.0000
     1.0000   1.0000   1.0000   1.0000   1.0000   1.0000   1.0000   1.0000
     1.0000   1.0000   1.0000   1.0000   1.0000   1.0000   1.0000   1.0000
     1.0000   1.0000   1.0000   1.0000   0.0000   0.0000   0.0000   0.0000
     0.0000   0.0000   0.0000   0.0000

          k =-0.2210-0.3977 0.3977 (  3446 PWs)   bands (ev):

   -14.0762 -14.0762 -14.0674 -14.0674 -13.9935 -13.9935 -13.9292 -13.9292
   -13.9242 -13.9242 -13.8020 -13.8020 -13.8007 -13.8007 -13.7800 -13.7800
   -13.6899 -13.6899 -13.6821 -13.6821  -0.9795  -0.9795   1.4817   1.4817
     5.5017   5.5017   6.3677   6.3677   8.3918   8.3918  10.6350  10.6350
    11.1264  11.1264  13.5034  13.5034

     occupation numbers 
     1.0000   1.0000   1.0000   1.0000   1.0000   1.0000   1.0000   1.0000
     1.0000   1.0000   1.0000   1.0000   1.0000   1.0000   1.0000   1.0000
     1.0000   1.0000   1.0000   1.0000   1.0000   1.0000   1.0000   1.0000
     1.0000   1.0000   1.0000   1.0000   0.0000   0.0000   0.0000   0.0000
     0.0000   0.0000   0.0000   0.0000

          k =-0.1768-0.3536 0.3536 (  3443 PWs)   bands (ev):

   -14.0740 -14.0740 -14.0678 -14.0678 -13.9951 -13.9951 -13.9356 -13.9356
   -13.9228 -13.9228 -13.8052 -13.8052 -13.7901 -13.7901 -13.7813 -13.7813
   -13.6890 -13.6890 -13.6853 -13.6853  -1.1514  -1.1514   1.7610   1.7610
     5.4953   5.4953   6.5031   6.5031   8.4025   8.4025  10.7367  10.7367
    10.9980  10.9980  13.2448  13.2448

     occupation numbers 
     1.0000   1.0000   1.0000   1.0000   1.0000   1.0000   1.0000   1.0000
     1.0000   1.0000   1.0000   1.0000   1.0000   1.0000   1.0000   1.0000
     1.0000   1.0000   1.0000   1.0000   1.0000   1.0000   1.0000   1.0000
     1.0000   1.0000   1.0000   1.0000   0.0000   0.0000   0.0000   0.0000
     0.0000   0.0000   0.0000   0.0000

          k =-0.1326-0.3094 0.3094 (  3456 PWs)   bands (ev):

   -14.0697 -14.0697 -14.0668 -14.0668 -14.0006 -14.0006 -13.9424 -13.9424
   -13.9252 -13.9252 -13.8047 -13.8047 -13.7850 -13.7850 -13.7726 -13.7726
   -13.6909 -13.6909 -13.6897 -13.6897  -1.4292  -1.4292   2.2678   2.2678
     5.5661   5.5661   6.6846   6.6846   8.4491   8.4491  10.8176  10.8176
    10.8383  10.8383  12.5902  12.5902

     occupation numbers 
     1.0000   1.0000   1.0000   1.0000   1.0000   1.0000   1.0000   1.0000
     1.0000   1.0000   1.0000   1.0000   1.0000   1.0000   1.0000   1.0000
     1.0000   1.0000   1.0000   1.0000   1.0000   1.0000   1.0000   1.0000
     1.0000   1.0000   1.0000   1.0000   0.0000   0.0000   0.0000   0.0000
     0.0000   0.0000   0.0000   0.0000

          k =-0.0884-0.2652 0.2652 (  3447 PWs)   bands (ev):

   -14.0642 -14.0642 -14.0638 -14.0638 -14.0087 -14.0087 -13.9495 -13.9495
   -13.9317 -13.9317 -13.8002 -13.8002 -13.7816 -13.7816 -13.7593 -13.7593
   -13.6988 -13.6988 -13.6921 -13.6921  -1.7213  -1.7213   2.8958   2.8958
     5.7232   5.7232   6.8985   6.8985   8.5131   8.5131  10.6239  10.6239
    10.7852  10.7852  11.9797  11.9797

     occupation numbers 
     1.0000   1.0000   1.0000   1.0000   1.0000   1.0000   1.0000   1.0000
     1.0000   1.0000   1.0000   1.0000   1.0000   1.0000   1.0000   1.0000
     1.0000   1.0000   1.0000   1.0000   1.0000   1.0000   1.0000   1.0000
     1.0000   1.0000   1.0000   1.0000   0.0000   0.0000   0.0000   0.0000
     0.0000   0.0000   0.0000   0.0000

          k =-0.0442-0.2210 0.2210 (  3455 PWs)   bands (ev):

   -14.0600 -14.0600 -14.0565 -14.0565 -14.0177 -14.0177 -13.9568 -13.9568
   -13.9413 -13.9413 -13.7921 -13.7921 -13.7762 -13.7762 -13.7466 -13.7466
   -13.7085 -13.7085 -13.6963 -13.6963  -1.9821  -1.9821   3.5716   3.5716
     5.9817   5.9817   7.1210   7.1210   8.5499   8.5499  10.3610  10.3610
    10.5258  10.5258  11.5953  11.5953

     occupation numbers 
     1.0000   1.0000   1.0000   1.0000   1.0000   1.0000   1.0000   1.0000
     1.0000   1.0000   1.0000   1.0000   1.0000   1.0000   1.0000   1.0000
     1.0000   1.0000   1.0000   1.0000   1.0000   1.0000   1.0000   1.0000
     1.0000   1.0000   1.0000   1.0000   0.0000   0.0000   0.0000   0.0000
     0.0000   0.0000   0.0000   0.0000

          k = 0.0000-0.1768 0.1768 (  3465 PWs)   bands (ev):

   -14.0545 -14.0545 -14.0491 -14.0491 -14.0255 -14.0255 -13.9643 -13.9643
   -13.9527 -13.9527 -13.7816 -13.7816 -13.7690 -13.7690 -13.7366 -13.7366
   -13.7187 -13.7187 -13.7023 -13.7023  -2.1906  -2.1906   4.2274   4.2274
     6.3625   6.3625   7.3111   7.3111   8.4690   8.4690  10.1107  10.1107
    10.2110  10.2110  11.2533  11.2533

     occupation numbers 
     1.0000   1.0000   1.0000   1.0000   1.0000   1.0000   1.0000   1.0000
     1.0000   1.0000   1.0000   1.0000   1.0000   1.0000   1.0000   1.0000
     1.0000   1.0000   1.0000   1.0000   1.0000   1.0000   1.0000   1.0000
     1.0000   1.0000   1.0000   1.0000   0.0000   0.0000   0.0000   0.0000
     0.0000   0.0000   0.0000   0.0000

          k = 0.2652 0.0000 0.0000 (  3475 PWs)   bands (ev):

   -14.0487 -14.0487 -14.0487 -14.0487 -14.0393 -14.0393 -13.9631 -13.9631
   -13.9371 -13.9371 -13.8099 -13.8099 -13.7565 -13.7565 -13.7186 -13.7186
   -13.7186 -13.7186 -13.7133 -13.7133  -2.1401  -2.1401   4.1865   4.1865
     6.5223   6.5223   6.5223   6.5223   8.8760   8.8760   9.3568   9.3568
    11.3051  11.3051  11.3051  11.3051

     occupation numbers 
     1.0000   1.0000   1.0000   1.0000   1.0000   1.0000   1.0000   1.0000
     1.0000   1.0000   1.0000   1.0000   1.0000   1.0000   1.0000   1.0000
     1.0000   1.0000   1.0000   1.0000   1.0000   1.0000   1.0000   1.0000
     1.0000   1.0000   1.0000   1.0000   0.0000   0.0000   0.0000   0.0000
     0.0000   0.0000   0.0000   0.0000

          k = 0.3094 0.0442-0.0442 (  3467 PWs)   bands (ev):

   -14.0560 -14.0560 -14.0531 -14.0531 -14.0335 -14.0335 -13.9550 -13.9550
   -13.9246 -13.9246 -13.8237 -13.8237 -13.7648 -13.7648 -13.7243 -13.7243
   -13.7120 -13.7120 -13.7049 -13.7049  -1.9707  -1.9707   3.6816   3.6816
     6.2627   6.2627   6.3192   6.3192   8.8609   8.8609   9.4590   9.4590
    11.6343  11.6343  11.6623  11.6623

     occupation numbers 
     1.0000   1.0000   1.0000   1.0000   1.0000   1.0000   1.0000   1.0000
     1.0000   1.0000   1.0000   1.0000   1.0000   1.0000   1.0000   1.0000
     1.0000   1.0000   1.0000   1.0000   1.0000   1.0000   1.0000   1.0000
     1.0000   1.0000   1.0000   1.0000   0.0000   0.0000   0.0000   0.0000
     0.0000   0.0000   0.0000   0.0000

          k = 0.3536 0.0884-0.0884 (  3462 PWs)   bands (ev):

   -14.0648 -14.0648 -14.0578 -14.0578 -14.0231 -14.0231 -13.9457 -13.9457
   -13.9137 -13.9137 -13.8345 -13.8345 -13.7746 -13.7746 -13.7361 -13.7361
   -13.7050 -13.7050 -13.6944 -13.6944  -1.7418  -1.7418   3.0899   3.0899
     5.9426   5.9426   6.1633   6.1633   8.9545   8.9545   9.6043   9.6043
    11.7048  11.7048  11.8976  11.8976

     occupation numbers 
     1.0000   1.0000   1.0000   1.0000   1.0000   1.0000   1.0000   1.0000
     1.0000   1.0000   1.0000   1.0000   1.0000   1.0000   1.0000   1.0000
     1.0000   1.0000   1.0000   1.0000   1.0000   1.0000   1.0000   1.0000
     1.0000   1.0000   1.0000   1.0000   0.0000   0.0000   0.0000   0.0000
     0.0000   0.0000   0.0000   0.0000

          k = 0.3977 0.1326-0.1326 (  3457 PWs)   bands (ev):

   -14.0728 -14.0728 -14.0621 -14.0621 -14.0109 -14.0109 -13.9362 -13.9362
   -13.9064 -13.9064 -13.8408 -13.8408 -13.7847 -13.7847 -13.7496 -13.7496
   -13.6987 -13.6987 -13.6853 -13.6853  -1.4658  -1.4658   2.4880   2.4880
     5.6236   5.6236   6.0647   6.0647   8.9240   8.9240   9.9882   9.9882
    11.7116  11.7116  11.9753  11.9753

     occupation numbers 
     1.0000   1.0000   1.0000   1.0000   1.0000   1.0000   1.0000   1.0000
     1.0000   1.0000   1.0000   1.0000   1.0000   1.0000   1.0000   1.0000
     1.0000   1.0000   1.0000   1.0000   1.0000   1.0000   1.0000   1.0000
     1.0000   1.0000   1.0000   1.0000   0.0000   0.0000   0.0000   0.0000
     0.0000   0.0000   0.0000   0.0000

          k = 0.4419 0.1768-0.1768 (  3455 PWs)   bands (ev):

   -14.0791 -14.0791 -14.0657 -14.0657 -13.9988 -13.9988 -13.9273 -13.9273
   -13.9041 -13.9041 -13.8412 -13.8412 -13.7947 -13.7947 -13.7633 -13.7633
   -13.6934 -13.6934 -13.6783 -13.6783  -1.1693  -1.1693   1.9401   1.9401
     5.3495   5.3495   6.0283   6.0283   8.8463   8.8463  10.4061  10.4061
    11.8901  11.8901  11.9251  11.9251

     occupation numbers 
     1.0000   1.0000   1.0000   1.0000   1.0000   1.0000   1.0000   1.0000
     1.0000   1.0000   1.0000   1.0000   1.0000   1.0000   1.0000   1.0000
     1.0000   1.0000   1.0000   1.0000   1.0000   1.0000   1.0000   1.0000
     1.0000   1.0000   1.0000   1.0000   0.0000   0.0000   0.0000   0.0000
     0.0000   0.0000   0.0000   0.0000

          k =-0.2210-0.4861 0.4861 (  3450 PWs)   bands (ev):

   -14.0831 -14.0831 -14.0684 -14.0684 -13.9885 -13.9885 -13.9193 -13.9193
   -13.9072 -13.9072 -13.8358 -13.8358 -13.8040 -13.8040 -13.7751 -13.7751
   -13.6893 -13.6893 -13.6740 -13.6740  -0.9126  -0.9126   1.5276   1.5276
     5.1409   5.1409   6.0554   6.0554   8.7877   8.7877  10.6645  10.6645
    11.8028  11.8028  12.3706  12.3706

     occupation numbers 
     1.0000   1.0000   1.0000   1.0000   1.0000   1.0000   1.0000   1.0000
     1.0000   1.0000   1.0000   1.0000   1.0000   1.0000   1.0000   1.0000
     1.0000   1.0000   1.0000   1.0000   1.0000   1.0000   1.0000   1.0000
     1.0000   1.0000   1.0000   1.0000   0.0000   0.0000   0.0000   0.0000
     0.0000   0.0000   0.0000   0.0000

          k =-0.1768-0.4419 0.4419 (  3439 PWs)   bands (ev):

   -14.0846 -14.0846 -14.0703 -14.0703 -13.9821 -13.9821 -13.9146 -13.9146
   -13.9131 -13.9131 -13.8252 -13.8252 -13.8118 -13.8118 -13.7835 -13.7835
   -13.6864 -13.6864 -13.6726 -13.6726  -0.8076  -0.8076   1.3729   1.3729
     5.0093   5.0093   6.1442   6.1442   8.7657   8.7657  10.7997  10.7997
    11.6458  11.6458  13.0081  13.0081

     occupation numbers 
     1.0000   1.0000   1.0000   1.0000   1.0000   1.0000   1.0000   1.0000
     1.0000   1.0000   1.0000   1.0000   1.0000   1.0000   1.0000   1.0000
     1.0000   1.0000   1.0000   1.0000   1.0000   1.0000   1.0000   1.0000
     1.0000   1.0000   1.0000   1.0000   0.0000   0.0000   0.0000   0.0000
     0.0000   0.0000   0.0000   0.0000

          k =-0.1326-0.3977 0.3977 (  3447 PWs)   bands (ev):

   -14.0833 -14.0833 -14.0711 -14.0711 -13.9808 -13.9808 -13.9246 -13.9246
   -13.9101 -13.9101 -13.8168 -13.8168 -13.8106 -13.8106 -13.7879 -13.7879
   -13.6850 -13.6850 -13.6746 -13.6746  -0.9269  -0.9269   1.5502   1.5502
     4.9645   4.9645   6.2898   6.2898   8.7796   8.7796  10.9090  10.9090
    11.4624  11.4624  13.1155  13.1156

     occupation numbers 
     1.0000   1.0000   1.0000   1.0000   1.0000   1.0000   1.0000   1.0000
     1.0000   1.0000   1.0000   1.0000   1.0000   1.0000   1.0000   1.0000
     1.0000   1.0000   1.0000   1.0000   1.0000   1.0000   1.0000   1.0000
     1.0000   1.0000   1.0000   1.0000   0.0000   0.0000   0.0000   0.0000
     0.0000   0.0000   0.0000   0.0000

          k =-0.0884-0.3536 0.3536 (  3449 PWs)   bands (ev):

   -14.0794 -14.0794 -14.0705 -14.0705 -13.9852 -13.9852 -13.9348 -13.9348
   -13.9117 -13.9117 -13.8172 -13.8172 -13.7936 -13.7936 -13.7886 -13.7886
   -13.6853 -13.6853 -13.6797 -13.6797  -1.1886  -1.1886   1.9691   1.9691
     5.0190   5.0190   6.4827   6.4827   8.8156   8.8156  11.0188  11.0188
    11.2373  11.2373  12.4458  12.4458

     occupation numbers 
     1.0000   1.0000   1.0000   1.0000   1.0000   1.0000   1.0000   1.0000
     1.0000   1.0000   1.0000   1.0000   1.0000   1.0000   1.0000   1.0000
     1.0000   1.0000   1.0000   1.0000   1.0000   1.0000   1.0000   1.0000
     1.0000   1.0000   1.0000   1.0000   0.0000   0.0000   0.0000   0.0000
     0.0000   0.0000   0.0000   0.0000

          k =-0.0442-0.3094 0.3094 (  3456 PWs)   bands (ev):

   -14.0731 -14.0731 -14.0685 -14.0685 -13.9946 -13.9946 -13.9434 -13.9434
   -13.9185 -13.9185 -13.8124 -13.8124 -13.7869 -13.7869 -13.7754 -13.7754
   -13.6879 -13.6879 -13.6872 -13.6872  -1.4842  -1.4842   2.5012   2.5012
     5.1913   5.1913   6.7068   6.7068   8.8404   8.8404  10.9544  10.9544
    11.0500  11.0500  11.8322  11.8322

     occupation numbers 
     1.0000   1.0000   1.0000   1.0000   1.0000   1.0000   1.0000   1.0000
     1.0000   1.0000   1.0000   1.0000   1.0000   1.0000   1.0000   1.0000
     1.0000   1.0000   1.0000   1.0000   1.0000   1.0000   1.0000   1.0000
     1.0000   1.0000   1.0000   1.0000   0.0000   0.0000   0.0000   0.0000
     0.0000   0.0000   0.0000   0.0000

          k = 0.0000-0.2652 0.2652 (  3459 PWs)   bands (ev):

   -14.0650 -14.0650 -14.0650 -14.0650 -14.0065 -14.0065 -13.9506 -13.9506
   -13.9291 -13.9291 -13.8034 -13.8034 -13.7824 -13.7824 -13.7589 -13.7589
   -13.6982 -13.6982 -13.6909 -13.6909  -1.7570  -1.7570   3.0567   3.0567
     5.5059   5.5059   6.9346   6.9346   8.7834   8.7834  10.6369  10.6369
    10.7935  10.7935  11.6419  11.6419

     occupation numbers 
     1.0000   1.0000   1.0000   1.0000   1.0000   1.0000   1.0000   1.0000
     1.0000   1.0000   1.0000   1.0000   1.0000   1.0000   1.0000   1.0000
     1.0000   1.0000   1.0000   1.0000   1.0000   1.0000   1.0000   1.0000
     1.0000   1.0000   1.0000   1.0000   0.0000   0.0000   0.0000   0.0000
     0.0000   0.0000   0.0000   0.0000

          k = 0.3536 0.0000 0.0000 (  3479 PWs)   bands (ev):

   -14.0568 -14.0568 -14.0568 -14.0568 -14.0345 -14.0345 -13.9473 -13.9473
   -13.9101 -13.9101 -13.8408 -13.8408 -13.7716 -13.7716 -13.7183 -13.7183
   -13.7071 -13.7071 -13.7071 -13.7071  -1.8210  -1.8210   3.3373   3.3373
     6.1096   6.1096   6.1096   6.1096   8.5900   8.5900   9.5249   9.5249
    12.1129  12.1129  12.1129  12.1129

     occupation numbers 
     1.0000   1.0000   1.0000   1.0000   1.0000   1.0000   1.0000   1.0000
     1.0000   1.0000   1.0000   1.0000   1.0000   1.0000   1.0000   1.0000
     1.0000   1.0000   1.0000   1.0000   1.0000   1.0000   1.0000   1.0000
     1.0000   1.0000   1.0000   1.0000   0.0000   0.0000   0.0000   0.0000
     0.0000   0.0000   0.0000   0.0000

          k = 0.3977 0.0442-0.0442 (  3461 PWs)   bands (ev):

   -14.0634 -14.0634 -14.0609 -14.0609 -14.0265 -14.0265 -13.9379 -13.9379
   -13.8969 -13.8969 -13.8550 -13.8550 -13.7811 -13.7811 -13.7286 -13.7286
   -13.7011 -13.7011 -13.6972 -13.6972  -1.6098  -1.6098   2.8709   2.8709
     5.8585   5.8585   5.9461   5.9461   8.6138   8.6138   9.4903   9.4903
    12.2531  12.2532  12.4547  12.4547

     occupation numbers 
     1.0000   1.0000   1.0000   1.0000   1.0000   1.0000   1.0000   1.0000
     1.0000   1.0000   1.0000   1.0000   1.0000   1.0000   1.0000   1.0000
     1.0000   1.0000   1.0000   1.0000   1.0000   1.0000   1.0000   1.0000
     1.0000   1.0000   1.0000   1.0000   0.0000   0.0000   0.0000   0.0000
     0.0000   0.0000   0.0000   0.0000

          k = 0.4419 0.0884-0.0884 (  3454 PWs)   bands (ev):

   -14.0721 -14.0721 -14.0648 -14.0648 -14.0132 -14.0132 -13.9278 -13.9278
   -13.8870 -13.8870 -13.8647 -13.8647 -13.7916 -13.7916 -13.7437 -13.7437
   -13.6952 -13.6952 -13.6863 -13.6863  -1.3461  -1.3461   2.3580   2.3580
     5.5210   5.5210   5.8401   5.8401   8.7599   8.7599   9.6244   9.6244
    12.1227  12.1227  12.6186  12.6186

     occupation numbers 
     1.0000   1.0000   1.0000   1.0000   1.0000   1.0000   1.0000   1.0000
     1.0000   1.0000   1.0000   1.0000   1.0000   1.0000   1.0000   1.0000
     1.0000   1.0000   1.0000   1.0000   1.0000   1.0000   1.0000   1.0000
     1.0000   1.0000   1.0000   1.0000   0.0000   0.0000   0.0000   0.0000
     0.0000   0.0000   0.0000   0.0000

          k = 0.4861 0.1326-0.1326 (  3451 PWs)   bands (ev):

   -14.0802 -14.0802 -14.0682 -14.0682 -13.9982 -13.9982 -13.9177 -13.9177
   -13.8835 -13.8835 -13.8673 -13.8673 -13.8025 -13.8025 -13.7601 -13.7601
   -13.6901 -13.6901 -13.6770 -13.6770  -1.0494  -1.0494   1.8577   1.8577
     5.1821   5.1821   5.7974   5.7974   8.8020   8.8020  10.0854  10.0854
    11.9971  11.9971  12.6086  12.6086

     occupation numbers 
     1.0000   1.0000   1.0000   1.0000   1.0000   1.0000   1.0000   1.0000
     1.0000   1.0000   1.0000   1.0000   1.0000   1.0000   1.0000   1.0000
     1.0000   1.0000   1.0000   1.0000   1.0000   1.0000   1.0000   1.0000
     1.0000   1.0000   1.0000   1.0000   0.0000   0.0000   0.0000   0.0000
     0.0000   0.0000   0.0000   0.0000

          k =-0.1768-0.5303 0.5303 (  3447 PWs)   bands (ev):

   -14.0863 -14.0863 -14.0709 -14.0709 -13.9845 -13.9845 -13.9083 -13.9083
   -13.8859 -13.8859 -13.8634 -13.8634 -13.8133 -13.8133 -13.7749 -13.7749
   -13.6861 -13.6861 -13.6702 -13.6702  -0.7657  -0.7657   1.4381   1.4381
     4.8990   4.8990   5.8199   5.8199   8.7980   8.7980  10.7066  10.7066
    11.9802  11.9802  12.4838  12.4838

     occupation numbers 
     1.0000   1.0000   1.0000   1.0000   1.0000   1.0000   1.0000   1.0000
     1.0000   1.0000   1.0000   1.0000   1.0000   1.0000   1.0000   1.0000
[...]

     occupation numbers 
     1.0000   1.0000   1.0000   1.0000   1.0000   1.0000   1.0000   1.0000
     1.0000   1.0000   1.0000   1.0000   1.0000   1.0000   1.0000   1.0000
     1.0000   1.0000   1.0000   1.0000   1.0000   1.0000   1.0000   1.0000
     1.0000   1.0000   1.0000   1.0000   0.0000   0.0000   0.0000   0.0000
     0.0000   0.0000   0.0000   0.0000

          k =-0.1326-0.3977 0.5745 (  3439 PWs)   bands (ev):

   -14.0902 -14.0902 -14.0775 -14.0775 -13.9642 -13.9642 -13.9028 -13.9028
   -13.8826 -13.8826 -13.8608 -13.8608 -13.8256 -13.8256 -13.7951 -13.7951
   -13.6783 -13.6783 -13.6659 -13.6659  -0.5091  -0.5091   1.1407   1.1407
     4.6645   4.6645   5.6269   5.6269   9.4759   9.4759  10.7202  10.7202
    12.0008  12.0008  12.6861  12.6861

     occupation numbers 
     1.0000   1.0000   1.0000   1.0000   1.0000   1.0000   1.0000   1.0000
     1.0000   1.0000   1.0000   1.0000   1.0000   1.0000   1.0000   1.0000
     1.0000   1.0000   1.0000   1.0000   1.0000   1.0000   1.0000   1.0000
     1.0000   1.0000   1.0000   1.0000   0.0000   0.0000   0.0000   0.0000
     0.0000   0.0000   0.0000   0.0000

          k =-0.0884-0.3536 0.5303 (  3449 PWs)   bands (ev):

   -14.0901 -14.0901 -14.0776 -14.0776 -13.9637 -13.9637 -13.9057 -13.9057
   -13.8839 -13.8839 -13.8566 -13.8566 -13.8251 -13.8251 -13.7961 -13.7961
   -13.6782 -13.6782 -13.6662 -13.6662  -0.5636  -0.5636   1.2100   1.2100
     4.6314   4.6314   5.6961   5.6961   9.5211   9.5211  10.7120  10.7120
    12.0646  12.0646  12.6473  12.6473

     occupation numbers 
     1.0000   1.0000   1.0000   1.0000   1.0000   1.0000   1.0000   1.0000
     1.0000   1.0000   1.0000   1.0000   1.0000   1.0000   1.0000   1.0000
     1.0000   1.0000   1.0000   1.0000   1.0000   1.0000   1.0000   1.0000
     1.0000   1.0000   1.0000   1.0000   0.0000   0.0000   0.0000   0.0000
     0.0000   0.0000   0.0000   0.0000

          k =-0.0442-0.3094 0.4861 (  3451 PWs)   bands (ev):

   -14.0868 -14.0868 -14.0765 -14.0765 -13.9707 -13.9707 -13.9161 -13.9161
   -13.8862 -13.8862 -13.8541 -13.8541 -13.8120 -13.8120 -13.7919 -13.7919
   -13.6793 -13.6793 -13.6703 -13.6703  -0.8071  -0.8071   1.5293   1.5293
     4.7028   4.7028   5.8388   5.8388   9.5731   9.5731  10.5960  10.5960
    11.4863  11.4863  12.8735  12.8735

     occupation numbers 
     1.0000   1.0000   1.0000   1.0000   1.0000   1.0000   1.0000   1.0000
     1.0000   1.0000   1.0000   1.0000   1.0000   1.0000   1.0000   1.0000
     1.0000   1.0000   1.0000   1.0000   1.0000   1.0000   1.0000   1.0000
     1.0000   1.0000   1.0000   1.0000   0.0000   0.0000   0.0000   0.0000
     0.0000   0.0000   0.0000   0.0000

          k = 0.0000-0.2652 0.4419 (  3445 PWs)   bands (ev):

   -14.0807 -14.0807 -14.0741 -14.0741 -13.9835 -13.9835 -13.9268 -13.9268
   -13.8938 -13.8938 -13.8481 -13.8481 -13.7970 -13.7970 -13.7816 -13.7816
   -13.6819 -13.6819 -13.6778 -13.6778  -1.1050  -1.1050   1.9485   1.9485
     4.8978   4.8978   6.0294   6.0294   9.5727   9.5727  10.2410  10.2410
    11.3098  11.3098  12.6471  12.6471

     occupation numbers 
     1.0000   1.0000   1.0000   1.0000   1.0000   1.0000   1.0000   1.0000
     1.0000   1.0000   1.0000   1.0000   1.0000   1.0000   1.0000   1.0000
     1.0000   1.0000   1.0000   1.0000   1.0000   1.0000   1.0000   1.0000
     1.0000   1.0000   1.0000   1.0000   0.0000   0.0000   0.0000   0.0000
     0.0000   0.0000   0.0000   0.0000

          k =-0.1768-0.5303 0.7071 (  3439 PWs)   bands (ev):

   -14.0789 -14.0789 -14.0771 -14.0771 -13.9868 -13.9868 -13.9072 -13.9072
   -13.8893 -13.8893 -13.8629 -13.8629 -13.8132 -13.8132 -13.7708 -13.7708
   -13.6793 -13.6793 -13.6782 -13.6782  -0.8138  -0.8138   1.5670   1.5670
     5.0687   5.0687   5.4999   5.4999   9.2178   9.2178   9.5734   9.5734
    11.9976  11.9976  13.6083  13.6083

     occupation numbers 
     1.0000   1.0000   1.0000   1.0000   1.0000   1.0000   1.0000   1.0000
     1.0000   1.0000   1.0000   1.0000   1.0000   1.0000   1.0000   1.0000
     1.0000   1.0000   1.0000   1.0000   1.0000   1.0000   1.0000   1.0000
     1.0000   1.0000   1.0000   1.0000   0.0000   0.0000   0.0000   0.0000
     0.0000   0.0000   0.0000   0.0000

          k =-0.1326-0.4861 0.6629 (  3441 PWs)   bands (ev):

   -14.0857 -14.0857 -14.0794 -14.0794 -13.9695 -13.9695 -13.8972 -13.8972
   -13.8939 -13.8939 -13.8567 -13.8567 -13.8255 -13.8255 -13.7880 -13.7880
   -13.6765 -13.6765 -13.6703 -13.6703  -0.5101  -0.5101   1.1830   1.1830
     4.8386   4.8386   5.3781   5.3781   9.3838   9.3838  10.0492  10.0492
    11.8227  11.8227  13.5614  13.5614

     occupation numbers 
     1.0000   1.0000   1.0000   1.0000   1.0000   1.0000   1.0000   1.0000
     1.0000   1.0000   1.0000   1.0000   1.0000   1.0000   1.0000   1.0000
     1.0000   1.0000   1.0000   1.0000   1.0000   1.0000   1.0000   1.0000
     1.0000   1.0000   1.0000   1.0000   0.0000   0.0000   0.0000   0.0000
     0.0000   0.0000   0.0000   0.0000

          k =-0.0884-0.4419 0.6187 (  3435 PWs)   bands (ev):

   -14.0907 -14.0907 -14.0804 -14.0804 -13.9569 -13.9569 -13.8935 -13.8935
   -13.8857 -13.8857 -13.8587 -13.8587 -13.8368 -13.8368 -13.7997 -13.7997
   -13.6751 -13.6751 -13.6649 -13.6649  -0.2723  -0.2723   0.9075   0.9075
     4.6405   4.6405   5.3686   5.3686   9.4389   9.4389  10.7775  10.7775
    11.7194  11.7194  12.9827  12.9827

     occupation numbers 
     1.0000   1.0000   1.0000   1.0000   1.0000   1.0000   1.0000   1.0000
     1.0000   1.0000   1.0000   1.0000   1.0000   1.0000   1.0000   1.0000
     1.0000   1.0000   1.0000   1.0000   1.0000   1.0000   1.0000   1.0000
     1.0000   1.0000   1.0000   1.0000   0.0000   0.0000   0.0000   0.0000
     0.0000   0.0000   0.0000   0.0000

          k =-0.0442-0.3977 0.5745 (  3442 PWs)   bands (ev):

   -14.0926 -14.0926 -14.0804 -14.0804 -13.9537 -13.9537 -13.8896 -13.8896
   -13.8779 -13.8779 -13.8664 -13.8664 -13.8413 -13.8413 -13.8025 -13.8025
   -13.6749 -13.6749 -13.6631 -13.6631  -0.2744  -0.2744   0.9123   0.9123
     4.5277   4.5277   5.4577   5.4577   9.5159   9.5159  11.2467  11.2467
    11.9360  11.9360  12.2534  12.2534

     occupation numbers 
     1.0000   1.0000   1.0000   1.0000   1.0000   1.0000   1.0000   1.0000
     1.0000   1.0000   1.0000   1.0000   1.0000   1.0000   1.0000   1.0000
     1.0000   1.0000   1.0000   1.0000   1.0000   1.0000   1.0000   1.0000
     1.0000   1.0000   1.0000   1.0000   0.0000   0.0000   0.0000   0.0000
     0.0000   0.0000   0.0000   0.0000

          k = 0.0000-0.3536 0.5303 (  3451 PWs)   bands (ev):

   -14.0911 -14.0911 -14.0792 -14.0792 -13.9590 -13.9590 -13.9015 -13.9015
   -13.8744 -13.8744 -13.8665 -13.8665 -13.8309 -13.8309 -13.7991 -13.7991
   -13.6762 -13.6762 -13.6650 -13.6650  -0.5097  -0.5097   1.1813   1.1813
     4.5401   4.5401   5.6234   5.6234   9.5942   9.5942  11.1046  11.1046
    11.5590  11.5590  12.7387  12.7387

     occupation numbers 
     1.0000   1.0000   1.0000   1.0000   1.0000   1.0000   1.0000   1.0000
     1.0000   1.0000   1.0000   1.0000   1.0000   1.0000   1.0000   1.0000
     1.0000   1.0000   1.0000   1.0000   1.0000   1.0000   1.0000   1.0000
     1.0000   1.0000   1.0000   1.0000   0.0000   0.0000   0.0000   0.0000
     0.0000   0.0000   0.0000   0.0000

          k =-0.0884-0.5303 0.7071 (  3435 PWs)   bands (ev):

   -14.0824 -14.0824 -14.0812 -14.0812 -13.9676 -13.9676 -13.9179 -13.9179
   -13.8843 -13.8843 -13.8364 -13.8364 -13.8360 -13.8360 -13.7889 -13.7889
   -13.6743 -13.6743 -13.6732 -13.6732  -0.2877  -0.2877   0.9156   0.9156
     4.9951   4.9951   5.2095   5.2095   9.1860   9.1860   9.3943   9.3943
    12.6718  12.6718  13.8967  13.8967

     occupation numbers 
     1.0000   1.0000   1.0000   1.0000   1.0000   1.0000   1.0000   1.0000
     1.0000   1.0000   1.0000   1.0000   1.0000   1.0000   1.0000   1.0000
     1.0000   1.0000   1.0000   1.0000   1.0000   1.0000   1.0000   1.0000
     1.0000   1.0000   1.0000   1.0000   0.0000   0.0000   0.0000   0.0000
     0.0000   0.0000   0.0000   0.0000

          k =-0.0442-0.4861 0.6629 (  3430 PWs)   bands (ev):

   -14.0880 -14.0880 -14.0823 -14.0823 -13.9508 -13.9508 -13.9187 -13.9187
   -13.8739 -13.8739 -13.8487 -13.8487 -13.8345 -13.8345 -13.8048 -13.8048
   -13.6729 -13.6729 -13.6672 -13.6672  -0.0042  -0.0042   0.6156   0.6156
     4.7848   4.7848   5.1680   5.1680   9.3312   9.3312   9.9968   9.9968
    12.4891  12.4891  13.1999  13.1999

     occupation numbers 
     1.0000   1.0000   1.0000   1.0000   1.0000   1.0000   1.0000   1.0000
     1.0000   1.0000   1.0000   1.0000   1.0000   1.0000   1.0000   1.0000
     1.0000   1.0000   1.0000   1.0000   1.0000   1.0000   1.0000   1.0000
     1.0000   1.0000   1.0000   1.0000   0.0000   0.0000   0.0000   0.0000
     0.0000   0.0000   0.0000   0.0000

          k = 0.0000-0.4419 0.6187 (  3433 PWs)   bands (ev):

   -14.0918 -14.0918 -14.0819 -14.0819 -13.9479 -13.9479 -13.9028 -13.9028
   -13.8731 -13.8731 -13.8529 -13.8529 -13.8477 -13.8477 -13.8071 -13.8071
   -13.6732 -13.6732 -13.6634 -13.6634  -0.0064  -0.0064   0.6271   0.6271
     4.5916   4.5916   5.2728   5.2728   9.4186   9.4186  10.8162  10.8162
    12.3308  12.3308  12.3418  12.3418

     occupation numbers 
     1.0000   1.0000   1.0000   1.0000   1.0000   1.0000   1.0000   1.0000
     1.0000   1.0000   1.0000   1.0000   1.0000   1.0000   1.0000   1.0000
     1.0000   1.0000   1.0000   1.0000   1.0000   1.0000   1.0000   1.0000
     1.0000   1.0000   1.0000   1.0000   0.0000   0.0000   0.0000   0.0000
     0.0000   0.0000   0.0000   0.0000

          k =-0.7071 0.1768 0.0000 (  3422 PWs)   bands (ev):

   -14.0831 -14.0831 -14.0831 -14.0831 -13.9446 -13.9446 -13.9440 -13.9440
   -13.8615 -13.8615 -13.8588 -13.8588 -13.8116 -13.8116 -13.8110 -13.8110
   -13.6720 -13.6720 -13.6720 -13.6720   0.2924   0.2924   0.2935   0.2935
     5.0409   5.0409   5.0410   5.0410   9.2490   9.2490   9.2492   9.2492
    13.3943  13.3943  13.3944  13.3944

     occupation numbers 
     1.0000   1.0000   1.0000   1.0000   1.0000   1.0000   1.0000   1.0000
     1.0000   1.0000   1.0000   1.0000   1.0000   1.0000   1.0000   1.0000
     1.0000   1.0000   1.0000   1.0000   1.0000   1.0000   1.0000   1.0000
     1.0000   1.0000   1.0000   1.0000   0.0000   0.0000   0.0000   0.0000
     0.0000   0.0000   0.0000   0.0000

          k =-0.1768-0.4419 0.7071 (  3445 PWs)   bands (ev):

   -14.0858 -14.0858 -14.0795 -14.0795 -13.9690 -13.9690 -13.9076 -13.9076
   -13.8759 -13.8759 -13.8706 -13.8706 -13.8172 -13.8172 -13.7905 -13.7905
   -13.6763 -13.6763 -13.6709 -13.6709  -0.6802  -0.6802   1.3942   1.3942
     4.7596   4.7596   5.5360   5.5360   9.9728   9.9728  10.1041  10.1041
    11.2628  11.2628  13.3377  13.3377

     occupation numbers 
     1.0000   1.0000   1.0000   1.0000   1.0000   1.0000   1.0000   1.0000
     1.0000   1.0000   1.0000   1.0000   1.0000   1.0000   1.0000   1.0000
     1.0000   1.0000   1.0000   1.0000   1.0000   1.0000   1.0000   1.0000
     1.0000   1.0000   1.0000   1.0000   0.0000   0.0000   0.0000   0.0000
     0.0000   0.0000   0.0000   0.0000

          k =-0.1326-0.3977 0.6629 (  3436 PWs)   bands (ev):

   -14.0900 -14.0900 -14.0816 -14.0816 -13.9553 -13.9553 -13.8973 -13.8973
   -13.8806 -13.8806 -13.8646 -13.8646 -13.8316 -13.8316 -13.8018 -13.8018
   -13.6739 -13.6739 -13.6658 -13.6658  -0.3969  -0.3969   1.0553   1.0553
     4.6321   4.6321   5.3804   5.3804   9.9982   9.9982  10.5979  10.5979
    11.3743  11.3743  12.8689  12.8689

     occupation numbers 
     1.0000   1.0000   1.0000   1.0000   1.0000   1.0000   1.0000   1.0000
     1.0000   1.0000   1.0000   1.0000   1.0000   1.0000   1.0000   1.0000
     1.0000   1.0000   1.0000   1.0000   1.0000   1.0000   1.0000   1.0000
     1.0000   1.0000   1.0000   1.0000   0.0000   0.0000   0.0000   0.0000
     0.0000   0.0000   0.0000   0.0000

          k =-0.0884-0.3536 0.6187 (  3438 PWs)   bands (ev):

   -14.0916 -14.0916 -14.0822 -14.0822 -13.9500 -13.9500 -13.8935 -13.8935
   -13.8785 -13.8785 -13.8653 -13.8653 -13.8381 -13.8381 -13.8059 -13.8059
   -13.6732 -13.6732 -13.6639 -13.6639  -0.2590  -0.2590   0.8978   0.8978
     4.5916   4.5916   5.3235   5.3235   9.9978   9.9978  10.7225  10.7225
    11.8974  11.8974  12.1885  12.1885

     occupation numbers 
     1.0000   1.0000   1.0000   1.0000   1.0000   1.0000   1.0000   1.0000
     1.0000   1.0000   1.0000   1.0000   1.0000   1.0000   1.0000   1.0000
     1.0000   1.0000   1.0000   1.0000   1.0000   1.0000   1.0000   1.0000
     1.0000   1.0000   1.0000   1.0000   0.0000   0.0000   0.0000   0.0000
     0.0000   0.0000   0.0000   0.0000

          k =-0.0884-0.4419 0.7071 (  3428 PWs)   bands (ev):

   -14.0881 -14.0881 -14.0843 -14.0843 -13.9504 -13.9504 -13.9026 -13.9026
   -13.8859 -13.8859 -13.8474 -13.8474 -13.8396 -13.8396 -13.8054 -13.8054
   -13.6710 -13.6710 -13.6675 -13.6675  -0.2044  -0.2044   0.8454   0.8454
     4.7499   4.7499   5.1418   5.1418  10.0453  10.0453  10.0880  10.0880
    11.6431  11.6431  13.0375  13.0375

     occupation numbers 
     1.0000   1.0000   1.0000   1.0000   1.0000   1.0000   1.0000   1.0000
     1.0000   1.0000   1.0000   1.0000   1.0000   1.0000   1.0000   1.0000
     1.0000   1.0000   1.0000   1.0000   1.0000   1.0000   1.0000   1.0000
     1.0000   1.0000   1.0000   1.0000   0.0000   0.0000   0.0000   0.0000
     0.0000   0.0000   0.0000   0.0000

          k =-0.0442-0.3977 0.6629 (  3430 PWs)   bands (ev):

   -14.0908 -14.0908 -14.0856 -14.0856 -13.9380 -13.9380 -13.9043 -13.9043
   -13.8769 -13.8769 -13.8528 -13.8528 -13.8438 -13.8438 -13.8156 -13.8156
   -13.6696 -13.6696 -13.6645 -13.6645   0.0154   0.0154   0.6162   0.6162
     4.6682   4.6682   5.0614   5.0614  10.1252  10.1252  10.7978  10.7978
    11.5627  11.5627  12.1791  12.1791

     occupation numbers 
     1.0000   1.0000   1.0000   1.0000   1.0000   1.0000   1.0000   1.0000
     1.0000   1.0000   1.0000   1.0000   1.0000   1.0000   1.0000   1.0000
     1.0000   1.0000   1.0000   1.0000   1.0000   1.0000   1.0000   1.0000
     1.0000   1.0000   1.0000   1.0000   0.0000   0.0000   0.0000   0.0000
     0.0000   0.0000   0.0000   0.0000

          k =-0.0000-0.3536 0.6187 (  3436 PWs)   bands (ev):

   -14.0916 -14.0916 -14.0845 -14.0845 -13.9418 -13.9418 -13.8941 -13.8941
   -13.8832 -13.8832 -13.8524 -13.8524 -13.8476 -13.8476 -13.8122 -13.8122
   -13.6707 -13.6707 -13.6638 -13.6638  -0.1065  -0.1065   0.7461   0.7461
     4.6028   4.6028   5.1655   5.1655  10.1759  10.1759  10.9792  10.9792
    11.4520  11.4520  12.0834  12.0834

     occupation numbers 
     1.0000   1.0000   1.0000   1.0000   1.0000   1.0000   1.0000   1.0000
     1.0000   1.0000   1.0000   1.0000   1.0000   1.0000   1.0000   1.0000
     1.0000   1.0000   1.0000   1.0000   1.0000   1.0000   1.0000   1.0000
     1.0000   1.0000   1.0000   1.0000   0.0000   0.0000   0.0000   0.0000
     0.0000   0.0000   0.0000   0.0000

          k =-0.7071 0.2652 0.0000 (  3426 PWs)   bands (ev):

   -14.0875 -14.0875 -14.0874 -14.0874 -13.9283 -13.9283 -13.9276 -13.9276
   -13.8642 -13.8642 -13.8614 -13.8614 -13.8253 -13.8253 -13.8245 -13.8245
   -13.6677 -13.6677 -13.6676 -13.6676   0.3082   0.3082   0.3094   0.3094
     4.8766   4.8766   4.8767   4.8767  10.0561  10.0561  10.0563  10.0563
    12.3129  12.3129  12.3129  12.3129

     occupation numbers 
     1.0000   1.0000   1.0000   1.0000   1.0000   1.0000   1.0000   1.0000
     1.0000   1.0000   1.0000   1.0000   1.0000   1.0000   1.0000   1.0000
     1.0000   1.0000   1.0000   1.0000   1.0000   1.0000   1.0000   1.0000
     1.0000   1.0000   1.0000   1.0000   0.0000   0.0000   0.0000   0.0000
     0.0000   0.0000   0.0000   0.0000

          k =-0.7071 0.3536 0.0000 (  3448 PWs)   bands (ev):

   -14.0891 -14.0891 -14.0891 -14.0891 -13.9202 -13.9202 -13.9192 -13.9192
   -13.8666 -13.8666 -13.8638 -13.8638 -13.8313 -13.8313 -13.8303 -13.8303
   -13.6660 -13.6660 -13.6660 -13.6660   0.3149   0.3149   0.3160   0.3160
     4.8142   4.8142   4.8143   4.8143  10.7225  10.7225  10.7230  10.7230
    11.5496  11.5496  11.5500  11.5500

     occupation numbers 
     1.0000   1.0000   1.0000   1.0000   1.0000   1.0000   1.0000   1.0000
     1.0000   1.0000   1.0000   1.0000   1.0000   1.0000   1.0000   1.0000
     1.0000   1.0000   1.0000   1.0000   1.0000   1.0000   1.0000   1.0000
     1.0000   1.0000   1.0000   1.0000   0.0000   0.0000   0.0000   0.0000
     0.0000   0.0000   0.0000   0.0000

     the Fermi energy is     7.5433 ev

!    total energy              =    -884.12470081 Ry
     Harris-Foulkes estimate   =    -884.12470055 Ry
     estimated scf accuracy    <       0.00000070 Ry

     total all-electron energy =    -24709.380304 Ry

     The total energy is the sum of the following terms:

     one-electron contribution =    -155.39418119 Ry
     hartree contribution      =      78.93616423 Ry
     xc contribution           =     -54.76697527 Ry
     ewald contribution        =    -167.52979536 Ry
     one-center paw contrib.   =    -585.36991306 Ry
     smearing contrib. (-TS)   =      -0.00000016 Ry

     convergence has been achieved in   5 iterations

     Writing output data file Sn.save
 
     init_run     :     10.32s CPU     10.88s WALL (       1 calls)
     electrons    :    222.55s CPU    227.24s WALL (       1 calls)

     Called by init_run:
     wfcinit      :      9.95s CPU     10.18s WALL (       1 calls)
     potinit      :      0.14s CPU      0.17s WALL (       1 calls)

     Called by electrons:
     c_bands      :    192.67s CPU    196.74s WALL (       6 calls)
     sum_band     :     29.22s CPU     29.73s WALL (       6 calls)
     v_of_rho     :      0.05s CPU      0.06s WALL (       6 calls)
     v_h          :      0.00s CPU      0.00s WALL (       6 calls)
     v_xc         :      0.05s CPU      0.05s WALL (       6 calls)
     newd         :      0.06s CPU      0.08s WALL (       6 calls)
     PAW_pot      :      0.64s CPU      0.71s WALL (       6 calls)
     mix_rho      :      0.02s CPU      0.03s WALL (       6 calls)

     Called by c_bands:
     init_us_2    :      0.21s CPU      0.25s WALL (    1885 calls)
     cegterg      :    190.60s CPU    194.45s WALL (     870 calls)

     Called by sum_band:
     sum_band:bec :      0.12s CPU      0.12s WALL (     870 calls)
     addusdens    :      0.06s CPU      0.08s WALL (       6 calls)

     Called by *egterg:
     h_psi        :    165.74s CPU    168.12s WALL (    3573 calls)
     s_psi        :      1.68s CPU      1.71s WALL (    3573 calls)
     g_psi        :      0.35s CPU      0.35s WALL (    2558 calls)
     cdiaghg      :     15.11s CPU     15.37s WALL (    3283 calls)
     cegterg:over :      6.99s CPU      7.04s WALL (    2558 calls)
     cegterg:upda :      3.21s CPU      3.23s WALL (    2558 calls)
     cegterg:last :      2.09s CPU      2.10s WALL (     981 calls)

     Called by h_psi:
     h_psi:vloc   :    159.99s CPU    162.30s WALL (    3573 calls)
     h_psi:vnl    :      5.43s CPU      5.49s WALL (    3573 calls)
     add_vuspsi   :      1.82s CPU      1.84s WALL (    3573 calls)

     General routines
     calbec       :      4.61s CPU      4.68s WALL (    4443 calls)
     fft          :      0.08s CPU      0.16s WALL (     116 calls)
     fftw         :    181.12s CPU    183.78s WALL (  429060 calls)
     davcio       :      0.03s CPU      0.28s WALL (     145 calls)
 
     Parallel routines
     fft_scatter  :    141.82s CPU    144.10s WALL (  429176 calls)

     PAW routines
     PAW_pot      :      0.64s CPU      0.71s WALL (       6 calls)
     PAW_symme    :      0.01s CPU      0.01s WALL (      12 calls)
 
     PWSCF        :  3m53.84s CPU     3m59.97s WALL

 
   This run was terminated on:  20: 1:12  15Mar2020            

=------------------------------------------------------------------------------=
   JOB DONE.
=------------------------------------------------------------------------------=
