
     Program PWSCF v.5.4.0 starts on 15Mar2020 at 19:56:34 

     This program is part of the open-source Quantum ESPRESSO suite
     for quantum simulation of materials; please cite
         "P. Giannozzi et al., J. Phys.:Condens. Matter 21 395502 (2009);
          URL http://www.quantum-espresso.org", 
     in publications or presentations arising from this work. More details at
     http://www.quantum-espresso.org/quote

     Parallel version (MPI & OpenMP), running on      16 processor cores
     Number of MPI processes:                16
     Threads/MPI process:                     1
     R & G space division:  proc/nbgrp/npool/nimage =      16
     Waiting for input...
     Reading input from standard input
Warning: card &IONS ignored
Warning: card / ignored
Warning: card &CELL ignored
Warning: card / ignored

     Current dimensions of program PWSCF are:
     Max number of different atomic species (ntypx) = 10
     Max number of k-points (npk) =  40000
     Max angular momentum in pseudopotentials (lmaxx) =  3
               file Sn.pbe-dn-kjpaw_psl.1.0.0.UPF: wavefunction(s)  5S 5P 4D renormalized
     Message from routine setup:
     At least one non s.o. pseudo

     Subspace diagonalization in iterative solution of the eigenvalue problem:
     a serial algorithm will be used

 
     Parallelization info
     --------------------
     sticks:   dense  smooth     PW     G-vecs:    dense   smooth      PW
     Min          54      54     16                 1060     1060     180
     Max          56      56     18                 1061     1061     182
     Sum         871     871    265                16961    16961    2891
 

     Title: 
     Sn                                                                         


     bravais-lattice index     =            0
     lattice parameter (alat)  =       8.9127  a.u.
     unit-cell volume          =     500.6268 (a.u.)^3
     number of atoms/cell      =            2
     number of atomic types    =            1
     number of electrons       =        28.00
     number of Kohn-Sham states=           36
     kinetic-energy cutoff     =      40.0000  Ry
     charge density cutoff     =     160.0000  Ry
     convergence threshold     =      1.0E-06
     mixing beta               =       0.7000
     number of iterations used =            8  plain     mixing
     Exchange-correlation      =  SLA  PW   PBX  PBC ( 1  4  3  4 0 0)
     Non magnetic calculation with spin-orbit


     celldm(1)=   8.912709  celldm(2)=   0.000000  celldm(3)=   0.000000
     celldm(4)=   0.000000  celldm(5)=   0.000000  celldm(6)=   0.000000

     crystal axes: (cart. coord. in units of alat)
               a(1) = (   0.000000   0.707107   0.707107 )  
               a(2) = (   0.707107   0.000000   0.707107 )  
               a(3) = (   0.707107   0.707107   0.000000 )  

     reciprocal axes: (cart. coord. in units 2 pi/alat)
               b(1) = ( -0.707107  0.707107  0.707107 )  
               b(2) = (  0.707107 -0.707107  0.707107 )  
               b(3) = (  0.707107  0.707107 -0.707107 )  


     PseudoPot. # 1 for Sn read from file:
     ../PseudopotentialDatabase/Sn.pbe-dn-kjpaw_psl.1.0.0.UPF
     MD5 check sum: 67f11dec737d427557dc41ea34975807
     Pseudo is Projector augmented-wave + core cor, Zval = 14.0
     Generated using "atomic" code by A. Dal Corso  v.6.3
     Shape of augmentation charge: PSQ
     Using radial grid of 1243 points,  6 beta functions with: 
                l(1) =   0
                l(2) =   0
                l(3) =   1
                l(4) =   1
                l(5) =   2
                l(6) =   2
     Q(r) pseudized with 0 coefficients 


     atomic species   valence    mass     pseudopotential
        Sn            14.00   118.71000     Sn( 1.00)

     48 Sym. Ops., with inversion, found (24 have fractional translation)


                                    s                        frac. trans.

      isym =  1     identity                                     

 cryst.   s( 1) = (     1          0          0      )
                  (     0          1          0      )
                  (     0          0          1      )

 cart.    s( 1) = (  1.0000000  0.0000000  0.0000000 )
                  (  0.0000000  1.0000000  0.0000000 )
                  (  0.0000000  0.0000000  1.0000000 )


      isym =  2     180 deg rotation - cart. axis [0,0,1]        

 cryst.   s( 2) = (     0          1         -1      )
                  (     1          0         -1      )
                  (     0          0         -1      )

 cart.    s( 2) = ( -1.0000000  0.0000000  0.0000000 )
                  (  0.0000000 -1.0000000  0.0000000 )
                  (  0.0000000  0.0000000  1.0000000 )


      isym =  3     180 deg rotation - cart. axis [0,1,0]        

 cryst.   s( 3) = (     0         -1          1      )
                  (     0         -1          0      )
                  (     1         -1          0      )

 cart.    s( 3) = ( -1.0000000  0.0000000  0.0000000 )
                  (  0.0000000  1.0000000  0.0000000 )
                  (  0.0000000  0.0000000 -1.0000000 )


      isym =  4     180 deg rotation - cart. axis [1,0,0]        

 cryst.   s( 4) = (    -1          0          0      )
                  (    -1          0          1      )
                  (    -1          1          0      )

 cart.    s( 4) = (  1.0000000  0.0000000  0.0000000 )
                  (  0.0000000 -1.0000000  0.0000000 )
                  (  0.0000000  0.0000000 -1.0000000 )


      isym =  5     180 deg rotation - cart. axis [1,1,0]        

 cryst.   s( 5) = (    -1          0          1      )    f =( -0.2500000 )
                  (     0         -1          1      )       ( -0.2500000 )
                  (     0          0          1      )       ( -0.2500000 )

 cart.    s( 5) = (  0.0000000  1.0000000  0.0000000 )    f =( -0.3535534 )
                  (  1.0000000  0.0000000  0.0000000 )       ( -0.3535534 )
                  (  0.0000000  0.0000000 -1.0000000 )       ( -0.3535534 )


      isym =  6     180 deg rotation - cart. axis [1,-1,0]       

 cryst.   s( 6) = (     0         -1          0      )    f =( -0.2500000 )
                  (    -1          0          0      )       ( -0.2500000 )
                  (     0          0         -1      )       ( -0.2500000 )

 cart.    s( 6) = (  0.0000000 -1.0000000  0.0000000 )    f =( -0.3535534 )
                  ( -1.0000000  0.0000000  0.0000000 )       ( -0.3535534 )
                  (  0.0000000  0.0000000 -1.0000000 )       ( -0.3535534 )


      isym =  7      90 deg rotation - cart. axis [0,0,-1]       

 cryst.   s( 7) = (     0          1          0      )    f =( -0.2500000 )
                  (     0          1         -1      )       ( -0.2500000 )
                  (    -1          1          0      )       ( -0.2500000 )

 cart.    s( 7) = (  0.0000000  1.0000000  0.0000000 )    f =( -0.3535534 )
                  ( -1.0000000  0.0000000  0.0000000 )       ( -0.3535534 )
                  (  0.0000000  0.0000000  1.0000000 )       ( -0.3535534 )


      isym =  8      90 deg rotation - cart. axis [0,0,1]        

 cryst.   s( 8) = (     1          0         -1      )    f =( -0.2500000 )
                  (     1          0          0      )       ( -0.2500000 )
                  (     1         -1          0      )       ( -0.2500000 )

 cart.    s( 8) = (  0.0000000 -1.0000000  0.0000000 )    f =( -0.3535534 )
                  (  1.0000000  0.0000000  0.0000000 )       ( -0.3535534 )
                  (  0.0000000  0.0000000  1.0000000 )       ( -0.3535534 )


      isym =  9     180 deg rotation - cart. axis [1,0,1]        

 cryst.   s( 9) = (    -1          1          0      )    f =( -0.2500000 )
                  (     0          1          0      )       ( -0.2500000 )
                  (     0          1         -1      )       ( -0.2500000 )

 cart.    s( 9) = (  0.0000000  0.0000000  1.0000000 )    f =( -0.3535534 )
                  (  0.0000000 -1.0000000  0.0000000 )       ( -0.3535534 )
                  (  1.0000000  0.0000000  0.0000000 )       ( -0.3535534 )


      isym = 10     180 deg rotation - cart. axis [-1,0,1]       

 cryst.   s(10) = (     0          0         -1      )    f =( -0.2500000 )
                  (     0         -1          0      )       ( -0.2500000 )
                  (    -1          0          0      )       ( -0.2500000 )

 cart.    s(10) = (  0.0000000  0.0000000 -1.0000000 )    f =( -0.3535534 )
                  (  0.0000000 -1.0000000  0.0000000 )       ( -0.3535534 )
                  ( -1.0000000  0.0000000  0.0000000 )       ( -0.3535534 )


      isym = 11      90 deg rotation - cart. axis [0,1,0]        

 cryst.   s(11) = (     0          0          1      )    f =( -0.2500000 )
                  (    -1          0          1      )       ( -0.2500000 )
                  (     0         -1          1      )       ( -0.2500000 )

 cart.    s(11) = (  0.0000000  0.0000000  1.0000000 )    f =( -0.3535534 )
                  (  0.0000000  1.0000000  0.0000000 )       ( -0.3535534 )
                  ( -1.0000000  0.0000000  0.0000000 )       ( -0.3535534 )


      isym = 12      90 deg rotation - cart. axis [0,-1,0]       

 cryst.   s(12) = (     1         -1          0      )    f =( -0.2500000 )
                  (     1          0         -1      )       ( -0.2500000 )
                  (     1          0          0      )       ( -0.2500000 )

 cart.    s(12) = (  0.0000000  0.0000000 -1.0000000 )    f =( -0.3535534 )
                  (  0.0000000  1.0000000  0.0000000 )       ( -0.3535534 )
                  (  1.0000000  0.0000000  0.0000000 )       ( -0.3535534 )


      isym = 13     180 deg rotation - cart. axis [0,1,1]        

 cryst.   s(13) = (     1          0          0      )    f =( -0.2500000 )
                  (     1         -1          0      )       ( -0.2500000 )
                  (     1          0         -1      )       ( -0.2500000 )

 cart.    s(13) = ( -1.0000000  0.0000000  0.0000000 )    f =( -0.3535534 )
                  (  0.0000000  0.0000000  1.0000000 )       ( -0.3535534 )
                  (  0.0000000  1.0000000  0.0000000 )       ( -0.3535534 )


      isym = 14     180 deg rotation - cart. axis [0,1,-1]       

 cryst.   s(14) = (    -1          0          0      )    f =( -0.2500000 )
                  (     0          0         -1      )       ( -0.2500000 )
                  (     0         -1          0      )       ( -0.2500000 )

 cart.    s(14) = ( -1.0000000  0.0000000  0.0000000 )    f =( -0.3535534 )
                  (  0.0000000  0.0000000 -1.0000000 )       ( -0.3535534 )
                  (  0.0000000 -1.0000000  0.0000000 )       ( -0.3535534 )


      isym = 15      90 deg rotation - cart. axis [-1,0,0]       

 cryst.   s(15) = (     0         -1          1      )    f =( -0.2500000 )
                  (     0          0          1      )       ( -0.2500000 )
                  (    -1          0          1      )       ( -0.2500000 )

 cart.    s(15) = (  1.0000000  0.0000000  0.0000000 )    f =( -0.3535534 )
                  (  0.0000000  0.0000000  1.0000000 )       ( -0.3535534 )
                  (  0.0000000 -1.0000000  0.0000000 )       ( -0.3535534 )


      isym = 16      90 deg rotation - cart. axis [1,0,0]        

 cryst.   s(16) = (     0          1         -1      )    f =( -0.2500000 )
                  (    -1          1          0      )       ( -0.2500000 )
                  (     0          1          0      )       ( -0.2500000 )

 cart.    s(16) = (  1.0000000  0.0000000  0.0000000 )    f =( -0.3535534 )
                  (  0.0000000  0.0000000 -1.0000000 )       ( -0.3535534 )
                  (  0.0000000  1.0000000  0.0000000 )       ( -0.3535534 )


      isym = 17     120 deg rotation - cart. axis [-1,-1,-1]     

 cryst.   s(17) = (     0          0          1      )
                  (     1          0          0      )
                  (     0          1          0      )

 cart.    s(17) = (  0.0000000  1.0000000  0.0000000 )
                  (  0.0000000  0.0000000  1.0000000 )
                  (  1.0000000  0.0000000  0.0000000 )


      isym = 18     120 deg rotation - cart. axis [-1,1,1]       

 cryst.   s(18) = (     1         -1          0      )
                  (     0         -1          1      )
                  (     0         -1          0      )

 cart.    s(18) = (  0.0000000 -1.0000000  0.0000000 )
                  (  0.0000000  0.0000000  1.0000000 )
                  ( -1.0000000  0.0000000  0.0000000 )


      isym = 19     120 deg rotation - cart. axis [1,1,-1]       

 cryst.   s(19) = (    -1          1          0      )
                  (    -1          0          0      )
                  (    -1          0          1      )

 cart.    s(19) = (  0.0000000  1.0000000  0.0000000 )
                  (  0.0000000  0.0000000 -1.0000000 )
                  ( -1.0000000  0.0000000  0.0000000 )


      isym = 20     120 deg rotation - cart. axis [1,-1,1]       

 cryst.   s(20) = (     0          0         -1      )
                  (     0          1         -1      )
                  (     1          0         -1      )

 cart.    s(20) = (  0.0000000 -1.0000000  0.0000000 )
                  (  0.0000000  0.0000000 -1.0000000 )
                  (  1.0000000  0.0000000  0.0000000 )


      isym = 21     120 deg rotation - cart. axis [1,1,1]        

 cryst.   s(21) = (     0          1          0      )
                  (     0          0          1      )
                  (     1          0          0      )

 cart.    s(21) = (  0.0000000  0.0000000  1.0000000 )
                  (  1.0000000  0.0000000  0.0000000 )
                  (  0.0000000  1.0000000  0.0000000 )


      isym = 22     120 deg rotation - cart. axis [-1,1,-1]      

 cryst.   s(22) = (    -1          0          1      )
                  (    -1          1          0      )
                  (    -1          0          0      )

 cart.    s(22) = (  0.0000000  0.0000000  1.0000000 )
                  ( -1.0000000  0.0000000  0.0000000 )
                  (  0.0000000 -1.0000000  0.0000000 )


      isym = 23     120 deg rotation - cart. axis [1,-1,-1]      

 cryst.   s(23) = (     1          0         -1      )
                  (     0          0         -1      )
                  (     0          1         -1      )

 cart.    s(23) = (  0.0000000  0.0000000 -1.0000000 )
                  ( -1.0000000  0.0000000  0.0000000 )
                  (  0.0000000  1.0000000  0.0000000 )


      isym = 24     120 deg rotation - cart. axis [-1,-1,1]      

 cryst.   s(24) = (     0         -1          0      )
                  (     1         -1          0      )
                  (     0         -1          1      )

 cart.    s(24) = (  0.0000000  0.0000000 -1.0000000 )
                  (  1.0000000  0.0000000  0.0000000 )
                  (  0.0000000 -1.0000000  0.0000000 )


      isym = 25     inversion                                    

 cryst.   s(25) = (    -1          0          0      )    f =( -0.2500000 )
                  (     0         -1          0      )       ( -0.2500000 )
                  (     0          0         -1      )       ( -0.2500000 )

 cart.    s(25) = ( -1.0000000  0.0000000  0.0000000 )    f =( -0.3535534 )
                  (  0.0000000 -1.0000000  0.0000000 )       ( -0.3535534 )
                  (  0.0000000  0.0000000 -1.0000000 )       ( -0.3535534 )


      isym = 26     inv. 180 deg rotation - cart. axis [0,0,1]   

 cryst.   s(26) = (     0         -1          1      )    f =( -0.2500000 )
                  (    -1          0          1      )       ( -0.2500000 )
                  (     0          0          1      )       ( -0.2500000 )

 cart.    s(26) = (  1.0000000  0.0000000  0.0000000 )    f =( -0.3535534 )
                  (  0.0000000  1.0000000  0.0000000 )       ( -0.3535534 )
                  (  0.0000000  0.0000000 -1.0000000 )       ( -0.3535534 )


      isym = 27     inv. 180 deg rotation - cart. axis [0,1,0]   

 cryst.   s(27) = (     0          1         -1      )    f =( -0.2500000 )
                  (     0          1          0      )       ( -0.2500000 )
                  (    -1          1          0      )       ( -0.2500000 )

 cart.    s(27) = (  1.0000000  0.0000000  0.0000000 )    f =( -0.3535534 )
                  (  0.0000000 -1.0000000  0.0000000 )       ( -0.3535534 )
                  (  0.0000000  0.0000000  1.0000000 )       ( -0.3535534 )


      isym = 28     inv. 180 deg rotation - cart. axis [1,0,0]   

 cryst.   s(28) = (     1          0          0      )    f =( -0.2500000 )
                  (     1          0         -1      )       ( -0.2500000 )
                  (     1         -1          0      )       ( -0.2500000 )

 cart.    s(28) = ( -1.0000000  0.0000000  0.0000000 )    f =( -0.3535534 )
                  (  0.0000000  1.0000000  0.0000000 )       ( -0.3535534 )
                  (  0.0000000  0.0000000  1.0000000 )       ( -0.3535534 )


      isym = 29     inv. 180 deg rotation - cart. axis [1,1,0]   

 cryst.   s(29) = (     1          0         -1      )
                  (     0          1         -1      )
                  (     0          0         -1      )

 cart.    s(29) = (  0.0000000 -1.0000000  0.0000000 )
                  ( -1.0000000  0.0000000  0.0000000 )
                  (  0.0000000  0.0000000  1.0000000 )


      isym = 30     inv. 180 deg rotation - cart. axis [1,-1,0]  

 cryst.   s(30) = (     0          1          0      )
                  (     1          0          0      )
                  (     0          0          1      )

 cart.    s(30) = (  0.0000000  1.0000000  0.0000000 )
                  (  1.0000000  0.0000000  0.0000000 )
                  (  0.0000000  0.0000000  1.0000000 )


      isym = 31     inv.  90 deg rotation - cart. axis [0,0,-1]  

 cryst.   s(31) = (     0         -1          0      )
                  (     0         -1          1      )
                  (     1         -1          0      )

 cart.    s(31) = (  0.0000000 -1.0000000  0.0000000 )
                  (  1.0000000  0.0000000  0.0000000 )
                  (  0.0000000  0.0000000 -1.0000000 )


      isym = 32     inv.  90 deg rotation - cart. axis [0,0,1]   

 cryst.   s(32) = (    -1          0          1      )
                  (    -1          0          0      )
                  (    -1          1          0      )

 cart.    s(32) = (  0.0000000  1.0000000  0.0000000 )
                  ( -1.0000000  0.0000000  0.0000000 )
                  (  0.0000000  0.0000000 -1.0000000 )


      isym = 33     inv. 180 deg rotation - cart. axis [1,0,1]   

 cryst.   s(33) = (     1         -1          0      )
                  (     0         -1          0      )
                  (     0         -1          1      )

 cart.    s(33) = (  0.0000000  0.0000000 -1.0000000 )
                  (  0.0000000  1.0000000  0.0000000 )
                  ( -1.0000000  0.0000000  0.0000000 )


      isym = 34     inv. 180 deg rotation - cart. axis [-1,0,1]  

 cryst.   s(34) = (     0          0          1      )
                  (     0          1          0      )
                  (     1          0          0      )

 cart.    s(34) = (  0.0000000  0.0000000  1.0000000 )
                  (  0.0000000  1.0000000  0.0000000 )
                  (  1.0000000  0.0000000  0.0000000 )


      isym = 35     inv.  90 deg rotation - cart. axis [0,1,0]   

 cryst.   s(35) = (     0          0         -1      )
                  (     1          0         -1      )
                  (     0          1         -1      )

 cart.    s(35) = (  0.0000000  0.0000000 -1.0000000 )
                  (  0.0000000 -1.0000000  0.0000000 )
                  (  1.0000000  0.0000000  0.0000000 )


      isym = 36     inv.  90 deg rotation - cart. axis [0,-1,0]  

 cryst.   s(36) = (    -1          1          0      )
                  (    -1          0          1      )
                  (    -1          0          0      )

 cart.    s(36) = (  0.0000000  0.0000000  1.0000000 )
                  (  0.0000000 -1.0000000  0.0000000 )
                  ( -1.0000000  0.0000000  0.0000000 )


      isym = 37     inv. 180 deg rotation - cart. axis [0,1,1]   

 cryst.   s(37) = (    -1          0          0      )
                  (    -1          1          0      )
                  (    -1          0          1      )

 cart.    s(37) = (  1.0000000  0.0000000  0.0000000 )
                  (  0.0000000  0.0000000 -1.0000000 )
                  (  0.0000000 -1.0000000  0.0000000 )


      isym = 38     inv. 180 deg rotation - cart. axis [0,1,-1]  

 cryst.   s(38) = (     1          0          0      )
                  (     0          0          1      )
                  (     0          1          0      )

 cart.    s(38) = (  1.0000000  0.0000000  0.0000000 )
                  (  0.0000000  0.0000000  1.0000000 )
                  (  0.0000000  1.0000000  0.0000000 )


      isym = 39     inv.  90 deg rotation - cart. axis [-1,0,0]  

 cryst.   s(39) = (     0          1         -1      )
                  (     0          0         -1      )
                  (     1          0         -1      )

 cart.    s(39) = ( -1.0000000  0.0000000  0.0000000 )
                  (  0.0000000  0.0000000 -1.0000000 )
                  (  0.0000000  1.0000000  0.0000000 )


      isym = 40     inv.  90 deg rotation - cart. axis [1,0,0]   

 cryst.   s(40) = (     0         -1          1      )
                  (     1         -1          0      )
                  (     0         -1          0      )

 cart.    s(40) = ( -1.0000000  0.0000000  0.0000000 )
                  (  0.0000000  0.0000000  1.0000000 )
                  (  0.0000000 -1.0000000  0.0000000 )


      isym = 41     inv. 120 deg rotation - cart. axis [-1,-1,-1]

 cryst.   s(41) = (     0          0         -1      )    f =( -0.2500000 )
                  (    -1          0          0      )       ( -0.2500000 )
                  (     0         -1          0      )       ( -0.2500000 )

 cart.    s(41) = (  0.0000000 -1.0000000  0.0000000 )    f =( -0.3535534 )
                  (  0.0000000  0.0000000 -1.0000000 )       ( -0.3535534 )
                  ( -1.0000000  0.0000000  0.0000000 )       ( -0.3535534 )


      isym = 42     inv. 120 deg rotation - cart. axis [-1,1,1]  

 cryst.   s(42) = (    -1          1          0      )    f =( -0.2500000 )
                  (     0          1         -1      )       ( -0.2500000 )
                  (     0          1          0      )       ( -0.2500000 )

 cart.    s(42) = (  0.0000000  1.0000000  0.0000000 )    f =( -0.3535534 )
                  (  0.0000000  0.0000000 -1.0000000 )       ( -0.3535534 )
                  (  1.0000000  0.0000000  0.0000000 )       ( -0.3535534 )


      isym = 43     inv. 120 deg rotation - cart. axis [1,1,-1]  

 cryst.   s(43) = (     1         -1          0      )    f =( -0.2500000 )
                  (     1          0          0      )       ( -0.2500000 )
                  (     1          0         -1      )       ( -0.2500000 )

 cart.    s(43) = (  0.0000000 -1.0000000  0.0000000 )    f =( -0.3535534 )
                  (  0.0000000  0.0000000  1.0000000 )       ( -0.3535534 )
                  (  1.0000000  0.0000000  0.0000000 )       ( -0.3535534 )


      isym = 44     inv. 120 deg rotation - cart. axis [1,-1,1]  

 cryst.   s(44) = (     0          0          1      )    f =( -0.2500000 )
                  (     0         -1          1      )       ( -0.2500000 )
                  (    -1          0          1      )       ( -0.2500000 )

 cart.    s(44) = (  0.0000000  1.0000000  0.0000000 )    f =( -0.3535534 )
                  (  0.0000000  0.0000000  1.0000000 )       ( -0.3535534 )
                  ( -1.0000000  0.0000000  0.0000000 )       ( -0.3535534 )


      isym = 45     inv. 120 deg rotation - cart. axis [1,1,1]   

 cryst.   s(45) = (     0         -1          0      )    f =( -0.2500000 )
                  (     0          0         -1      )       ( -0.2500000 )
                  (    -1          0          0      )       ( -0.2500000 )

 cart.    s(45) = (  0.0000000  0.0000000 -1.0000000 )    f =( -0.3535534 )
                  ( -1.0000000  0.0000000  0.0000000 )       ( -0.3535534 )
                  (  0.0000000 -1.0000000  0.0000000 )       ( -0.3535534 )


      isym = 46     inv. 120 deg rotation - cart. axis [-1,1,-1] 

 cryst.   s(46) = (     1          0         -1      )    f =( -0.2500000 )
                  (     1         -1          0      )       ( -0.2500000 )
                  (     1          0          0      )       ( -0.2500000 )

 cart.    s(46) = (  0.0000000  0.0000000 -1.0000000 )    f =( -0.3535534 )
                  (  1.0000000  0.0000000  0.0000000 )       ( -0.3535534 )
                  (  0.0000000  1.0000000  0.0000000 )       ( -0.3535534 )


      isym = 47     inv. 120 deg rotation - cart. axis [1,-1,-1] 

 cryst.   s(47) = (    -1          0          1      )    f =( -0.2500000 )
                  (     0          0          1      )       ( -0.2500000 )
                  (     0         -1          1      )       ( -0.2500000 )

 cart.    s(47) = (  0.0000000  0.0000000  1.0000000 )    f =( -0.3535534 )
                  (  1.0000000  0.0000000  0.0000000 )       ( -0.3535534 )
                  (  0.0000000 -1.0000000  0.0000000 )       ( -0.3535534 )


      isym = 48     inv. 120 deg rotation - cart. axis [-1,-1,1] 

 cryst.   s(48) = (     0          1          0      )    f =( -0.2500000 )
                  (    -1          1          0      )       ( -0.2500000 )
                  (     0          1         -1      )       ( -0.2500000 )

 cart.    s(48) = (  0.0000000  0.0000000  1.0000000 )    f =( -0.3535534 )
                  ( -1.0000000  0.0000000  0.0000000 )       ( -0.3535534 )
                  (  0.0000000  1.0000000  0.0000000 )       ( -0.3535534 )


   Cartesian axes

     site n.     atom                  positions (alat units)
         1           Sn  tau(   1) = (   0.0000000   0.0000000   0.0000000  )
         2           Sn  tau(   2) = (   0.3535534   0.3535534   0.3535534  )

   Crystallographic axes

     site n.     atom                  positions (cryst. coord.)
         1           Sn  tau(   1) = (  0.0000000  0.0000000  0.0000000  )
         2           Sn  tau(   2) = (  0.2500000  0.2500000  0.2500000  )

     number of k points=   145  gaussian smearing, width (Ry)=  0.0001
                       cart. coord. in units 2pi/alat
        k(    1) = (   0.0000000   0.0000000   0.0000000), wk =   0.0002441
        k(    2) = (   0.0441942   0.0441942  -0.0441942), wk =   0.0019531
        k(    3) = (   0.0883883   0.0883883  -0.0883883), wk =   0.0019531
        k(    4) = (   0.1325825   0.1325825  -0.1325825), wk =   0.0019531
        k(    5) = (   0.1767767   0.1767767  -0.1767767), wk =   0.0019531
        k(    6) = (   0.2209709   0.2209709  -0.2209709), wk =   0.0019531
        k(    7) = (   0.2651650   0.2651650  -0.2651650), wk =   0.0019531
        k(    8) = (   0.3093592   0.3093592  -0.3093592), wk =   0.0019531
        k(    9) = (  -0.3535534  -0.3535534   0.3535534), wk =   0.0009766
        k(   10) = (   0.0883883   0.0000000   0.0000000), wk =   0.0014648
        k(   11) = (   0.1325825   0.0441942  -0.0441942), wk =   0.0058594
        k(   12) = (   0.1767767   0.0883883  -0.0883883), wk =   0.0058594
        k(   13) = (   0.2209709   0.1325825  -0.1325825), wk =   0.0058594
        k(   14) = (   0.2651650   0.1767767  -0.1767767), wk =   0.0058594
        k(   15) = (   0.3093592   0.2209709  -0.2209709), wk =   0.0058594
        k(   16) = (   0.3535534   0.2651650  -0.2651650), wk =   0.0058594
        k(   17) = (  -0.3093592  -0.3977476   0.3977476), wk =   0.0058594
        k(   18) = (  -0.2651650  -0.3535534   0.3535534), wk =   0.0058594
        k(   19) = (  -0.2209709  -0.3093592   0.3093592), wk =   0.0058594
        k(   20) = (  -0.1767767  -0.2651650   0.2651650), wk =   0.0058594
        k(   21) = (  -0.1325825  -0.2209709   0.2209709), wk =   0.0058594
        k(   22) = (  -0.0883883  -0.1767767   0.1767767), wk =   0.0058594
        k(   23) = (  -0.0441942  -0.1325825   0.1325825), wk =   0.0058594
        k(   24) = (   0.0000000  -0.0883883   0.0883883), wk =   0.0029297
        k(   25) = (   0.1767767   0.0000000   0.0000000), wk =   0.0014648
        k(   26) = (   0.2209709   0.0441942  -0.0441942), wk =   0.0058594
        k(   27) = (   0.2651650   0.0883883  -0.0883883), wk =   0.0058594
        k(   28) = (   0.3093592   0.1325825  -0.1325825), wk =   0.0058594
        k(   29) = (   0.3535534   0.1767767  -0.1767767), wk =   0.0058594
        k(   30) = (   0.3977476   0.2209709  -0.2209709), wk =   0.0058594
        k(   31) = (  -0.2651650  -0.4419417   0.4419417), wk =   0.0058594
        k(   32) = (  -0.2209709  -0.3977476   0.3977476), wk =   0.0058594
        k(   33) = (  -0.1767767  -0.3535534   0.3535534), wk =   0.0058594
        k(   34) = (  -0.1325825  -0.3093592   0.3093592), wk =   0.0058594
        k(   35) = (  -0.0883883  -0.2651650   0.2651650), wk =   0.0058594
        k(   36) = (  -0.0441942  -0.2209709   0.2209709), wk =   0.0058594
        k(   37) = (   0.0000000  -0.1767767   0.1767767), wk =   0.0029297
        k(   38) = (   0.2651650   0.0000000   0.0000000), wk =   0.0014648
        k(   39) = (   0.3093592   0.0441942  -0.0441942), wk =   0.0058594
        k(   40) = (   0.3535534   0.0883883  -0.0883883), wk =   0.0058594
        k(   41) = (   0.3977476   0.1325825  -0.1325825), wk =   0.0058594
        k(   42) = (   0.4419417   0.1767767  -0.1767767), wk =   0.0058594
        k(   43) = (  -0.2209709  -0.4861359   0.4861359), wk =   0.0058594
        k(   44) = (  -0.1767767  -0.4419417   0.4419417), wk =   0.0058594
        k(   45) = (  -0.1325825  -0.3977476   0.3977476), wk =   0.0058594
        k(   46) = (  -0.0883883  -0.3535534   0.3535534), wk =   0.0058594
        k(   47) = (  -0.0441942  -0.3093592   0.3093592), wk =   0.0058594
        k(   48) = (   0.0000000  -0.2651650   0.2651650), wk =   0.0029297
        k(   49) = (   0.3535534   0.0000000   0.0000000), wk =   0.0014648
        k(   50) = (   0.3977476   0.0441942  -0.0441942), wk =   0.0058594
        k(   51) = (   0.4419417   0.0883883  -0.0883883), wk =   0.0058594
        k(   52) = (   0.4861359   0.1325825  -0.1325825), wk =   0.0058594
        k(   53) = (  -0.1767767  -0.5303301   0.5303301), wk =   0.0058594
        k(   54) = (  -0.1325825  -0.4861359   0.4861359), wk =   0.0058594
        k(   55) = (  -0.0883883  -0.4419417   0.4419417), wk =   0.0058594
        k(   56) = (  -0.0441942  -0.3977476   0.3977476), wk =   0.0058594
        k(   57) = (   0.0000000  -0.3535534   0.3535534), wk =   0.0029297
        k(   58) = (   0.4419417   0.0000000   0.0000000), wk =   0.0014648
        k(   59) = (   0.4861359   0.0441942  -0.0441942), wk =   0.0058594
        k(   60) = (   0.5303301   0.0883883  -0.0883883), wk =   0.0058594
        k(   61) = (  -0.1325825  -0.5745243   0.5745243), wk =   0.0058594
        k(   62) = (  -0.0883883  -0.5303301   0.5303301), wk =   0.0058594
        k(   63) = (  -0.0441942  -0.4861359   0.4861359), wk =   0.0058594
        k(   64) = (   0.0000000  -0.4419417   0.4419417), wk =   0.0029297
        k(   65) = (   0.5303301   0.0000000   0.0000000), wk =   0.0014648
        k(   66) = (   0.5745243   0.0441942  -0.0441942), wk =   0.0058594
        k(   67) = (  -0.0883883  -0.6187184   0.6187184), wk =   0.0058594
        k(   68) = (  -0.0441942  -0.5745243   0.5745243), wk =   0.0058594
        k(   69) = (   0.0000000  -0.5303301   0.5303301), wk =   0.0029297
        k(   70) = (   0.6187184   0.0000000   0.0000000), wk =   0.0014648
        k(   71) = (  -0.0441942  -0.6629126   0.6629126), wk =   0.0058594
        k(   72) = (   0.0000000  -0.6187184   0.6187184), wk =   0.0029297
        k(   73) = (  -0.7071068   0.0000000   0.0000000), wk =   0.0007324
        k(   74) = (   0.1767767   0.0883883   0.0000000), wk =   0.0058594
        k(   75) = (   0.2209709   0.1325825  -0.0441942), wk =   0.0117188
        k(   76) = (   0.2651650   0.1767767  -0.0883883), wk =   0.0117188
        k(   77) = (   0.3093592   0.2209709  -0.1325825), wk =   0.0117188
        k(   78) = (   0.3535534   0.2651650  -0.1767767), wk =   0.0117188
        k(   79) = (  -0.3093592  -0.3977476   0.4861359), wk =   0.0117188
        k(   80) = (  -0.2651650  -0.3535534   0.4419417), wk =   0.0058594
        k(   81) = (   0.2651650   0.0883883   0.0000000), wk =   0.0058594
        k(   82) = (   0.3093592   0.1325825  -0.0441942), wk =   0.0117188
        k(   83) = (   0.3535534   0.1767767  -0.0883883), wk =   0.0117188
        k(   84) = (   0.3977476   0.2209709  -0.1325825), wk =   0.0117188
        k(   85) = (  -0.2651650  -0.4419417   0.5303301), wk =   0.0117188
        k(   86) = (  -0.2209709  -0.3977476   0.4861359), wk =   0.0117188
        k(   87) = (  -0.1767767  -0.3535534   0.4419417), wk =   0.0117188
        k(   88) = (  -0.1325825  -0.3093592   0.3977476), wk =   0.0117188
        k(   89) = (  -0.0883883  -0.2651650   0.3535534), wk =   0.0117188
        k(   90) = (  -0.0441942  -0.2209709   0.3093592), wk =   0.0117188
        k(   91) = (   0.0000000  -0.1767767   0.2651650), wk =   0.0058594
        k(   92) = (   0.3535534   0.0883883   0.0000000), wk =   0.0058594
        k(   93) = (   0.3977476   0.1325825  -0.0441942), wk =   0.0117188
        k(   94) = (   0.4419417   0.1767767  -0.0883883), wk =   0.0117188
        k(   95) = (  -0.2209709  -0.4861359   0.5745243), wk =   0.0117188
        k(   96) = (  -0.1767767  -0.4419417   0.5303301), wk =   0.0117188
        k(   97) = (  -0.1325825  -0.3977476   0.4861359), wk =   0.0117188
        k(   98) = (  -0.0883883  -0.3535534   0.4419417), wk =   0.0117188
        k(   99) = (  -0.0441942  -0.3093592   0.3977476), wk =   0.0117188
        k(  100) = (   0.0000000  -0.2651650   0.3535534), wk =   0.0058594
        k(  101) = (   0.4419417   0.0883883   0.0000000), wk =   0.0058594
        k(  102) = (   0.4861359   0.1325825  -0.0441942), wk =   0.0117188
        k(  103) = (  -0.1767767  -0.5303301   0.6187184), wk =   0.0117188
        k(  104) = (  -0.1325825  -0.4861359   0.5745243), wk =   0.0117188
        k(  105) = (  -0.0883883  -0.4419417   0.5303301), wk =   0.0117188
        k(  106) = (  -0.0441942  -0.3977476   0.4861359), wk =   0.0117188
        k(  107) = (   0.0000000  -0.3535534   0.4419417), wk =   0.0058594
        k(  108) = (   0.5303301   0.0883883   0.0000000), wk =   0.0058594
        k(  109) = (  -0.1325825  -0.5745243   0.6629126), wk =   0.0117188
        k(  110) = (  -0.0883883  -0.5303301   0.6187184), wk =   0.0117188
        k(  111) = (  -0.0441942  -0.4861359   0.5745243), wk =   0.0117188
        k(  112) = (   0.0000000  -0.4419417   0.5303301), wk =   0.0058594
        k(  113) = (  -0.0883883  -0.6187184   0.7071068), wk =   0.0058594
        k(  114) = (  -0.0441942  -0.5745243   0.6629126), wk =   0.0117188
        k(  115) = (  -0.0000000  -0.5303301   0.6187184), wk =   0.0058594
        k(  116) = (  -0.7071068   0.0883883   0.0000000), wk =   0.0029297
        k(  117) = (   0.3535534   0.1767767   0.0000000), wk =   0.0058594
        k(  118) = (   0.3977476   0.2209709  -0.0441942), wk =   0.0117188
        k(  119) = (  -0.2651650  -0.4419417   0.6187184), wk =   0.0117188
        k(  120) = (  -0.2209709  -0.3977476   0.5745243), wk =   0.0117188
        k(  121) = (  -0.1767767  -0.3535534   0.5303301), wk =   0.0058594
        k(  122) = (   0.4419417   0.1767767   0.0000000), wk =   0.0058594
        k(  123) = (  -0.2209709  -0.4861359   0.6629126), wk =   0.0117188
        k(  124) = (  -0.1767767  -0.4419417   0.6187184), wk =   0.0117188
        k(  125) = (  -0.1325825  -0.3977476   0.5745243), wk =   0.0117188
        k(  126) = (  -0.0883883  -0.3535534   0.5303301), wk =   0.0117188
        k(  127) = (  -0.0441942  -0.3093592   0.4861359), wk =   0.0117188
        k(  128) = (   0.0000000  -0.2651650   0.4419417), wk =   0.0058594
        k(  129) = (  -0.1767767  -0.5303301   0.7071068), wk =   0.0058594
        k(  130) = (  -0.1325825  -0.4861359   0.6629126), wk =   0.0117188
        k(  131) = (  -0.0883883  -0.4419417   0.6187184), wk =   0.0117188
        k(  132) = (  -0.0441942  -0.3977476   0.5745243), wk =   0.0117188
        k(  133) = (   0.0000000  -0.3535534   0.5303301), wk =   0.0058594
        k(  134) = (  -0.0883883  -0.5303301   0.7071068), wk =   0.0058594
        k(  135) = (  -0.0441942  -0.4861359   0.6629126), wk =   0.0117188
        k(  136) = (   0.0000000  -0.4419417   0.6187184), wk =   0.0058594
        k(  137) = (  -0.7071068   0.1767767   0.0000000), wk =   0.0029297
        k(  138) = (  -0.1767767  -0.4419417   0.7071068), wk =   0.0058594
        k(  139) = (  -0.1325825  -0.3977476   0.6629126), wk =   0.0117188
        k(  140) = (  -0.0883883  -0.3535534   0.6187184), wk =   0.0058594
        k(  141) = (  -0.0883883  -0.4419417   0.7071068), wk =   0.0058594
        k(  142) = (  -0.0441942  -0.3977476   0.6629126), wk =   0.0117188
        k(  143) = (  -0.0000000  -0.3535534   0.6187184), wk =   0.0058594
        k(  144) = (  -0.7071068   0.2651650   0.0000000), wk =   0.0029297
        k(  145) = (  -0.7071068   0.3535534   0.0000000), wk =   0.0014648

                       cryst. coord.
        k(    1) = (   0.0000000   0.0000000   0.0000000), wk =   0.0002441
        k(    2) = (   0.0000000   0.0000000   0.0625000), wk =   0.0019531
        k(    3) = (   0.0000000   0.0000000   0.1250000), wk =   0.0019531
        k(    4) = (   0.0000000   0.0000000   0.1875000), wk =   0.0019531
        k(    5) = (   0.0000000   0.0000000   0.2500000), wk =   0.0019531
        k(    6) = (   0.0000000   0.0000000   0.3125000), wk =   0.0019531
        k(    7) = (   0.0000000   0.0000000   0.3750000), wk =   0.0019531
        k(    8) = (   0.0000000   0.0000000   0.4375000), wk =   0.0019531
        k(    9) = (   0.0000000   0.0000000  -0.5000000), wk =   0.0009766
        k(   10) = (   0.0000000   0.0625000   0.0625000), wk =   0.0014648
        k(   11) = (   0.0000000   0.0625000   0.1250000), wk =   0.0058594
        k(   12) = (   0.0000000   0.0625000   0.1875000), wk =   0.0058594
        k(   13) = (   0.0000000   0.0625000   0.2500000), wk =   0.0058594
        k(   14) = (   0.0000000   0.0625000   0.3125000), wk =   0.0058594
        k(   15) = (   0.0000000   0.0625000   0.3750000), wk =   0.0058594
        k(   16) = (   0.0000000   0.0625000   0.4375000), wk =   0.0058594
        k(   17) = (   0.0000000   0.0625000  -0.5000000), wk =   0.0058594
        k(   18) = (   0.0000000   0.0625000  -0.4375000), wk =   0.0058594
        k(   19) = (   0.0000000   0.0625000  -0.3750000), wk =   0.0058594
        k(   20) = (   0.0000000   0.0625000  -0.3125000), wk =   0.0058594
        k(   21) = (   0.0000000   0.0625000  -0.2500000), wk =   0.0058594
        k(   22) = (   0.0000000   0.0625000  -0.1875000), wk =   0.0058594
        k(   23) = (   0.0000000   0.0625000  -0.1250000), wk =   0.0058594
        k(   24) = (   0.0000000   0.0625000  -0.0625000), wk =   0.0029297
        k(   25) = (   0.0000000   0.1250000   0.1250000), wk =   0.0014648
        k(   26) = (   0.0000000   0.1250000   0.1875000), wk =   0.0058594
        k(   27) = (   0.0000000   0.1250000   0.2500000), wk =   0.0058594
        k(   28) = (   0.0000000   0.1250000   0.3125000), wk =   0.0058594
        k(   29) = (   0.0000000   0.1250000   0.3750000), wk =   0.0058594
        k(   30) = (   0.0000000   0.1250000   0.4375000), wk =   0.0058594
        k(   31) = (   0.0000000   0.1250000  -0.5000000), wk =   0.0058594
        k(   32) = (   0.0000000   0.1250000  -0.4375000), wk =   0.0058594
        k(   33) = (   0.0000000   0.1250000  -0.3750000), wk =   0.0058594
        k(   34) = (   0.0000000   0.1250000  -0.3125000), wk =   0.0058594
        k(   35) = (   0.0000000   0.1250000  -0.2500000), wk =   0.0058594
        k(   36) = (   0.0000000   0.1250000  -0.1875000), wk =   0.0058594
        k(   37) = (   0.0000000   0.1250000  -0.1250000), wk =   0.0029297
        k(   38) = (   0.0000000   0.1875000   0.1875000), wk =   0.0014648
        k(   39) = (   0.0000000   0.1875000   0.2500000), wk =   0.0058594
        k(   40) = (   0.0000000   0.1875000   0.3125000), wk =   0.0058594
        k(   41) = (   0.0000000   0.1875000   0.3750000), wk =   0.0058594
        k(   42) = (   0.0000000   0.1875000   0.4375000), wk =   0.0058594
        k(   43) = (   0.0000000   0.1875000  -0.5000000), wk =   0.0058594
        k(   44) = (   0.0000000   0.1875000  -0.4375000), wk =   0.0058594
        k(   45) = (   0.0000000   0.1875000  -0.3750000), wk =   0.0058594
        k(   46) = (   0.0000000   0.1875000  -0.3125000), wk =   0.0058594
        k(   47) = (   0.0000000   0.1875000  -0.2500000), wk =   0.0058594
        k(   48) = (   0.0000000   0.1875000  -0.1875000), wk =   0.0029297
        k(   49) = (   0.0000000   0.2500000   0.2500000), wk =   0.0014648
        k(   50) = (   0.0000000   0.2500000   0.3125000), wk =   0.0058594
        k(   51) = (   0.0000000   0.2500000   0.3750000), wk =   0.0058594
        k(   52) = (   0.0000000   0.2500000   0.4375000), wk =   0.0058594
        k(   53) = (   0.0000000   0.2500000  -0.5000000), wk =   0.0058594
        k(   54) = (   0.0000000   0.2500000  -0.4375000), wk =   0.0058594
        k(   55) = (   0.0000000   0.2500000  -0.3750000), wk =   0.0058594
        k(   56) = (   0.0000000   0.2500000  -0.3125000), wk =   0.0058594
        k(   57) = (   0.0000000   0.2500000  -0.2500000), wk =   0.0029297
        k(   58) = (   0.0000000   0.3125000   0.3125000), wk =   0.0014648
        k(   59) = (   0.0000000   0.3125000   0.3750000), wk =   0.0058594
        k(   60) = (   0.0000000   0.3125000   0.4375000), wk =   0.0058594
        k(   61) = (   0.0000000   0.3125000  -0.5000000), wk =   0.0058594
        k(   62) = (   0.0000000   0.3125000  -0.4375000), wk =   0.0058594
        k(   63) = (   0.0000000   0.3125000  -0.3750000), wk =   0.0058594
        k(   64) = (   0.0000000   0.3125000  -0.3125000), wk =   0.0029297
        k(   65) = (   0.0000000   0.3750000   0.3750000), wk =   0.0014648
        k(   66) = (   0.0000000   0.3750000   0.4375000), wk =   0.0058594
        k(   67) = (   0.0000000   0.3750000  -0.5000000), wk =   0.0058594
        k(   68) = (   0.0000000   0.3750000  -0.4375000), wk =   0.0058594
        k(   69) = (   0.0000000   0.3750000  -0.3750000), wk =   0.0029297
        k(   70) = (   0.0000000   0.4375000   0.4375000), wk =   0.0014648
        k(   71) = (   0.0000000   0.4375000  -0.5000000), wk =   0.0058594
        k(   72) = (   0.0000000   0.4375000  -0.4375000), wk =   0.0029297
        k(   73) = (   0.0000000  -0.5000000  -0.5000000), wk =   0.0007324
        k(   74) = (   0.0625000   0.1250000   0.1875000), wk =   0.0058594
        k(   75) = (   0.0625000   0.1250000   0.2500000), wk =   0.0117188
        k(   76) = (   0.0625000   0.1250000   0.3125000), wk =   0.0117188
        k(   77) = (   0.0625000   0.1250000   0.3750000), wk =   0.0117188
        k(   78) = (   0.0625000   0.1250000   0.4375000), wk =   0.0117188
        k(   79) = (   0.0625000   0.1250000  -0.5000000), wk =   0.0117188
        k(   80) = (   0.0625000   0.1250000  -0.4375000), wk =   0.0058594
        k(   81) = (   0.0625000   0.1875000   0.2500000), wk =   0.0058594
        k(   82) = (   0.0625000   0.1875000   0.3125000), wk =   0.0117188
        k(   83) = (   0.0625000   0.1875000   0.3750000), wk =   0.0117188
        k(   84) = (   0.0625000   0.1875000   0.4375000), wk =   0.0117188
        k(   85) = (   0.0625000   0.1875000  -0.5000000), wk =   0.0117188
        k(   86) = (   0.0625000   0.1875000  -0.4375000), wk =   0.0117188
        k(   87) = (   0.0625000   0.1875000  -0.3750000), wk =   0.0117188
        k(   88) = (   0.0625000   0.1875000  -0.3125000), wk =   0.0117188
        k(   89) = (   0.0625000   0.1875000  -0.2500000), wk =   0.0117188
        k(   90) = (   0.0625000   0.1875000  -0.1875000), wk =   0.0117188
        k(   91) = (   0.0625000   0.1875000  -0.1250000), wk =   0.0058594
        k(   92) = (   0.0625000   0.2500000   0.3125000), wk =   0.0058594
        k(   93) = (   0.0625000   0.2500000   0.3750000), wk =   0.0117188
        k(   94) = (   0.0625000   0.2500000   0.4375000), wk =   0.0117188
        k(   95) = (   0.0625000   0.2500000  -0.5000000), wk =   0.0117188
        k(   96) = (   0.0625000   0.2500000  -0.4375000), wk =   0.0117188
        k(   97) = (   0.0625000   0.2500000  -0.3750000), wk =   0.0117188
        k(   98) = (   0.0625000   0.2500000  -0.3125000), wk =   0.0117188
        k(   99) = (   0.0625000   0.2500000  -0.2500000), wk =   0.0117188
        k(  100) = (   0.0625000   0.2500000  -0.1875000), wk =   0.0058594
        k(  101) = (   0.0625000   0.3125000   0.3750000), wk =   0.0058594
        k(  102) = (   0.0625000   0.3125000   0.4375000), wk =   0.0117188
        k(  103) = (   0.0625000   0.3125000  -0.5000000), wk =   0.0117188
        k(  104) = (   0.0625000   0.3125000  -0.4375000), wk =   0.0117188
        k(  105) = (   0.0625000   0.3125000  -0.3750000), wk =   0.0117188
        k(  106) = (   0.0625000   0.3125000  -0.3125000), wk =   0.0117188
        k(  107) = (   0.0625000   0.3125000  -0.2500000), wk =   0.0058594
        k(  108) = (   0.0625000   0.3750000   0.4375000), wk =   0.0058594
        k(  109) = (   0.0625000   0.3750000  -0.5000000), wk =   0.0117188
        k(  110) = (   0.0625000   0.3750000  -0.4375000), wk =   0.0117188
        k(  111) = (   0.0625000   0.3750000  -0.3750000), wk =   0.0117188
        k(  112) = (   0.0625000   0.3750000  -0.3125000), wk =   0.0058594
        k(  113) = (   0.0625000   0.4375000  -0.5000000), wk =   0.0058594
        k(  114) = (   0.0625000   0.4375000  -0.4375000), wk =   0.0117188
        k(  115) = (   0.0625000   0.4375000  -0.3750000), wk =   0.0058594
        k(  116) = (   0.0625000  -0.5000000  -0.4375000), wk =   0.0029297
        k(  117) = (   0.1250000   0.2500000   0.3750000), wk =   0.0058594
        k(  118) = (   0.1250000   0.2500000   0.4375000), wk =   0.0117188
        k(  119) = (   0.1250000   0.2500000  -0.5000000), wk =   0.0117188
        k(  120) = (   0.1250000   0.2500000  -0.4375000), wk =   0.0117188
        k(  121) = (   0.1250000   0.2500000  -0.3750000), wk =   0.0058594
        k(  122) = (   0.1250000   0.3125000   0.4375000), wk =   0.0058594
        k(  123) = (   0.1250000   0.3125000  -0.5000000), wk =   0.0117188
        k(  124) = (   0.1250000   0.3125000  -0.4375000), wk =   0.0117188
        k(  125) = (   0.1250000   0.3125000  -0.3750000), wk =   0.0117188
        k(  126) = (   0.1250000   0.3125000  -0.3125000), wk =   0.0117188
        k(  127) = (   0.1250000   0.3125000  -0.2500000), wk =   0.0117188
        k(  128) = (   0.1250000   0.3125000  -0.1875000), wk =   0.0058594
        k(  129) = (   0.1250000   0.3750000  -0.5000000), wk =   0.0058594
        k(  130) = (   0.1250000   0.3750000  -0.4375000), wk =   0.0117188
        k(  131) = (   0.1250000   0.3750000  -0.3750000), wk =   0.0117188
        k(  132) = (   0.1250000   0.3750000  -0.3125000), wk =   0.0117188
        k(  133) = (   0.1250000   0.3750000  -0.2500000), wk =   0.0058594
        k(  134) = (   0.1250000   0.4375000  -0.4375000), wk =   0.0058594
        k(  135) = (   0.1250000   0.4375000  -0.3750000), wk =   0.0117188
        k(  136) = (   0.1250000   0.4375000  -0.3125000), wk =   0.0058594
        k(  137) = (   0.1250000  -0.5000000  -0.3750000), wk =   0.0029297
        k(  138) = (   0.1875000   0.3750000  -0.4375000), wk =   0.0058594
        k(  139) = (   0.1875000   0.3750000  -0.3750000), wk =   0.0117188
        k(  140) = (   0.1875000   0.3750000  -0.3125000), wk =   0.0058594
        k(  141) = (   0.1875000   0.4375000  -0.3750000), wk =   0.0058594
        k(  142) = (   0.1875000   0.4375000  -0.3125000), wk =   0.0117188
        k(  143) = (   0.1875000   0.4375000  -0.2500000), wk =   0.0058594
        k(  144) = (   0.1875000  -0.5000000  -0.3125000), wk =   0.0029297
        k(  145) = (   0.2500000  -0.5000000  -0.2500000), wk =   0.0014648

     Dense  grid:    16961 G-vectors     FFT dimensions: (  36,  36,  36)

     Largest allocated arrays     est. size (Mb)     dimensions
        Kohn-Sham Wavefunctions         0.15 Mb     (     274,   36)
        NL pseudopotentials             0.08 Mb     (     137,   36)
        Each V/rho on FFT grid          0.06 Mb     (    3888)
        Each G-vector array             0.01 Mb     (    1061)
        G-vector shells                 0.00 Mb     (     200)
     Largest temporary arrays     est. size (Mb)     dimensions
        Auxiliary wavefunctions         0.60 Mb     (     274,  144)
        Each subspace H/S matrix        0.32 Mb     (     144,  144)
        Each <psi_i|beta_j> matrix      0.04 Mb     (      36,   2,   36)
        Arrays for rho mixing           0.47 Mb     (    3888,    8)

     Check: negative/imaginary core charge=   -0.000003    0.000000

     Initial potential from superposition of free atoms

     starting charge   27.99723, renormalised to   28.00000
     Starting wfc are   36 randomized atomic wfcs
     Checking if some PAW data can be deallocated... 

     total cpu time spent up to now is        5.2 secs

     Self-consistent Calculation

     iteration #  1     ecut=    40.00 Ry     beta=0.70
     Davidson diagonalization with overlap
     ethr =  1.00E-02,  avg # of iterations =  3.4

     Threshold (ethr) on eigenvalues was too large:
     Diagonalizing with lowered threshold

     Davidson diagonalization with overlap
     ethr =  6.72E-05,  avg # of iterations =  3.3

     total cpu time spent up to now is       38.6 secs

     total energy              =    -884.07035201 Ry
     Harris-Foulkes estimate   =    -884.07329520 Ry
     estimated scf accuracy    <       0.02290750 Ry

     iteration #  2     ecut=    40.00 Ry     beta=0.70
     Davidson diagonalization with overlap
     ethr =  8.18E-05,  avg # of iterations =  1.0

     total cpu time spent up to now is       50.7 secs

     total energy              =    -884.07160628 Ry
     Harris-Foulkes estimate   =    -884.07167907 Ry
     estimated scf accuracy    <       0.00171069 Ry

     iteration #  3     ecut=    40.00 Ry     beta=0.70
     Davidson diagonalization with overlap
     ethr =  6.11E-06,  avg # of iterations =  2.5

     total cpu time spent up to now is       68.3 secs

     total energy              =    -884.07192669 Ry
     Harris-Foulkes estimate   =    -884.07195875 Ry
     estimated scf accuracy    <       0.00008197 Ry

     iteration #  4     ecut=    40.00 Ry     beta=0.70
     Davidson diagonalization with overlap
     ethr =  2.93E-07,  avg # of iterations =  2.1

     total cpu time spent up to now is       85.0 secs

     total energy              =    -884.07195111 Ry
     Harris-Foulkes estimate   =    -884.07194904 Ry
     estimated scf accuracy    <       0.00000471 Ry

     iteration #  5     ecut=    40.00 Ry     beta=0.70
     Davidson diagonalization with overlap
     ethr =  1.68E-08,  avg # of iterations =  2.0

     total cpu time spent up to now is       99.7 secs

     End of self-consistent calculation

          k = 0.0000 0.0000 0.0000 (  2109 PWs)   bands (ev):

   -14.6443 -14.6443 -14.6443 -14.6443 -14.6443 -14.6443 -14.5840 -14.5840
   -14.5840 -14.5840 -14.3516 -14.3516 -14.3516 -14.3516 -14.3329 -14.3329
   -14.3329 -14.3329 -14.3329 -14.3329  -3.1772  -3.1772   5.7114   5.7114
     6.9863   6.9863   6.9863   6.9863   6.9863   6.9863   9.0536   9.0536
     9.0536   9.0536   9.0536   9.0536

     occupation numbers 
     1.0000   1.0000   1.0000   1.0000   1.0000   1.0000   1.0000   1.0000
     1.0000   1.0000   1.0000   1.0000   1.0000   1.0000   1.0000   1.0000
     1.0000   1.0000   1.0000   1.0000   1.0000   1.0000   1.0000   1.0000
     0.0000   0.0000   0.0000   0.0000   0.0000   0.0000   0.0000   0.0000
     0.0000   0.0000   0.0000   0.0000

          k = 0.0442 0.0442-0.0442 (  2103 PWs)   bands (ev):

   -14.6459 -14.6459 -14.6459 -14.6459 -14.6424 -14.6424 -14.5809 -14.5809
   -14.5809 -14.5809 -14.3528 -14.3528 -14.3528 -14.3528 -14.3347 -14.3347
   -14.3274 -14.3274 -14.3274 -14.3274  -3.1424  -3.1424   5.3156   5.3156
     6.9140   6.9140   6.9140   6.9140   7.1701   7.1701   9.1483   9.1483
     9.1483   9.1483   9.1843   9.1843

     occupation numbers 
     1.0000   1.0000   1.0000   1.0000   1.0000   1.0000   1.0000   1.0000
     1.0000   1.0000   1.0000   1.0000   1.0000   1.0000   1.0000   1.0000
     1.0000   1.0000   1.0000   1.0000   1.0000   1.0000   1.0000   1.0000
     0.0184   0.0184   0.0184   0.0184   0.0000   0.0000   0.0000   0.0000
     0.0000   0.0000   0.0000   0.0000

          k = 0.0884 0.0884-0.0884 (  2124 PWs)   bands (ev):

   -14.6515 -14.6515 -14.6515 -14.6515 -14.6390 -14.6390 -14.5787 -14.5787
   -14.5787 -14.5787 -14.3647 -14.3647 -14.3647 -14.3647 -14.3454 -14.3454
   -14.3210 -14.3210 -14.3210 -14.3210  -3.0390  -3.0390   4.5542   4.5542
     6.7368   6.7368   6.7368   6.7368   7.3025   7.3025   9.3822   9.3822
     9.3822   9.3822   9.6197   9.6197

     occupation numbers 
     1.0000   1.0000   1.0000   1.0000   1.0000   1.0000   1.0000   1.0000
     1.0000   1.0000   1.0000   1.0000   1.0000   1.0000   1.0000   1.0000
     1.0000   1.0000   1.0000   1.0000   1.0000   1.0000   1.0000   1.0000
     1.0000   1.0000   1.0000   1.0000   0.0000   0.0000   0.0000   0.0000
     0.0000   0.0000   0.0000   0.0000

          k = 0.1326 0.1326-0.1326 (  2127 PWs)   bands (ev):

   -14.6582 -14.6582 -14.6582 -14.6582 -14.6328 -14.6328 -14.5698 -14.5698
   -14.5698 -14.5698 -14.3757 -14.3757 -14.3757 -14.3757 -14.3450 -14.3450
   -14.3148 -14.3148 -14.3148 -14.3148  -2.8699  -2.8699   3.7247   3.7247
     6.5222   6.5222   6.5222   6.5222   7.2417   7.2417   9.6576   9.6576
     9.6576   9.6577  10.3025  10.3025

     occupation numbers 
     1.0000   1.0000   1.0000   1.0000   1.0000   1.0000   1.0000   1.0000
     1.0000   1.0000   1.0000   1.0000   1.0000   1.0000   1.0000   1.0000
     1.0000   1.0000   1.0000   1.0000   1.0000   1.0000   1.0000   1.0000
     1.0000   1.0000   1.0000   1.0000   0.0000   0.0000   0.0000   0.0000
     0.0000   0.0000   0.0000   0.0000

          k = 0.1768 0.1768-0.1768 (  2127 PWs)   bands (ev):

   -14.6634 -14.6634 -14.6634 -14.6634 -14.6280 -14.6280 -14.5598 -14.5598
   -14.5598 -14.5598 -14.3829 -14.3829 -14.3829 -14.3829 -14.3498 -14.3498
   -14.3088 -14.3088 -14.3088 -14.3088  -2.6414  -2.6414   2.9135   2.9135
     6.3156   6.3156   6.3156   6.3156   7.1039   7.1039   9.8888   9.8888
     9.8888   9.8888  11.1132  11.1132

     occupation numbers 
     1.0000   1.0000   1.0000   1.0000   1.0000   1.0000   1.0000   1.0000
     1.0000   1.0000   1.0000   1.0000   1.0000   1.0000   1.0000   1.0000
     1.0000   1.0000   1.0000   1.0000   1.0000   1.0000   1.0000   1.0000
     1.0000   1.0000   1.0000   1.0000   0.0000   0.0000   0.0000   0.0000
     0.0000   0.0000   0.0000   0.0000

          k = 0.2210 0.2210-0.2210 (  2145 PWs)   bands (ev):

   -14.6684 -14.6684 -14.6684 -14.6684 -14.6265 -14.6265 -14.5558 -14.5558
   -14.5558 -14.5558 -14.3897 -14.3897 -14.3897 -14.3897 -14.3614 -14.3614
   -14.3066 -14.3066 -14.3066 -14.3066  -2.3667  -2.3667   2.1659   2.1659
     6.1409   6.1409   6.1409   6.1409   6.9634   6.9634  10.0295  10.0295
    10.0295  10.0295  11.9790  11.9790

     occupation numbers 
     1.0000   1.0000   1.0000   1.0000   1.0000   1.0000   1.0000   1.0000
     1.0000   1.0000   1.0000   1.0000   1.0000   1.0000   1.0000   1.0000
     1.0000   1.0000   1.0000   1.0000   1.0000   1.0000   1.0000   1.0000
     1.0000   1.0000   1.0000   1.0000   0.0000   0.0000   0.0000   0.0000
     0.0000   0.0000   0.0000   0.0000

          k = 0.2652 0.2652-0.2652 (  2132 PWs)   bands (ev):

   -14.6677 -14.6677 -14.6677 -14.6677 -14.6224 -14.6224 -14.5492 -14.5492
   -14.5492 -14.5492 -14.3904 -14.3904 -14.3904 -14.3904 -14.3640 -14.3640
   -14.3027 -14.3027 -14.3027 -14.3027  -2.0737  -2.0737   1.5264   1.5264
     6.0102   6.0102   6.0102   6.0102   6.8515   6.8515  10.0876  10.0876
    10.0876  10.0876  12.6514  12.6514

     occupation numbers 
     1.0000   1.0000   1.0000   1.0000   1.0000   1.0000   1.0000   1.0000
     1.0000   1.0000   1.0000   1.0000   1.0000   1.0000   1.0000   1.0000
     1.0000   1.0000   1.0000   1.0000   1.0000   1.0000   1.0000   1.0000
     1.0000   1.0000   1.0000   1.0000   1.0000   1.0000   0.0000   0.0000
     0.0000   0.0000   0.0000   0.0000

          k = 0.3094 0.3094-0.3094 (  2129 PWs)   bands (ev):

   -14.6677 -14.6677 -14.6677 -14.6677 -14.6173 -14.6173 -14.5477 -14.5477
   -14.5477 -14.5477 -14.3928 -14.3928 -14.3928 -14.3928 -14.3674 -14.3674
   -14.2989 -14.2989 -14.2989 -14.2989  -1.8226  -1.8226   1.0643   1.0643
     5.9298   5.9298   5.9298   5.9298   6.7811   6.7811  10.1007  10.1007
    10.1007  10.1007  12.6867  12.6867

     occupation numbers 
     1.0000   1.0000   1.0000   1.0000   1.0000   1.0000   1.0000   1.0000
     1.0000   1.0000   1.0000   1.0000   1.0000   1.0000   1.0000   1.0000
     1.0000   1.0000   1.0000   1.0000   1.0000   1.0000   1.0000   1.0000
     1.0000   1.0000   1.0000   1.0000   1.0000   1.0000   0.0000   0.0000
     0.0000   0.0000   0.0000   0.0000

          k =-0.3536-0.3536 0.3536 (  2138 PWs)   bands (ev):

   -14.6704 -14.6704 -14.6704 -14.6704 -14.6235 -14.6235 -14.5443 -14.5443
   -14.5443 -14.5443 -14.3957 -14.3957 -14.3957 -14.3957 -14.3708 -14.3708
   -14.2984 -14.2984 -14.2984 -14.2984  -1.7164  -1.7164   0.8874   0.8874
     5.9027   5.9027   5.9027   5.9027   6.7571   6.7571  10.1012  10.1012
    10.1012  10.1012  12.6628  12.6628

     occupation numbers 
     1.0000   1.0000   1.0000   1.0000   1.0000   1.0000   1.0000   1.0000
     1.0000   1.0000   1.0000   1.0000   1.0000   1.0000   1.0000   1.0000
     1.0000   1.0000   1.0000   1.0000   1.0000   1.0000   1.0000   1.0000
     1.0000   1.0000   1.0000   1.0000   1.0000   1.0000   0.0000   0.0000
     0.0000   0.0000   0.0000   0.0000

          k = 0.0884 0.0000 0.0000 (  2109 PWs)   bands (ev):

   -14.6459 -14.6459 -14.6459 -14.6459 -14.6456 -14.6456 -14.5823 -14.5823
   -14.5774 -14.5774 -14.3611 -14.3611 -14.3513 -14.3513 -14.3321 -14.3321
   -14.3321 -14.3321 -14.3246 -14.3246  -3.1308  -3.1308   5.2354   5.2354
     6.7816   6.7816   6.7816   6.7816   7.4431   7.4431   8.9112   8.9112
     9.3178   9.3178   9.3178   9.3178

     occupation numbers 
     1.0000   1.0000   1.0000   1.0000   1.0000   1.0000   1.0000   1.0000
     1.0000   1.0000   1.0000   1.0000   1.0000   1.0000   1.0000   1.0000
     1.0000   1.0000   1.0000   1.0000   1.0000   1.0000   1.0000   1.0000
     1.0000   1.0000   1.0000   1.0000   0.0000   0.0000   0.0000   0.0000
     0.0000   0.0000   0.0000   0.0000

          k = 0.1326 0.0442-0.0442 (  2127 PWs)   bands (ev):

   -14.6518 -14.6518 -14.6495 -14.6495 -14.6427 -14.6427 -14.5794 -14.5794
   -14.5765 -14.5765 -14.3728 -14.3728 -14.3582 -14.3582 -14.3401 -14.3401
   -14.3308 -14.3308 -14.3180 -14.3180  -3.0501  -3.0501   4.6709   4.6709
     6.5740   6.5740   6.6057   6.6057   7.6968   7.6968   8.9115   8.9115
     9.6005   9.6005   9.6754   9.6754

     occupation numbers 
     1.0000   1.0000   1.0000   1.0000   1.0000   1.0000   1.0000   1.0000
     1.0000   1.0000   1.0000   1.0000   1.0000   1.0000   1.0000   1.0000
     1.0000   1.0000   1.0000   1.0000   1.0000   1.0000   1.0000   1.0000
     1.0000   1.0000   1.0000   1.0000   0.0000   0.0000   0.0000   0.0000
     0.0000   0.0000   0.0000   0.0000

          k = 0.1768 0.0884-0.0884 (  2122 PWs)   bands (ev):

   -14.6582 -14.6582 -14.6530 -14.6530 -14.6346 -14.6346 -14.5721 -14.5721
   -14.5663 -14.5663 -14.3834 -14.3834 -14.3666 -14.3666 -14.3395 -14.3395
   -14.3226 -14.3226 -14.3109 -14.3109  -2.9024  -2.9024   3.9172   3.9172
     6.3519   6.3519   6.3893   6.3893   7.7168   7.7168   9.1379   9.1379
     9.9063   9.9063  10.2300  10.2300

     occupation numbers 
     1.0000   1.0000   1.0000   1.0000   1.0000   1.0000   1.0000   1.0000
     1.0000   1.0000   1.0000   1.0000   1.0000   1.0000   1.0000   1.0000
     1.0000   1.0000   1.0000   1.0000   1.0000   1.0000   1.0000   1.0000
     1.0000   1.0000   1.0000   1.0000   0.0000   0.0000   0.0000   0.0000
     0.0000   0.0000   0.0000   0.0000

          k = 0.2210 0.1326-0.1326 (  2124 PWs)   bands (ev):

   -14.6649 -14.6649 -14.6586 -14.6586 -14.6278 -14.6278 -14.5644 -14.5644
   -14.5563 -14.5563 -14.3925 -14.3925 -14.3758 -14.3758 -14.3460 -14.3460
   -14.3142 -14.3142 -14.3040 -14.3040  -2.6928  -2.6928   3.1293   3.1293
     6.1496   6.1496   6.1518   6.1518   7.6036   7.6036   9.4493   9.4493
    10.1543  10.1543  10.8784  10.8784

     occupation numbers 
     1.0000   1.0000   1.0000   1.0000   1.0000   1.0000   1.0000   1.0000
     1.0000   1.0000   1.0000   1.0000   1.0000   1.0000   1.0000   1.0000
     1.0000   1.0000   1.0000   1.0000   1.0000   1.0000   1.0000   1.0000
     1.0000   1.0000   1.0000   1.0000   0.0000   0.0000   0.0000   0.0000
     0.0000   0.0000   0.0000   0.0000

          k = 0.2652 0.1768-0.1768 (  2136 PWs)   bands (ev):

   -14.6711 -14.6711 -14.6641 -14.6641 -14.6257 -14.6257 -14.5578 -14.5578
   -14.5495 -14.5495 -14.3981 -14.3981 -14.3839 -14.3839 -14.3571 -14.3571
   -14.3091 -14.3091 -14.3006 -14.3006  -2.4313  -2.4313   2.3760   2.3760
     5.9247   5.9247   5.9926   5.9926   7.4596   7.4596   9.7099   9.7099
    10.2935  10.2935  11.5601  11.5602

     occupation numbers 
     1.0000   1.0000   1.0000   1.0000   1.0000   1.0000   1.0000   1.0000
     1.0000   1.0000   1.0000   1.0000   1.0000   1.0000   1.0000   1.0000
     1.0000   1.0000   1.0000   1.0000   1.0000   1.0000   1.0000   1.0000
     1.0000   1.0000   1.0000   1.0000   0.0000   0.0000   0.0000   0.0000
     0.0000   0.0000   0.0000   0.0000

          k = 0.3094 0.2210-0.2210 (  2132 PWs)   bands (ev):

   -14.6743 -14.6743 -14.6658 -14.6658 -14.6198 -14.6198 -14.5506 -14.5506
   -14.5444 -14.5444 -14.4018 -14.4018 -14.3886 -14.3886 -14.3632 -14.3632
   -14.3044 -14.3044 -14.2946 -14.2946  -2.1395  -2.1395   1.7061   1.7061
     5.7367   5.7367   5.8842   5.8842   7.3309   7.3309   9.8701   9.8701
    10.3264  10.3264  12.2318  12.2318

     occupation numbers 
     1.0000   1.0000   1.0000   1.0000   1.0000   1.0000   1.0000   1.0000
     1.0000   1.0000   1.0000   1.0000   1.0000   1.0000   1.0000   1.0000
     1.0000   1.0000   1.0000   1.0000   1.0000   1.0000   1.0000   1.0000
     1.0000   1.0000   1.0000   1.0000   0.0000   0.0000   0.0000   0.0000
     0.0000   0.0000   0.0000   0.0000

          k = 0.3536 0.2652-0.2652 (  2127 PWs)   bands (ev):

   -14.6744 -14.6744 -14.6671 -14.6671 -14.6139 -14.6139 -14.5459 -14.5459
   -14.5401 -14.5401 -14.4007 -14.4007 -14.3911 -14.3911 -14.3698 -14.3698
   -14.3000 -14.3000 -14.2932 -14.2932  -1.8642  -1.8642   1.1806   1.1806
     5.5963   5.5963   5.8311   5.8311   7.2371   7.2371   9.9581   9.9581
    10.2939  10.2939  12.6729  12.6729

     occupation numbers 
     1.0000   1.0000   1.0000   1.0000   1.0000   1.0000   1.0000   1.0000
     1.0000   1.0000   1.0000   1.0000   1.0000   1.0000   1.0000   1.0000
     1.0000   1.0000   1.0000   1.0000   1.0000   1.0000   1.0000   1.0000
     1.0000   1.0000   1.0000   1.0000   0.0000   0.0000   0.0000   0.0000
     0.0000   0.0000   0.0000   0.0000

          k =-0.3094-0.3977 0.3977 (  2137 PWs)   bands (ev):

   -14.6746 -14.6746 -14.6698 -14.6698 -14.6178 -14.6178 -14.5452 -14.5452
   -14.5404 -14.5404 -14.3973 -14.3973 -14.3957 -14.3957 -14.3751 -14.3751
   -14.2984 -14.2984 -14.2946 -14.2946  -1.6967  -1.6967   0.8981   0.8981
     5.5096   5.5096   5.8347   5.8347   7.1865   7.1865  10.0195  10.0195
    10.2366  10.2366  12.7721  12.7721

     occupation numbers 
     1.0000   1.0000   1.0000   1.0000   1.0000   1.0000   1.0000   1.0000
     1.0000   1.0000   1.0000   1.0000   1.0000   1.0000   1.0000   1.0000
     1.0000   1.0000   1.0000   1.0000   1.0000   1.0000   1.0000   1.0000
     1.0000   1.0000   1.0000   1.0000   0.0000   0.0000   0.0000   0.0000
     0.0000   0.0000   0.0000   0.0000

          k =-0.2652-0.3536 0.3536 (  2131 PWs)   bands (ev):

   -14.6725 -14.6725 -14.6700 -14.6700 -14.6159 -14.6159 -14.5428 -14.5428
   -14.5414 -14.5414 -14.3976 -14.3976 -14.3927 -14.3927 -14.3747 -14.3747
   -14.2983 -14.2983 -14.2951 -14.2951  -1.7336  -1.7336   0.9583   0.9583
     5.4803   5.4803   5.8940   5.8940   7.1822   7.1822  10.0794  10.0794
    10.1741  10.1741  12.7844  12.7844

     occupation numbers 
     1.0000   1.0000   1.0000   1.0000   1.0000   1.0000   1.0000   1.0000
     1.0000   1.0000   1.0000   1.0000   1.0000   1.0000   1.0000   1.0000
     1.0000   1.0000   1.0000   1.0000   1.0000   1.0000   1.0000   1.0000
     1.0000   1.0000   1.0000   1.0000   0.0000   0.0000   0.0000   0.0000
     0.0000   0.0000   0.0000   0.0000

          k =-0.2210-0.3094 0.3094 (  2136 PWs)   bands (ev):

   -14.6730 -14.6730 -14.6708 -14.6708 -14.6154 -14.6154 -14.5488 -14.5488
   -14.5450 -14.5450 -14.3988 -14.3988 -14.3921 -14.3921 -14.3682 -14.3682
   -14.2988 -14.2988 -14.2986 -14.2986  -1.9501  -1.9501   1.3357   1.3357
     5.5107   5.5107   6.0059   6.0059   7.2237   7.2237  10.1029  10.1029
    10.1345  10.1345  12.6628  12.6628

     occupation numbers 
     1.0000   1.0000   1.0000   1.0000   1.0000   1.0000   1.0000   1.0000
     1.0000   1.0000   1.0000   1.0000   1.0000   1.0000   1.0000   1.0000
     1.0000   1.0000   1.0000   1.0000   1.0000   1.0000   1.0000   1.0000
     1.0000   1.0000   1.0000   1.0000   0.0000   0.0000   0.0000   0.0000
     0.0000   0.0000   0.0000   0.0000

          k =-0.1768-0.2652 0.2652 (  2133 PWs)   bands (ev):

   -14.6719 -14.6719 -14.6680 -14.6680 -14.6206 -14.6206 -14.5534 -14.5534
   -14.5469 -14.5469 -14.3978 -14.3978 -14.3882 -14.3882 -14.3634 -14.3634
   -14.3023 -14.3023 -14.2979 -14.2979  -2.2386  -2.2386   1.9180   1.9180
     5.6023   5.6023   6.1647   6.1647   7.3065   7.3065   9.9985   9.9985
    10.1510  10.1510  12.0842  12.0842

     occupation numbers 
     1.0000   1.0000   1.0000   1.0000   1.0000   1.0000   1.0000   1.0000
     1.0000   1.0000   1.0000   1.0000   1.0000   1.0000   1.0000   1.0000
     1.0000   1.0000   1.0000   1.0000   1.0000   1.0000   1.0000   1.0000
     1.0000   1.0000   1.0000   1.0000   0.0000   0.0000   0.0000   0.0000
     0.0000   0.0000   0.0000   0.0000

          k =-0.1326-0.2210 0.2210 (  2133 PWs)   bands (ev):

   -14.6695 -14.6695 -14.6645 -14.6645 -14.6253 -14.6253 -14.5595 -14.5595
   -14.5528 -14.5528 -14.3930 -14.3930 -14.3836 -14.3836 -14.3546 -14.3546
   -14.3097 -14.3097 -14.3017 -14.3017  -2.5237  -2.5237   2.6203   2.6203
     5.7554   5.7554   6.3605   6.3605   7.4183   7.4183   9.8301   9.8301
    10.0623  10.0623  11.3520  11.3520

     occupation numbers 
     1.0000   1.0000   1.0000   1.0000   1.0000   1.0000   1.0000   1.0000
     1.0000   1.0000   1.0000   1.0000   1.0000   1.0000   1.0000   1.0000
     1.0000   1.0000   1.0000   1.0000   1.0000   1.0000   1.0000   1.0000
     1.0000   1.0000   1.0000   1.0000   0.0000   0.0000   0.0000   0.0000
     0.0000   0.0000   0.0000   0.0000

          k =-0.0884-0.1768 0.1768 (  2127 PWs)   bands (ev):

   -14.6640 -14.6640 -14.6581 -14.6581 -14.6295 -14.6295 -14.5676 -14.5676
   -14.5622 -14.5622 -14.3868 -14.3868 -14.3769 -14.3769 -14.3448 -14.3448
   -14.3159 -14.3159 -14.3054 -14.3054  -2.7695  -2.7695   3.3876   3.3876
     5.9697   5.9697   6.5757   6.5757   7.5299   7.5299   9.5937   9.5938
     9.8075   9.8075  10.6935  10.6935

     occupation numbers 
     1.0000   1.0000   1.0000   1.0000   1.0000   1.0000   1.0000   1.0000
     1.0000   1.0000   1.0000   1.0000   1.0000   1.0000   1.0000   1.0000
     1.0000   1.0000   1.0000   1.0000   1.0000   1.0000   1.0000   1.0000
     1.0000   1.0000   1.0000   1.0000   0.0000   0.0000   0.0000   0.0000
     0.0000   0.0000   0.0000   0.0000

          k =-0.0442-0.1326 0.1326 (  2129 PWs)   bands (ev):

   -14.6579 -14.6579 -14.6510 -14.6510 -14.6365 -14.6365 -14.5754 -14.5754
   -14.5732 -14.5732 -14.3764 -14.3764 -14.3702 -14.3702 -14.3398 -14.3398
   -14.3264 -14.3264 -14.3124 -14.3124  -2.9591  -2.9591   4.1666   4.1666
     6.2445   6.2445   6.7778   6.7778   7.5719   7.5719   9.3397   9.3397
     9.4523   9.4523  10.1180  10.1180

     occupation numbers 
     1.0000   1.0000   1.0000   1.0000   1.0000   1.0000   1.0000   1.0000
     1.0000   1.0000   1.0000   1.0000   1.0000   1.0000   1.0000   1.0000
     1.0000   1.0000   1.0000   1.0000   1.0000   1.0000   1.0000   1.0000
     1.0000   1.0000   1.0000   1.0000   0.0000   0.0000   0.0000   0.0000
     0.0000   0.0000   0.0000   0.0000

          k = 0.0000-0.0884 0.0884 (  2119 PWs)   bands (ev):

   -14.6508 -14.6508 -14.6467 -14.6467 -14.6421 -14.6421 -14.5798 -14.5798
   -14.5789 -14.5789 -14.3645 -14.3645 -14.3590 -14.3590 -14.3352 -14.3352
   -14.3351 -14.3351 -14.3181 -14.3181  -3.0847  -3.0847   4.8698   4.8698
     6.5784   6.5784   6.9111   6.9111   7.4309   7.4309   9.1608   9.1608
     9.2035   9.2035   9.5944   9.5944

     occupation numbers 
     1.0000   1.0000   1.0000   1.0000   1.0000   1.0000   1.0000   1.0000
     1.0000   1.0000   1.0000   1.0000   1.0000   1.0000   1.0000   1.0000
     1.0000   1.0000   1.0000   1.0000   1.0000   1.0000   1.0000   1.0000
     1.0000   1.0000   0.8088   0.8088   0.0000   0.0000   0.0000   0.0000
     0.0000   0.0000   0.0000   0.0000

          k = 0.1768 0.0000 0.0000 (  2133 PWs)   bands (ev):

   -14.6499 -14.6499 -14.6499 -14.6499 -14.6484 -14.6484 -14.5773 -14.5773
   -14.5681 -14.5681 -14.3857 -14.3857 -14.3581 -14.3581 -14.3348 -14.3348
   -14.3348 -14.3348 -14.3187 -14.3187  -2.9920  -2.9920   4.4212   4.4212
     6.3520   6.3520   6.3520   6.3520   8.1650   8.1650   8.5949   8.5949
     9.9242   9.9242   9.9242   9.9242

     occupation numbers 
     1.0000   1.0000   1.0000   1.0000   1.0000   1.0000   1.0000   1.0000
     1.0000   1.0000   1.0000   1.0000   1.0000   1.0000   1.0000   1.0000
     1.0000   1.0000   1.0000   1.0000   1.0000   1.0000   1.0000   1.0000
     1.0000   1.0000   1.0000   1.0000   0.0000   0.0000   0.0000   0.0000
     0.0000   0.0000   0.0000   0.0000

          k = 0.2210 0.0442-0.0442 (  2127 PWs)   bands (ev):

   -14.6559 -14.6559 -14.6513 -14.6513 -14.6415 -14.6415 -14.5745 -14.5745
   -14.5557 -14.5557 -14.3973 -14.3973 -14.3628 -14.3628 -14.3324 -14.3324
   -14.3275 -14.3275 -14.3131 -14.3131  -2.8662  -2.8662   3.8779   3.8779
     6.1097   6.1097   6.1250   6.1250   8.3492   8.3492   8.5899   8.5899
    10.2706  10.2706  10.3538  10.3538

     occupation numbers 
     1.0000   1.0000   1.0000   1.0000   1.0000   1.0000   1.0000   1.0000
     1.0000   1.0000   1.0000   1.0000   1.0000   1.0000   1.0000   1.0000
     1.0000   1.0000   1.0000   1.0000   1.0000   1.0000   1.0000   1.0000
     1.0000   1.0000   1.0000   1.0000   0.0000   0.0000   0.0000   0.0000
     0.0000   0.0000   0.0000   0.0000

          k = 0.2652 0.0884-0.0884 (  2127 PWs)   bands (ev):

   -14.6651 -14.6651 -14.6591 -14.6591 -14.6323 -14.6323 -14.5656 -14.5656
   -14.5455 -14.5455 -14.4073 -14.4073 -14.3746 -14.3746 -14.3381 -14.3381
   -14.3168 -14.3168 -14.3033 -14.3033  -2.6764  -2.6764   3.2020   3.2020
     5.8306   5.8306   5.9259   5.9259   8.2776   8.2776   8.8818   8.8818
    10.5601  10.5601  10.7933  10.7934

     occupation numbers 
     1.0000   1.0000   1.0000   1.0000   1.0000   1.0000   1.0000   1.0000
     1.0000   1.0000   1.0000   1.0000   1.0000   1.0000   1.0000   1.0000
     1.0000   1.0000   1.0000   1.0000   1.0000   1.0000   1.0000   1.0000
     1.0000   1.0000   1.0000   1.0000   0.0000   0.0000   0.0000   0.0000
     0.0000   0.0000   0.0000   0.0000

          k = 0.3094 0.1326-0.1326 (  2130 PWs)   bands (ev):

   -14.6727 -14.6727 -14.6620 -14.6620 -14.6253 -14.6253 -14.5570 -14.5570
   -14.5385 -14.5385 -14.4158 -14.4158 -14.3818 -14.3818 -14.3485 -14.3485
   -14.3107 -14.3107 -14.2965 -14.2965  -2.4304  -2.4304   2.5005   2.5005
     5.5484   5.5484   5.7725   5.7725   8.1369   8.1369   9.2646   9.2646
    10.7299  10.7299  11.1212  11.1212

     occupation numbers 
     1.0000   1.0000   1.0000   1.0000   1.0000   1.0000   1.0000   1.0000
     1.0000   1.0000   1.0000   1.0000   1.0000   1.0000   1.0000   1.0000
     1.0000   1.0000   1.0000   1.0000   1.0000   1.0000   1.0000   1.0000
     1.0000   1.0000   1.0000   1.0000   0.0000   0.0000   0.0000   0.0000
     0.0000   0.0000   0.0000   0.0000

          k = 0.3536 0.1768-0.1768 (  2125 PWs)   bands (ev):

   -14.6782 -14.6782 -14.6657 -14.6657 -14.6160 -14.6160 -14.5486 -14.5486
   -14.5304 -14.5304 -14.4191 -14.4191 -14.3885 -14.3885 -14.3580 -14.3580
   -14.3047 -14.3047 -14.2894 -14.2894  -2.1446  -2.1446   1.8400   1.8400
     5.2979   5.2979   5.6743   5.6743   7.9945   7.9945   9.5898   9.5898
    10.7678  10.7678  11.4833  11.4833

     occupation numbers 
     1.0000   1.0000   1.0000   1.0000   1.0000   1.0000   1.0000   1.0000
     1.0000   1.0000   1.0000   1.0000   1.0000   1.0000   1.0000   1.0000
     1.0000   1.0000   1.0000   1.0000   1.0000   1.0000   1.0000   1.0000
     1.0000   1.0000   1.0000   1.0000   0.0000   0.0000   0.0000   0.0000
     0.0000   0.0000   0.0000   0.0000

          k = 0.3977 0.2210-0.2210 (  2126 PWs)   bands (ev):

   -14.6831 -14.6831 -14.6687 -14.6687 -14.6080 -14.6080 -14.5419 -14.5419
   -14.5281 -14.5281 -14.4186 -14.4186 -14.3944 -14.3944 -14.3680 -14.3680
   -14.2994 -14.2994 -14.2854 -14.2854  -1.8547  -1.8547   1.2824   1.2824
     5.0971   5.0971   5.6356   5.6356   7.8786   7.8786   9.7909   9.7909
    10.7132  10.7132  12.0018  12.0018

     occupation numbers 
     1.0000   1.0000   1.0000   1.0000   1.0000   1.0000   1.0000   1.0000
     1.0000   1.0000   1.0000   1.0000   1.0000   1.0000   1.0000   1.0000
     1.0000   1.0000   1.0000   1.0000   1.0000   1.0000   1.0000   1.0000
     1.0000   1.0000   1.0000   1.0000   0.0000   0.0000   0.0000   0.0000
     0.0000   0.0000   0.0000   0.0000

          k =-0.2652-0.4419 0.4419 (  2138 PWs)   bands (ev):

   -14.6857 -14.6857 -14.6728 -14.6728 -14.6049 -14.6049 -14.5358 -14.5358
   -14.5302 -14.5302 -14.4148 -14.4148 -14.4039 -14.4039 -14.3791 -14.3791
   -14.2965 -14.2965 -14.2855 -14.2855  -1.6367  -1.6367   0.9175   0.9175
     4.9552   4.9552   5.6575   5.6575   7.8021   7.8021   9.9119   9.9119
    10.6141  10.6141  12.5713  12.5713

     occupation numbers 
     1.0000   1.0000   1.0000   1.0000   1.0000   1.0000   1.0000   1.0000
     1.0000   1.0000   1.0000   1.0000   1.0000   1.0000   1.0000   1.0000
     1.0000   1.0000   1.0000   1.0000   1.0000   1.0000   1.0000   1.0000
     1.0000   1.0000   1.0000   1.0000   0.0000   0.0000   0.0000   0.0000
     0.0000   0.0000   0.0000   0.0000

          k =-0.2210-0.3977 0.3977 (  2132 PWs)   bands (ev):

   -14.6830 -14.6830 -14.6746 -14.6746 -14.6011 -14.6011 -14.5358 -14.5358
   -14.5304 -14.5304 -14.4063 -14.4063 -14.4060 -14.4060 -14.3844 -14.3844
   -14.2929 -14.2929 -14.2859 -14.2859  -1.6014  -1.6014   0.8623   0.8623
     4.8784   4.8784   5.7382   5.7382   7.7696   7.7696  10.0123  10.0123
    10.4987  10.4987  12.8790  12.8790

     occupation numbers 
     1.0000   1.0000   1.0000   1.0000   1.0000   1.0000   1.0000   1.0000
     1.0000   1.0000   1.0000   1.0000   1.0000   1.0000   1.0000   1.0000
     1.0000   1.0000   1.0000   1.0000   1.0000   1.0000   1.0000   1.0000
     1.0000   1.0000   1.0000   1.0000   0.0000   0.0000   0.0000   0.0000
     0.0000   0.0000   0.0000   0.0000

          k =-0.1768-0.3536 0.3536 (  2134 PWs)   bands (ev):

   -14.6808 -14.6808 -14.6756 -14.6756 -14.6017 -14.6017 -14.5432 -14.5432
   -14.5312 -14.5312 -14.4085 -14.4085 -14.3962 -14.3962 -14.3865 -14.3865
   -14.2929 -14.2929 -14.2888 -14.2888  -1.7731  -1.7731   1.1414   1.1414
     4.8719   4.8719   5.8733   5.8733   7.7800   7.7800  10.1138  10.1138
    10.3697  10.3697  12.6204  12.6204

     occupation numbers 
     1.0000   1.0000   1.0000   1.0000   1.0000   1.0000   1.0000   1.0000
     1.0000   1.0000   1.0000   1.0000   1.0000   1.0000   1.0000   1.0000
     1.0000   1.0000   1.0000   1.0000   1.0000   1.0000   1.0000   1.0000
     1.0000   1.0000   1.0000   1.0000   0.0000   0.0000   0.0000   0.0000
     0.0000   0.0000   0.0000   0.0000

          k =-0.1326-0.3094 0.3094 (  2138 PWs)   bands (ev):

   -14.6775 -14.6775 -14.6770 -14.6770 -14.6069 -14.6069 -14.5487 -14.5487
   -14.5374 -14.5374 -14.4099 -14.4099 -14.3918 -14.3918 -14.3774 -14.3774
   -14.2940 -14.2940 -14.2932 -14.2932  -2.0509  -2.0509   1.6477   1.6477
     4.9424   4.9424   6.0545   6.0545   7.8260   7.8260  10.1937  10.1937
    10.2090  10.2090  11.9665  11.9665

     occupation numbers 
     1.0000   1.0000   1.0000   1.0000   1.0000   1.0000   1.0000   1.0000
     1.0000   1.0000   1.0000   1.0000   1.0000   1.0000   1.0000   1.0000
     1.0000   1.0000   1.0000   1.0000   1.0000   1.0000   1.0000   1.0000
     1.0000   1.0000   1.0000   1.0000   0.0000   0.0000   0.0000   0.0000
     0.0000   0.0000   0.0000   0.0000

          k =-0.0884-0.2652 0.2652 (  2138 PWs)   bands (ev):

   -14.6747 -14.6747 -14.6713 -14.6713 -14.6135 -14.6135 -14.5563 -14.5563
   -14.5430 -14.5430 -14.4053 -14.4053 -14.3893 -14.3893 -14.3664 -14.3664
   -14.3013 -14.3013 -14.2973 -14.2973  -2.3430  -2.3430   2.2754   2.2754
     5.0991   5.0991   6.2680   6.2680   7.8891   7.8891   9.9936   9.9936
    10.1605  10.1605  11.3556  11.3556

     occupation numbers 
     1.0000   1.0000   1.0000   1.0000   1.0000   1.0000   1.0000   1.0000
     1.0000   1.0000   1.0000   1.0000   1.0000   1.0000   1.0000   1.0000
     1.0000   1.0000   1.0000   1.0000   1.0000   1.0000   1.0000   1.0000
     1.0000   1.0000   1.0000   1.0000   0.0000   0.0000   0.0000   0.0000
     0.0000   0.0000   0.0000   0.0000

          k =-0.0442-0.2210 0.2210 (  2127 PWs)   bands (ev):

   -14.6696 -14.6696 -14.6634 -14.6634 -14.6214 -14.6214 -14.5618 -14.5618
   -14.5517 -14.5517 -14.3970 -14.3970 -14.3824 -14.3824 -14.3510 -14.3510
   -14.3103 -14.3103 -14.2992 -14.2992  -2.6038  -2.6038   2.9509   2.9509
     5.3567   5.3567   6.4900   6.4900   7.9247   7.9247   9.7304   9.7305
     9.9018   9.9018  10.9679  10.9679

     occupation numbers 
     1.0000   1.0000   1.0000   1.0000   1.0000   1.0000   1.0000   1.0000
     1.0000   1.0000   1.0000   1.0000   1.0000   1.0000   1.0000   1.0000
     1.0000   1.0000   1.0000   1.0000   1.0000   1.0000   1.0000   1.0000
     1.0000   1.0000   1.0000   1.0000   0.0000   0.0000   0.0000   0.0000
     0.0000   0.0000   0.0000   0.0000

          k = 0.0000-0.1768 0.1768 (  2123 PWs)   bands (ev):

   -14.6640 -14.6640 -14.6563 -14.6563 -14.6283 -14.6283 -14.5681 -14.5681
   -14.5627 -14.5627 -14.3879 -14.3879 -14.3742 -14.3742 -14.3422 -14.3422
   -14.3178 -14.3178 -14.3058 -14.3058  -2.8125  -2.8125   3.6065   3.6065
     5.7362   5.7362   6.6799   6.6799   7.8430   7.8430   9.4804   9.4804
     9.5871   9.5871  10.6225  10.6225

[...]

     occupation numbers 
     1.0000   1.0000   1.0000   1.0000   1.0000   1.0000   1.0000   1.0000
     1.0000   1.0000   1.0000   1.0000   1.0000   1.0000   1.0000   1.0000
     1.0000   1.0000   1.0000   1.0000   1.0000   1.0000   1.0000   1.0000
     1.0000   1.0000   1.0000   1.0000   0.0000   0.0000   0.0000   0.0000
     0.0000   0.0000   0.0000   0.0000

          k =-0.1326-0.3977 0.5745 (  2145 PWs)   bands (ev):

   -14.7010 -14.7010 -14.6870 -14.6870 -14.5723 -14.5723 -14.5105 -14.5105
   -14.4923 -14.4923 -14.4663 -14.4663 -14.4319 -14.4319 -14.4015 -14.4015
   -14.2824 -14.2824 -14.2692 -14.2692  -1.1306  -1.1306   0.5202   0.5202
     4.0433   4.0433   5.0010   5.0010   8.8531   8.8531  10.0970  10.0970
    11.3757  11.3758  12.0550  12.0550

     occupation numbers 
     1.0000   1.0000   1.0000   1.0000   1.0000   1.0000   1.0000   1.0000
     1.0000   1.0000   1.0000   1.0000   1.0000   1.0000   1.0000   1.0000
     1.0000   1.0000   1.0000   1.0000   1.0000   1.0000   1.0000   1.0000
     1.0000   1.0000   1.0000   1.0000   0.0000   0.0000   0.0000   0.0000
     0.0000   0.0000   0.0000   0.0000

          k =-0.0884-0.3536 0.5303 (  2149 PWs)   bands (ev):

   -14.7008 -14.7008 -14.6876 -14.6876 -14.5719 -14.5719 -14.5153 -14.5153
   -14.4935 -14.4935 -14.4619 -14.4619 -14.4326 -14.4326 -14.4039 -14.4039
   -14.2822 -14.2822 -14.2706 -14.2706  -1.1851  -1.1851   0.5894   0.5894
     4.0103   4.0103   5.0700   5.0700   8.8973   8.8973  10.0901  10.0901
    11.4382  11.4382  12.0162  12.0162

     occupation numbers 
     1.0000   1.0000   1.0000   1.0000   1.0000   1.0000   1.0000   1.0000
     1.0000   1.0000   1.0000   1.0000   1.0000   1.0000   1.0000   1.0000
     1.0000   1.0000   1.0000   1.0000   1.0000   1.0000   1.0000   1.0000
     1.0000   1.0000   1.0000   1.0000   0.0000   0.0000   0.0000   0.0000
     0.0000   0.0000   0.0000   0.0000

          k =-0.0442-0.3094 0.4861 (  2142 PWs)   bands (ev):

   -14.6963 -14.6963 -14.6860 -14.6860 -14.5795 -14.5795 -14.5254 -14.5254
   -14.4942 -14.4942 -14.4580 -14.4580 -14.4188 -14.4188 -14.3985 -14.3985
   -14.2820 -14.2820 -14.2740 -14.2740  -1.4286  -1.4286   0.9087   0.9087
     4.0814   4.0814   5.2122   5.2122   8.9479   8.9479   9.9727   9.9727
    10.8652  10.8652  12.2400  12.2400

     occupation numbers 
     1.0000   1.0000   1.0000   1.0000   1.0000   1.0000   1.0000   1.0000
     1.0000   1.0000   1.0000   1.0000   1.0000   1.0000   1.0000   1.0000
     1.0000   1.0000   1.0000   1.0000   1.0000   1.0000   1.0000   1.0000
     1.0000   1.0000   1.0000   1.0000   0.0000   0.0000   0.0000   0.0000
     0.0000   0.0000   0.0000   0.0000

          k = 0.0000-0.2652 0.4419 (  2134 PWs)   bands (ev):

   -14.6889 -14.6889 -14.6832 -14.6832 -14.5898 -14.5898 -14.5346 -14.5346
   -14.5007 -14.5007 -14.4513 -14.4513 -14.4049 -14.4049 -14.3861 -14.3861
   -14.2857 -14.2857 -14.2791 -14.2791  -1.7265  -1.7265   1.3278   1.3278
     4.2759   4.2759   5.4022   5.4022   8.9462   8.9462   9.6176   9.6176
    10.6910  10.6910  12.0144  12.0144

     occupation numbers 
     1.0000   1.0000   1.0000   1.0000   1.0000   1.0000   1.0000   1.0000
     1.0000   1.0000   1.0000   1.0000   1.0000   1.0000   1.0000   1.0000
     1.0000   1.0000   1.0000   1.0000   1.0000   1.0000   1.0000   1.0000
     1.0000   1.0000   1.0000   1.0000   0.0000   0.0000   0.0000   0.0000
     0.0000   0.0000   0.0000   0.0000

          k =-0.1768-0.5303 0.7071 (  2142 PWs)   bands (ev):

   -14.6890 -14.6890 -14.6880 -14.6880 -14.5935 -14.5935 -14.5162 -14.5162
   -14.4948 -14.4948 -14.4694 -14.4694 -14.4223 -14.4223 -14.3763 -14.3763
   -14.2833 -14.2833 -14.2814 -14.2814  -1.4351  -1.4351   0.9461   0.9461
     4.4452   4.4452   4.8741   4.8741   8.5994   8.5994   8.9527   8.9527
    11.3733  11.3733  12.9735  12.9735

     occupation numbers 
     1.0000   1.0000   1.0000   1.0000   1.0000   1.0000   1.0000   1.0000
     1.0000   1.0000   1.0000   1.0000   1.0000   1.0000   1.0000   1.0000
     1.0000   1.0000   1.0000   1.0000   1.0000   1.0000   1.0000   1.0000
     1.0000   1.0000   1.0000   1.0000   0.0000   0.0000   0.0000   0.0000
     0.0000   0.0000   0.0000   0.0000

          k =-0.1326-0.4861 0.6629 (  2144 PWs)   bands (ev):

   -14.6961 -14.6961 -14.6900 -14.6900 -14.5775 -14.5775 -14.5055 -14.5055
   -14.4997 -14.4997 -14.4653 -14.4653 -14.4337 -14.4337 -14.3935 -14.3935
   -14.2805 -14.2805 -14.2734 -14.2734  -1.1314  -1.1314   0.5621   0.5621
     4.2162   4.2162   4.7530   4.7530   8.7645   8.7645   9.4266   9.4266
    11.1999  11.1999  12.9279  12.9279

     occupation numbers 
     1.0000   1.0000   1.0000   1.0000   1.0000   1.0000   1.0000   1.0000
     1.0000   1.0000   1.0000   1.0000   1.0000   1.0000   1.0000   1.0000
     1.0000   1.0000   1.0000   1.0000   1.0000   1.0000   1.0000   1.0000
     1.0000   1.0000   1.0000   1.0000   0.0000   0.0000   0.0000   0.0000
     0.0000   0.0000   0.0000   0.0000

          k =-0.0884-0.4419 0.6187 (  2153 PWs)   bands (ev):

   -14.7027 -14.7027 -14.6916 -14.6916 -14.5651 -14.5651 -14.5009 -14.5009
   -14.4953 -14.4953 -14.4685 -14.4685 -14.4464 -14.4464 -14.4068 -14.4068
   -14.2796 -14.2796 -14.2697 -14.2697  -0.8937  -0.8937   0.2866   0.2866
     4.0190   4.0190   4.7436   4.7436   8.8188   8.8188  10.1511  10.1511
    11.0984  11.0984  12.3527  12.3527

     occupation numbers 
     1.0000   1.0000   1.0000   1.0000   1.0000   1.0000   1.0000   1.0000
     1.0000   1.0000   1.0000   1.0000   1.0000   1.0000   1.0000   1.0000
     1.0000   1.0000   1.0000   1.0000   1.0000   1.0000   1.0000   1.0000
     1.0000   1.0000   1.0000   1.0000   0.0000   0.0000   0.0000   0.0000
     0.0000   0.0000   0.0000   0.0000

          k =-0.0442-0.3977 0.5745 (  2149 PWs)   bands (ev):

   -14.7033 -14.7033 -14.6911 -14.6911 -14.5611 -14.5611 -14.4988 -14.4988
   -14.4852 -14.4852 -14.4758 -14.4758 -14.4488 -14.4488 -14.4102 -14.4102
   -14.2793 -14.2793 -14.2670 -14.2670  -0.8958  -0.8958   0.2915   0.2915
     3.9067   3.9067   4.8324   4.8324   8.8946   8.8946  10.6191  10.6191
    11.3122  11.3122  11.6283  11.6283

     occupation numbers 
     1.0000   1.0000   1.0000   1.0000   1.0000   1.0000   1.0000   1.0000
     1.0000   1.0000   1.0000   1.0000   1.0000   1.0000   1.0000   1.0000
     1.0000   1.0000   1.0000   1.0000   1.0000   1.0000   1.0000   1.0000
     1.0000   1.0000   1.0000   1.0000   0.0000   0.0000   0.0000   0.0000
     0.0000   0.0000   0.0000   0.0000

          k = 0.0000-0.3536 0.5303 (  2154 PWs)   bands (ev):

   -14.7032 -14.7032 -14.6888 -14.6888 -14.5687 -14.5687 -14.5132 -14.5132
   -14.4846 -14.4846 -14.4728 -14.4728 -14.4386 -14.4386 -14.4068 -14.4068
   -14.2800 -14.2800 -14.2712 -14.2712  -1.1311  -1.1311   0.5606   0.5606
     3.9192   3.9192   4.9976   4.9976   8.9710   8.9710  10.4780  10.4780
    10.9381  10.9381  12.1079  12.1079

     occupation numbers 
     1.0000   1.0000   1.0000   1.0000   1.0000   1.0000   1.0000   1.0000
     1.0000   1.0000   1.0000   1.0000   1.0000   1.0000   1.0000   1.0000
     1.0000   1.0000   1.0000   1.0000   1.0000   1.0000   1.0000   1.0000
     1.0000   1.0000   1.0000   1.0000   0.0000   0.0000   0.0000   0.0000
     0.0000   0.0000   0.0000   0.0000

          k =-0.0884-0.5303 0.7071 (  2149 PWs)   bands (ev):

   -14.6948 -14.6948 -14.6923 -14.6923 -14.5751 -14.5751 -14.5245 -14.5245
   -14.4939 -14.4939 -14.4459 -14.4459 -14.4435 -14.4435 -14.3961 -14.3961
   -14.2793 -14.2793 -14.2768 -14.2768  -0.9089  -0.9089   0.2947   0.2947
     4.3715   4.3715   4.5847   4.5847   8.5684   8.5684   8.7759   8.7759
    12.0451  12.0451  13.2645  13.2646

     occupation numbers 
     1.0000   1.0000   1.0000   1.0000   1.0000   1.0000   1.0000   1.0000
     1.0000   1.0000   1.0000   1.0000   1.0000   1.0000   1.0000   1.0000
     1.0000   1.0000   1.0000   1.0000   1.0000   1.0000   1.0000   1.0000
     1.0000   1.0000   1.0000   1.0000   0.0000   0.0000   0.0000   0.0000
     0.0000   0.0000   0.0000   0.0000

          k =-0.0442-0.4861 0.6629 (  2155 PWs)   bands (ev):

   -14.7007 -14.7007 -14.6957 -14.6957 -14.5582 -14.5582 -14.5262 -14.5262
   -14.4842 -14.4842 -14.4587 -14.4587 -14.4443 -14.4443 -14.4113 -14.4113
   -14.2777 -14.2777 -14.2727 -14.2727  -0.6254  -0.6254  -0.0054  -0.0054
     4.1624   4.1624   4.5436   4.5436   8.7128   8.7128   9.3757   9.3757
    11.8633  11.8633  12.5708  12.5708

     occupation numbers 
     1.0000   1.0000   1.0000   1.0000   1.0000   1.0000   1.0000   1.0000
     1.0000   1.0000   1.0000   1.0000   1.0000   1.0000   1.0000   1.0000
     1.0000   1.0000   1.0000   1.0000   1.0000   1.0000   1.0000   1.0000
     1.0000   1.0000   1.0000   1.0000   0.0000   0.0000   0.0000   0.0000
     0.0000   0.0000   0.0000   0.0000

          k = 0.0000-0.4419 0.6187 (  2145 PWs)   bands (ev):

   -14.7029 -14.7029 -14.6927 -14.6927 -14.5535 -14.5535 -14.5107 -14.5107
   -14.4821 -14.4821 -14.4588 -14.4588 -14.4573 -14.4573 -14.4138 -14.4138
   -14.2760 -14.2760 -14.2671 -14.2671  -0.6278  -0.6278   0.0061   0.0061
     3.9703   3.9703   4.6481   4.6481   8.7991   8.7991  10.1909  10.1909
    11.7058  11.7058  11.7164  11.7164

     occupation numbers 
     1.0000   1.0000   1.0000   1.0000   1.0000   1.0000   1.0000   1.0000
     1.0000   1.0000   1.0000   1.0000   1.0000   1.0000   1.0000   1.0000
     1.0000   1.0000   1.0000   1.0000   1.0000   1.0000   1.0000   1.0000
     1.0000   1.0000   1.0000   1.0000   0.0000   0.0000   0.0000   0.0000
     0.0000   0.0000   0.0000   0.0000

          k =-0.7071 0.1768 0.0000 (  2150 PWs)   bands (ev):

   -14.6961 -14.6961 -14.6961 -14.6961 -14.5505 -14.5505 -14.5505 -14.5505
   -14.4703 -14.4703 -14.4703 -14.4703 -14.4188 -14.4188 -14.4188 -14.4188
   -14.2759 -14.2759 -14.2759 -14.2759  -0.3281  -0.3281  -0.3281  -0.3281
     4.4169   4.4169   4.4169   4.4169   8.6316   8.6316   8.6316   8.6316
    12.7654  12.7654  12.7654  12.7654

     occupation numbers 
     1.0000   1.0000   1.0000   1.0000   1.0000   1.0000   1.0000   1.0000
     1.0000   1.0000   1.0000   1.0000   1.0000   1.0000   1.0000   1.0000
     1.0000   1.0000   1.0000   1.0000   1.0000   1.0000   1.0000   1.0000
     1.0000   1.0000   1.0000   1.0000   0.0000   0.0000   0.0000   0.0000
     0.0000   0.0000   0.0000   0.0000

          k =-0.1768-0.4419 0.7071 (  2155 PWs)   bands (ev):

   -14.6976 -14.6976 -14.6910 -14.6910 -14.5792 -14.5792 -14.5196 -14.5196
   -14.4808 -14.4808 -14.4805 -14.4805 -14.4268 -14.4268 -14.3983 -14.3983
   -14.2809 -14.2809 -14.2757 -14.2757  -1.3016  -1.3016   0.7733   0.7733
     4.1378   4.1378   4.9107   4.9107   9.3463   9.3463   9.4820   9.4820
    10.6446  10.6446  12.7033  12.7033

     occupation numbers 
     1.0000   1.0000   1.0000   1.0000   1.0000   1.0000   1.0000   1.0000
     1.0000   1.0000   1.0000   1.0000   1.0000   1.0000   1.0000   1.0000
     1.0000   1.0000   1.0000   1.0000   1.0000   1.0000   1.0000   1.0000
     1.0000   1.0000   1.0000   1.0000   0.0000   0.0000   0.0000   0.0000
     0.0000   0.0000   0.0000   0.0000

          k =-0.1326-0.3977 0.6629 (  2157 PWs)   bands (ev):

   -14.7024 -14.7024 -14.6930 -14.6930 -14.5652 -14.5652 -14.5070 -14.5070
   -14.4872 -14.4872 -14.4747 -14.4747 -14.4415 -14.4415 -14.4111 -14.4111
   -14.2785 -14.2785 -14.2710 -14.2710  -1.0183  -1.0183   0.4344   0.4344
     4.0108   4.0108   4.7557   4.7557   9.3725   9.3725   9.9740   9.9740
    10.7551  10.7551  12.2390  12.2390

     occupation numbers 
     1.0000   1.0000   1.0000   1.0000   1.0000   1.0000   1.0000   1.0000
     1.0000   1.0000   1.0000   1.0000   1.0000   1.0000   1.0000   1.0000
     1.0000   1.0000   1.0000   1.0000   1.0000   1.0000   1.0000   1.0000
     1.0000   1.0000   1.0000   1.0000   0.0000   0.0000   0.0000   0.0000
     0.0000   0.0000   0.0000   0.0000

          k =-0.0884-0.3536 0.6187 (  2152 PWs)   bands (ev):

   -14.7035 -14.7035 -14.6929 -14.6929 -14.5592 -14.5592 -14.5024 -14.5024
   -14.4854 -14.4854 -14.4738 -14.4738 -14.4464 -14.4464 -14.4140 -14.4140
   -14.2792 -14.2792 -14.2670 -14.2670  -0.8804  -0.8804   0.2770   0.2770
     3.9705   3.9705   4.6990   4.6990   9.3721   9.3721  10.1007  10.1007
    11.2718  11.2718  11.5643  11.5643

     occupation numbers 
     1.0000   1.0000   1.0000   1.0000   1.0000   1.0000   1.0000   1.0000
     1.0000   1.0000   1.0000   1.0000   1.0000   1.0000   1.0000   1.0000
     1.0000   1.0000   1.0000   1.0000   1.0000   1.0000   1.0000   1.0000
     1.0000   1.0000   1.0000   1.0000   0.0000   0.0000   0.0000   0.0000
     0.0000   0.0000   0.0000   0.0000

          k =-0.0884-0.4419 0.7071 (  2164 PWs)   bands (ev):

   -14.7023 -14.7023 -14.6968 -14.6968 -14.5607 -14.5607 -14.5112 -14.5112
   -14.4969 -14.4969 -14.4583 -14.4583 -14.4511 -14.4511 -14.4143 -14.4143
   -14.2782 -14.2782 -14.2727 -14.2727  -0.8257  -0.8257   0.2244   0.2244
     4.1278   4.1278   4.5180   4.5180   9.4237   9.4237   9.4643   9.4643
    11.0217  11.0217  12.4084  12.4084

     occupation numbers 
     1.0000   1.0000   1.0000   1.0000   1.0000   1.0000   1.0000   1.0000
     1.0000   1.0000   1.0000   1.0000   1.0000   1.0000   1.0000   1.0000
     1.0000   1.0000   1.0000   1.0000   1.0000   1.0000   1.0000   1.0000
     1.0000   1.0000   1.0000   1.0000   0.0000   0.0000   0.0000   0.0000
     0.0000   0.0000   0.0000   0.0000

          k =-0.0442-0.3977 0.6629 (  2161 PWs)   bands (ev):

   -14.7032 -14.7032 -14.6970 -14.6970 -14.5472 -14.5472 -14.5133 -14.5133
   -14.4880 -14.4880 -14.4627 -14.4627 -14.4546 -14.4546 -14.4254 -14.4254
   -14.2763 -14.2763 -14.2702 -14.2702  -0.6059  -0.6059  -0.0048  -0.0048
     4.0466   4.0466   4.4380   4.4380   9.5015   9.5015  10.1708  10.1708
    10.9430  10.9430  11.5548  11.5548

     occupation numbers 
     1.0000   1.0000   1.0000   1.0000   1.0000   1.0000   1.0000   1.0000
     1.0000   1.0000   1.0000   1.0000   1.0000   1.0000   1.0000   1.0000
     1.0000   1.0000   1.0000   1.0000   1.0000   1.0000   1.0000   1.0000
     1.0000   1.0000   1.0000   1.0000   0.0000   0.0000   0.0000   0.0000
     0.0000   0.0000   0.0000   0.0000

          k =-0.0000-0.3536 0.6187 (  2158 PWs)   bands (ev):

   -14.7042 -14.7042 -14.6962 -14.6962 -14.5508 -14.5508 -14.5020 -14.5020
   -14.4943 -14.4943 -14.4612 -14.4612 -14.4576 -14.4576 -14.4211 -14.4211
   -14.2766 -14.2766 -14.2692 -14.2692  -0.7278  -0.7278   0.1251   0.1251
     3.9815   3.9815   4.5418   4.5418   9.5505   9.5505  10.3521  10.3521
    10.8325  10.8325  11.4601  11.4601

     occupation numbers 
     1.0000   1.0000   1.0000   1.0000   1.0000   1.0000   1.0000   1.0000
     1.0000   1.0000   1.0000   1.0000   1.0000   1.0000   1.0000   1.0000
     1.0000   1.0000   1.0000   1.0000   1.0000   1.0000   1.0000   1.0000
     1.0000   1.0000   1.0000   1.0000   0.0000   0.0000   0.0000   0.0000
     0.0000   0.0000   0.0000   0.0000

          k =-0.7071 0.2652 0.0000 (  2170 PWs)   bands (ev):

   -14.7011 -14.7011 -14.7011 -14.7011 -14.5381 -14.5381 -14.5381 -14.5381
   -14.4745 -14.4745 -14.4745 -14.4745 -14.4365 -14.4365 -14.4365 -14.4365
   -14.2752 -14.2752 -14.2752 -14.2752  -0.3124  -0.3124  -0.3124  -0.3124
     4.2539   4.2539   4.2539   4.2539   9.4343   9.4343   9.4343   9.4343
    11.6879  11.6879  11.6879  11.6879

     occupation numbers 
     1.0000   1.0000   1.0000   1.0000   1.0000   1.0000   1.0000   1.0000
     1.0000   1.0000   1.0000   1.0000   1.0000   1.0000   1.0000   1.0000
     1.0000   1.0000   1.0000   1.0000   1.0000   1.0000   1.0000   1.0000
     1.0000   1.0000   1.0000   1.0000   0.0000   0.0000   0.0000   0.0000
     0.0000   0.0000   0.0000   0.0000

          k =-0.7071 0.3536 0.0000 (  2148 PWs)   bands (ev):

   -14.6996 -14.6996 -14.6996 -14.6996 -14.5251 -14.5251 -14.5251 -14.5251
   -14.4761 -14.4761 -14.4761 -14.4761 -14.4383 -14.4383 -14.4383 -14.4383
   -14.2709 -14.2709 -14.2709 -14.2709  -0.3057  -0.3057  -0.3057  -0.3057
     4.1920   4.1920   4.1920   4.1920  10.0946  10.0946  10.0946  10.0946
    10.9310  10.9310  10.9310  10.9310

     occupation numbers 
     1.0000   1.0000   1.0000   1.0000   1.0000   1.0000   1.0000   1.0000
     1.0000   1.0000   1.0000   1.0000   1.0000   1.0000   1.0000   1.0000
     1.0000   1.0000   1.0000   1.0000   1.0000   1.0000   1.0000   1.0000
     1.0000   1.0000   1.0000   1.0000   0.0000   0.0000   0.0000   0.0000
     0.0000   0.0000   0.0000   0.0000

     the Fermi energy is     6.9120 ev

!    total energy              =    -884.07195183 Ry
     Harris-Foulkes estimate   =    -884.07195172 Ry
     estimated scf accuracy    <       0.00000012 Ry

     total all-electron energy =    -24709.327525 Ry

     The total energy is the sum of the following terms:

     one-electron contribution =    -154.04737982 Ry
     hartree contribution      =      95.62028600 Ry
     xc contribution           =     -96.22544841 Ry
     ewald contribution        =    -167.52979535 Ry
     one-center paw contrib.   =    -561.88961412 Ry
     smearing contrib. (-TS)   =      -0.00000014 Ry

     convergence has been achieved in   5 iterations

     Writing output data file Sn.save
 
     init_run     :      4.38s CPU      4.65s WALL (       1 calls)
     electrons    :     90.74s CPU     94.51s WALL (       1 calls)

     Called by init_run:
     wfcinit      :      4.07s CPU      4.24s WALL (       1 calls)
     potinit      :      0.12s CPU      0.14s WALL (       1 calls)

     Called by electrons:
     c_bands      :     78.31s CPU     81.61s WALL (       6 calls)
     sum_band     :     11.82s CPU     12.18s WALL (       6 calls)
     v_of_rho     :      0.04s CPU      0.04s WALL (       6 calls)
     v_h          :      0.00s CPU      0.00s WALL (       6 calls)
     v_xc         :      0.03s CPU      0.04s WALL (       6 calls)
     newd         :      0.04s CPU      0.05s WALL (       6 calls)
     PAW_pot      :      0.63s CPU      0.70s WALL (       6 calls)
     mix_rho      :      0.01s CPU      0.01s WALL (       6 calls)

     Called by c_bands:
     init_us_2    :      0.15s CPU      0.17s WALL (    1885 calls)
     cegterg      :     77.04s CPU     80.14s WALL (     870 calls)

     Called by sum_band:
     sum_band:bec :      0.11s CPU      0.11s WALL (     870 calls)
     addusdens    :      0.05s CPU      0.05s WALL (       6 calls)

     Called by *egterg:
     h_psi        :     58.02s CPU     59.98s WALL (    3092 calls)
     s_psi        :      1.06s CPU      1.08s WALL (    3092 calls)
     g_psi        :      0.18s CPU      0.18s WALL (    2077 calls)
     cdiaghg      :     11.45s CPU     11.67s WALL (    2802 calls)
     cegterg:over :      4.21s CPU      4.26s WALL (    2077 calls)
     cegterg:upda :      1.45s CPU      1.46s WALL (    2077 calls)
     cegterg:last :      0.83s CPU      0.83s WALL (     870 calls)

     Called by h_psi:
     h_psi:vloc   :     54.67s CPU     56.56s WALL (    3092 calls)
     h_psi:vnl    :      3.21s CPU      3.27s WALL (    3092 calls)
     add_vuspsi   :      1.18s CPU      1.20s WALL (    3092 calls)

     General routines
     calbec       :      2.64s CPU      2.71s WALL (    3962 calls)
     fft          :      0.06s CPU      0.07s WALL (     116 calls)
     fftw         :     61.59s CPU     63.72s WALL (  393200 calls)
     davcio       :      0.02s CPU      0.16s WALL (     145 calls)
 
     Parallel routines
     fft_scatter  :     39.20s CPU     40.73s WALL (  393316 calls)

     PAW routines
     PAW_pot      :      0.63s CPU      0.70s WALL (       6 calls)
     PAW_symme    :      0.01s CPU      0.01s WALL (      12 calls)
 
     PWSCF        :  1m35.97s CPU     1m40.33s WALL

 
   This run was terminated on:  19:58:14  15Mar2020            

=------------------------------------------------------------------------------=
   JOB DONE.
=------------------------------------------------------------------------------=
