
     Program PWSCF v.5.4.0 starts on 15Mar2020 at 19:52: 7 

     This program is part of the open-source Quantum ESPRESSO suite
     for quantum simulation of materials; please cite
         "P. Giannozzi et al., J. Phys.:Condens. Matter 21 395502 (2009);
          URL http://www.quantum-espresso.org", 
     in publications or presentations arising from this work. More details at
     http://www.quantum-espresso.org/quote

     Parallel version (MPI & OpenMP), running on      16 processor cores
     Number of MPI processes:                16
     Threads/MPI process:                     1
     R & G space division:  proc/nbgrp/npool/nimage =      16
     Waiting for input...
     Reading input from standard input
Warning: card &IONS ignored
Warning: card / ignored
Warning: card &CELL ignored
Warning: card / ignored

     Current dimensions of program PWSCF are:
     Max number of different atomic species (ntypx) = 10
     Max number of k-points (npk) =  40000
     Max angular momentum in pseudopotentials (lmaxx) =  3
               file Sn.rel-pbe-dn-rrkjus_psl.1.0.0.UPF: wavefunction(s)  5S 4D 4D renormalized

     Subspace diagonalization in iterative solution of the eigenvalue problem:
     a serial algorithm will be used

 
     Parallelization info
     --------------------
     sticks:   dense  smooth     PW     G-vecs:    dense   smooth      PW
     Min          74      74     22                 1722     1722     279
     Max          76      76     23                 1725     1725     281
     Sum        1201    1201    361                27581    27581    4477
 

     Title: 
     Sn                                                                         


     bravais-lattice index     =            0
     lattice parameter (alat)  =       8.9127  a.u.
     unit-cell volume          =     500.6268 (a.u.)^3
     number of atoms/cell      =            2
     number of atomic types    =            1
     number of electrons       =        28.00
     number of Kohn-Sham states=           36
     kinetic-energy cutoff     =      55.0000  Ry
     charge density cutoff     =     220.0000  Ry
     convergence threshold     =      1.0E-06
     mixing beta               =       0.7000
     number of iterations used =            8  plain     mixing
     Exchange-correlation      = PBE ( 1  4  3  4 0 0)
     Non magnetic calculation with spin-orbit


     celldm(1)=   8.912709  celldm(2)=   0.000000  celldm(3)=   0.000000
     celldm(4)=   0.000000  celldm(5)=   0.000000  celldm(6)=   0.000000

     crystal axes: (cart. coord. in units of alat)
               a(1) = (   0.000000   0.707107   0.707107 )  
               a(2) = (   0.707107   0.000000   0.707107 )  
               a(3) = (   0.707107   0.707107   0.000000 )  

     reciprocal axes: (cart. coord. in units 2 pi/alat)
               b(1) = ( -0.707107  0.707107  0.707107 )  
               b(2) = (  0.707107 -0.707107  0.707107 )  
               b(3) = (  0.707107  0.707107 -0.707107 )  


     PseudoPot. # 1 for Sn read from file:
     ../PseudopotentialDatabase/Sn.rel-pbe-dn-rrkjus_psl.1.0.0.UPF
     MD5 check sum: e9415cc9ba1036dfb73502962f03961a
     Pseudo is Ultrasoft + core correction, Zval = 14.0
     Generated using "atomic" code by A. Dal Corso  v.6.3
     Using radial grid of 1243 points, 10 beta functions with: 
                l(1) =   0
                l(2) =   0
                l(3) =   1
                l(4) =   1
                l(5) =   1
                l(6) =   1
                l(7) =   2
                l(8) =   2
                l(9) =   2
               l(10) =   2
     Q(r) pseudized with 0 coefficients 


     atomic species   valence    mass     pseudopotential
        Sn            14.00   118.71000     Sn( 1.00)

     24 Sym. Ops. (no inversion) found
          (note: 24 additional sym.ops. were found but ignored
           their fractional translations are incommensurate with FFT grid)

                                    s                        frac. trans.

      isym =  1     identity                                     

 cryst.   s( 1) = (     1          0          0      )
                  (     0          1          0      )
                  (     0          0          1      )

 cart.    s( 1) = (  1.0000000  0.0000000  0.0000000 )
                  (  0.0000000  1.0000000  0.0000000 )
                  (  0.0000000  0.0000000  1.0000000 )


      isym =  2     180 deg rotation - cart. axis [0,0,1]        

 cryst.   s( 2) = (     0          1         -1      )
                  (     1          0         -1      )
                  (     0          0         -1      )

 cart.    s( 2) = ( -1.0000000  0.0000000  0.0000000 )
                  (  0.0000000 -1.0000000  0.0000000 )
                  (  0.0000000  0.0000000  1.0000000 )


      isym =  3     180 deg rotation - cart. axis [0,1,0]        

 cryst.   s( 3) = (     0         -1          1      )
                  (     0         -1          0      )
                  (     1         -1          0      )

 cart.    s( 3) = ( -1.0000000  0.0000000  0.0000000 )
                  (  0.0000000  1.0000000  0.0000000 )
                  (  0.0000000  0.0000000 -1.0000000 )


      isym =  4     180 deg rotation - cart. axis [1,0,0]        

 cryst.   s( 4) = (    -1          0          0      )
                  (    -1          0          1      )
                  (    -1          1          0      )

 cart.    s( 4) = (  1.0000000  0.0000000  0.0000000 )
                  (  0.0000000 -1.0000000  0.0000000 )
                  (  0.0000000  0.0000000 -1.0000000 )


      isym =  5     120 deg rotation - cart. axis [-1,-1,-1]     

 cryst.   s( 5) = (     0          0          1      )
                  (     1          0          0      )
                  (     0          1          0      )

 cart.    s( 5) = (  0.0000000  1.0000000  0.0000000 )
                  (  0.0000000  0.0000000  1.0000000 )
                  (  1.0000000  0.0000000  0.0000000 )


      isym =  6     120 deg rotation - cart. axis [-1,1,1]       

 cryst.   s( 6) = (     1         -1          0      )
                  (     0         -1          1      )
                  (     0         -1          0      )

 cart.    s( 6) = (  0.0000000 -1.0000000  0.0000000 )
                  (  0.0000000  0.0000000  1.0000000 )
                  ( -1.0000000  0.0000000  0.0000000 )


      isym =  7     120 deg rotation - cart. axis [1,1,-1]       

 cryst.   s( 7) = (    -1          1          0      )
                  (    -1          0          0      )
                  (    -1          0          1      )

 cart.    s( 7) = (  0.0000000  1.0000000  0.0000000 )
                  (  0.0000000  0.0000000 -1.0000000 )
                  ( -1.0000000  0.0000000  0.0000000 )


      isym =  8     120 deg rotation - cart. axis [1,-1,1]       

 cryst.   s( 8) = (     0          0         -1      )
                  (     0          1         -1      )
                  (     1          0         -1      )

 cart.    s( 8) = (  0.0000000 -1.0000000  0.0000000 )
                  (  0.0000000  0.0000000 -1.0000000 )
                  (  1.0000000  0.0000000  0.0000000 )


      isym =  9     120 deg rotation - cart. axis [1,1,1]        

 cryst.   s( 9) = (     0          1          0      )
                  (     0          0          1      )
                  (     1          0          0      )

 cart.    s( 9) = (  0.0000000  0.0000000  1.0000000 )
                  (  1.0000000  0.0000000  0.0000000 )
                  (  0.0000000  1.0000000  0.0000000 )


      isym = 10     120 deg rotation - cart. axis [-1,1,-1]      

 cryst.   s(10) = (    -1          0          1      )
                  (    -1          1          0      )
                  (    -1          0          0      )

 cart.    s(10) = (  0.0000000  0.0000000  1.0000000 )
                  ( -1.0000000  0.0000000  0.0000000 )
                  (  0.0000000 -1.0000000  0.0000000 )


      isym = 11     120 deg rotation - cart. axis [1,-1,-1]      

 cryst.   s(11) = (     1          0         -1      )
                  (     0          0         -1      )
                  (     0          1         -1      )

 cart.    s(11) = (  0.0000000  0.0000000 -1.0000000 )
                  ( -1.0000000  0.0000000  0.0000000 )
                  (  0.0000000  1.0000000  0.0000000 )


      isym = 12     120 deg rotation - cart. axis [-1,-1,1]      

 cryst.   s(12) = (     0         -1          0      )
                  (     1         -1          0      )
                  (     0         -1          1      )

 cart.    s(12) = (  0.0000000  0.0000000 -1.0000000 )
                  (  1.0000000  0.0000000  0.0000000 )
                  (  0.0000000 -1.0000000  0.0000000 )


      isym = 13     inv. 180 deg rotation - cart. axis [1,1,0]   

 cryst.   s(13) = (     1          0         -1      )
                  (     0          1         -1      )
                  (     0          0         -1      )

 cart.    s(13) = (  0.0000000 -1.0000000  0.0000000 )
                  ( -1.0000000  0.0000000  0.0000000 )
                  (  0.0000000  0.0000000  1.0000000 )


      isym = 14     inv. 180 deg rotation - cart. axis [1,-1,0]  

 cryst.   s(14) = (     0          1          0      )
                  (     1          0          0      )
                  (     0          0          1      )

 cart.    s(14) = (  0.0000000  1.0000000  0.0000000 )
                  (  1.0000000  0.0000000  0.0000000 )
                  (  0.0000000  0.0000000  1.0000000 )


      isym = 15     inv.  90 deg rotation - cart. axis [0,0,-1]  

 cryst.   s(15) = (     0         -1          0      )
                  (     0         -1          1      )
                  (     1         -1          0      )

 cart.    s(15) = (  0.0000000 -1.0000000  0.0000000 )
                  (  1.0000000  0.0000000  0.0000000 )
                  (  0.0000000  0.0000000 -1.0000000 )


      isym = 16     inv.  90 deg rotation - cart. axis [0,0,1]   

 cryst.   s(16) = (    -1          0          1      )
                  (    -1          0          0      )
                  (    -1          1          0      )

 cart.    s(16) = (  0.0000000  1.0000000  0.0000000 )
                  ( -1.0000000  0.0000000  0.0000000 )
                  (  0.0000000  0.0000000 -1.0000000 )


      isym = 17     inv. 180 deg rotation - cart. axis [1,0,1]   

 cryst.   s(17) = (     1         -1          0      )
                  (     0         -1          0      )
                  (     0         -1          1      )

 cart.    s(17) = (  0.0000000  0.0000000 -1.0000000 )
                  (  0.0000000  1.0000000  0.0000000 )
                  ( -1.0000000  0.0000000  0.0000000 )


      isym = 18     inv. 180 deg rotation - cart. axis [-1,0,1]  

 cryst.   s(18) = (     0          0          1      )
                  (     0          1          0      )
                  (     1          0          0      )

 cart.    s(18) = (  0.0000000  0.0000000  1.0000000 )
                  (  0.0000000  1.0000000  0.0000000 )
                  (  1.0000000  0.0000000  0.0000000 )


      isym = 19     inv.  90 deg rotation - cart. axis [0,1,0]   

 cryst.   s(19) = (     0          0         -1      )
                  (     1          0         -1      )
                  (     0          1         -1      )

 cart.    s(19) = (  0.0000000  0.0000000 -1.0000000 )
                  (  0.0000000 -1.0000000  0.0000000 )
                  (  1.0000000  0.0000000  0.0000000 )


      isym = 20     inv.  90 deg rotation - cart. axis [0,-1,0]  

 cryst.   s(20) = (    -1          1          0      )
                  (    -1          0          1      )
                  (    -1          0          0      )

 cart.    s(20) = (  0.0000000  0.0000000  1.0000000 )
                  (  0.0000000 -1.0000000  0.0000000 )
                  ( -1.0000000  0.0000000  0.0000000 )


      isym = 21     inv. 180 deg rotation - cart. axis [0,1,1]   

 cryst.   s(21) = (    -1          0          0      )
                  (    -1          1          0      )
                  (    -1          0          1      )

 cart.    s(21) = (  1.0000000  0.0000000  0.0000000 )
                  (  0.0000000  0.0000000 -1.0000000 )
                  (  0.0000000 -1.0000000  0.0000000 )


      isym = 22     inv. 180 deg rotation - cart. axis [0,1,-1]  

 cryst.   s(22) = (     1          0          0      )
                  (     0          0          1      )
                  (     0          1          0      )

 cart.    s(22) = (  1.0000000  0.0000000  0.0000000 )
                  (  0.0000000  0.0000000  1.0000000 )
                  (  0.0000000  1.0000000  0.0000000 )


      isym = 23     inv.  90 deg rotation - cart. axis [-1,0,0]  

 cryst.   s(23) = (     0          1         -1      )
                  (     0          0         -1      )
                  (     1          0         -1      )

 cart.    s(23) = ( -1.0000000  0.0000000  0.0000000 )
                  (  0.0000000  0.0000000 -1.0000000 )
                  (  0.0000000  1.0000000  0.0000000 )


      isym = 24     inv.  90 deg rotation - cart. axis [1,0,0]   

 cryst.   s(24) = (     0         -1          1      )
                  (     1         -1          0      )
                  (     0         -1          0      )

 cart.    s(24) = ( -1.0000000  0.0000000  0.0000000 )
                  (  0.0000000  0.0000000  1.0000000 )
                  (  0.0000000 -1.0000000  0.0000000 )


   Cartesian axes

     site n.     atom                  positions (alat units)
         1           Sn  tau(   1) = (   0.0000000   0.0000000   0.0000000  )
         2           Sn  tau(   2) = (   0.3535534   0.3535534   0.3535534  )

   Crystallographic axes

     site n.     atom                  positions (cryst. coord.)
         1           Sn  tau(   1) = (  0.0000000  0.0000000  0.0000000  )
         2           Sn  tau(   2) = (  0.2500000  0.2500000  0.2500000  )

     number of k points=   145  gaussian smearing, width (Ry)=  0.0001
                       cart. coord. in units 2pi/alat
        k(    1) = (   0.0000000   0.0000000   0.0000000), wk =   0.0002441
        k(    2) = (   0.0441942   0.0441942  -0.0441942), wk =   0.0019531
        k(    3) = (   0.0883883   0.0883883  -0.0883883), wk =   0.0019531
        k(    4) = (   0.1325825   0.1325825  -0.1325825), wk =   0.0019531
        k(    5) = (   0.1767767   0.1767767  -0.1767767), wk =   0.0019531
        k(    6) = (   0.2209709   0.2209709  -0.2209709), wk =   0.0019531
        k(    7) = (   0.2651650   0.2651650  -0.2651650), wk =   0.0019531
        k(    8) = (   0.3093592   0.3093592  -0.3093592), wk =   0.0019531
        k(    9) = (  -0.3535534  -0.3535534   0.3535534), wk =   0.0009766
        k(   10) = (   0.0883883   0.0000000   0.0000000), wk =   0.0014648
        k(   11) = (   0.1325825   0.0441942  -0.0441942), wk =   0.0058594
        k(   12) = (   0.1767767   0.0883883  -0.0883883), wk =   0.0058594
        k(   13) = (   0.2209709   0.1325825  -0.1325825), wk =   0.0058594
        k(   14) = (   0.2651650   0.1767767  -0.1767767), wk =   0.0058594
        k(   15) = (   0.3093592   0.2209709  -0.2209709), wk =   0.0058594
        k(   16) = (   0.3535534   0.2651650  -0.2651650), wk =   0.0058594
        k(   17) = (  -0.3093592  -0.3977476   0.3977476), wk =   0.0058594
        k(   18) = (  -0.2651650  -0.3535534   0.3535534), wk =   0.0058594
        k(   19) = (  -0.2209709  -0.3093592   0.3093592), wk =   0.0058594
        k(   20) = (  -0.1767767  -0.2651650   0.2651650), wk =   0.0058594
        k(   21) = (  -0.1325825  -0.2209709   0.2209709), wk =   0.0058594
        k(   22) = (  -0.0883883  -0.1767767   0.1767767), wk =   0.0058594
        k(   23) = (  -0.0441942  -0.1325825   0.1325825), wk =   0.0058594
        k(   24) = (   0.0000000  -0.0883883   0.0883883), wk =   0.0029297
        k(   25) = (   0.1767767   0.0000000   0.0000000), wk =   0.0014648
        k(   26) = (   0.2209709   0.0441942  -0.0441942), wk =   0.0058594
        k(   27) = (   0.2651650   0.0883883  -0.0883883), wk =   0.0058594
        k(   28) = (   0.3093592   0.1325825  -0.1325825), wk =   0.0058594
        k(   29) = (   0.3535534   0.1767767  -0.1767767), wk =   0.0058594
        k(   30) = (   0.3977476   0.2209709  -0.2209709), wk =   0.0058594
        k(   31) = (  -0.2651650  -0.4419417   0.4419417), wk =   0.0058594
        k(   32) = (  -0.2209709  -0.3977476   0.3977476), wk =   0.0058594
        k(   33) = (  -0.1767767  -0.3535534   0.3535534), wk =   0.0058594
        k(   34) = (  -0.1325825  -0.3093592   0.3093592), wk =   0.0058594
        k(   35) = (  -0.0883883  -0.2651650   0.2651650), wk =   0.0058594
        k(   36) = (  -0.0441942  -0.2209709   0.2209709), wk =   0.0058594
        k(   37) = (   0.0000000  -0.1767767   0.1767767), wk =   0.0029297
        k(   38) = (   0.2651650   0.0000000   0.0000000), wk =   0.0014648
        k(   39) = (   0.3093592   0.0441942  -0.0441942), wk =   0.0058594
        k(   40) = (   0.3535534   0.0883883  -0.0883883), wk =   0.0058594
        k(   41) = (   0.3977476   0.1325825  -0.1325825), wk =   0.0058594
        k(   42) = (   0.4419417   0.1767767  -0.1767767), wk =   0.0058594
        k(   43) = (  -0.2209709  -0.4861359   0.4861359), wk =   0.0058594
        k(   44) = (  -0.1767767  -0.4419417   0.4419417), wk =   0.0058594
        k(   45) = (  -0.1325825  -0.3977476   0.3977476), wk =   0.0058594
        k(   46) = (  -0.0883883  -0.3535534   0.3535534), wk =   0.0058594
        k(   47) = (  -0.0441942  -0.3093592   0.3093592), wk =   0.0058594
        k(   48) = (   0.0000000  -0.2651650   0.2651650), wk =   0.0029297
        k(   49) = (   0.3535534   0.0000000   0.0000000), wk =   0.0014648
        k(   50) = (   0.3977476   0.0441942  -0.0441942), wk =   0.0058594
        k(   51) = (   0.4419417   0.0883883  -0.0883883), wk =   0.0058594
        k(   52) = (   0.4861359   0.1325825  -0.1325825), wk =   0.0058594
        k(   53) = (  -0.1767767  -0.5303301   0.5303301), wk =   0.0058594
        k(   54) = (  -0.1325825  -0.4861359   0.4861359), wk =   0.0058594
        k(   55) = (  -0.0883883  -0.4419417   0.4419417), wk =   0.0058594
        k(   56) = (  -0.0441942  -0.3977476   0.3977476), wk =   0.0058594
        k(   57) = (   0.0000000  -0.3535534   0.3535534), wk =   0.0029297
        k(   58) = (   0.4419417   0.0000000   0.0000000), wk =   0.0014648
        k(   59) = (   0.4861359   0.0441942  -0.0441942), wk =   0.0058594
        k(   60) = (   0.5303301   0.0883883  -0.0883883), wk =   0.0058594
        k(   61) = (  -0.1325825  -0.5745243   0.5745243), wk =   0.0058594
        k(   62) = (  -0.0883883  -0.5303301   0.5303301), wk =   0.0058594
        k(   63) = (  -0.0441942  -0.4861359   0.4861359), wk =   0.0058594
        k(   64) = (   0.0000000  -0.4419417   0.4419417), wk =   0.0029297
        k(   65) = (   0.5303301   0.0000000   0.0000000), wk =   0.0014648
        k(   66) = (   0.5745243   0.0441942  -0.0441942), wk =   0.0058594
        k(   67) = (  -0.0883883  -0.6187184   0.6187184), wk =   0.0058594
        k(   68) = (  -0.0441942  -0.5745243   0.5745243), wk =   0.0058594
        k(   69) = (   0.0000000  -0.5303301   0.5303301), wk =   0.0029297
        k(   70) = (   0.6187184   0.0000000   0.0000000), wk =   0.0014648
        k(   71) = (  -0.0441942  -0.6629126   0.6629126), wk =   0.0058594
        k(   72) = (   0.0000000  -0.6187184   0.6187184), wk =   0.0029297
        k(   73) = (  -0.7071068   0.0000000   0.0000000), wk =   0.0007324
        k(   74) = (   0.1767767   0.0883883   0.0000000), wk =   0.0058594
        k(   75) = (   0.2209709   0.1325825  -0.0441942), wk =   0.0117188
        k(   76) = (   0.2651650   0.1767767  -0.0883883), wk =   0.0117188
        k(   77) = (   0.3093592   0.2209709  -0.1325825), wk =   0.0117188
        k(   78) = (   0.3535534   0.2651650  -0.1767767), wk =   0.0117188
        k(   79) = (  -0.3093592  -0.3977476   0.4861359), wk =   0.0117188
        k(   80) = (  -0.2651650  -0.3535534   0.4419417), wk =   0.0058594
        k(   81) = (   0.2651650   0.0883883   0.0000000), wk =   0.0058594
        k(   82) = (   0.3093592   0.1325825  -0.0441942), wk =   0.0117188
        k(   83) = (   0.3535534   0.1767767  -0.0883883), wk =   0.0117188
        k(   84) = (   0.3977476   0.2209709  -0.1325825), wk =   0.0117188
        k(   85) = (  -0.2651650  -0.4419417   0.5303301), wk =   0.0117188
        k(   86) = (  -0.2209709  -0.3977476   0.4861359), wk =   0.0117188
        k(   87) = (  -0.1767767  -0.3535534   0.4419417), wk =   0.0117188
        k(   88) = (  -0.1325825  -0.3093592   0.3977476), wk =   0.0117188
        k(   89) = (  -0.0883883  -0.2651650   0.3535534), wk =   0.0117188
        k(   90) = (  -0.0441942  -0.2209709   0.3093592), wk =   0.0117188
        k(   91) = (   0.0000000  -0.1767767   0.2651650), wk =   0.0058594
        k(   92) = (   0.3535534   0.0883883   0.0000000), wk =   0.0058594
        k(   93) = (   0.3977476   0.1325825  -0.0441942), wk =   0.0117188
        k(   94) = (   0.4419417   0.1767767  -0.0883883), wk =   0.0117188
        k(   95) = (  -0.2209709  -0.4861359   0.5745243), wk =   0.0117188
        k(   96) = (  -0.1767767  -0.4419417   0.5303301), wk =   0.0117188
        k(   97) = (  -0.1325825  -0.3977476   0.4861359), wk =   0.0117188
        k(   98) = (  -0.0883883  -0.3535534   0.4419417), wk =   0.0117188
        k(   99) = (  -0.0441942  -0.3093592   0.3977476), wk =   0.0117188
        k(  100) = (   0.0000000  -0.2651650   0.3535534), wk =   0.0058594
        k(  101) = (   0.4419417   0.0883883   0.0000000), wk =   0.0058594
        k(  102) = (   0.4861359   0.1325825  -0.0441942), wk =   0.0117188
        k(  103) = (  -0.1767767  -0.5303301   0.6187184), wk =   0.0117188
        k(  104) = (  -0.1325825  -0.4861359   0.5745243), wk =   0.0117188
        k(  105) = (  -0.0883883  -0.4419417   0.5303301), wk =   0.0117188
        k(  106) = (  -0.0441942  -0.3977476   0.4861359), wk =   0.0117188
        k(  107) = (   0.0000000  -0.3535534   0.4419417), wk =   0.0058594
        k(  108) = (   0.5303301   0.0883883   0.0000000), wk =   0.0058594
        k(  109) = (  -0.1325825  -0.5745243   0.6629126), wk =   0.0117188
        k(  110) = (  -0.0883883  -0.5303301   0.6187184), wk =   0.0117188
        k(  111) = (  -0.0441942  -0.4861359   0.5745243), wk =   0.0117188
        k(  112) = (   0.0000000  -0.4419417   0.5303301), wk =   0.0058594
        k(  113) = (  -0.0883883  -0.6187184   0.7071068), wk =   0.0058594
        k(  114) = (  -0.0441942  -0.5745243   0.6629126), wk =   0.0117188
        k(  115) = (  -0.0000000  -0.5303301   0.6187184), wk =   0.0058594
        k(  116) = (  -0.7071068   0.0883883   0.0000000), wk =   0.0029297
        k(  117) = (   0.3535534   0.1767767   0.0000000), wk =   0.0058594
        k(  118) = (   0.3977476   0.2209709  -0.0441942), wk =   0.0117188
        k(  119) = (  -0.2651650  -0.4419417   0.6187184), wk =   0.0117188
        k(  120) = (  -0.2209709  -0.3977476   0.5745243), wk =   0.0117188
        k(  121) = (  -0.1767767  -0.3535534   0.5303301), wk =   0.0058594
        k(  122) = (   0.4419417   0.1767767   0.0000000), wk =   0.0058594
        k(  123) = (  -0.2209709  -0.4861359   0.6629126), wk =   0.0117188
        k(  124) = (  -0.1767767  -0.4419417   0.6187184), wk =   0.0117188
        k(  125) = (  -0.1325825  -0.3977476   0.5745243), wk =   0.0117188
        k(  126) = (  -0.0883883  -0.3535534   0.5303301), wk =   0.0117188
        k(  127) = (  -0.0441942  -0.3093592   0.4861359), wk =   0.0117188
        k(  128) = (   0.0000000  -0.2651650   0.4419417), wk =   0.0058594
        k(  129) = (  -0.1767767  -0.5303301   0.7071068), wk =   0.0058594
        k(  130) = (  -0.1325825  -0.4861359   0.6629126), wk =   0.0117188
        k(  131) = (  -0.0883883  -0.4419417   0.6187184), wk =   0.0117188
        k(  132) = (  -0.0441942  -0.3977476   0.5745243), wk =   0.0117188
        k(  133) = (   0.0000000  -0.3535534   0.5303301), wk =   0.0058594
        k(  134) = (  -0.0883883  -0.5303301   0.7071068), wk =   0.0058594
        k(  135) = (  -0.0441942  -0.4861359   0.6629126), wk =   0.0117188
        k(  136) = (   0.0000000  -0.4419417   0.6187184), wk =   0.0058594
        k(  137) = (  -0.7071068   0.1767767   0.0000000), wk =   0.0029297
        k(  138) = (  -0.1767767  -0.4419417   0.7071068), wk =   0.0058594
        k(  139) = (  -0.1325825  -0.3977476   0.6629126), wk =   0.0117188
        k(  140) = (  -0.0883883  -0.3535534   0.6187184), wk =   0.0058594
        k(  141) = (  -0.0883883  -0.4419417   0.7071068), wk =   0.0058594
        k(  142) = (  -0.0441942  -0.3977476   0.6629126), wk =   0.0117188
        k(  143) = (  -0.0000000  -0.3535534   0.6187184), wk =   0.0058594
        k(  144) = (  -0.7071068   0.2651650   0.0000000), wk =   0.0029297
        k(  145) = (  -0.7071068   0.3535534   0.0000000), wk =   0.0014648

                       cryst. coord.
        k(    1) = (   0.0000000   0.0000000   0.0000000), wk =   0.0002441
        k(    2) = (   0.0000000   0.0000000   0.0625000), wk =   0.0019531
        k(    3) = (   0.0000000   0.0000000   0.1250000), wk =   0.0019531
        k(    4) = (   0.0000000   0.0000000   0.1875000), wk =   0.0019531
        k(    5) = (   0.0000000   0.0000000   0.2500000), wk =   0.0019531
        k(    6) = (   0.0000000   0.0000000   0.3125000), wk =   0.0019531
        k(    7) = (   0.0000000   0.0000000   0.3750000), wk =   0.0019531
        k(    8) = (   0.0000000   0.0000000   0.4375000), wk =   0.0019531
        k(    9) = (   0.0000000   0.0000000  -0.5000000), wk =   0.0009766
        k(   10) = (   0.0000000   0.0625000   0.0625000), wk =   0.0014648
        k(   11) = (   0.0000000   0.0625000   0.1250000), wk =   0.0058594
        k(   12) = (   0.0000000   0.0625000   0.1875000), wk =   0.0058594
        k(   13) = (   0.0000000   0.0625000   0.2500000), wk =   0.0058594
        k(   14) = (   0.0000000   0.0625000   0.3125000), wk =   0.0058594
        k(   15) = (   0.0000000   0.0625000   0.3750000), wk =   0.0058594
        k(   16) = (   0.0000000   0.0625000   0.4375000), wk =   0.0058594
        k(   17) = (   0.0000000   0.0625000  -0.5000000), wk =   0.0058594
        k(   18) = (   0.0000000   0.0625000  -0.4375000), wk =   0.0058594
        k(   19) = (   0.0000000   0.0625000  -0.3750000), wk =   0.0058594
        k(   20) = (   0.0000000   0.0625000  -0.3125000), wk =   0.0058594
        k(   21) = (   0.0000000   0.0625000  -0.2500000), wk =   0.0058594
        k(   22) = (   0.0000000   0.0625000  -0.1875000), wk =   0.0058594
        k(   23) = (   0.0000000   0.0625000  -0.1250000), wk =   0.0058594
        k(   24) = (   0.0000000   0.0625000  -0.0625000), wk =   0.0029297
        k(   25) = (   0.0000000   0.1250000   0.1250000), wk =   0.0014648
        k(   26) = (   0.0000000   0.1250000   0.1875000), wk =   0.0058594
        k(   27) = (   0.0000000   0.1250000   0.2500000), wk =   0.0058594
        k(   28) = (   0.0000000   0.1250000   0.3125000), wk =   0.0058594
        k(   29) = (   0.0000000   0.1250000   0.3750000), wk =   0.0058594
        k(   30) = (   0.0000000   0.1250000   0.4375000), wk =   0.0058594
        k(   31) = (   0.0000000   0.1250000  -0.5000000), wk =   0.0058594
        k(   32) = (   0.0000000   0.1250000  -0.4375000), wk =   0.0058594
        k(   33) = (   0.0000000   0.1250000  -0.3750000), wk =   0.0058594
        k(   34) = (   0.0000000   0.1250000  -0.3125000), wk =   0.0058594
        k(   35) = (   0.0000000   0.1250000  -0.2500000), wk =   0.0058594
        k(   36) = (   0.0000000   0.1250000  -0.1875000), wk =   0.0058594
        k(   37) = (   0.0000000   0.1250000  -0.1250000), wk =   0.0029297
        k(   38) = (   0.0000000   0.1875000   0.1875000), wk =   0.0014648
        k(   39) = (   0.0000000   0.1875000   0.2500000), wk =   0.0058594
        k(   40) = (   0.0000000   0.1875000   0.3125000), wk =   0.0058594
        k(   41) = (   0.0000000   0.1875000   0.3750000), wk =   0.0058594
        k(   42) = (   0.0000000   0.1875000   0.4375000), wk =   0.0058594
        k(   43) = (   0.0000000   0.1875000  -0.5000000), wk =   0.0058594
        k(   44) = (   0.0000000   0.1875000  -0.4375000), wk =   0.0058594
        k(   45) = (   0.0000000   0.1875000  -0.3750000), wk =   0.0058594
        k(   46) = (   0.0000000   0.1875000  -0.3125000), wk =   0.0058594
        k(   47) = (   0.0000000   0.1875000  -0.2500000), wk =   0.0058594
        k(   48) = (   0.0000000   0.1875000  -0.1875000), wk =   0.0029297
        k(   49) = (   0.0000000   0.2500000   0.2500000), wk =   0.0014648
        k(   50) = (   0.0000000   0.2500000   0.3125000), wk =   0.0058594
        k(   51) = (   0.0000000   0.2500000   0.3750000), wk =   0.0058594
        k(   52) = (   0.0000000   0.2500000   0.4375000), wk =   0.0058594
        k(   53) = (   0.0000000   0.2500000  -0.5000000), wk =   0.0058594
        k(   54) = (   0.0000000   0.2500000  -0.4375000), wk =   0.0058594
        k(   55) = (   0.0000000   0.2500000  -0.3750000), wk =   0.0058594
        k(   56) = (   0.0000000   0.2500000  -0.3125000), wk =   0.0058594
        k(   57) = (   0.0000000   0.2500000  -0.2500000), wk =   0.0029297
        k(   58) = (   0.0000000   0.3125000   0.3125000), wk =   0.0014648
        k(   59) = (   0.0000000   0.3125000   0.3750000), wk =   0.0058594
        k(   60) = (   0.0000000   0.3125000   0.4375000), wk =   0.0058594
        k(   61) = (   0.0000000   0.3125000  -0.5000000), wk =   0.0058594
        k(   62) = (   0.0000000   0.3125000  -0.4375000), wk =   0.0058594
        k(   63) = (   0.0000000   0.3125000  -0.3750000), wk =   0.0058594
        k(   64) = (   0.0000000   0.3125000  -0.3125000), wk =   0.0029297
        k(   65) = (   0.0000000   0.3750000   0.3750000), wk =   0.0014648
        k(   66) = (   0.0000000   0.3750000   0.4375000), wk =   0.0058594
        k(   67) = (   0.0000000   0.3750000  -0.5000000), wk =   0.0058594
        k(   68) = (   0.0000000   0.3750000  -0.4375000), wk =   0.0058594
        k(   69) = (   0.0000000   0.3750000  -0.3750000), wk =   0.0029297
        k(   70) = (   0.0000000   0.4375000   0.4375000), wk =   0.0014648
        k(   71) = (   0.0000000   0.4375000  -0.5000000), wk =   0.0058594
        k(   72) = (   0.0000000   0.4375000  -0.4375000), wk =   0.0029297
        k(   73) = (   0.0000000  -0.5000000  -0.5000000), wk =   0.0007324
        k(   74) = (   0.0625000   0.1250000   0.1875000), wk =   0.0058594
        k(   75) = (   0.0625000   0.1250000   0.2500000), wk =   0.0117188
        k(   76) = (   0.0625000   0.1250000   0.3125000), wk =   0.0117188
        k(   77) = (   0.0625000   0.1250000   0.3750000), wk =   0.0117188
        k(   78) = (   0.0625000   0.1250000   0.4375000), wk =   0.0117188
        k(   79) = (   0.0625000   0.1250000  -0.5000000), wk =   0.0117188
        k(   80) = (   0.0625000   0.1250000  -0.4375000), wk =   0.0058594
        k(   81) = (   0.0625000   0.1875000   0.2500000), wk =   0.0058594
        k(   82) = (   0.0625000   0.1875000   0.3125000), wk =   0.0117188
        k(   83) = (   0.0625000   0.1875000   0.3750000), wk =   0.0117188
        k(   84) = (   0.0625000   0.1875000   0.4375000), wk =   0.0117188
        k(   85) = (   0.0625000   0.1875000  -0.5000000), wk =   0.0117188
        k(   86) = (   0.0625000   0.1875000  -0.4375000), wk =   0.0117188
        k(   87) = (   0.0625000   0.1875000  -0.3750000), wk =   0.0117188
        k(   88) = (   0.0625000   0.1875000  -0.3125000), wk =   0.0117188
        k(   89) = (   0.0625000   0.1875000  -0.2500000), wk =   0.0117188
        k(   90) = (   0.0625000   0.1875000  -0.1875000), wk =   0.0117188
        k(   91) = (   0.0625000   0.1875000  -0.1250000), wk =   0.0058594
        k(   92) = (   0.0625000   0.2500000   0.3125000), wk =   0.0058594
        k(   93) = (   0.0625000   0.2500000   0.3750000), wk =   0.0117188
        k(   94) = (   0.0625000   0.2500000   0.4375000), wk =   0.0117188
        k(   95) = (   0.0625000   0.2500000  -0.5000000), wk =   0.0117188
        k(   96) = (   0.0625000   0.2500000  -0.4375000), wk =   0.0117188
        k(   97) = (   0.0625000   0.2500000  -0.3750000), wk =   0.0117188
        k(   98) = (   0.0625000   0.2500000  -0.3125000), wk =   0.0117188
        k(   99) = (   0.0625000   0.2500000  -0.2500000), wk =   0.0117188
        k(  100) = (   0.0625000   0.2500000  -0.1875000), wk =   0.0058594
        k(  101) = (   0.0625000   0.3125000   0.3750000), wk =   0.0058594
        k(  102) = (   0.0625000   0.3125000   0.4375000), wk =   0.0117188
        k(  103) = (   0.0625000   0.3125000  -0.5000000), wk =   0.0117188
        k(  104) = (   0.0625000   0.3125000  -0.4375000), wk =   0.0117188
        k(  105) = (   0.0625000   0.3125000  -0.3750000), wk =   0.0117188
        k(  106) = (   0.0625000   0.3125000  -0.3125000), wk =   0.0117188
        k(  107) = (   0.0625000   0.3125000  -0.2500000), wk =   0.0058594
        k(  108) = (   0.0625000   0.3750000   0.4375000), wk =   0.0058594
        k(  109) = (   0.0625000   0.3750000  -0.5000000), wk =   0.0117188
        k(  110) = (   0.0625000   0.3750000  -0.4375000), wk =   0.0117188
        k(  111) = (   0.0625000   0.3750000  -0.3750000), wk =   0.0117188
        k(  112) = (   0.0625000   0.3750000  -0.3125000), wk =   0.0058594
        k(  113) = (   0.0625000   0.4375000  -0.5000000), wk =   0.0058594
        k(  114) = (   0.0625000   0.4375000  -0.4375000), wk =   0.0117188
        k(  115) = (   0.0625000   0.4375000  -0.3750000), wk =   0.0058594
        k(  116) = (   0.0625000  -0.5000000  -0.4375000), wk =   0.0029297
        k(  117) = (   0.1250000   0.2500000   0.3750000), wk =   0.0058594
        k(  118) = (   0.1250000   0.2500000   0.4375000), wk =   0.0117188
        k(  119) = (   0.1250000   0.2500000  -0.5000000), wk =   0.0117188
        k(  120) = (   0.1250000   0.2500000  -0.4375000), wk =   0.0117188
        k(  121) = (   0.1250000   0.2500000  -0.3750000), wk =   0.0058594
        k(  122) = (   0.1250000   0.3125000   0.4375000), wk =   0.0058594
        k(  123) = (   0.1250000   0.3125000  -0.5000000), wk =   0.0117188
        k(  124) = (   0.1250000   0.3125000  -0.4375000), wk =   0.0117188
        k(  125) = (   0.1250000   0.3125000  -0.3750000), wk =   0.0117188
        k(  126) = (   0.1250000   0.3125000  -0.3125000), wk =   0.0117188
        k(  127) = (   0.1250000   0.3125000  -0.2500000), wk =   0.0117188
        k(  128) = (   0.1250000   0.3125000  -0.1875000), wk =   0.0058594
        k(  129) = (   0.1250000   0.3750000  -0.5000000), wk =   0.0058594
        k(  130) = (   0.1250000   0.3750000  -0.4375000), wk =   0.0117188
        k(  131) = (   0.1250000   0.3750000  -0.3750000), wk =   0.0117188
        k(  132) = (   0.1250000   0.3750000  -0.3125000), wk =   0.0117188
        k(  133) = (   0.1250000   0.3750000  -0.2500000), wk =   0.0058594
        k(  134) = (   0.1250000   0.4375000  -0.4375000), wk =   0.0058594
        k(  135) = (   0.1250000   0.4375000  -0.3750000), wk =   0.0117188
        k(  136) = (   0.1250000   0.4375000  -0.3125000), wk =   0.0058594
        k(  137) = (   0.1250000  -0.5000000  -0.3750000), wk =   0.0029297
        k(  138) = (   0.1875000   0.3750000  -0.4375000), wk =   0.0058594
        k(  139) = (   0.1875000   0.3750000  -0.3750000), wk =   0.0117188
        k(  140) = (   0.1875000   0.3750000  -0.3125000), wk =   0.0058594
        k(  141) = (   0.1875000   0.4375000  -0.3750000), wk =   0.0058594
        k(  142) = (   0.1875000   0.4375000  -0.3125000), wk =   0.0117188
        k(  143) = (   0.1875000   0.4375000  -0.2500000), wk =   0.0058594
        k(  144) = (   0.1875000  -0.5000000  -0.3125000), wk =   0.0029297
        k(  145) = (   0.2500000  -0.5000000  -0.2500000), wk =   0.0014648

     Dense  grid:    27581 G-vectors     FFT dimensions: (  45,  45,  45)

     Largest allocated arrays     est. size (Mb)     dimensions
        Kohn-Sham Wavefunctions         0.24 Mb     (     446,   36)
        NL pseudopotentials             0.23 Mb     (     223,   68)
        Each V/rho on FFT grid          0.09 Mb     (    6075)
        Each G-vector array             0.01 Mb     (    1725)
        G-vector shells                 0.00 Mb     (     281)
     Largest temporary arrays     est. size (Mb)     dimensions
        Auxiliary wavefunctions         0.98 Mb     (     446,  144)
        Each subspace H/S matrix        0.32 Mb     (     144,  144)
        Each <psi_i|beta_j> matrix      0.07 Mb     (      68,   2,   36)
        Arrays for rho mixing           0.74 Mb     (    6075,    8)

     Check: negative/imaginary core charge=   -0.000002    0.000000

     Initial potential from superposition of free atoms

     starting charge   27.99781, renormalised to   28.00000
     Starting wfc are   36 randomized atomic wfcs

     total cpu time spent up to now is        5.3 secs

     Self-consistent Calculation

     iteration #  1     ecut=    55.00 Ry     beta=0.70
     Davidson diagonalization with overlap
     ethr =  1.00E-02,  avg # of iterations =  3.4

     Threshold (ethr) on eigenvalues was too large:
     Diagonalizing with lowered threshold

     Davidson diagonalization with overlap
     ethr =  5.73E-05,  avg # of iterations =  3.4

     total cpu time spent up to now is       36.5 secs

     total energy              =    -325.83965936 Ry
     Harris-Foulkes estimate   =    -325.84156301 Ry
     estimated scf accuracy    <       0.01903064 Ry

     iteration #  2     ecut=    55.00 Ry     beta=0.70
     Davidson diagonalization with overlap
     ethr =  6.80E-05,  avg # of iterations =  1.0

     total cpu time spent up to now is       48.3 secs

     total energy              =    -325.84026269 Ry
     Harris-Foulkes estimate   =    -325.84036702 Ry
     estimated scf accuracy    <       0.00153463 Ry

     iteration #  3     ecut=    55.00 Ry     beta=0.70
     Davidson diagonalization with overlap
     ethr =  5.48E-06,  avg # of iterations =  2.2

     total cpu time spent up to now is       64.2 secs

     total energy              =    -325.84048695 Ry
     Harris-Foulkes estimate   =    -325.84053056 Ry
     estimated scf accuracy    <       0.00008925 Ry

     iteration #  4     ecut=    55.00 Ry     beta=0.70
     Davidson diagonalization with overlap
     ethr =  3.19E-07,  avg # of iterations =  2.0

     total cpu time spent up to now is       79.1 secs

     total energy              =    -325.84050896 Ry
     Harris-Foulkes estimate   =    -325.84050701 Ry
     estimated scf accuracy    <       0.00000295 Ry

     iteration #  5     ecut=    55.00 Ry     beta=0.70
     Davidson diagonalization with overlap
     ethr =  1.05E-08,  avg # of iterations =  2.0

     total cpu time spent up to now is       92.3 secs

     End of self-consistent calculation

          k = 0.0000 0.0000 0.0000 (  3479 PWs)   bands (ev):

   -15.1206 -15.1206 -15.1206 -15.1206 -15.0401 -15.0401 -15.0401 -15.0401
   -14.1946 -14.1946 -14.0253 -14.0253 -14.0253 -14.0253 -13.9887 -13.9887
   -13.9887 -13.9887 -13.8843 -13.8843  -3.1692  -3.1692   5.7264   5.7264
     6.5521   6.5521   7.2005   7.2005   7.2005   7.2005   8.7345   8.7345
     9.2045   9.2045   9.2045   9.2045

     occupation numbers 
     1.0000   1.0000   1.0000   1.0000   1.0000   1.0000   1.0000   1.0000
     1.0000   1.0000   1.0000   1.0000   1.0000   1.0000   1.0000   1.0000
     1.0000   1.0000   1.0000   1.0000   1.0000   1.0000   1.0000   1.0000
     1.0000   1.0000   0.0000   0.0000   0.0000   0.0000   0.0000   0.0000
     0.0000   0.0000   0.0000   0.0000

          k = 0.0442 0.0442-0.0442 (  3467 PWs)   bands (ev):

   -15.1209 -15.1209 -15.1198 -15.1198 -15.0406 -15.0406 -15.0395 -15.0395
   -14.1928 -14.1928 -14.0302 -14.0302 -14.0284 -14.0284 -13.9851 -13.9851
   -13.9842 -13.9842 -13.8851 -13.8851  -3.1344  -3.1344   5.3174   5.3174
     6.5983   6.5983   7.1257   7.1257   7.2620   7.2620   8.8915   8.8915
     9.2873   9.2873   9.3015   9.3015

     occupation numbers 
     1.0000   1.0000   1.0000   1.0000   1.0000   1.0000   1.0000   1.0000
     1.0000   1.0000   1.0000   1.0000   1.0000   1.0000   1.0000   1.0000
     1.0000   1.0000   1.0000   1.0000   1.0000   1.0000   1.0000   1.0000
     1.0000   1.0000   0.0000   0.0000   0.0000   0.0000   0.0000   0.0000
     0.0000   0.0000   0.0000   0.0000

          k = 0.0884 0.0884-0.0884 (  3467 PWs)   bands (ev):

   -15.1220 -15.1220 -15.1175 -15.1175 -15.0429 -15.0429 -15.0379 -15.0379
   -14.1876 -14.1876 -14.0415 -14.0415 -14.0356 -14.0356 -13.9774 -13.9774
   -13.9751 -13.9751 -13.8878 -13.8878  -3.0309  -3.0309   4.5544   4.5544
     6.4915   6.4915   6.9438   6.9438   7.3096   7.3096   9.2180   9.2180
     9.5387   9.5387   9.6422   9.6422

     occupation numbers 
     1.0000   1.0000   1.0000   1.0000   1.0000   1.0000   1.0000   1.0000
     1.0000   1.0000   1.0000   1.0000   1.0000   1.0000   1.0000   1.0000
     1.0000   1.0000   1.0000   1.0000   1.0000   1.0000   1.0000   1.0000
     1.0000   1.0000   1.0000   1.0000   0.0000   0.0000   0.0000   0.0000
     0.0000   0.0000   0.0000   0.0000

          k = 0.1326 0.1326-0.1326 (  3467 PWs)   bands (ev):

   -15.1234 -15.1234 -15.1137 -15.1137 -15.0466 -15.0466 -15.0359 -15.0359
   -14.1795 -14.1795 -14.0546 -14.0546 -14.0436 -14.0436 -13.9684 -13.9684
   -13.9651 -13.9651 -13.8923 -13.8923  -2.8617  -2.8617   3.7263   3.7263
     6.2959   6.2959   6.7255   6.7255   7.2313   7.2313   9.5044   9.5044
     9.8131   9.8131  10.3103  10.3103

     occupation numbers 
     1.0000   1.0000   1.0000   1.0000   1.0000   1.0000   1.0000   1.0000
     1.0000   1.0000   1.0000   1.0000   1.0000   1.0000   1.0000   1.0000
     1.0000   1.0000   1.0000   1.0000   1.0000   1.0000   1.0000   1.0000
     1.0000   1.0000   1.0000   1.0000   0.0000   0.0000   0.0000   0.0000
     0.0000   0.0000   0.0000   0.0000

          k = 0.1768 0.1768-0.1768 (  3455 PWs)   bands (ev):

   -15.1249 -15.1249 -15.1086 -15.1086 -15.0512 -15.0512 -15.0337 -15.0337
   -14.1690 -14.1690 -14.0679 -14.0679 -14.0511 -14.0511 -13.9598 -13.9598
   -13.9555 -13.9555 -13.8978 -13.8978  -2.6330  -2.6330   2.9163   2.9163
     6.0957   6.0957   6.5165   6.5165   7.0928   7.0928   9.7365   9.7365
    10.0356  10.0356  11.1187  11.1187

     occupation numbers 
     1.0000   1.0000   1.0000   1.0000   1.0000   1.0000   1.0000   1.0000
     1.0000   1.0000   1.0000   1.0000   1.0000   1.0000   1.0000   1.0000
     1.0000   1.0000   1.0000   1.0000   1.0000   1.0000   1.0000   1.0000
     1.0000   1.0000   1.0000   1.0000   0.0000   0.0000   0.0000   0.0000
     0.0000   0.0000   0.0000   0.0000

          k = 0.2210 0.2210-0.2210 (  3446 PWs)   bands (ev):

   -15.1263 -15.1263 -15.1030 -15.1030 -15.0564 -15.0564 -15.0314 -15.0314
   -14.1572 -14.1572 -14.0811 -14.0811 -14.0573 -14.0573 -13.9524 -13.9524
   -13.9470 -13.9470 -13.9042 -13.9042  -2.3580  -2.3580   2.1692   2.1692
     5.9237   5.9237   6.3404   6.3404   6.9539   6.9539   9.8867   9.8867
    10.1617  10.1617  11.9797  11.9797

     occupation numbers 
     1.0000   1.0000   1.0000   1.0000   1.0000   1.0000   1.0000   1.0000
     1.0000   1.0000   1.0000   1.0000   1.0000   1.0000   1.0000   1.0000
     1.0000   1.0000   1.0000   1.0000   1.0000   1.0000   1.0000   1.0000
     1.0000   1.0000   1.0000   1.0000   0.1250   0.1250   0.0000   0.0000
     0.0000   0.0000   0.0000   0.0000

          k = 0.2652 0.2652-0.2652 (  3452 PWs)   bands (ev):

   -15.1274 -15.1274 -15.0969 -15.0969 -15.0625 -15.0625 -15.0298 -15.0298
   -14.1449 -14.1449 -14.0938 -14.0938 -14.0620 -14.0620 -13.9470 -13.9470
   -13.9394 -13.9394 -13.9112 -13.9112  -2.0646  -2.0646   1.5298   1.5298
     5.7943   5.7943   6.2090   6.2090   6.8433   6.8433   9.9571   9.9571
    10.2050  10.2050  12.6356  12.6356

     occupation numbers 
     1.0000   1.0000   1.0000   1.0000   1.0000   1.0000   1.0000   1.0000
     1.0000   1.0000   1.0000   1.0000   1.0000   1.0000   1.0000   1.0000
     1.0000   1.0000   1.0000   1.0000   1.0000   1.0000   1.0000   1.0000
     1.0000   1.0000   1.0000   1.0000   1.0000   1.0000   0.0000   0.0000
     0.0000   0.0000   0.0000   0.0000

          k = 0.3094 0.3094-0.3094 (  3444 PWs)   bands (ev):

   -15.1281 -15.1281 -15.0914 -15.0914 -15.0675 -15.0675 -15.0288 -15.0288
   -14.1328 -14.1328 -14.1056 -14.1056 -14.0647 -14.0647 -13.9437 -13.9437
   -13.9322 -13.9322 -13.9180 -13.9180  -1.8129  -1.8129   1.0674   1.0674
     5.7146   5.7146   6.1283   6.1283   6.7737   6.7737   9.9793   9.9794
    10.2082  10.2082  12.6601  12.6601

     occupation numbers 
     1.0000   1.0000   1.0000   1.0000   1.0000   1.0000   1.0000   1.0000
     1.0000   1.0000   1.0000   1.0000   1.0000   1.0000   1.0000   1.0000
     1.0000   1.0000   1.0000   1.0000   1.0000   1.0000   1.0000   1.0000
     1.0000   1.0000   1.0000   1.0000   1.0000   1.0000   0.0000   0.0000
     0.0000   0.0000   0.0000   0.0000

          k =-0.3536-0.3536 0.3536 (  3444 PWs)   bands (ev):

   -15.1284 -15.1284 -15.0889 -15.0889 -15.0701 -15.0701 -15.0282 -15.0282
   -14.1247 -14.1247 -14.1138 -14.1138 -14.0658 -14.0658 -13.9422 -13.9422
   -13.9270 -13.9270 -13.9231 -13.9231  -1.7065  -1.7065   0.8902   0.8902
     5.6877   5.6877   6.1011   6.1011   6.7500   6.7500   9.9831   9.9831
    10.2054  10.2054  12.6351  12.6351

     occupation numbers 
     1.0000   1.0000   1.0000   1.0000   1.0000   1.0000   1.0000   1.0000
     1.0000   1.0000   1.0000   1.0000   1.0000   1.0000   1.0000   1.0000
     1.0000   1.0000   1.0000   1.0000   1.0000   1.0000   1.0000   1.0000
     1.0000   1.0000   1.0000   1.0000   1.0000   1.0000   0.0000   0.0000
     0.0000   0.0000   0.0000   0.0000

          k = 0.0884 0.0000 0.0000 (  3471 PWs)   bands (ev):

   -15.1207 -15.1207 -15.1200 -15.1200 -15.0405 -15.0405 -15.0396 -15.0396
   -14.1923 -14.1923 -14.0328 -14.0328 -14.0282 -14.0282 -13.9846 -13.9846
   -13.9828 -13.9828 -13.8854 -13.8854  -3.1228  -3.1228   5.2368   5.2368
     6.5310   6.5310   6.9453   6.9453   7.5189   7.5189   8.8092   8.8092
     9.3007   9.3007   9.4354   9.4354

     occupation numbers 
     1.0000   1.0000   1.0000   1.0000   1.0000   1.0000   1.0000   1.0000
     1.0000   1.0000   1.0000   1.0000   1.0000   1.0000   1.0000   1.0000
     1.0000   1.0000   1.0000   1.0000   1.0000   1.0000   1.0000   1.0000
     1.0000   1.0000   1.0000   1.0000   0.0000   0.0000   0.0000   0.0000
     0.0000   0.0000   0.0000   0.0000

          k = 0.1326 0.0442-0.0442 (  3461 PWs)   bands (ev):

   -15.1214 -15.1214 -15.1182 -15.1182 -15.0422 -15.0422 -15.0384 -15.0384
   -14.1882 -14.1882 -14.0416 -14.0416 -14.0332 -14.0332 -13.9791 -13.9791
   -13.9753 -13.9753 -13.8874 -13.8874  -3.0420  -3.0420   4.6712   4.6712
     6.3916   6.3916   6.7347   6.7347   7.7221   7.7221   8.8762   8.8762
     9.5867   9.5867   9.7369   9.7369

     occupation numbers 
     1.0000   1.0000   1.0000   1.0000   1.0000   1.0000   1.0000   1.0000
     1.0000   1.0000   1.0000   1.0000   1.0000   1.0000   1.0000   1.0000
     1.0000   1.0000   1.0000   1.0000   1.0000   1.0000   1.0000   1.0000
     1.0000   1.0000   1.0000   1.0000   0.0000   0.0000   0.0000   0.0000
     0.0000   0.0000   0.0000   0.0000

          k = 0.1768 0.0884-0.0884 (  3472 PWs)   bands (ev):

   -15.1228 -15.1228 -15.1149 -15.1149 -15.0457 -15.0457 -15.0366 -15.0366
   -14.1811 -14.1811 -14.0535 -14.0535 -14.0406 -14.0406 -13.9724 -13.9724
   -13.9651 -13.9651 -13.8912 -13.8912  -2.8943  -2.8943   3.9189   3.9189
     6.1869   6.1869   6.5164   6.5164   7.7177   7.7177   9.1193   9.1193
     9.9200   9.9200  10.2494  10.2494

     occupation numbers 
     1.0000   1.0000   1.0000   1.0000   1.0000   1.0000   1.0000   1.0000
     1.0000   1.0000   1.0000   1.0000   1.0000   1.0000   1.0000   1.0000
     1.0000   1.0000   1.0000   1.0000   1.0000   1.0000   1.0000   1.0000
     1.0000   1.0000   1.0000   1.0000   0.0000   0.0000   0.0000   0.0000
     0.0000   0.0000   0.0000   0.0000

          k = 0.2210 0.1326-0.1326 (  3455 PWs)   bands (ev):

   -15.1243 -15.1243 -15.1103 -15.1103 -15.0497 -15.0497 -15.0342 -15.0342
   -14.1714 -14.1714 -14.0661 -14.0661 -14.0478 -14.0478 -13.9656 -13.9656
   -13.9548 -13.9548 -13.8959 -13.8959  -2.6844  -2.6844   3.1323   3.1323
     5.9712   5.9712   6.2987   6.2987   7.6009   7.6009   9.4244   9.4244
    10.1750  10.1750  10.8870  10.8870

     occupation numbers 
     1.0000   1.0000   1.0000   1.0000   1.0000   1.0000   1.0000   1.0000
     1.0000   1.0000   1.0000   1.0000   1.0000   1.0000   1.0000   1.0000
     1.0000   1.0000   1.0000   1.0000   1.0000   1.0000   1.0000   1.0000
     1.0000   1.0000   1.0000   1.0000   0.0000   0.0000   0.0000   0.0000
     0.0000   0.0000   0.0000   0.0000

          k = 0.2652 0.1768-0.1768 (  3458 PWs)   bands (ev):

   -15.1259 -15.1259 -15.1049 -15.1049 -15.0550 -15.0550 -15.0320 -15.0320
   -14.1602 -14.1602 -14.0786 -14.0786 -14.0544 -14.0544 -13.9598 -13.9598
   -13.9456 -13.9456 -13.9016 -13.9016  -2.4227  -2.4227   2.3796   2.3796
     5.7765   5.7765   6.1125   6.1125   7.4576   7.4576   9.6782   9.6782
    10.3155  10.3155  11.5627  11.5628

     occupation numbers 
     1.0000   1.0000   1.0000   1.0000   1.0000   1.0000   1.0000   1.0000
     1.0000   1.0000   1.0000   1.0000   1.0000   1.0000   1.0000   1.0000
     1.0000   1.0000   1.0000   1.0000   1.0000   1.0000   1.0000   1.0000
     1.0000   1.0000   1.0000   1.0000   0.0000   0.0000   0.0000   0.0000
     0.0000   0.0000   0.0000   0.0000

          k = 0.3094 0.2210-0.2210 (  3454 PWs)   bands (ev):

   -15.1270 -15.1270 -15.0988 -15.0988 -15.0608 -15.0608 -15.0301 -15.0301
   -14.1481 -14.1481 -14.0906 -14.0906 -14.0597 -14.0597 -13.9550 -13.9550
   -13.9378 -13.9378 -13.9073 -13.9073  -2.1306  -2.1306   1.7099   1.7099
     5.6162   5.6162   5.9779   5.9779   7.3300   7.3300   9.8352   9.8352
    10.3480  10.3480  12.2265  12.2265

     occupation numbers 
     1.0000   1.0000   1.0000   1.0000   1.0000   1.0000   1.0000   1.0000
     1.0000   1.0000   1.0000   1.0000   1.0000   1.0000   1.0000   1.0000
     1.0000   1.0000   1.0000   1.0000   1.0000   1.0000   1.0000   1.0000
     1.0000   1.0000   1.0000   1.0000   0.0000   0.0000   0.0000   0.0000
     0.0000   0.0000   0.0000   0.0000

          k = 0.3536 0.2652-0.2652 (  3445 PWs)   bands (ev):

   -15.1279 -15.1279 -15.0930 -15.0930 -15.0664 -15.0664 -15.0286 -15.0286
   -14.1364 -14.1364 -14.1017 -14.1017 -14.0632 -14.0632 -13.9517 -13.9517
   -13.9318 -13.9318 -13.9123 -13.9123  -1.8548  -1.8548   1.1842   1.1842
     5.4978   5.4978   5.9037   5.9037   7.2369   7.2369   9.9197   9.9197
    10.3176  10.3176  12.6540  12.6541

     occupation numbers 
     1.0000   1.0000   1.0000   1.0000   1.0000   1.0000   1.0000   1.0000
     1.0000   1.0000   1.0000   1.0000   1.0000   1.0000   1.0000   1.0000
     1.0000   1.0000   1.0000   1.0000   1.0000   1.0000   1.0000   1.0000
     1.0000   1.0000   1.0000   1.0000   0.0000   0.0000   0.0000   0.0000
     0.0000   0.0000   0.0000   0.0000

          k =-0.3094-0.3977 0.3977 (  3447 PWs)   bands (ev):

   -15.1283 -15.1283 -15.0892 -15.0892 -15.0702 -15.0702 -15.0280 -15.0280
   -14.1270 -14.1270 -14.1109 -14.1109 -14.0649 -14.0649 -13.9501 -13.9501
   -13.9282 -13.9282 -13.9156 -13.9156  -1.6868  -1.6868   0.9013   0.9013
     5.4272   5.4272   5.8916   5.8916   7.1867   7.1867   9.9719   9.9719
    10.2691  10.2691  12.7473  12.7473

     occupation numbers 
     1.0000   1.0000   1.0000   1.0000   1.0000   1.0000   1.0000   1.0000
     1.0000   1.0000   1.0000   1.0000   1.0000   1.0000   1.0000   1.0000
     1.0000   1.0000   1.0000   1.0000   1.0000   1.0000   1.0000   1.0000
     1.0000   1.0000   1.0000   1.0000   0.0000   0.0000   0.0000   0.0000
     0.0000   0.0000   0.0000   0.0000

          k =-0.2652-0.3536 0.3536 (  3444 PWs)   bands (ev):

   -15.1282 -15.1282 -15.0899 -15.0899 -15.0693 -15.0693 -15.0281 -15.0281
   -14.1294 -14.1294 -14.1084 -14.1084 -14.0645 -14.0645 -13.9507 -13.9507
   -13.9288 -13.9288 -13.9150 -13.9150  -1.7238  -1.7238   0.9616   0.9616
     5.4090   5.4090   5.9395   5.9395   7.1825   7.1825  10.0063  10.0063
    10.2321  10.2321  12.7599  12.7599

     occupation numbers 
     1.0000   1.0000   1.0000   1.0000   1.0000   1.0000   1.0000   1.0000
     1.0000   1.0000   1.0000   1.0000   1.0000   1.0000   1.0000   1.0000
     1.0000   1.0000   1.0000   1.0000   1.0000   1.0000   1.0000   1.0000
     1.0000   1.0000   1.0000   1.0000   0.0000   0.0000   0.0000   0.0000
     0.0000   0.0000   0.0000   0.0000

          k =-0.2210-0.3094 0.3094 (  3450 PWs)   bands (ev):

   -15.1277 -15.1277 -15.0947 -15.0947 -15.0648 -15.0648 -15.0289 -15.0289
   -14.1403 -14.1403 -14.0981 -14.0981 -14.0622 -14.0622 -13.9532 -13.9532
   -13.9329 -13.9329 -13.9110 -13.9110  -1.9408  -1.9408   1.3393   1.3393
     5.4469   5.4469   6.0434   6.0434   7.2237   7.2237  10.0007  10.0007
    10.2222  10.2222  12.6467  12.6467

     occupation numbers 
     1.0000   1.0000   1.0000   1.0000   1.0000   1.0000   1.0000   1.0000
     1.0000   1.0000   1.0000   1.0000   1.0000   1.0000   1.0000   1.0000
     1.0000   1.0000   1.0000   1.0000   1.0000   1.0000   1.0000   1.0000
     1.0000   1.0000   1.0000   1.0000   0.0000   0.0000   0.0000   0.0000
     0.0000   0.0000   0.0000   0.0000

          k =-0.1768-0.2652 0.2652 (  3437 PWs)   bands (ev):

   -15.1266 -15.1266 -15.1006 -15.1006 -15.0589 -15.0589 -15.0304 -15.0304
   -14.1521 -14.1521 -14.0865 -14.0865 -14.0578 -14.0578 -13.9571 -13.9571
   -13.9392 -13.9392 -13.9054 -13.9054  -2.2298  -2.2298   1.9218   1.9218
     5.5428   5.5428   6.1967   6.1967   7.3058   7.3058   9.9252   9.9252
    10.2118  10.2118  12.0819  12.0819

     occupation numbers 
     1.0000   1.0000   1.0000   1.0000   1.0000   1.0000   1.0000   1.0000
     1.0000   1.0000   1.0000   1.0000   1.0000   1.0000   1.0000   1.0000
     1.0000   1.0000   1.0000   1.0000   1.0000   1.0000   1.0000   1.0000
     1.0000   1.0000   1.0000   1.0000   0.0000   0.0000   0.0000   0.0000
     0.0000   0.0000   0.0000   0.0000

          k =-0.1326-0.2210 0.2210 (  3451 PWs)   bands (ev):

   -15.1254 -15.1254 -15.1066 -15.1065 -15.0533 -15.0533 -15.0326 -15.0325
   -14.1641 -14.1641 -14.0745 -14.0745 -14.0521 -14.0521 -13.9626 -13.9626
   -13.9475 -13.9475 -13.8997 -13.8997  -2.5153  -2.5153   2.6237   2.6237
     5.6974   5.6974   6.3891   6.3891   7.4166   7.4166   9.7672   9.7672
    10.1169  10.1169  11.3566  11.3566

     occupation numbers 
     1.0000   1.0000   1.0000   1.0000   1.0000   1.0000   1.0000   1.0000
     1.0000   1.0000   1.0000   1.0000   1.0000   1.0000   1.0000   1.0000
     1.0000   1.0000   1.0000   1.0000   1.0000   1.0000   1.0000   1.0000
     1.0000   1.0000   1.0000   1.0000   0.0000   0.0000   0.0000   0.0000
     0.0000   0.0000   0.0000   0.0000

          k =-0.0884-0.1768 0.1768 (  3460 PWs)   bands (ev):

   -15.1239 -15.1239 -15.1117 -15.1117 -15.0485 -15.0485 -15.0349 -15.0349
   -14.1748 -14.1748 -14.0620 -14.0620 -14.0452 -14.0452 -13.9689 -13.9689
   -13.9571 -13.9571 -13.8943 -13.8943  -2.7612  -2.7612   3.3903   3.3903
     5.9091   5.9091   6.6032   6.6032   7.5280   7.5280   9.5340   9.5340
     9.8642   9.8642  10.7042  10.7042

     occupation numbers 
     1.0000   1.0000   1.0000   1.0000   1.0000   1.0000   1.0000   1.0000
     1.0000   1.0000   1.0000   1.0000   1.0000   1.0000   1.0000   1.0000
     1.0000   1.0000   1.0000   1.0000   1.0000   1.0000   1.0000   1.0000
     1.0000   1.0000   1.0000   1.0000   0.0000   0.0000   0.0000   0.0000
     0.0000   0.0000   0.0000   0.0000

          k =-0.0442-0.1326 0.1326 (  3466 PWs)   bands (ev):

   -15.1224 -15.1224 -15.1159 -15.1159 -15.0446 -15.0446 -15.0370 -15.0370
   -14.1837 -14.1837 -14.0493 -14.0493 -14.0381 -14.0381 -13.9755 -13.9755
   -13.9676 -13.9676 -13.8899 -13.8899  -2.9510  -2.9510   4.1678   4.1678
     6.1712   6.1712   6.8090   6.8090   7.5779   7.5779   9.2671   9.2671
     9.5199   9.5199  10.1389  10.1389

     occupation numbers 
     1.0000   1.0000   1.0000   1.0000   1.0000   1.0000   1.0000   1.0000
     1.0000   1.0000   1.0000   1.0000   1.0000   1.0000   1.0000   1.0000
     1.0000   1.0000   1.0000   1.0000   1.0000   1.0000   1.0000   1.0000
     1.0000   1.0000   1.0000   1.0000   0.0000   0.0000   0.0000   0.0000
     0.0000   0.0000   0.0000   0.0000

          k = 0.0000-0.0884 0.0884 (  3467 PWs)   bands (ev):

   -15.1214 -15.1214 -15.1187 -15.1187 -15.0417 -15.0417 -15.0387 -15.0387
   -14.1899 -14.1899 -14.0377 -14.0377 -14.0317 -14.0317 -13.9816 -13.9816
   -13.9777 -13.9777 -13.8866 -13.8866  -3.0767  -3.0767   4.8699   4.8699
     6.4525   6.4525   6.9714   6.9714   7.4715   7.4715   9.0252   9.0252
     9.3058   9.3058   9.6388   9.6388

     occupation numbers 
     1.0000   1.0000   1.0000   1.0000   1.0000   1.0000   1.0000   1.0000
     1.0000   1.0000   1.0000   1.0000   1.0000   1.0000   1.0000   1.0000
     1.0000   1.0000   1.0000   1.0000   1.0000   1.0000   1.0000   1.0000
     1.0000   1.0000   0.0000   0.0000   0.0000   0.0000   0.0000   0.0000
     0.0000   0.0000   0.0000   0.0000

          k = 0.1768 0.0000 0.0000 (  3459 PWs)   bands (ev):

   -15.1206 -15.1206 -15.1182 -15.1182 -15.0426 -15.0426 -15.0385 -15.0385
   -14.1852 -14.1852 -14.0476 -14.0476 -14.0351 -14.0351 -13.9748 -13.9748
   -13.9729 -13.9729 -13.8885 -13.8885  -2.9839  -2.9839   4.4222   4.4222
     6.2012   6.2012   6.4564   6.4564   8.1862   8.1862   8.5704   8.5704
     9.8880   9.8880   9.9915   9.9915

     occupation numbers 
     1.0000   1.0000   1.0000   1.0000   1.0000   1.0000   1.0000   1.0000
     1.0000   1.0000   1.0000   1.0000   1.0000   1.0000   1.0000   1.0000
     1.0000   1.0000   1.0000   1.0000   1.0000   1.0000   1.0000   1.0000
     1.0000   1.0000   1.0000   1.0000   0.0000   0.0000   0.0000   0.0000
     0.0000   0.0000   0.0000   0.0000

          k = 0.2210 0.0442-0.0442 (  3472 PWs)   bands (ev):

   -15.1216 -15.1216 -15.1159 -15.1159 -15.0449 -15.0449 -15.0373 -15.0373
   -14.1794 -14.1794 -14.0572 -14.0572 -14.0399 -14.0399 -13.9712 -13.9712
   -13.9647 -13.9647 -13.8914 -13.8914  -2.8580  -2.8580   3.8803   3.8803
     5.9816   5.9816   6.2148   6.2148   8.3327   8.3327   8.5994   8.5994
    10.2590  10.2590  10.3863  10.3863

     occupation numbers 
     1.0000   1.0000   1.0000   1.0000   1.0000   1.0000   1.0000   1.0000
     1.0000   1.0000   1.0000   1.0000   1.0000   1.0000   1.0000   1.0000
     1.0000   1.0000   1.0000   1.0000   1.0000   1.0000   1.0000   1.0000
     1.0000   1.0000   1.0000   1.0000   0.0000   0.0000   0.0000   0.0000
     0.0000   0.0000   0.0000   0.0000

          k = 0.2652 0.0884-0.0884 (  3457 PWs)   bands (ev):

   -15.1232 -15.1232 -15.1117 -15.1117 -15.0486 -15.0486 -15.0350 -15.0350
   -14.1707 -14.1707 -14.0681 -14.0681 -14.0454 -14.0454 -13.9684 -13.9684
   -13.9541 -13.9541 -13.8949 -13.8949  -2.6681  -2.6681   3.2058   3.2058
     5.7315   5.7315   5.9927   5.9927   8.2598   8.2598   8.8876   8.8876
    10.5550  10.5550  10.8094  10.8094

     occupation numbers 
     1.0000   1.0000   1.0000   1.0000   1.0000   1.0000   1.0000   1.0000
     1.0000   1.0000   1.0000   1.0000   1.0000   1.0000   1.0000   1.0000
     1.0000   1.0000   1.0000   1.0000   1.0000   1.0000   1.0000   1.0000
     1.0000   1.0000   1.0000   1.0000   0.0000   0.0000   0.0000   0.0000
     0.0000   0.0000   0.0000   0.0000

          k = 0.3094 0.1326-0.1326 (  3456 PWs)   bands (ev):

   -15.1248 -15.1248 -15.1066 -15.1066 -15.0536 -15.0536 -15.0326 -15.0326
   -14.1603 -14.1603 -14.0791 -14.0791 -14.0511 -14.0511 -13.9662 -13.9662
   -13.9444 -13.9444 -13.8988 -13.8988  -2.4219  -2.4219   2.5051   2.5051
     5.4765   5.4765   5.8156   5.8156   8.1254   8.1254   9.2598   9.2598
    10.7266  10.7266  11.1278  11.1279

     occupation numbers 
     1.0000   1.0000   1.0000   1.0000   1.0000   1.0000   1.0000   1.0000
     1.0000   1.0000   1.0000   1.0000   1.0000   1.0000   1.0000   1.0000
     1.0000   1.0000   1.0000   1.0000   1.0000   1.0000   1.0000   1.0000
     1.0000   1.0000   1.0000   1.0000   0.0000   0.0000   0.0000   0.0000
     0.0000   0.0000   0.0000   0.0000

          k = 0.3536 0.1768-0.1768 (  3452 PWs)   bands (ev):

   -15.1263 -15.1263 -15.1009 -15.1009 -15.0593 -15.0592 -15.0302 -15.0302
   -14.1492 -14.1492 -14.0894 -14.0894 -14.0562 -14.0562 -13.9646 -13.9646
   -13.9366 -13.9366 -13.9023 -13.9023  -2.1358  -2.1358   1.8448   1.8448
     5.2437   5.2437   5.7018   5.7018   7.9866   7.9866   9.5787   9.5787
    10.7648  10.7648  11.4846  11.4846

     occupation numbers 
     1.0000   1.0000   1.0000   1.0000   1.0000   1.0000   1.0000   1.0000
     1.0000   1.0000   1.0000   1.0000   1.0000   1.0000   1.0000   1.0000
     1.0000   1.0000   1.0000   1.0000   1.0000   1.0000   1.0000   1.0000
     1.0000   1.0000   1.0000   1.0000   0.0000   0.0000   0.0000   0.0000
     0.0000   0.0000   0.0000   0.0000

          k = 0.3977 0.2210-0.2210 (  3463 PWs)   bands (ev):

   -15.1276 -15.1276 -15.0951 -15.0951 -15.0651 -15.0651 -15.0285 -15.0285
   -14.1387 -14.1387 -14.0988 -14.0988 -14.0603 -14.0603 -13.9639 -13.9639
   -13.9315 -13.9315 -13.9047 -13.9047  -1.8455  -1.8455   1.2870   1.2870
     5.0535   5.0535   5.6534   5.6534   7.8728   7.8728   9.7768   9.7768
    10.7108  10.7108  11.9977  11.9977

     occupation numbers 
     1.0000   1.0000   1.0000   1.0000   1.0000   1.0000   1.0000   1.0000
     1.0000   1.0000   1.0000   1.0000   1.0000   1.0000   1.0000   1.0000
     1.0000   1.0000   1.0000   1.0000   1.0000   1.0000   1.0000   1.0000
     1.0000   1.0000   1.0000   1.0000   0.0000   0.0000   0.0000   0.0000
     0.0000   0.0000   0.0000   0.0000

          k =-0.2652-0.4419 0.4419 (  3450 PWs)   bands (ev):

   -15.1282 -15.1282 -15.0900 -15.0900 -15.0700 -15.0700 -15.0273 -15.0273
   -14.1301 -14.1301 -14.1060 -14.1060 -14.0625 -14.0625 -13.9638 -13.9638
   -13.9286 -13.9286 -13.9056 -13.9056  -1.6269  -1.6269   0.9218   0.9218
     4.9182   4.9182   5.6692   5.6692   7.7974   7.7974   9.8957   9.8957
    10.6133  10.6133  12.5603  12.5603

     occupation numbers 
     1.0000   1.0000   1.0000   1.0000   1.0000   1.0000   1.0000   1.0000
     1.0000   1.0000   1.0000   1.0000   1.0000   1.0000   1.0000   1.0000
     1.0000   1.0000   1.0000   1.0000   1.0000   1.0000   1.0000   1.0000
     1.0000   1.0000   1.0000   1.0000   0.0000   0.0000   0.0000   0.0000
     0.0000   0.0000   0.0000   0.0000

          k =-0.2210-0.3977 0.3977 (  3446 PWs)   bands (ev):

   -15.1283 -15.1283 -15.0888 -15.0888 -15.0713 -15.0713 -15.0270 -15.0270
   -14.1286 -14.1286 -14.1074 -14.1074 -14.0625 -14.0625 -13.9642 -13.9642
   -13.9279 -13.9279 -13.9058 -13.9058  -1.5915  -1.5915   0.8665   0.8665
     4.8454   4.8454   5.7457   5.7457   7.7654   7.7654   9.9921   9.9922
    10.5017  10.5017  12.8628  12.8628

     occupation numbers 
     1.0000   1.0000   1.0000   1.0000   1.0000   1.0000   1.0000   1.0000
     1.0000   1.0000   1.0000   1.0000   1.0000   1.0000   1.0000   1.0000
     1.0000   1.0000   1.0000   1.0000   1.0000   1.0000   1.0000   1.0000
     1.0000   1.0000   1.0000   1.0000   0.0000   0.0000   0.0000   0.0000
     0.0000   0.0000   0.0000   0.0000

          k =-0.1768-0.3536 0.3536 (  3443 PWs)   bands (ev):

   -15.1280 -15.1280 -15.0922 -15.0922 -15.0679 -15.0678 -15.0275 -15.0275
   -14.1356 -14.1356 -14.1014 -14.1014 -14.0604 -14.0604 -13.9653 -13.9653
   -13.9286 -13.9286 -13.9054 -13.9054  -1.7637  -1.7637   1.1459   1.1459
     4.8414   4.8414   5.8777   5.8777   7.7758   7.7758  10.0820  10.0820
    10.3847  10.3847  12.6098  12.6098

     occupation numbers 
     1.0000   1.0000   1.0000   1.0000   1.0000   1.0000   1.0000   1.0000
     1.0000   1.0000   1.0000   1.0000   1.0000   1.0000   1.0000   1.0000
     1.0000   1.0000   1.0000   1.0000   1.0000   1.0000   1.0000   1.0000
     1.0000   1.0000   1.0000   1.0000   0.0000   0.0000   0.0000   0.0000
     0.0000   0.0000   0.0000   0.0000

          k =-0.1326-0.3094 0.3094 (  3456 PWs)   bands (ev):

   -15.1273 -15.1273 -15.0978 -15.0978 -15.0626 -15.0626 -15.0288 -15.0288
   -14.1459 -14.1459 -14.0928 -14.0928 -14.0566 -14.0566 -13.9669 -13.9669
   -13.9320 -13.9320 -13.9039 -13.9039  -2.0419  -2.0419   1.6526   1.6526
     4.9129   4.9129   6.0567   6.0567   7.8212   7.8212  10.1048  10.1048
    10.2827  10.2827  11.9639  11.9639

     occupation numbers 
     1.0000   1.0000   1.0000   1.0000   1.0000   1.0000   1.0000   1.0000
     1.0000   1.0000   1.0000   1.0000   1.0000   1.0000   1.0000   1.0000
     1.0000   1.0000   1.0000   1.0000   1.0000   1.0000   1.0000   1.0000
     1.0000   1.0000   1.0000   1.0000   0.0000   0.0000   0.0000   0.0000
     0.0000   0.0000   0.0000   0.0000

          k =-0.0884-0.2652 0.2652 (  3447 PWs)   bands (ev):

   -15.1260 -15.1260 -15.1035 -15.1035 -15.0568 -15.0568 -15.0307 -15.0307
   -14.1569 -14.1569 -14.0829 -14.0829 -14.0516 -14.0516 -13.9688 -13.9688
   -13.9382 -13.9382 -13.9008 -13.9008  -2.3344  -2.3344   2.2801   2.2801
     5.0692   5.0692   6.2687   6.2687   7.8828   7.8828   9.9472   9.9472
    10.1959  10.1959  11.3590  11.3590

     occupation numbers 
     1.0000   1.0000   1.0000   1.0000   1.0000   1.0000   1.0000   1.0000
     1.0000   1.0000   1.0000   1.0000   1.0000   1.0000   1.0000   1.0000
     1.0000   1.0000   1.0000   1.0000   1.0000   1.0000   1.0000   1.0000
     1.0000   1.0000   1.0000   1.0000   0.0000   0.0000   0.0000   0.0000
     0.0000   0.0000   0.0000   0.0000

          k =-0.0442-0.2210 0.2210 (  3455 PWs)   bands (ev):

   -15.1247 -15.1247 -15.1088 -15.1088 -15.0517 -15.0517 -15.0330 -15.0330
   -14.1677 -14.1677 -14.0720 -14.0720 -14.0464 -14.0464 -13.9711 -13.9711
   -13.9470 -13.9470 -13.8968 -13.8968  -2.5954  -2.5954   2.9552   2.9552
     5.3244   5.3244   6.4905   6.4905   7.9168   7.9168   9.6966   9.6966
     9.9311   9.9311  10.9768  10.9768

     occupation numbers 
     1.0000   1.0000   1.0000   1.0000   1.0000   1.0000   1.0000   1.0000
     1.0000   1.0000   1.0000   1.0000   1.0000   1.0000   1.0000   1.0000
     1.0000   1.0000   1.0000   1.0000   1.0000   1.0000   1.0000   1.0000
     1.0000   1.0000   1.0000   1.0000   0.0000   0.0000   0.0000   0.0000
     0.0000   0.0000   0.0000   0.0000

          k = 0.0000-0.1768 0.1768 (  3465 PWs)   bands (ev):

   -15.1234 -15.1234 -15.1130 -15.1130 -15.0476 -15.0476 -15.0353 -15.0353
   -14.1768 -14.1768 -14.0605 -14.0605 -14.0417 -14.0417 -13.9736 -13.9736
   -13.9573 -13.9573 -13.8931 -13.8931  -2.8042  -2.8042   3.6095   3.6095
     5.6960   5.6960   6.6838   6.6838   7.8378   7.8378   9.4390   9.4390
     9.6284   9.6284  10.6370  10.6370

     occupation numbers 
     1.0000   1.0000   1.0000   1.0000   1.0000   1.0000   1.0000   1.0000
     1.0000   1.0000   1.0000   1.0000   1.0000   1.0000   1.0000   1.0000
     1.0000   1.0000   1.0000   1.0000   1.0000   1.0000   1.0000   1.0000
     1.0000   1.0000   1.0000   1.0000   0.0000   0.0000   0.0000   0.0000
     0.0000   0.0000   0.0000   0.0000

          k = 0.2652 0.0000 0.0000 (  3475 PWs)   bands (ev):

   -15.1208 -15.1208 -15.1160 -15.1160 -15.0452 -15.0452 -15.0374 -15.0374
   -14.1746 -14.1746 -14.0639 -14.0639 -14.0425 -14.0425 -13.9667 -13.9667
   -13.9625 -13.9625 -13.8927 -13.8927  -2.7537  -2.7537   3.5691   3.5691
     5.7898   5.7898   5.9612   5.9612   8.2435   8.2435   8.7332   8.7332
    10.6629  10.6629  10.6964  10.6964

     occupation numbers 
     1.0000   1.0000   1.0000   1.0000   1.0000   1.0000   1.0000   1.0000
     1.0000   1.0000   1.0000   1.0000   1.0000   1.0000   1.0000   1.0000
     1.0000   1.0000   1.0000   1.0000   1.0000   1.0000   1.0000   1.0000
     1.0000   1.0000   1.0000   1.0000   0.0000   0.0000   0.0000   0.0000
     0.0000   0.0000   0.0000   0.0000

          k = 0.3094 0.0442-0.0442 (  3467 PWs)   bands (ev):

   -15.1216 -15.1216 -15.1132 -15.1132 -15.0475 -15.0475 -15.0361 -15.0361
   -14.1671 -14.1671 -14.0727 -14.0727 -14.0461 -14.0461 -13.9674 -13.9674
   -13.9534 -13.9534 -13.8947 -13.8947  -2.5841  -2.5841   3.0655   3.0655
     5.5578   5.5578   5.7356   5.7356   8.2244   8.2244   8.8380   8.8380
    10.9926  10.9926  11.0444  11.0444

     occupation numbers 
     1.0000   1.0000   1.0000   1.0000   1.0000   1.0000   1.0000   1.0000
     1.0000   1.0000   1.0000   1.0000   1.0000   1.0000   1.0000   1.0000
     1.0000   1.0000   1.0000   1.0000   1.0000   1.0000   1.0000   1.0000
     1.0000   1.0000   1.0000   1.0000   0.0000   0.0000   0.0000   0.0000
     0.0000   0.0000   0.0000   0.0000

          k = 0.3536 0.0884-0.0884 (  3462 PWs)   bands (ev):

   -15.1232 -15.1232 -15.1086 -15.1086 -15.0519 -15.0519 -15.0337 -15.0337
   -14.1579 -14.1579 -14.0819 -14.0819 -14.0499 -14.0499 -13.9693 -13.9693
   -13.9438 -13.9438 -13.8970 -13.8970  -2.3550  -2.3550   2.4748   2.4748
     5.2665   5.2665   5.5564   5.5564   8.3130   8.3130   8.9848   8.9848
    11.0704  11.0704  11.2697  11.2697

     occupation numbers 
     1.0000   1.0000   1.0000   1.0000   1.0000   1.0000   1.0000   1.0000
     1.0000   1.0000   1.0000   1.0000   1.0000   1.0000   1.0000   1.0000
     1.0000   1.0000   1.0000   1.0000   1.0000   1.0000   1.0000   1.0000
     1.0000   1.0000   1.0000   1.0000   0.0000   0.0000   0.0000   0.0000
     0.0000   0.0000   0.0000   0.0000

          k = 0.3977 0.1326-0.1326 (  3457 PWs)   bands (ev):

   -15.1249 -15.1249 -15.1034 -15.1034 -15.0571 -15.0571 -15.0311 -15.0311
   -14.1479 -14.1479 -14.0904 -14.0904 -14.0535 -14.0535 -13.9720 -13.9720
   -13.9360 -13.9360 -13.8985 -13.8985  -2.0787  -2.0787   1.8737   1.8737
     4.9626   4.9626   5.4466   5.4466   8.2869   8.2869   9.3600   9.3600
    11.0746  11.0746  11.3522  11.3522

     occupation numbers 
     1.0000   1.0000   1.0000   1.0000   1.0000   1.0000   1.0000   1.0000
     1.0000   1.0000   1.0000   1.0000   1.0000   1.0000   1.0000   1.0000
     1.0000   1.0000   1.0000   1.0000   1.0000   1.0000   1.0000   1.0000
     1.0000   1.0000   1.0000   1.0000   0.0000   0.0000   0.0000   0.0000
     0.0000   0.0000   0.0000   0.0000

          k = 0.4419 0.1768-0.1768 (  3455 PWs)   bands (ev):

   -15.1263 -15.1263 -15.0979 -15.0979 -15.0627 -15.0627 -15.0288 -15.0288
   -14.1388 -14.1388 -14.0973 -14.0973 -14.0565 -14.0565 -13.9749 -13.9749
   -13.9310 -13.9310 -13.8986 -13.8986  -1.7818  -1.7818   1.3260   1.3260
     4.6964   4.6964   5.4044   5.4044   8.2129   8.2129   9.7711   9.7711
    11.2011  11.2011  11.3555  11.3555

     occupation numbers 
     1.0000   1.0000   1.0000   1.0000   1.0000   1.0000   1.0000   1.0000
     1.0000   1.0000   1.0000   1.0000   1.0000   1.0000   1.0000   1.0000
     1.0000   1.0000   1.0000   1.0000   1.0000   1.0000   1.0000   1.0000
     1.0000   1.0000   1.0000   1.0000   0.0000   0.0000   0.0000   0.0000
     0.0000   0.0000   0.0000   0.0000

          k =-0.2210-0.4861 0.4861 (  3450 PWs)   bands (ev):

   -15.1274 -15.1274 -15.0926 -15.0926 -15.0682 -15.0682 -15.0271 -15.0270
   -14.1321 -14.1321 -14.1017 -14.1017 -14.0587 -14.0587 -13.9773 -13.9773
   -13.9285 -13.9285 -13.8978 -13.8978  -1.5248  -1.5248   0.9135   0.9135
     4.4923   4.4923   5.4279   5.4279   8.1562   8.1562  10.0280  10.0280
    11.1554  11.1554  11.7561  11.7561

     occupation numbers 
     1.0000   1.0000   1.0000   1.0000   1.0000   1.0000   1.0000   1.0000
     1.0000   1.0000   1.0000   1.0000   1.0000   1.0000   1.0000   1.0000
     1.0000   1.0000   1.0000   1.0000   1.0000   1.0000   1.0000   1.0000
     1.0000   1.0000   1.0000   1.0000   0.0000   0.0000   0.0000   0.0000
     0.0000   0.0000   0.0000   0.0000

          k =-0.1768-0.4419 0.4419 (  3439 PWs)   bands (ev):

   -15.1278 -15.1278 -15.0892 -15.0892 -15.0716 -15.0716 -15.0260 -15.0260
   -14.1299 -14.1299 -14.1030 -14.1030 -14.0589 -14.0589 -13.9789 -13.9789
   -13.9276 -13.9276 -13.8973 -13.8973  -1.4195  -1.4195   0.7588   0.7588
     4.3634   4.3634   5.5143   5.5143   8.1349   8.1349  10.1632  10.1632
    11.0061  11.0062  12.3807  12.3807

     occupation numbers 
     1.0000   1.0000   1.0000   1.0000   1.0000   1.0000   1.0000   1.0000
     1.0000   1.0000   1.0000   1.0000   1.0000   1.0000   1.0000   1.0000
     1.0000   1.0000   1.0000   1.0000   1.0000   1.0000   1.0000   1.0000
     1.0000   1.0000   1.0000   1.0000   0.0000   0.0000   0.0000   0.0000
     0.0000   0.0000   0.0000   0.0000

          k =-0.1326-0.3977 0.3977 (  3447 PWs)   bands (ev):

   -15.1280 -15.1280 -15.0902 -15.0901 -15.0709 -15.0709 -15.0260 -15.0260
   -14.1328 -14.1328 -14.1016 -14.1016 -14.0573 -14.0573 -13.9793 -13.9793
   -13.9274 -13.9274 -13.8979 -13.8979  -1.5390  -1.5390   0.9362   0.9362
     4.3198   4.3198   5.6580   5.6580   8.1483   8.1483  10.2706  10.2706
    10.8263  10.8263  12.4859  12.4859

     occupation numbers 
     1.0000   1.0000   1.0000   1.0000   1.0000   1.0000   1.0000   1.0000
     1.0000   1.0000   1.0000   1.0000   1.0000   1.0000   1.0000   1.0000
     1.0000   1.0000   1.0000   1.0000   1.0000   1.0000   1.0000   1.0000
     1.0000   1.0000   1.0000   1.0000   0.0000   0.0000   0.0000   0.0000
     0.0000   0.0000   0.0000   0.0000

          k =-0.0884-0.3536 0.3536 (  3449 PWs)   bands (ev):

   -15.1276 -15.1276 -15.0944 -15.0944 -15.0667 -15.0666 -15.0270 -15.0270
   -14.1397 -14.1397 -14.0973 -14.0973 -14.0542 -14.0542 -13.9784 -13.9784
   -13.9283 -13.9283 -13.8992 -13.8992  -1.8011  -1.8011   1.3551   1.3551
     4.3743   4.3743   5.8493   5.8493   8.1828   8.1828  10.3715  10.3715
    10.6097  10.6097  11.8237  11.8237

     occupation numbers 
     1.0000   1.0000   1.0000   1.0000   1.0000   1.0000   1.0000   1.0000
     1.0000   1.0000   1.0000   1.0000   1.0000   1.0000   1.0000   1.0000
     1.0000   1.0000   1.0000   1.0000   1.0000   1.0000   1.0000   1.0000
     1.0000   1.0000   1.0000   1.0000   0.0000   0.0000   0.0000   0.0000
     0.0000   0.0000   0.0000   0.0000

          k =-0.0442-0.3094 0.3094 (  3456 PWs)   bands (ev):

   -15.1268 -15.1268 -15.0997 -15.0997 -15.0614 -15.0614 -15.0287 -15.0287
   -14.1488 -14.1488 -14.0907 -14.0907 -14.0511 -14.0511 -13.9764 -13.9764
   -13.9315 -13.9315 -13.8999 -13.8999  -2.0970  -2.0970   1.8869   1.8869
     4.5453   4.5453   6.0723   6.0723   8.2050   8.2050  10.2953  10.2953
    10.4345  10.4345  11.2178  11.2178

     occupation numbers 
     1.0000   1.0000   1.0000   1.0000   1.0000   1.0000   1.0000   1.0000
     1.0000   1.0000   1.0000   1.0000   1.0000   1.0000   1.0000   1.0000
     1.0000   1.0000   1.0000   1.0000   1.0000   1.0000   1.0000   1.0000
     1.0000   1.0000   1.0000   1.0000   0.0000   0.0000   0.0000   0.0000
     0.0000   0.0000   0.0000   0.0000

          k = 0.0000-0.2652 0.2652 (  3459 PWs)   bands (ev):

   -15.1258 -15.1258 -15.1046 -15.1046 -15.0562 -15.0562 -15.0308 -15.0308
   -14.1586 -14.1586 -14.0820 -14.0820 -14.0484 -14.0484 -13.9738 -13.9738
   -13.9379 -13.9379 -13.8991 -13.8991  -2.3701  -2.3701   2.4416   2.4416
     4.8567   4.8567   6.3001   6.3001   8.1462   8.1462   9.9904   9.9904
    10.1750  10.1751  11.0255  11.0255

     occupation numbers 
     1.0000   1.0000   1.0000   1.0000   1.0000   1.0000   1.0000   1.0000
     1.0000   1.0000   1.0000   1.0000   1.0000   1.0000   1.0000   1.0000
     1.0000   1.0000   1.0000   1.0000   1.0000   1.0000   1.0000   1.0000
     1.0000   1.0000   1.0000   1.0000   0.0000   0.0000   0.0000   0.0000
     0.0000   0.0000   0.0000   0.0000

          k = 0.3536 0.0000 0.0000 (  3479 PWs)   bands (ev):

   -15.1204 -15.1204 -15.1133 -15.1133 -15.0477 -15.0477 -15.0369 -15.0369
   -14.1609 -14.1609 -14.0792 -14.0792 -14.0486 -14.0486 -13.9676 -13.9676
   -13.9491 -13.9491 -13.8956 -13.8956  -2.4342  -2.4342   2.7221   2.7221
     5.4062   5.4062   5.5246   5.5246   7.9631   7.9631   8.8986   8.8986
    11.4572  11.4573  11.4939  11.4939

     occupation numbers 
     1.0000   1.0000   1.0000   1.0000   1.0000   1.0000   1.0000   1.0000
     1.0000   1.0000   1.0000   1.0000   1.0000   1.0000   1.0000   1.0000
     1.0000   1.0000   1.0000   1.0000   1.0000   1.0000   1.0000   1.0000
     1.0000   1.0000   1.0000   1.0000   0.0000   0.0000   0.0000   0.0000
     0.0000   0.0000   0.0000   0.0000

          k = 0.3977 0.0442-0.0442 (  3461 PWs)   bands (ev):

   -15.1210 -15.1210 -15.1105 -15.1105 -15.0500 -15.0500 -15.0355 -15.0355
   -14.1529 -14.1529 -14.0863 -14.0863 -14.0507 -14.0507 -13.9715 -13.9715
   -13.9412 -13.9412 -13.8963 -13.8963  -2.2228  -2.2228   2.2566   2.2566
     5.1834   5.1834   5.3364   5.3364   7.9846   7.9846   8.8659   8.8659
    11.6089  11.6090  11.8199  11.8200

     occupation numbers 
     1.0000   1.0000   1.0000   1.0000   1.0000   1.0000   1.0000   1.0000
     1.0000   1.0000   1.0000   1.0000   1.0000   1.0000   1.0000   1.0000
     1.0000   1.0000   1.0000   1.0000   1.0000   1.0000   1.0000   1.0000
     1.0000   1.0000   1.0000   1.0000   0.0000   0.0000   0.0000   0.0000
     0.0000   0.0000   0.0000   0.0000

          k = 0.4419 0.0884-0.0884 (  3454 PWs)   bands (ev):

   -15.1226 -15.1226 -15.1062 -15.1062 -15.0542 -15.0542 -15.0331 -15.0331
   -14.1444 -14.1444 -14.0931 -14.0931 -14.0521 -14.0521 -13.9774 -13.9774
   -13.9339 -13.9339 -13.8965 -13.8965  -1.9589  -1.9589   1.7444   1.7444
     4.8643   4.8643   5.2164   5.2164   8.1267   8.1267   9.0001   9.0001
    11.4841  11.4841  11.9833  11.9833

     occupation numbers 
     1.0000   1.0000   1.0000   1.0000   1.0000   1.0000   1.0000   1.0000
     1.0000   1.0000   1.0000   1.0000   1.0000   1.0000   1.0000   1.0000
     1.0000   1.0000   1.0000   1.0000   1.0000   1.0000   1.0000   1.0000
     1.0000   1.0000   1.0000   1.0000   0.0000   0.0000   0.0000   0.0000
     0.0000   0.0000   0.0000   0.0000

          k = 0.4861 0.1326-0.1326 (  3451 PWs)   bands (ev):

   -15.1243 -15.1243 -15.1013 -15.1013 -15.0594 -15.0594 -15.0303 -15.0303
   -14.1369 -14.1369 -14.0978 -14.0978 -14.0533 -14.0533 -13.9837 -13.9837
   -13.9293 -13.9293 -13.8953 -13.8953  -1.6620  -1.6620   1.2445   1.2445
     4.5332   4.5332   5.1690   5.1690   8.1699   8.1699   9.4543   9.4543
    11.3610  11.3611  11.9767  11.9767

     occupation numbers 
     1.0000   1.0000   1.0000   1.0000   1.0000   1.0000   1.0000   1.0000
     1.0000   1.0000   1.0000   1.0000   1.0000   1.0000   1.0000   1.0000
     1.0000   1.0000   1.0000   1.0000   1.0000   1.0000   1.0000   1.0000
     1.0000   1.0000   1.0000   1.0000   0.0000   0.0000   0.0000   0.0000
     0.0000   0.0000   0.0000   0.0000

          k =-0.1768-0.5303 0.5303 (  3447 PWs)   bands (ev):

   -15.1259 -15.1259 -15.0963 -15.0963 -15.0648 -15.0648 -15.0278 -15.0278
   -14.1323 -14.1323 -14.0995 -14.0995 -14.0540 -14.0540 -13.9893 -13.9893
   -13.9272 -13.9272 -13.8931 -13.8931  -1.3779  -1.3779   0.8251   0.8251
     4.2543   4.2543   5.1891   5.1891   8.1672   8.1673  10.0660  10.0660
    11.3436  11.3436  11.8589  11.8589

     occupation numbers 
     1.0000   1.0000   1.0000   1.0000   1.0000   1.0000   1.0000   1.0000
     1.0000   1.0000   1.0000   1.0000   1.0000   1.0000   1.0000   1.0000
     1.0000   1.0000   1.0000   1.0000   1.0000   1.0000   1.0000   1.0000
[...]

   -15.1263 -15.1263 -15.0950 -15.0950 -15.0666 -15.0666 -15.0267 -15.0267
   -14.1329 -14.1329 -14.0977 -14.0977 -14.0520 -14.0520 -13.9943 -13.9943
   -13.9278 -13.9278 -13.8906 -13.8906  -1.3028  -1.3028   0.7617   0.7617
     4.1402   4.1402   5.0160   5.0160   8.8126   8.8126   9.9146   9.9146
    10.8497  10.8497  12.3828  12.3828

     occupation numbers 
     1.0000   1.0000   1.0000   1.0000   1.0000   1.0000   1.0000   1.0000
     1.0000   1.0000   1.0000   1.0000   1.0000   1.0000   1.0000   1.0000
     1.0000   1.0000   1.0000   1.0000   1.0000   1.0000   1.0000   1.0000
     1.0000   1.0000   1.0000   1.0000   0.0000   0.0000   0.0000   0.0000
     0.0000   0.0000   0.0000   0.0000

          k =-0.1326-0.3977 0.5745 (  3439 PWs)   bands (ev):

   -15.1268 -15.1268 -15.0920 -15.0920 -15.0697 -15.0697 -15.0256 -15.0256
   -14.1319 -14.1319 -14.0966 -14.0966 -14.0519 -14.0519 -13.9978 -13.9978
   -13.9276 -13.9276 -13.8888 -13.8888  -1.1210  -1.1210   0.5282   0.5282
     4.0206   4.0206   4.9982   4.9982   8.8336   8.8336  10.0901  10.0901
    11.3531  11.3532  12.0657  12.0657

     occupation numbers 
     1.0000   1.0000   1.0000   1.0000   1.0000   1.0000   1.0000   1.0000
     1.0000   1.0000   1.0000   1.0000   1.0000   1.0000   1.0000   1.0000
     1.0000   1.0000   1.0000   1.0000   1.0000   1.0000   1.0000   1.0000
     1.0000   1.0000   1.0000   1.0000   0.0000   0.0000   0.0000   0.0000
     0.0000   0.0000   0.0000   0.0000

          k =-0.0884-0.3536 0.5303 (  3449 PWs)   bands (ev):

   -15.1271 -15.1271 -15.0916 -15.0915 -15.0704 -15.0704 -15.0254 -15.0254
   -14.1324 -14.1324 -14.0968 -14.0968 -14.0517 -14.0517 -13.9975 -13.9975
   -13.9278 -13.9278 -13.8891 -13.8891  -1.1756  -1.1756   0.5974   0.5974
     3.9882   3.9882   5.0666   5.0666   8.8773   8.8773  10.0840  10.0840
    11.4107  11.4107  12.0319  12.0319

     occupation numbers 
     1.0000   1.0000   1.0000   1.0000   1.0000   1.0000   1.0000   1.0000
     1.0000   1.0000   1.0000   1.0000   1.0000   1.0000   1.0000   1.0000
     1.0000   1.0000   1.0000   1.0000   1.0000   1.0000   1.0000   1.0000
     1.0000   1.0000   1.0000   1.0000   0.0000   0.0000   0.0000   0.0000
     0.0000   0.0000   0.0000   0.0000

          k =-0.0442-0.3094 0.4861 (  3451 PWs)   bands (ev):

   -15.1270 -15.1270 -15.0937 -15.0936 -15.0682 -15.0681 -15.0261 -15.0261
   -14.1344 -14.1344 -14.0976 -14.0976 -14.0514 -14.0514 -13.9930 -13.9930
   -13.9281 -13.9281 -13.8914 -13.8914  -1.4194  -1.4194   0.9167   0.9167
     4.0594   4.0594   5.2085   5.2085   8.9246   8.9246   9.9722   9.9722
    10.8527  10.8527  12.2384  12.2384

     occupation numbers 
     1.0000   1.0000   1.0000   1.0000   1.0000   1.0000   1.0000   1.0000
     1.0000   1.0000   1.0000   1.0000   1.0000   1.0000   1.0000   1.0000
     1.0000   1.0000   1.0000   1.0000   1.0000   1.0000   1.0000   1.0000
     1.0000   1.0000   1.0000   1.0000   0.0000   0.0000   0.0000   0.0000
     0.0000   0.0000   0.0000   0.0000

          k = 0.0000-0.2652 0.4419 (  3445 PWs)   bands (ev):

   -15.1264 -15.1264 -15.0972 -15.0972 -15.0642 -15.0641 -15.0276 -15.0276
   -14.1390 -14.1390 -14.0964 -14.0964 -14.0514 -14.0514 -13.9857 -13.9856
   -13.9293 -13.9293 -13.8946 -13.8946  -1.7175  -1.7175   1.3355   1.3355
     4.2533   4.2533   5.3986   5.3986   8.9149   8.9149   9.6290   9.6290
    10.6793  10.6793  12.0112  12.0112

     occupation numbers 
     1.0000   1.0000   1.0000   1.0000   1.0000   1.0000   1.0000   1.0000
     1.0000   1.0000   1.0000   1.0000   1.0000   1.0000   1.0000   1.0000
     1.0000   1.0000   1.0000   1.0000   1.0000   1.0000   1.0000   1.0000
     1.0000   1.0000   1.0000   1.0000   0.0000   0.0000   0.0000   0.0000
     0.0000   0.0000   0.0000   0.0000

          k =-0.1768-0.5303 0.7071 (  3439 PWs)   bands (ev):

   -15.1234 -15.1234 -15.1017 -15.1017 -15.0590 -15.0590 -15.0304 -15.0304
   -14.1336 -14.1336 -14.0990 -14.0990 -14.0499 -14.0499 -13.9935 -13.9935
   -13.9265 -13.9265 -13.8926 -13.8926  -1.4262  -1.4262   0.9545   0.9545
     4.4180   4.4180   4.8750   4.8750   8.5686   8.5686   8.9616   8.9616
    11.3628  11.3628  12.9606  12.9606

     occupation numbers 
     1.0000   1.0000   1.0000   1.0000   1.0000   1.0000   1.0000   1.0000
     1.0000   1.0000   1.0000   1.0000   1.0000   1.0000   1.0000   1.0000
     1.0000   1.0000   1.0000   1.0000   1.0000   1.0000   1.0000   1.0000
     1.0000   1.0000   1.0000   1.0000   0.0000   0.0000   0.0000   0.0000
     0.0000   0.0000   0.0000   0.0000

          k =-0.1326-0.4861 0.6629 (  3441 PWs)   bands (ev):

   -15.1245 -15.1245 -15.0985 -15.0985 -15.0629 -15.0629 -15.0282 -15.0282
   -14.1319 -14.1319 -14.0975 -14.0975 -14.0476 -14.0476 -14.0024 -14.0024
   -13.9260 -13.9259 -13.8891 -13.8891  -1.1223  -1.1223   0.5709   0.5709
     4.1905   4.1905   4.7529   4.7529   8.7400   8.7400   9.4257   9.4257
    11.1907  11.1907  12.9166  12.9166

     occupation numbers 
     1.0000   1.0000   1.0000   1.0000   1.0000   1.0000   1.0000   1.0000
     1.0000   1.0000   1.0000   1.0000   1.0000   1.0000   1.0000   1.0000
     1.0000   1.0000   1.0000   1.0000   1.0000   1.0000   1.0000   1.0000
     1.0000   1.0000   1.0000   1.0000   0.0000   0.0000   0.0000   0.0000
     0.0000   0.0000   0.0000   0.0000

          k =-0.0884-0.4419 0.6187 (  3435 PWs)   bands (ev):

   -15.1256 -15.1256 -15.0953 -15.0953 -15.0665 -15.0665 -15.0264 -15.0264
   -14.1320 -14.1320 -14.0947 -14.0947 -14.0458 -14.0457 -14.0086 -14.0086
   -13.9265 -13.9265 -13.8863 -13.8863  -0.8844  -0.8844   0.2956   0.2956
     3.9954   3.9954   4.7415   4.7415   8.7992   8.7992  10.1387  10.1387
    11.0923  11.0923  12.3469  12.3469

     occupation numbers 
     1.0000   1.0000   1.0000   1.0000   1.0000   1.0000   1.0000   1.0000
     1.0000   1.0000   1.0000   1.0000   1.0000   1.0000   1.0000   1.0000
     1.0000   1.0000   1.0000   1.0000   1.0000   1.0000   1.0000   1.0000
     1.0000   1.0000   1.0000   1.0000   0.0000   0.0000   0.0000   0.0000
     0.0000   0.0000   0.0000   0.0000

          k =-0.0442-0.3977 0.5745 (  3442 PWs)   bands (ev):

   -15.1264 -15.1264 -15.0930 -15.0930 -15.0691 -15.0691 -15.0254 -15.0254
   -14.1327 -14.1327 -14.0937 -14.0937 -14.0460 -14.0460 -14.0090 -14.0090
   -13.9273 -13.9273 -13.8857 -13.8857  -0.8864  -0.8864   0.3005   0.3005
     3.8845   3.8845   4.8289   4.8289   8.8756   8.8756  10.5974  10.5974
    11.3001  11.3001  11.6386  11.6386

     occupation numbers 
     1.0000   1.0000   1.0000   1.0000   1.0000   1.0000   1.0000   1.0000
     1.0000   1.0000   1.0000   1.0000   1.0000   1.0000   1.0000   1.0000
     1.0000   1.0000   1.0000   1.0000   1.0000   1.0000   1.0000   1.0000
     1.0000   1.0000   1.0000   1.0000   0.0000   0.0000   0.0000   0.0000
     0.0000   0.0000   0.0000   0.0000

          k = 0.0000-0.3536 0.5303 (  3451 PWs)   bands (ev):

   -15.1269 -15.1269 -15.0924 -15.0924 -15.0699 -15.0698 -15.0253 -15.0253
   -14.1332 -14.1332 -14.0954 -14.0954 -14.0484 -14.0484 -14.0030 -14.0030
   -13.9277 -13.9277 -13.8875 -13.8875  -1.1218  -1.1218   0.5693   0.5693
     3.8975   3.8975   4.9935   4.9935   8.9505   8.9505  10.4641  10.4641
    10.9312  10.9312  12.1080  12.1080

     occupation numbers 
     1.0000   1.0000   1.0000   1.0000   1.0000   1.0000   1.0000   1.0000
     1.0000   1.0000   1.0000   1.0000   1.0000   1.0000   1.0000   1.0000
     1.0000   1.0000   1.0000   1.0000   1.0000   1.0000   1.0000   1.0000
     1.0000   1.0000   1.0000   1.0000   0.0000   0.0000   0.0000   0.0000
     0.0000   0.0000   0.0000   0.0000

          k =-0.0884-0.5303 0.7071 (  3435 PWs)   bands (ev):

   -15.1225 -15.1225 -15.1017 -15.1017 -15.0591 -15.0591 -15.0305 -15.0305
   -14.1297 -14.1297 -14.0997 -14.0997 -14.0422 -14.0422 -14.0097 -14.0097
   -13.9225 -13.9225 -13.8899 -13.8899  -0.9000  -0.9000   0.3037   0.3037
     4.3367   4.3367   4.5934   4.5934   8.5335   8.5335   8.7881   8.7881
    12.0291  12.0291  13.2512  13.2512

     occupation numbers 
     1.0000   1.0000   1.0000   1.0000   1.0000   1.0000   1.0000   1.0000
     1.0000   1.0000   1.0000   1.0000   1.0000   1.0000   1.0000   1.0000
     1.0000   1.0000   1.0000   1.0000   1.0000   1.0000   1.0000   1.0000
     1.0000   1.0000   1.0000   1.0000   0.0000   0.0000   0.0000   0.0000
     0.0000   0.0000   0.0000   0.0000

          k =-0.0442-0.4861 0.6629 (  3430 PWs)   bands (ev):

   -15.1238 -15.1238 -15.0987 -15.0987 -15.0626 -15.0626 -15.0283 -15.0282
   -14.1310 -14.1310 -14.0959 -14.0959 -14.0384 -14.0384 -14.0174 -14.0173
   -13.9242 -13.9242 -13.8865 -13.8865  -0.6166  -0.6166   0.0042   0.0042
     4.1338   4.1338   4.5463   4.5463   8.6905   8.6905   9.3719   9.3719
    11.8473  11.8473  12.5652  12.5652

     occupation numbers 
     1.0000   1.0000   1.0000   1.0000   1.0000   1.0000   1.0000   1.0000
     1.0000   1.0000   1.0000   1.0000   1.0000   1.0000   1.0000   1.0000
     1.0000   1.0000   1.0000   1.0000   1.0000   1.0000   1.0000   1.0000
     1.0000   1.0000   1.0000   1.0000   0.0000   0.0000   0.0000   0.0000
     0.0000   0.0000   0.0000   0.0000

          k = 0.0000-0.4419 0.6187 (  3433 PWs)   bands (ev):

   -15.1252 -15.1252 -15.0957 -15.0957 -15.0662 -15.0662 -15.0264 -15.0264
   -14.1322 -14.1322 -14.0933 -14.0933 -14.0400 -14.0400 -14.0172 -14.0171
   -13.9261 -13.9261 -13.8848 -13.8848  -0.6187  -0.6187   0.0157   0.0157
     3.9465   3.9465   4.6460   4.6460   8.7803   8.7803  10.1765  10.1765
    11.6558  11.6558  11.7550  11.7550

     occupation numbers 
     1.0000   1.0000   1.0000   1.0000   1.0000   1.0000   1.0000   1.0000
     1.0000   1.0000   1.0000   1.0000   1.0000   1.0000   1.0000   1.0000
     1.0000   1.0000   1.0000   1.0000   1.0000   1.0000   1.0000   1.0000
     1.0000   1.0000   1.0000   1.0000   0.0000   0.0000   0.0000   0.0000
     0.0000   0.0000   0.0000   0.0000

          k =-0.7071 0.1768 0.0000 (  3422 PWs)   bands (ev):

   -15.1221 -15.1221 -15.1018 -15.1018 -15.0588 -15.0588 -15.0306 -15.0306
   -14.1289 -14.1289 -14.0993 -14.0993 -14.0327 -14.0326 -14.0221 -14.0221
   -13.9210 -13.9210 -13.8888 -13.8888  -0.3345  -0.3344  -0.3036  -0.3036
     4.3348   4.3348   4.4728   4.4728   8.5503   8.5503   8.6901   8.6901
    12.6696  12.6696  12.8317  12.8317

     occupation numbers 
     1.0000   1.0000   1.0000   1.0000   1.0000   1.0000   1.0000   1.0000
     1.0000   1.0000   1.0000   1.0000   1.0000   1.0000   1.0000   1.0000
     1.0000   1.0000   1.0000   1.0000   1.0000   1.0000   1.0000   1.0000
     1.0000   1.0000   1.0000   1.0000   0.0000   0.0000   0.0000   0.0000
     0.0000   0.0000   0.0000   0.0000

          k =-0.1768-0.4419 0.7071 (  3445 PWs)   bands (ev):

   -15.1258 -15.1258 -15.0962 -15.0962 -15.0655 -15.0655 -15.0270 -15.0270
   -14.1336 -14.1336 -14.0968 -14.0968 -14.0497 -14.0497 -13.9978 -13.9978
   -13.9278 -13.9278 -13.8895 -13.8895  -1.2925  -1.2925   0.7820   0.7820
     4.1139   4.1139   4.9088   4.9088   9.2627   9.2627   9.5410   9.5410
    10.6360  10.6360  12.6934  12.6934

     occupation numbers 
     1.0000   1.0000   1.0000   1.0000   1.0000   1.0000   1.0000   1.0000
     1.0000   1.0000   1.0000   1.0000   1.0000   1.0000   1.0000   1.0000
     1.0000   1.0000   1.0000   1.0000   1.0000   1.0000   1.0000   1.0000
     1.0000   1.0000   1.0000   1.0000   0.0000   0.0000   0.0000   0.0000
     0.0000   0.0000   0.0000   0.0000

          k =-0.1326-0.3977 0.6629 (  3436 PWs)   bands (ev):

   -15.1261 -15.1261 -15.0940 -15.0940 -15.0680 -15.0680 -15.0257 -15.0257
   -14.1328 -14.1328 -14.0942 -14.0942 -14.0475 -14.0475 -14.0057 -14.0057
   -13.9277 -13.9276 -13.8864 -13.8864  -1.0090  -1.0090   0.4434   0.4434
     3.9866   3.9866   4.7542   4.7542   9.3343   9.3343   9.9840   9.9840
    10.7459  10.7459  12.2340  12.2340

     occupation numbers 
     1.0000   1.0000   1.0000   1.0000   1.0000   1.0000   1.0000   1.0000
     1.0000   1.0000   1.0000   1.0000   1.0000   1.0000   1.0000   1.0000
     1.0000   1.0000   1.0000   1.0000   1.0000   1.0000   1.0000   1.0000
     1.0000   1.0000   1.0000   1.0000   0.0000   0.0000   0.0000   0.0000
     0.0000   0.0000   0.0000   0.0000

          k =-0.0884-0.3536 0.6187 (  3438 PWs)   bands (ev):

   -15.1263 -15.1263 -15.0932 -15.0932 -15.0690 -15.0690 -15.0253 -15.0253
   -14.1328 -14.1328 -14.0930 -14.0930 -14.0465 -14.0465 -14.0090 -14.0090
   -13.9277 -13.9277 -13.8852 -13.8852  -0.8711  -0.8711   0.2860   0.2860
     3.9461   3.9461   4.6977   4.6977   9.3393   9.3393  10.1031  10.1031
    11.2450  11.2450  11.5795  11.5796

     occupation numbers 
     1.0000   1.0000   1.0000   1.0000   1.0000   1.0000   1.0000   1.0000
     1.0000   1.0000   1.0000   1.0000   1.0000   1.0000   1.0000   1.0000
     1.0000   1.0000   1.0000   1.0000   1.0000   1.0000   1.0000   1.0000
     1.0000   1.0000   1.0000   1.0000   0.0000   0.0000   0.0000   0.0000
     0.0000   0.0000   0.0000   0.0000

          k =-0.0884-0.4419 0.7071 (  3428 PWs)   bands (ev):

   -15.1249 -15.1249 -15.0965 -15.0965 -15.0652 -15.0651 -15.0268 -15.0268
   -14.1323 -14.1323 -14.0940 -14.0940 -14.0430 -14.0430 -14.0123 -14.0123
   -13.9264 -13.9264 -13.8855 -13.8855  -0.8166  -0.8166   0.2339   0.2339
     4.0972   4.0972   4.5228   4.5228   9.3220   9.3220   9.5370   9.5370
    11.0142  11.0142  12.4003  12.4003

     occupation numbers 
     1.0000   1.0000   1.0000   1.0000   1.0000   1.0000   1.0000   1.0000
     1.0000   1.0000   1.0000   1.0000   1.0000   1.0000   1.0000   1.0000
     1.0000   1.0000   1.0000   1.0000   1.0000   1.0000   1.0000   1.0000
     1.0000   1.0000   1.0000   1.0000   0.0000   0.0000   0.0000   0.0000
     0.0000   0.0000   0.0000   0.0000

          k =-0.0442-0.3977 0.6629 (  3430 PWs)   bands (ev):

   -15.1255 -15.1255 -15.0950 -15.0950 -15.0671 -15.0671 -15.0258 -15.0258
   -14.1330 -14.1330 -14.0914 -14.0914 -14.0401 -14.0401 -14.0183 -14.0182
   -13.9273 -13.9272 -13.8835 -13.8835  -0.5971  -0.5971   0.0051   0.0051
     4.0153   4.0153   4.4436   4.4436   9.4638   9.4638  10.1722  10.1722
    10.9390  10.9390  11.5522  11.5522

     occupation numbers 
     1.0000   1.0000   1.0000   1.0000   1.0000   1.0000   1.0000   1.0000
     1.0000   1.0000   1.0000   1.0000   1.0000   1.0000   1.0000   1.0000
     1.0000   1.0000   1.0000   1.0000   1.0000   1.0000   1.0000   1.0000
     1.0000   1.0000   1.0000   1.0000   0.0000   0.0000   0.0000   0.0000
     0.0000   0.0000   0.0000   0.0000

          k =-0.0000-0.3536 0.6187 (  3436 PWs)   bands (ev):

   -15.1259 -15.1259 -15.0940 -15.0940 -15.0682 -15.0682 -15.0254 -15.0254
   -14.1332 -14.1332 -14.0915 -14.0915 -14.0425 -14.0425 -14.0152 -14.0152
   -13.9277 -13.9277 -13.8838 -13.8838  -0.7187  -0.7187   0.1347   0.1347
     3.9547   3.9547   4.5428   4.5428   9.5125   9.5125  10.3538  10.3538
    10.8264  10.8264  11.4600  11.4600

     occupation numbers 
     1.0000   1.0000   1.0000   1.0000   1.0000   1.0000   1.0000   1.0000
     1.0000   1.0000   1.0000   1.0000   1.0000   1.0000   1.0000   1.0000
     1.0000   1.0000   1.0000   1.0000   1.0000   1.0000   1.0000   1.0000
     1.0000   1.0000   1.0000   1.0000   0.0000   0.0000   0.0000   0.0000
     0.0000   0.0000   0.0000   0.0000

          k =-0.7071 0.2652 0.0000 (  3426 PWs)   bands (ev):

   -15.1246 -15.1246 -15.0969 -15.0969 -15.0649 -15.0648 -15.0268 -15.0268
   -14.1322 -14.1322 -14.0926 -14.0926 -14.0354 -14.0354 -14.0228 -14.0228
   -13.9259 -13.9259 -13.8841 -13.8841  -0.3235  -0.3235  -0.2824  -0.2824
     4.1589   4.1589   4.3231   4.3231   9.3211   9.3211   9.5177   9.5177
    11.6274  11.6274  11.7337  11.7337

     occupation numbers 
     1.0000   1.0000   1.0000   1.0000   1.0000   1.0000   1.0000   1.0000
     1.0000   1.0000   1.0000   1.0000   1.0000   1.0000   1.0000   1.0000
     1.0000   1.0000   1.0000   1.0000   1.0000   1.0000   1.0000   1.0000
     1.0000   1.0000   1.0000   1.0000   0.0000   0.0000   0.0000   0.0000
     0.0000   0.0000   0.0000   0.0000

          k =-0.7071 0.3536 0.0000 (  3448 PWs)   bands (ev):

   -15.1256 -15.1256 -15.0950 -15.0950 -15.0676 -15.0675 -15.0256 -15.0256
   -14.1335 -14.1335 -14.0901 -14.0901 -14.0366 -14.0366 -14.0236 -14.0236
   -13.9278 -13.9278 -13.8827 -13.8827  -0.3186  -0.3186  -0.2738  -0.2738
     4.0930   4.0930   4.2652   4.2652   9.9159   9.9159  10.2382  10.2382
    10.9167  10.9167  10.9379  10.9379

     occupation numbers 
     1.0000   1.0000   1.0000   1.0000   1.0000   1.0000   1.0000   1.0000
     1.0000   1.0000   1.0000   1.0000   1.0000   1.0000   1.0000   1.0000
     1.0000   1.0000   1.0000   1.0000   1.0000   1.0000   1.0000   1.0000
     1.0000   1.0000   1.0000   1.0000   0.0000   0.0000   0.0000   0.0000
     0.0000   0.0000   0.0000   0.0000

     the Fermi energy is     6.9528 ev

!    total energy              =    -325.84050946 Ry
     Harris-Foulkes estimate   =    -325.84050939 Ry
     estimated scf accuracy    <       0.00000011 Ry

     The total energy is the sum of the following terms:

     one-electron contribution =    -157.74377684 Ry
     hartree contribution      =      95.53505494 Ry
     xc contribution           =     -96.10199214 Ry
     ewald contribution        =    -167.52979536 Ry
     smearing contrib. (-TS)   =      -0.00000006 Ry

     convergence has been achieved in   5 iterations

     Writing output data file Sn.save
 
     init_run     :      4.14s CPU      4.44s WALL (       1 calls)
     electrons    :     83.47s CPU     87.04s WALL (       1 calls)

     Called by init_run:
     wfcinit      :      3.84s CPU      4.00s WALL (       1 calls)
     potinit      :      0.02s CPU      0.02s WALL (       1 calls)

     Called by electrons:
     c_bands      :     70.21s CPU     73.32s WALL (       6 calls)
     sum_band     :     12.96s CPU     13.31s WALL (       6 calls)
     v_of_rho     :      0.03s CPU      0.03s WALL (       6 calls)
     v_h          :      0.00s CPU      0.00s WALL (       6 calls)
     v_xc         :      0.02s CPU      0.03s WALL (       6 calls)
     newd         :      0.30s CPU      0.33s WALL (       6 calls)
     mix_rho      :      0.01s CPU      0.05s WALL (       6 calls)

     Called by c_bands:
     init_us_2    :      0.20s CPU      0.27s WALL (    1885 calls)
     cegterg      :     65.92s CPU     68.79s WALL (     870 calls)

     Called by sum_band:
     sum_band:bec :      1.92s CPU      1.92s WALL (     870 calls)
     addusdens    :      0.11s CPU      0.15s WALL (       6 calls)

     Called by *egterg:
     h_psi        :     53.45s CPU     54.98s WALL (    3072 calls)
     s_psi        :      1.93s CPU      1.95s WALL (    3072 calls)
     g_psi        :      0.14s CPU      0.15s WALL (    2057 calls)
     cdiaghg      :      6.93s CPU      7.10s WALL (    2782 calls)
     cegterg:over :      2.52s CPU      2.54s WALL (    2057 calls)
     cegterg:upda :      1.17s CPU      1.18s WALL (    2057 calls)
     cegterg:last :      0.60s CPU      0.61s WALL (     870 calls)

     Called by h_psi:
     h_psi:vloc   :     48.85s CPU     50.31s WALL (    3072 calls)
     h_psi:vnl    :      4.45s CPU      4.51s WALL (    3072 calls)
     add_vuspsi   :      2.17s CPU      2.18s WALL (    3072 calls)

     General routines
     calbec       :      2.99s CPU      3.05s WALL (    3942 calls)
     fft          :      0.04s CPU      0.05s WALL (     116 calls)
     fftw         :     54.91s CPU     56.55s WALL (  391100 calls)
     davcio       :      0.02s CPU      0.21s WALL (     145 calls)
 
     Parallel routines
     fft_scatter  :     32.90s CPU     34.02s WALL (  391216 calls)
 
     PWSCF        :  1m28.49s CPU     1m32.82s WALL

 
   This run was terminated on:  19:53:40  15Mar2020            

=------------------------------------------------------------------------------=
   JOB DONE.
=------------------------------------------------------------------------------=
