
     Program PWSCF v.5.4.0 starts on 16Mar2020 at 22:54:38 

     This program is part of the open-source Quantum ESPRESSO suite
     for quantum simulation of materials; please cite
         "P. Giannozzi et al., J. Phys.:Condens. Matter 21 395502 (2009);
          URL http://www.quantum-espresso.org", 
     in publications or presentations arising from this work. More details at
     http://www.quantum-espresso.org/quote

     Parallel version (MPI & OpenMP), running on      16 processor cores
     Number of MPI processes:                16
     Threads/MPI process:                     1
     R & G space division:  proc/nbgrp/npool/nimage =      16
     Waiting for input...
     Reading input from standard input
Warning: card &IONS ignored
Warning: card / ignored
Warning: card &CELL ignored
Warning: card / ignored

     Current dimensions of program PWSCF are:
     Max number of different atomic species (ntypx) = 10
     Max number of k-points (npk) =  40000
     Max angular momentum in pseudopotentials (lmaxx) =  3
               file Sn.rel-pbe-dn-kjpaw_psl.0.2.UPF: wavefunction(s)  5P 5P 4D 4D renormalized

     Subspace diagonalization in iterative solution of the eigenvalue problem:
     a serial algorithm will be used

 
     Parallelization info
     --------------------
     sticks:   dense  smooth     PW     G-vecs:    dense   smooth      PW
     Min         109     109     31                 3022     3022     473
     Max         111     111     32                 3024     3024     477
     Sum        1759    1759    511                48359    48359    7583
 

     Title: 
     Sn                                                                         


     bravais-lattice index     =            0
     lattice parameter (alat)  =       8.9127  a.u.
     unit-cell volume          =     500.6268 (a.u.)^3
     number of atoms/cell      =            2
     number of atomic types    =            1
     number of electrons       =        28.00
     number of Kohn-Sham states=           36
     kinetic-energy cutoff     =      80.0000  Ry
     charge density cutoff     =     320.0000  Ry
     convergence threshold     =      1.0E-06
     mixing beta               =       0.7000
     number of iterations used =            8  plain     mixing
     Exchange-correlation      =  SLA  PW   PBX  PBC ( 1  4  3  4 0 0)
     Non magnetic calculation with spin-orbit


     celldm(1)=   8.912709  celldm(2)=   0.000000  celldm(3)=   0.000000
     celldm(4)=   0.000000  celldm(5)=   0.000000  celldm(6)=   0.000000

     crystal axes: (cart. coord. in units of alat)
               a(1) = (   0.000000   0.707107   0.707107 )  
               a(2) = (   0.707107   0.000000   0.707107 )  
               a(3) = (   0.707107   0.707107   0.000000 )  

     reciprocal axes: (cart. coord. in units 2 pi/alat)
               b(1) = ( -0.707107  0.707107  0.707107 )  
               b(2) = (  0.707107 -0.707107  0.707107 )  
               b(3) = (  0.707107  0.707107 -0.707107 )  


     PseudoPot. # 1 for Sn read from file:
     ../PseudopotentialDatabase/Sn.rel-pbe-dn-kjpaw_psl.0.2.UPF
     MD5 check sum: 79f626d90b2bb8cc2658247f48f3d9cb
     Pseudo is Projector augmented-wave + core cor, Zval = 14.0
     Generated using "atomic" code by A. Dal Corso  v.5.0.2 svn rev. 9415
     Shape of augmentation charge: BESSEL
     Using radial grid of 1243 points, 10 beta functions with: 
                l(1) =   0
                l(2) =   0
                l(3) =   1
                l(4) =   1
                l(5) =   1
                l(6) =   1
                l(7) =   2
                l(8) =   2
                l(9) =   2
               l(10) =   2
     Q(r) pseudized with 0 coefficients 


     atomic species   valence    mass     pseudopotential
        Sn            14.00   118.71000     Sn( 1.00)

     24 Sym. Ops. (no inversion) found
          (note: 24 additional sym.ops. were found but ignored
           their fractional translations are incommensurate with FFT grid)

                                    s                        frac. trans.

      isym =  1     identity                                     

 cryst.   s( 1) = (     1          0          0      )
                  (     0          1          0      )
                  (     0          0          1      )

 cart.    s( 1) = (  1.0000000  0.0000000  0.0000000 )
                  (  0.0000000  1.0000000  0.0000000 )
                  (  0.0000000  0.0000000  1.0000000 )


      isym =  2     180 deg rotation - cart. axis [0,0,1]        

 cryst.   s( 2) = (     0          1         -1      )
                  (     1          0         -1      )
                  (     0          0         -1      )

 cart.    s( 2) = ( -1.0000000  0.0000000  0.0000000 )
                  (  0.0000000 -1.0000000  0.0000000 )
                  (  0.0000000  0.0000000  1.0000000 )


      isym =  3     180 deg rotation - cart. axis [0,1,0]        

 cryst.   s( 3) = (     0         -1          1      )
                  (     0         -1          0      )
                  (     1         -1          0      )

 cart.    s( 3) = ( -1.0000000  0.0000000  0.0000000 )
                  (  0.0000000  1.0000000  0.0000000 )
                  (  0.0000000  0.0000000 -1.0000000 )


      isym =  4     180 deg rotation - cart. axis [1,0,0]        

 cryst.   s( 4) = (    -1          0          0      )
                  (    -1          0          1      )
                  (    -1          1          0      )

 cart.    s( 4) = (  1.0000000  0.0000000  0.0000000 )
                  (  0.0000000 -1.0000000  0.0000000 )
                  (  0.0000000  0.0000000 -1.0000000 )


      isym =  5     120 deg rotation - cart. axis [-1,-1,-1]     

 cryst.   s( 5) = (     0          0          1      )
                  (     1          0          0      )
                  (     0          1          0      )

 cart.    s( 5) = (  0.0000000  1.0000000  0.0000000 )
                  (  0.0000000  0.0000000  1.0000000 )
                  (  1.0000000  0.0000000  0.0000000 )


      isym =  6     120 deg rotation - cart. axis [-1,1,1]       

 cryst.   s( 6) = (     1         -1          0      )
                  (     0         -1          1      )
                  (     0         -1          0      )

 cart.    s( 6) = (  0.0000000 -1.0000000  0.0000000 )
                  (  0.0000000  0.0000000  1.0000000 )
                  ( -1.0000000  0.0000000  0.0000000 )


      isym =  7     120 deg rotation - cart. axis [1,1,-1]       

 cryst.   s( 7) = (    -1          1          0      )
                  (    -1          0          0      )
                  (    -1          0          1      )

 cart.    s( 7) = (  0.0000000  1.0000000  0.0000000 )
                  (  0.0000000  0.0000000 -1.0000000 )
                  ( -1.0000000  0.0000000  0.0000000 )


      isym =  8     120 deg rotation - cart. axis [1,-1,1]       

 cryst.   s( 8) = (     0          0         -1      )
                  (     0          1         -1      )
                  (     1          0         -1      )

 cart.    s( 8) = (  0.0000000 -1.0000000  0.0000000 )
                  (  0.0000000  0.0000000 -1.0000000 )
                  (  1.0000000  0.0000000  0.0000000 )


      isym =  9     120 deg rotation - cart. axis [1,1,1]        

 cryst.   s( 9) = (     0          1          0      )
                  (     0          0          1      )
                  (     1          0          0      )

 cart.    s( 9) = (  0.0000000  0.0000000  1.0000000 )
                  (  1.0000000  0.0000000  0.0000000 )
                  (  0.0000000  1.0000000  0.0000000 )


      isym = 10     120 deg rotation - cart. axis [-1,1,-1]      

 cryst.   s(10) = (    -1          0          1      )
                  (    -1          1          0      )
                  (    -1          0          0      )

 cart.    s(10) = (  0.0000000  0.0000000  1.0000000 )
                  ( -1.0000000  0.0000000  0.0000000 )
                  (  0.0000000 -1.0000000  0.0000000 )


      isym = 11     120 deg rotation - cart. axis [1,-1,-1]      

 cryst.   s(11) = (     1          0         -1      )
                  (     0          0         -1      )
                  (     0          1         -1      )

 cart.    s(11) = (  0.0000000  0.0000000 -1.0000000 )
                  ( -1.0000000  0.0000000  0.0000000 )
                  (  0.0000000  1.0000000  0.0000000 )


      isym = 12     120 deg rotation - cart. axis [-1,-1,1]      

 cryst.   s(12) = (     0         -1          0      )
                  (     1         -1          0      )
                  (     0         -1          1      )

 cart.    s(12) = (  0.0000000  0.0000000 -1.0000000 )
                  (  1.0000000  0.0000000  0.0000000 )
                  (  0.0000000 -1.0000000  0.0000000 )


      isym = 13     inv. 180 deg rotation - cart. axis [1,1,0]   

 cryst.   s(13) = (     1          0         -1      )
                  (     0          1         -1      )
                  (     0          0         -1      )

 cart.    s(13) = (  0.0000000 -1.0000000  0.0000000 )
                  ( -1.0000000  0.0000000  0.0000000 )
                  (  0.0000000  0.0000000  1.0000000 )


      isym = 14     inv. 180 deg rotation - cart. axis [1,-1,0]  

 cryst.   s(14) = (     0          1          0      )
                  (     1          0          0      )
                  (     0          0          1      )

 cart.    s(14) = (  0.0000000  1.0000000  0.0000000 )
                  (  1.0000000  0.0000000  0.0000000 )
                  (  0.0000000  0.0000000  1.0000000 )


      isym = 15     inv.  90 deg rotation - cart. axis [0,0,-1]  

 cryst.   s(15) = (     0         -1          0      )
                  (     0         -1          1      )
                  (     1         -1          0      )

 cart.    s(15) = (  0.0000000 -1.0000000  0.0000000 )
                  (  1.0000000  0.0000000  0.0000000 )
                  (  0.0000000  0.0000000 -1.0000000 )


      isym = 16     inv.  90 deg rotation - cart. axis [0,0,1]   

 cryst.   s(16) = (    -1          0          1      )
                  (    -1          0          0      )
                  (    -1          1          0      )

 cart.    s(16) = (  0.0000000  1.0000000  0.0000000 )
                  ( -1.0000000  0.0000000  0.0000000 )
                  (  0.0000000  0.0000000 -1.0000000 )


      isym = 17     inv. 180 deg rotation - cart. axis [1,0,1]   

 cryst.   s(17) = (     1         -1          0      )
                  (     0         -1          0      )
                  (     0         -1          1      )

 cart.    s(17) = (  0.0000000  0.0000000 -1.0000000 )
                  (  0.0000000  1.0000000  0.0000000 )
                  ( -1.0000000  0.0000000  0.0000000 )


      isym = 18     inv. 180 deg rotation - cart. axis [-1,0,1]  

 cryst.   s(18) = (     0          0          1      )
                  (     0          1          0      )
                  (     1          0          0      )

 cart.    s(18) = (  0.0000000  0.0000000  1.0000000 )
                  (  0.0000000  1.0000000  0.0000000 )
                  (  1.0000000  0.0000000  0.0000000 )


      isym = 19     inv.  90 deg rotation - cart. axis [0,1,0]   

 cryst.   s(19) = (     0          0         -1      )
                  (     1          0         -1      )
                  (     0          1         -1      )

 cart.    s(19) = (  0.0000000  0.0000000 -1.0000000 )
                  (  0.0000000 -1.0000000  0.0000000 )
                  (  1.0000000  0.0000000  0.0000000 )


      isym = 20     inv.  90 deg rotation - cart. axis [0,-1,0]  

 cryst.   s(20) = (    -1          1          0      )
                  (    -1          0          1      )
                  (    -1          0          0      )

 cart.    s(20) = (  0.0000000  0.0000000  1.0000000 )
                  (  0.0000000 -1.0000000  0.0000000 )
                  ( -1.0000000  0.0000000  0.0000000 )


      isym = 21     inv. 180 deg rotation - cart. axis [0,1,1]   

 cryst.   s(21) = (    -1          0          0      )
                  (    -1          1          0      )
                  (    -1          0          1      )

 cart.    s(21) = (  1.0000000  0.0000000  0.0000000 )
                  (  0.0000000  0.0000000 -1.0000000 )
                  (  0.0000000 -1.0000000  0.0000000 )


      isym = 22     inv. 180 deg rotation - cart. axis [0,1,-1]  

 cryst.   s(22) = (     1          0          0      )
                  (     0          0          1      )
                  (     0          1          0      )

 cart.    s(22) = (  1.0000000  0.0000000  0.0000000 )
                  (  0.0000000  0.0000000  1.0000000 )
                  (  0.0000000  1.0000000  0.0000000 )


      isym = 23     inv.  90 deg rotation - cart. axis [-1,0,0]  

 cryst.   s(23) = (     0          1         -1      )
                  (     0          0         -1      )
                  (     1          0         -1      )

 cart.    s(23) = ( -1.0000000  0.0000000  0.0000000 )
                  (  0.0000000  0.0000000 -1.0000000 )
                  (  0.0000000  1.0000000  0.0000000 )


      isym = 24     inv.  90 deg rotation - cart. axis [1,0,0]   

 cryst.   s(24) = (     0         -1          1      )
                  (     1         -1          0      )
                  (     0         -1          0      )

 cart.    s(24) = ( -1.0000000  0.0000000  0.0000000 )
                  (  0.0000000  0.0000000  1.0000000 )
                  (  0.0000000 -1.0000000  0.0000000 )


   Cartesian axes

     site n.     atom                  positions (alat units)
         1           Sn  tau(   1) = (   0.0000000   0.0000000   0.0000000  )
         2           Sn  tau(   2) = (   0.3535534   0.3535534   0.3535534  )

   Crystallographic axes

     site n.     atom                  positions (cryst. coord.)
         1           Sn  tau(   1) = (  0.0000000  0.0000000  0.0000000  )
         2           Sn  tau(   2) = (  0.2500000  0.2500000  0.2500000  )

     number of k points=   145  gaussian smearing, width (Ry)=  0.0001
                       cart. coord. in units 2pi/alat
        k(    1) = (   0.0000000   0.0000000   0.0000000), wk =   0.0002441
        k(    2) = (   0.0441942   0.0441942  -0.0441942), wk =   0.0019531
        k(    3) = (   0.0883883   0.0883883  -0.0883883), wk =   0.0019531
        k(    4) = (   0.1325825   0.1325825  -0.1325825), wk =   0.0019531
        k(    5) = (   0.1767767   0.1767767  -0.1767767), wk =   0.0019531
        k(    6) = (   0.2209709   0.2209709  -0.2209709), wk =   0.0019531
        k(    7) = (   0.2651650   0.2651650  -0.2651650), wk =   0.0019531
        k(    8) = (   0.3093592   0.3093592  -0.3093592), wk =   0.0019531
        k(    9) = (  -0.3535534  -0.3535534   0.3535534), wk =   0.0009766
        k(   10) = (   0.0883883   0.0000000   0.0000000), wk =   0.0014648
        k(   11) = (   0.1325825   0.0441942  -0.0441942), wk =   0.0058594
        k(   12) = (   0.1767767   0.0883883  -0.0883883), wk =   0.0058594
        k(   13) = (   0.2209709   0.1325825  -0.1325825), wk =   0.0058594
        k(   14) = (   0.2651650   0.1767767  -0.1767767), wk =   0.0058594
        k(   15) = (   0.3093592   0.2209709  -0.2209709), wk =   0.0058594
        k(   16) = (   0.3535534   0.2651650  -0.2651650), wk =   0.0058594
        k(   17) = (  -0.3093592  -0.3977476   0.3977476), wk =   0.0058594
        k(   18) = (  -0.2651650  -0.3535534   0.3535534), wk =   0.0058594
        k(   19) = (  -0.2209709  -0.3093592   0.3093592), wk =   0.0058594
        k(   20) = (  -0.1767767  -0.2651650   0.2651650), wk =   0.0058594
        k(   21) = (  -0.1325825  -0.2209709   0.2209709), wk =   0.0058594
        k(   22) = (  -0.0883883  -0.1767767   0.1767767), wk =   0.0058594
        k(   23) = (  -0.0441942  -0.1325825   0.1325825), wk =   0.0058594
        k(   24) = (   0.0000000  -0.0883883   0.0883883), wk =   0.0029297
        k(   25) = (   0.1767767   0.0000000   0.0000000), wk =   0.0014648
        k(   26) = (   0.2209709   0.0441942  -0.0441942), wk =   0.0058594
        k(   27) = (   0.2651650   0.0883883  -0.0883883), wk =   0.0058594
        k(   28) = (   0.3093592   0.1325825  -0.1325825), wk =   0.0058594
        k(   29) = (   0.3535534   0.1767767  -0.1767767), wk =   0.0058594
        k(   30) = (   0.3977476   0.2209709  -0.2209709), wk =   0.0058594
        k(   31) = (  -0.2651650  -0.4419417   0.4419417), wk =   0.0058594
        k(   32) = (  -0.2209709  -0.3977476   0.3977476), wk =   0.0058594
        k(   33) = (  -0.1767767  -0.3535534   0.3535534), wk =   0.0058594
        k(   34) = (  -0.1325825  -0.3093592   0.3093592), wk =   0.0058594
        k(   35) = (  -0.0883883  -0.2651650   0.2651650), wk =   0.0058594
        k(   36) = (  -0.0441942  -0.2209709   0.2209709), wk =   0.0058594
        k(   37) = (   0.0000000  -0.1767767   0.1767767), wk =   0.0029297
        k(   38) = (   0.2651650   0.0000000   0.0000000), wk =   0.0014648
        k(   39) = (   0.3093592   0.0441942  -0.0441942), wk =   0.0058594
        k(   40) = (   0.3535534   0.0883883  -0.0883883), wk =   0.0058594
        k(   41) = (   0.3977476   0.1325825  -0.1325825), wk =   0.0058594
        k(   42) = (   0.4419417   0.1767767  -0.1767767), wk =   0.0058594
        k(   43) = (  -0.2209709  -0.4861359   0.4861359), wk =   0.0058594
        k(   44) = (  -0.1767767  -0.4419417   0.4419417), wk =   0.0058594
        k(   45) = (  -0.1325825  -0.3977476   0.3977476), wk =   0.0058594
        k(   46) = (  -0.0883883  -0.3535534   0.3535534), wk =   0.0058594
        k(   47) = (  -0.0441942  -0.3093592   0.3093592), wk =   0.0058594
        k(   48) = (   0.0000000  -0.2651650   0.2651650), wk =   0.0029297
        k(   49) = (   0.3535534   0.0000000   0.0000000), wk =   0.0014648
        k(   50) = (   0.3977476   0.0441942  -0.0441942), wk =   0.0058594
        k(   51) = (   0.4419417   0.0883883  -0.0883883), wk =   0.0058594
        k(   52) = (   0.4861359   0.1325825  -0.1325825), wk =   0.0058594
        k(   53) = (  -0.1767767  -0.5303301   0.5303301), wk =   0.0058594
        k(   54) = (  -0.1325825  -0.4861359   0.4861359), wk =   0.0058594
        k(   55) = (  -0.0883883  -0.4419417   0.4419417), wk =   0.0058594
        k(   56) = (  -0.0441942  -0.3977476   0.3977476), wk =   0.0058594
        k(   57) = (   0.0000000  -0.3535534   0.3535534), wk =   0.0029297
        k(   58) = (   0.4419417   0.0000000   0.0000000), wk =   0.0014648
        k(   59) = (   0.4861359   0.0441942  -0.0441942), wk =   0.0058594
        k(   60) = (   0.5303301   0.0883883  -0.0883883), wk =   0.0058594
        k(   61) = (  -0.1325825  -0.5745243   0.5745243), wk =   0.0058594
        k(   62) = (  -0.0883883  -0.5303301   0.5303301), wk =   0.0058594
        k(   63) = (  -0.0441942  -0.4861359   0.4861359), wk =   0.0058594
        k(   64) = (   0.0000000  -0.4419417   0.4419417), wk =   0.0029297
        k(   65) = (   0.5303301   0.0000000   0.0000000), wk =   0.0014648
        k(   66) = (   0.5745243   0.0441942  -0.0441942), wk =   0.0058594
        k(   67) = (  -0.0883883  -0.6187184   0.6187184), wk =   0.0058594
        k(   68) = (  -0.0441942  -0.5745243   0.5745243), wk =   0.0058594
        k(   69) = (   0.0000000  -0.5303301   0.5303301), wk =   0.0029297
        k(   70) = (   0.6187184   0.0000000   0.0000000), wk =   0.0014648
        k(   71) = (  -0.0441942  -0.6629126   0.6629126), wk =   0.0058594
        k(   72) = (   0.0000000  -0.6187184   0.6187184), wk =   0.0029297
        k(   73) = (  -0.7071068   0.0000000   0.0000000), wk =   0.0007324
        k(   74) = (   0.1767767   0.0883883   0.0000000), wk =   0.0058594
        k(   75) = (   0.2209709   0.1325825  -0.0441942), wk =   0.0117188
        k(   76) = (   0.2651650   0.1767767  -0.0883883), wk =   0.0117188
        k(   77) = (   0.3093592   0.2209709  -0.1325825), wk =   0.0117188
        k(   78) = (   0.3535534   0.2651650  -0.1767767), wk =   0.0117188
        k(   79) = (  -0.3093592  -0.3977476   0.4861359), wk =   0.0117188
        k(   80) = (  -0.2651650  -0.3535534   0.4419417), wk =   0.0058594
        k(   81) = (   0.2651650   0.0883883   0.0000000), wk =   0.0058594
        k(   82) = (   0.3093592   0.1325825  -0.0441942), wk =   0.0117188
        k(   83) = (   0.3535534   0.1767767  -0.0883883), wk =   0.0117188
        k(   84) = (   0.3977476   0.2209709  -0.1325825), wk =   0.0117188
        k(   85) = (  -0.2651650  -0.4419417   0.5303301), wk =   0.0117188
        k(   86) = (  -0.2209709  -0.3977476   0.4861359), wk =   0.0117188
        k(   87) = (  -0.1767767  -0.3535534   0.4419417), wk =   0.0117188
        k(   88) = (  -0.1325825  -0.3093592   0.3977476), wk =   0.0117188
        k(   89) = (  -0.0883883  -0.2651650   0.3535534), wk =   0.0117188
        k(   90) = (  -0.0441942  -0.2209709   0.3093592), wk =   0.0117188
        k(   91) = (   0.0000000  -0.1767767   0.2651650), wk =   0.0058594
        k(   92) = (   0.3535534   0.0883883   0.0000000), wk =   0.0058594
        k(   93) = (   0.3977476   0.1325825  -0.0441942), wk =   0.0117188
        k(   94) = (   0.4419417   0.1767767  -0.0883883), wk =   0.0117188
        k(   95) = (  -0.2209709  -0.4861359   0.5745243), wk =   0.0117188
        k(   96) = (  -0.1767767  -0.4419417   0.5303301), wk =   0.0117188
        k(   97) = (  -0.1325825  -0.3977476   0.4861359), wk =   0.0117188
        k(   98) = (  -0.0883883  -0.3535534   0.4419417), wk =   0.0117188
        k(   99) = (  -0.0441942  -0.3093592   0.3977476), wk =   0.0117188
        k(  100) = (   0.0000000  -0.2651650   0.3535534), wk =   0.0058594
        k(  101) = (   0.4419417   0.0883883   0.0000000), wk =   0.0058594
        k(  102) = (   0.4861359   0.1325825  -0.0441942), wk =   0.0117188
        k(  103) = (  -0.1767767  -0.5303301   0.6187184), wk =   0.0117188
        k(  104) = (  -0.1325825  -0.4861359   0.5745243), wk =   0.0117188
        k(  105) = (  -0.0883883  -0.4419417   0.5303301), wk =   0.0117188
        k(  106) = (  -0.0441942  -0.3977476   0.4861359), wk =   0.0117188
        k(  107) = (   0.0000000  -0.3535534   0.4419417), wk =   0.0058594
        k(  108) = (   0.5303301   0.0883883   0.0000000), wk =   0.0058594
        k(  109) = (  -0.1325825  -0.5745243   0.6629126), wk =   0.0117188
        k(  110) = (  -0.0883883  -0.5303301   0.6187184), wk =   0.0117188
        k(  111) = (  -0.0441942  -0.4861359   0.5745243), wk =   0.0117188
        k(  112) = (   0.0000000  -0.4419417   0.5303301), wk =   0.0058594
        k(  113) = (  -0.0883883  -0.6187184   0.7071068), wk =   0.0058594
        k(  114) = (  -0.0441942  -0.5745243   0.6629126), wk =   0.0117188
        k(  115) = (  -0.0000000  -0.5303301   0.6187184), wk =   0.0058594
        k(  116) = (  -0.7071068   0.0883883   0.0000000), wk =   0.0029297
        k(  117) = (   0.3535534   0.1767767   0.0000000), wk =   0.0058594
        k(  118) = (   0.3977476   0.2209709  -0.0441942), wk =   0.0117188
        k(  119) = (  -0.2651650  -0.4419417   0.6187184), wk =   0.0117188
        k(  120) = (  -0.2209709  -0.3977476   0.5745243), wk =   0.0117188
        k(  121) = (  -0.1767767  -0.3535534   0.5303301), wk =   0.0058594
        k(  122) = (   0.4419417   0.1767767   0.0000000), wk =   0.0058594
        k(  123) = (  -0.2209709  -0.4861359   0.6629126), wk =   0.0117188
        k(  124) = (  -0.1767767  -0.4419417   0.6187184), wk =   0.0117188
        k(  125) = (  -0.1325825  -0.3977476   0.5745243), wk =   0.0117188
        k(  126) = (  -0.0883883  -0.3535534   0.5303301), wk =   0.0117188
        k(  127) = (  -0.0441942  -0.3093592   0.4861359), wk =   0.0117188
        k(  128) = (   0.0000000  -0.2651650   0.4419417), wk =   0.0058594
        k(  129) = (  -0.1767767  -0.5303301   0.7071068), wk =   0.0058594
        k(  130) = (  -0.1325825  -0.4861359   0.6629126), wk =   0.0117188
        k(  131) = (  -0.0883883  -0.4419417   0.6187184), wk =   0.0117188
        k(  132) = (  -0.0441942  -0.3977476   0.5745243), wk =   0.0117188
        k(  133) = (   0.0000000  -0.3535534   0.5303301), wk =   0.0058594
        k(  134) = (  -0.0883883  -0.5303301   0.7071068), wk =   0.0058594
        k(  135) = (  -0.0441942  -0.4861359   0.6629126), wk =   0.0117188
        k(  136) = (   0.0000000  -0.4419417   0.6187184), wk =   0.0058594
        k(  137) = (  -0.7071068   0.1767767   0.0000000), wk =   0.0029297
        k(  138) = (  -0.1767767  -0.4419417   0.7071068), wk =   0.0058594
        k(  139) = (  -0.1325825  -0.3977476   0.6629126), wk =   0.0117188
        k(  140) = (  -0.0883883  -0.3535534   0.6187184), wk =   0.0058594
        k(  141) = (  -0.0883883  -0.4419417   0.7071068), wk =   0.0058594
        k(  142) = (  -0.0441942  -0.3977476   0.6629126), wk =   0.0117188
        k(  143) = (  -0.0000000  -0.3535534   0.6187184), wk =   0.0058594
        k(  144) = (  -0.7071068   0.2651650   0.0000000), wk =   0.0029297
        k(  145) = (  -0.7071068   0.3535534   0.0000000), wk =   0.0014648

                       cryst. coord.
        k(    1) = (   0.0000000   0.0000000   0.0000000), wk =   0.0002441
        k(    2) = (   0.0000000   0.0000000   0.0625000), wk =   0.0019531
        k(    3) = (   0.0000000   0.0000000   0.1250000), wk =   0.0019531
        k(    4) = (   0.0000000   0.0000000   0.1875000), wk =   0.0019531
        k(    5) = (   0.0000000   0.0000000   0.2500000), wk =   0.0019531
        k(    6) = (   0.0000000   0.0000000   0.3125000), wk =   0.0019531
        k(    7) = (   0.0000000   0.0000000   0.3750000), wk =   0.0019531
        k(    8) = (   0.0000000   0.0000000   0.4375000), wk =   0.0019531
        k(    9) = (   0.0000000   0.0000000  -0.5000000), wk =   0.0009766
        k(   10) = (   0.0000000   0.0625000   0.0625000), wk =   0.0014648
        k(   11) = (   0.0000000   0.0625000   0.1250000), wk =   0.0058594
        k(   12) = (   0.0000000   0.0625000   0.1875000), wk =   0.0058594
        k(   13) = (   0.0000000   0.0625000   0.2500000), wk =   0.0058594
        k(   14) = (   0.0000000   0.0625000   0.3125000), wk =   0.0058594
        k(   15) = (   0.0000000   0.0625000   0.3750000), wk =   0.0058594
        k(   16) = (   0.0000000   0.0625000   0.4375000), wk =   0.0058594
        k(   17) = (   0.0000000   0.0625000  -0.5000000), wk =   0.0058594
        k(   18) = (   0.0000000   0.0625000  -0.4375000), wk =   0.0058594
        k(   19) = (   0.0000000   0.0625000  -0.3750000), wk =   0.0058594
        k(   20) = (   0.0000000   0.0625000  -0.3125000), wk =   0.0058594
        k(   21) = (   0.0000000   0.0625000  -0.2500000), wk =   0.0058594
        k(   22) = (   0.0000000   0.0625000  -0.1875000), wk =   0.0058594
        k(   23) = (   0.0000000   0.0625000  -0.1250000), wk =   0.0058594
        k(   24) = (   0.0000000   0.0625000  -0.0625000), wk =   0.0029297
        k(   25) = (   0.0000000   0.1250000   0.1250000), wk =   0.0014648
        k(   26) = (   0.0000000   0.1250000   0.1875000), wk =   0.0058594
        k(   27) = (   0.0000000   0.1250000   0.2500000), wk =   0.0058594
        k(   28) = (   0.0000000   0.1250000   0.3125000), wk =   0.0058594
        k(   29) = (   0.0000000   0.1250000   0.3750000), wk =   0.0058594
        k(   30) = (   0.0000000   0.1250000   0.4375000), wk =   0.0058594
        k(   31) = (   0.0000000   0.1250000  -0.5000000), wk =   0.0058594
        k(   32) = (   0.0000000   0.1250000  -0.4375000), wk =   0.0058594
        k(   33) = (   0.0000000   0.1250000  -0.3750000), wk =   0.0058594
        k(   34) = (   0.0000000   0.1250000  -0.3125000), wk =   0.0058594
        k(   35) = (   0.0000000   0.1250000  -0.2500000), wk =   0.0058594
        k(   36) = (   0.0000000   0.1250000  -0.1875000), wk =   0.0058594
        k(   37) = (   0.0000000   0.1250000  -0.1250000), wk =   0.0029297
        k(   38) = (   0.0000000   0.1875000   0.1875000), wk =   0.0014648
        k(   39) = (   0.0000000   0.1875000   0.2500000), wk =   0.0058594
        k(   40) = (   0.0000000   0.1875000   0.3125000), wk =   0.0058594
        k(   41) = (   0.0000000   0.1875000   0.3750000), wk =   0.0058594
        k(   42) = (   0.0000000   0.1875000   0.4375000), wk =   0.0058594
        k(   43) = (   0.0000000   0.1875000  -0.5000000), wk =   0.0058594
        k(   44) = (   0.0000000   0.1875000  -0.4375000), wk =   0.0058594
        k(   45) = (   0.0000000   0.1875000  -0.3750000), wk =   0.0058594
        k(   46) = (   0.0000000   0.1875000  -0.3125000), wk =   0.0058594
        k(   47) = (   0.0000000   0.1875000  -0.2500000), wk =   0.0058594
        k(   48) = (   0.0000000   0.1875000  -0.1875000), wk =   0.0029297
        k(   49) = (   0.0000000   0.2500000   0.2500000), wk =   0.0014648
        k(   50) = (   0.0000000   0.2500000   0.3125000), wk =   0.0058594
        k(   51) = (   0.0000000   0.2500000   0.3750000), wk =   0.0058594
        k(   52) = (   0.0000000   0.2500000   0.4375000), wk =   0.0058594
        k(   53) = (   0.0000000   0.2500000  -0.5000000), wk =   0.0058594
        k(   54) = (   0.0000000   0.2500000  -0.4375000), wk =   0.0058594
        k(   55) = (   0.0000000   0.2500000  -0.3750000), wk =   0.0058594
        k(   56) = (   0.0000000   0.2500000  -0.3125000), wk =   0.0058594
        k(   57) = (   0.0000000   0.2500000  -0.2500000), wk =   0.0029297
        k(   58) = (   0.0000000   0.3125000   0.3125000), wk =   0.0014648
        k(   59) = (   0.0000000   0.3125000   0.3750000), wk =   0.0058594
        k(   60) = (   0.0000000   0.3125000   0.4375000), wk =   0.0058594
        k(   61) = (   0.0000000   0.3125000  -0.5000000), wk =   0.0058594
        k(   62) = (   0.0000000   0.3125000  -0.4375000), wk =   0.0058594
        k(   63) = (   0.0000000   0.3125000  -0.3750000), wk =   0.0058594
        k(   64) = (   0.0000000   0.3125000  -0.3125000), wk =   0.0029297
        k(   65) = (   0.0000000   0.3750000   0.3750000), wk =   0.0014648
        k(   66) = (   0.0000000   0.3750000   0.4375000), wk =   0.0058594
        k(   67) = (   0.0000000   0.3750000  -0.5000000), wk =   0.0058594
        k(   68) = (   0.0000000   0.3750000  -0.4375000), wk =   0.0058594
        k(   69) = (   0.0000000   0.3750000  -0.3750000), wk =   0.0029297
        k(   70) = (   0.0000000   0.4375000   0.4375000), wk =   0.0014648
        k(   71) = (   0.0000000   0.4375000  -0.5000000), wk =   0.0058594
        k(   72) = (   0.0000000   0.4375000  -0.4375000), wk =   0.0029297
        k(   73) = (   0.0000000  -0.5000000  -0.5000000), wk =   0.0007324
        k(   74) = (   0.0625000   0.1250000   0.1875000), wk =   0.0058594
        k(   75) = (   0.0625000   0.1250000   0.2500000), wk =   0.0117188
        k(   76) = (   0.0625000   0.1250000   0.3125000), wk =   0.0117188
        k(   77) = (   0.0625000   0.1250000   0.3750000), wk =   0.0117188
        k(   78) = (   0.0625000   0.1250000   0.4375000), wk =   0.0117188
        k(   79) = (   0.0625000   0.1250000  -0.5000000), wk =   0.0117188
        k(   80) = (   0.0625000   0.1250000  -0.4375000), wk =   0.0058594
        k(   81) = (   0.0625000   0.1875000   0.2500000), wk =   0.0058594
        k(   82) = (   0.0625000   0.1875000   0.3125000), wk =   0.0117188
        k(   83) = (   0.0625000   0.1875000   0.3750000), wk =   0.0117188
        k(   84) = (   0.0625000   0.1875000   0.4375000), wk =   0.0117188
        k(   85) = (   0.0625000   0.1875000  -0.5000000), wk =   0.0117188
        k(   86) = (   0.0625000   0.1875000  -0.4375000), wk =   0.0117188
        k(   87) = (   0.0625000   0.1875000  -0.3750000), wk =   0.0117188
        k(   88) = (   0.0625000   0.1875000  -0.3125000), wk =   0.0117188
        k(   89) = (   0.0625000   0.1875000  -0.2500000), wk =   0.0117188
        k(   90) = (   0.0625000   0.1875000  -0.1875000), wk =   0.0117188
        k(   91) = (   0.0625000   0.1875000  -0.1250000), wk =   0.0058594
        k(   92) = (   0.0625000   0.2500000   0.3125000), wk =   0.0058594
        k(   93) = (   0.0625000   0.2500000   0.3750000), wk =   0.0117188
        k(   94) = (   0.0625000   0.2500000   0.4375000), wk =   0.0117188
        k(   95) = (   0.0625000   0.2500000  -0.5000000), wk =   0.0117188
        k(   96) = (   0.0625000   0.2500000  -0.4375000), wk =   0.0117188
        k(   97) = (   0.0625000   0.2500000  -0.3750000), wk =   0.0117188
        k(   98) = (   0.0625000   0.2500000  -0.3125000), wk =   0.0117188
        k(   99) = (   0.0625000   0.2500000  -0.2500000), wk =   0.0117188
        k(  100) = (   0.0625000   0.2500000  -0.1875000), wk =   0.0058594
        k(  101) = (   0.0625000   0.3125000   0.3750000), wk =   0.0058594
        k(  102) = (   0.0625000   0.3125000   0.4375000), wk =   0.0117188
        k(  103) = (   0.0625000   0.3125000  -0.5000000), wk =   0.0117188
        k(  104) = (   0.0625000   0.3125000  -0.4375000), wk =   0.0117188
        k(  105) = (   0.0625000   0.3125000  -0.3750000), wk =   0.0117188
        k(  106) = (   0.0625000   0.3125000  -0.3125000), wk =   0.0117188
        k(  107) = (   0.0625000   0.3125000  -0.2500000), wk =   0.0058594
        k(  108) = (   0.0625000   0.3750000   0.4375000), wk =   0.0058594
        k(  109) = (   0.0625000   0.3750000  -0.5000000), wk =   0.0117188
        k(  110) = (   0.0625000   0.3750000  -0.4375000), wk =   0.0117188
        k(  111) = (   0.0625000   0.3750000  -0.3750000), wk =   0.0117188
        k(  112) = (   0.0625000   0.3750000  -0.3125000), wk =   0.0058594
        k(  113) = (   0.0625000   0.4375000  -0.5000000), wk =   0.0058594
        k(  114) = (   0.0625000   0.4375000  -0.4375000), wk =   0.0117188
        k(  115) = (   0.0625000   0.4375000  -0.3750000), wk =   0.0058594
        k(  116) = (   0.0625000  -0.5000000  -0.4375000), wk =   0.0029297
        k(  117) = (   0.1250000   0.2500000   0.3750000), wk =   0.0058594
        k(  118) = (   0.1250000   0.2500000   0.4375000), wk =   0.0117188
        k(  119) = (   0.1250000   0.2500000  -0.5000000), wk =   0.0117188
        k(  120) = (   0.1250000   0.2500000  -0.4375000), wk =   0.0117188
        k(  121) = (   0.1250000   0.2500000  -0.3750000), wk =   0.0058594
        k(  122) = (   0.1250000   0.3125000   0.4375000), wk =   0.0058594
        k(  123) = (   0.1250000   0.3125000  -0.5000000), wk =   0.0117188
        k(  124) = (   0.1250000   0.3125000  -0.4375000), wk =   0.0117188
        k(  125) = (   0.1250000   0.3125000  -0.3750000), wk =   0.0117188
        k(  126) = (   0.1250000   0.3125000  -0.3125000), wk =   0.0117188
        k(  127) = (   0.1250000   0.3125000  -0.2500000), wk =   0.0117188
        k(  128) = (   0.1250000   0.3125000  -0.1875000), wk =   0.0058594
        k(  129) = (   0.1250000   0.3750000  -0.5000000), wk =   0.0058594
        k(  130) = (   0.1250000   0.3750000  -0.4375000), wk =   0.0117188
        k(  131) = (   0.1250000   0.3750000  -0.3750000), wk =   0.0117188
        k(  132) = (   0.1250000   0.3750000  -0.3125000), wk =   0.0117188
        k(  133) = (   0.1250000   0.3750000  -0.2500000), wk =   0.0058594
        k(  134) = (   0.1250000   0.4375000  -0.4375000), wk =   0.0058594
        k(  135) = (   0.1250000   0.4375000  -0.3750000), wk =   0.0117188
        k(  136) = (   0.1250000   0.4375000  -0.3125000), wk =   0.0058594
        k(  137) = (   0.1250000  -0.5000000  -0.3750000), wk =   0.0029297
        k(  138) = (   0.1875000   0.3750000  -0.4375000), wk =   0.0058594
        k(  139) = (   0.1875000   0.3750000  -0.3750000), wk =   0.0117188
        k(  140) = (   0.1875000   0.3750000  -0.3125000), wk =   0.0058594
        k(  141) = (   0.1875000   0.4375000  -0.3750000), wk =   0.0058594
        k(  142) = (   0.1875000   0.4375000  -0.3125000), wk =   0.0117188
        k(  143) = (   0.1875000   0.4375000  -0.2500000), wk =   0.0058594
        k(  144) = (   0.1875000  -0.5000000  -0.3125000), wk =   0.0029297
        k(  145) = (   0.2500000  -0.5000000  -0.2500000), wk =   0.0014648

     Dense  grid:    48359 G-vectors     FFT dimensions: (  54,  54,  54)

     Largest allocated arrays     est. size (Mb)     dimensions
        Kohn-Sham Wavefunctions         0.43 Mb     (     774,   36)
        NL pseudopotentials             0.40 Mb     (     387,   68)
        Each V/rho on FFT grid          0.18 Mb     (   11664)
        Each G-vector array             0.02 Mb     (    3024)
        G-vector shells                 0.00 Mb     (     421)
     Largest temporary arrays     est. size (Mb)     dimensions
        Auxiliary wavefunctions         1.70 Mb     (     774,  144)
        Each subspace H/S matrix        0.32 Mb     (     144,  144)
        Each <psi_i|beta_j> matrix      0.07 Mb     (      68,   2,   36)
        Arrays for rho mixing           1.42 Mb     (   11664,    8)

     Check: negative/imaginary core charge=   -0.000020    0.000000

     Initial potential from superposition of free atoms

     starting charge   27.99781, renormalised to   28.00000
     Starting wfc are   36 randomized atomic wfcs
     Checking if some PAW data can be deallocated... 

     total cpu time spent up to now is       16.9 secs

     Self-consistent Calculation

     iteration #  1     ecut=    80.00 Ry     beta=0.70
     Davidson diagonalization with overlap
     ethr =  1.00E-02,  avg # of iterations =  4.0

     Threshold (ethr) on eigenvalues was too large:
     Diagonalizing with lowered threshold

     Davidson diagonalization with overlap
     ethr =  4.54E-05,  avg # of iterations =  4.2

     total cpu time spent up to now is      150.7 secs

     total energy              =    -885.88576660 Ry
     Harris-Foulkes estimate   =    -885.88862910 Ry
     estimated scf accuracy    <       0.01971031 Ry

     iteration #  2     ecut=    80.00 Ry     beta=0.70
     Davidson diagonalization with overlap
     ethr =  7.04E-05,  avg # of iterations =  1.0

     total cpu time spent up to now is      191.2 secs

     total energy              =    -885.88595703 Ry
     Harris-Foulkes estimate   =    -885.88623538 Ry
     estimated scf accuracy    <       0.00145653 Ry

     iteration #  3     ecut=    80.00 Ry     beta=0.70
     Davidson diagonalization with overlap
     ethr =  5.20E-06,  avg # of iterations =  2.6

     total cpu time spent up to now is      242.7 secs

     total energy              =    -885.88616640 Ry
     Harris-Foulkes estimate   =    -885.88623872 Ry
     estimated scf accuracy    <       0.00009492 Ry

     iteration #  4     ecut=    80.00 Ry     beta=0.70
     Davidson diagonalization with overlap
     ethr =  3.39E-07,  avg # of iterations =  3.0

     total cpu time spent up to now is      303.5 secs

     total energy              =    -885.88621414 Ry
     Harris-Foulkes estimate   =    -885.88621361 Ry
     estimated scf accuracy    <       0.00000476 Ry

     iteration #  5     ecut=    80.00 Ry     beta=0.70
     Davidson diagonalization with overlap
     ethr =  1.70E-08,  avg # of iterations =  2.1

     total cpu time spent up to now is      349.3 secs

     End of self-consistent calculation

          k = 0.0000 0.0000 0.0000 (  5985 PWs)   bands (ev):

   -14.5157 -14.5157 -14.5157 -14.5157 -14.4358 -14.4358 -14.4358 -14.4358
   -13.5879 -13.5879 -13.4193 -13.4193 -13.4193 -13.4193 -13.3817 -13.3817
   -13.3817 -13.3817 -13.2799 -13.2799  -2.5340  -2.5340   6.3566   6.3566
     7.1859   7.1859   7.8371   7.8371   7.8371   7.8371   9.3668   9.3668
     9.8416   9.8416   9.8416   9.8416

     occupation numbers 
     1.0000   1.0000   1.0000   1.0000   1.0000   1.0000   1.0000   1.0000
     1.0000   1.0000   1.0000   1.0000   1.0000   1.0000   1.0000   1.0000
     1.0000   1.0000   1.0000   1.0000   1.0000   1.0000   1.0000   1.0000
     1.0000   1.0000   0.0000   0.0000   0.0000   0.0000   0.0000   0.0000
     0.0000   0.0000   0.0000   0.0000

          k = 0.0442 0.0442-0.0442 (  6048 PWs)   bands (ev):

   -14.5161 -14.5160 -14.5149 -14.5149 -14.4366 -14.4366 -14.4353 -14.4353
   -13.5861 -13.5861 -13.4242 -13.4242 -13.4224 -13.4223 -13.3785 -13.3784
   -13.3775 -13.3775 -13.2808 -13.2808  -2.4993  -2.4993   5.9479   5.9479
     7.2324   7.2324   7.7622   7.7622   7.8978   7.8978   9.5247   9.5247
     9.9261   9.9261   9.9389   9.9389

     occupation numbers 
     1.0000   1.0000   1.0000   1.0000   1.0000   1.0000   1.0000   1.0000
     1.0000   1.0000   1.0000   1.0000   1.0000   1.0000   1.0000   1.0000
     1.0000   1.0000   1.0000   1.0000   1.0000   1.0000   1.0000   1.0000
     1.0000   1.0000   0.0000   0.0000   0.0000   0.0000   0.0000   0.0000
     0.0000   0.0000   0.0000   0.0000

          k = 0.0884 0.0884-0.0884 (  6051 PWs)   bands (ev):

   -14.5171 -14.5171 -14.5126 -14.5126 -14.4388 -14.4388 -14.4339 -14.4338
   -13.5810 -13.5810 -13.4352 -13.4352 -13.4294 -13.4292 -13.3710 -13.3709
   -13.3686 -13.3686 -13.2836 -13.2836  -2.3960  -2.3960   5.1848   5.1848
     7.1261   7.1261   7.5804   7.5804   7.9455   7.9455   9.8517   9.8517
    10.1767  10.1767  10.2851  10.2851

     occupation numbers 
     1.0000   1.0000   1.0000   1.0000   1.0000   1.0000   1.0000   1.0000
     1.0000   1.0000   1.0000   1.0000   1.0000   1.0000   1.0000   1.0000
     1.0000   1.0000   1.0000   1.0000   1.0000   1.0000   1.0000   1.0000
     1.0000   1.0000   1.0000   1.0000   0.0000   0.0000   0.0000   0.0000
     0.0000   0.0000   0.0000   0.0000

          k = 0.1326 0.1326-0.1326 (  6048 PWs)   bands (ev):

   -14.5186 -14.5185 -14.5090 -14.5090 -14.4423 -14.4423 -14.4318 -14.4317
   -13.5729 -13.5729 -13.4481 -13.4481 -13.4372 -13.4371 -13.3623 -13.3622
   -13.3589 -13.3589 -13.2879 -13.2879  -2.2272  -2.2272   4.3569   4.3569
     6.9307   6.9307   7.3621   7.3621   7.8683   7.8683  10.1382  10.1382
    10.4520  10.4520  10.9566  10.9566

     occupation numbers 
     1.0000   1.0000   1.0000   1.0000   1.0000   1.0000   1.0000   1.0000
     1.0000   1.0000   1.0000   1.0000   1.0000   1.0000   1.0000   1.0000
     1.0000   1.0000   1.0000   1.0000   1.0000   1.0000   1.0000   1.0000
     1.0000   1.0000   1.0000   1.0000   0.0000   0.0000   0.0000   0.0000
     0.0000   0.0000   0.0000   0.0000

          k = 0.1768 0.1768-0.1768 (  6057 PWs)   bands (ev):

   -14.5202 -14.5201 -14.5042 -14.5042 -14.4469 -14.4469 -14.4295 -14.4294
   -13.5626 -13.5626 -13.4615 -13.4615 -13.4446 -13.4444 -13.3540 -13.3539
   -13.3496 -13.3496 -13.2934 -13.2934  -1.9989  -1.9989   3.5471   3.5471
     6.7306   6.7306   7.1531   7.1531   7.7308   7.7308  10.3696  10.3696
    10.6754  10.6754  11.7676  11.7676

     occupation numbers 
     1.0000   1.0000   1.0000   1.0000   1.0000   1.0000   1.0000   1.0000
     1.0000   1.0000   1.0000   1.0000   1.0000   1.0000   1.0000   1.0000
     1.0000   1.0000   1.0000   1.0000   1.0000   1.0000   1.0000   1.0000
     1.0000   1.0000   1.0000   1.0000   0.0000   0.0000   0.0000   0.0000
     0.0000   0.0000   0.0000   0.0000

          k = 0.2210 0.2210-0.2210 (  6057 PWs)   bands (ev):

   -14.5217 -14.5216 -14.4985 -14.4985 -14.4523 -14.4523 -14.4274 -14.4273
   -13.5508 -13.5508 -13.4747 -13.4747 -13.4507 -13.4506 -13.3468 -13.3467
   -13.3412 -13.3412 -13.2997 -13.2997  -1.7245  -1.7245   2.8005   2.8005
     6.5587   6.5587   6.9771   6.9771   7.5924   7.5924  10.5188  10.5188
    10.8022  10.8022  12.6306  12.6307

     occupation numbers 
     1.0000   1.0000   1.0000   1.0000   1.0000   1.0000   1.0000   1.0000
     1.0000   1.0000   1.0000   1.0000   1.0000   1.0000   1.0000   1.0000
     1.0000   1.0000   1.0000   1.0000   1.0000   1.0000   1.0000   1.0000
     1.0000   1.0000   1.0000   1.0000   0.1250   0.1250   0.0000   0.0000
     0.0000   0.0000   0.0000   0.0000

          k = 0.2652 0.2652-0.2652 (  6077 PWs)   bands (ev):

   -14.5229 -14.5228 -14.4925 -14.4925 -14.4581 -14.4581 -14.4256 -14.4255
   -13.5384 -13.5384 -13.4873 -13.4873 -13.4553 -13.4553 -13.3413 -13.3412
   -13.3337 -13.3337 -13.3065 -13.3065  -1.4317  -1.4317   2.1616   2.1616
     6.4294   6.4294   6.8458   6.8458   7.4821   7.4821  10.5885  10.5885
    10.8458  10.8458  13.3030  13.3030

     occupation numbers 
     1.0000   1.0000   1.0000   1.0000   1.0000   1.0000   1.0000   1.0000
     1.0000   1.0000   1.0000   1.0000   1.0000   1.0000   1.0000   1.0000
     1.0000   1.0000   1.0000   1.0000   1.0000   1.0000   1.0000   1.0000
     1.0000   1.0000   1.0000   1.0000   1.0000   1.0000   0.0000   0.0000
     0.0000   0.0000   0.0000   0.0000

          k = 0.3094 0.3094-0.3094 (  6056 PWs)   bands (ev):

   -14.5236 -14.5236 -14.4870 -14.4870 -14.4635 -14.4635 -14.4245 -14.4244
   -13.5261 -13.5261 -13.4994 -13.4994 -13.4582 -13.4581 -13.3379 -13.3378
   -13.3268 -13.3268 -13.3132 -13.3132  -1.1806  -1.1806   1.6997   1.6997
     6.3497   6.3497   6.7652   6.7652   7.4125   7.4125  10.6103  10.6103
    10.8492  10.8492  13.3435  13.3435

     occupation numbers 
     1.0000   1.0000   1.0000   1.0000   1.0000   1.0000   1.0000   1.0000
     1.0000   1.0000   1.0000   1.0000   1.0000   1.0000   1.0000   1.0000
     1.0000   1.0000   1.0000   1.0000   1.0000   1.0000   1.0000   1.0000
     1.0000   1.0000   1.0000   1.0000   1.0000   1.0000   0.0000   0.0000
     0.0000   0.0000   0.0000   0.0000

          k =-0.3536-0.3536 0.3536 (  6062 PWs)   bands (ev):

   -14.5238 -14.5238 -14.4843 -14.4843 -14.4661 -14.4661 -14.4241 -14.4241
   -13.5175 -13.5175 -13.5079 -13.5079 -13.4591 -13.4591 -13.3367 -13.3367
   -13.3213 -13.3213 -13.3187 -13.3187  -1.0745  -1.0745   1.5228   1.5228
     6.3228   6.3228   6.7380   6.7380   7.3888   7.3888  10.6138  10.6138
    10.8464  10.8464  13.3202  13.3202

     occupation numbers 
     1.0000   1.0000   1.0000   1.0000   1.0000   1.0000   1.0000   1.0000
     1.0000   1.0000   1.0000   1.0000   1.0000   1.0000   1.0000   1.0000
     1.0000   1.0000   1.0000   1.0000   1.0000   1.0000   1.0000   1.0000
     1.0000   1.0000   1.0000   1.0000   1.0000   1.0000   0.0000   0.0000
     0.0000   0.0000   0.0000   0.0000

          k = 0.0884 0.0000 0.0000 (  6038 PWs)   bands (ev):

   -14.5157 -14.5157 -14.5151 -14.5151 -14.4365 -14.4365 -14.4354 -14.4354
   -13.5855 -13.5855 -13.4266 -13.4266 -13.4223 -13.4223 -13.3778 -13.3778
   -13.3761 -13.3761 -13.2811 -13.2811  -2.4877  -2.4877   5.8670   5.8670
     7.1653   7.1653   7.5815   7.5815   8.1550   8.1550   9.4448   9.4448
     9.9377   9.9377  10.0729  10.0729

     occupation numbers 
     1.0000   1.0000   1.0000   1.0000   1.0000   1.0000   1.0000   1.0000
     1.0000   1.0000   1.0000   1.0000   1.0000   1.0000   1.0000   1.0000
     1.0000   1.0000   1.0000   1.0000   1.0000   1.0000   1.0000   1.0000
     1.0000   1.0000   1.0000   1.0000   0.0000   0.0000   0.0000   0.0000
     0.0000   0.0000   0.0000   0.0000

          k = 0.1326 0.0442-0.0442 (  6057 PWs)   bands (ev):

   -14.5165 -14.5165 -14.5134 -14.5134 -14.4381 -14.4381 -14.4344 -14.4343
   -13.5815 -13.5815 -13.4354 -13.4354 -13.4271 -13.4271 -13.3726 -13.3726
   -13.3689 -13.3689 -13.2832 -13.2832  -2.4071  -2.4071   5.3014   5.3014
     7.0263   7.0264   7.3709   7.3709   8.3579   8.3580   9.5145   9.5146
    10.2237  10.2237  10.3757  10.3757

     occupation numbers 
     1.0000   1.0000   1.0000   1.0000   1.0000   1.0000   1.0000   1.0000
     1.0000   1.0000   1.0000   1.0000   1.0000   1.0000   1.0000   1.0000
     1.0000   1.0000   1.0000   1.0000   1.0000   1.0000   1.0000   1.0000
     1.0000   1.0000   1.0000   1.0000   0.0000   0.0000   0.0000   0.0000
     0.0000   0.0000   0.0000   0.0000

          k = 0.1768 0.0884-0.0884 (  6045 PWs)   bands (ev):

   -14.5179 -14.5179 -14.5102 -14.5101 -14.4412 -14.4412 -14.4325 -14.4324
   -13.5744 -13.5744 -13.4471 -13.4471 -13.4341 -13.4340 -13.3661 -13.3661
   -13.3590 -13.3590 -13.2867 -13.2867  -2.2596  -2.2596   4.5492   4.5492
     6.8219   6.8219   7.1529   7.1529   8.3542   8.3542   9.7578   9.7578
    10.5575  10.5575  10.8919  10.8919

     occupation numbers 
     1.0000   1.0000   1.0000   1.0000   1.0000   1.0000   1.0000   1.0000
     1.0000   1.0000   1.0000   1.0000   1.0000   1.0000   1.0000   1.0000
     1.0000   1.0000   1.0000   1.0000   1.0000   1.0000   1.0000   1.0000
     1.0000   1.0000   1.0000   1.0000   0.0000   0.0000   0.0000   0.0000
     0.0000   0.0000   0.0000   0.0000

          k = 0.2210 0.1326-0.1326 (  6053 PWs)   bands (ev):

   -14.5196 -14.5195 -14.5057 -14.5057 -14.4455 -14.4455 -14.4302 -14.4301
   -13.5649 -13.5648 -13.4596 -13.4596 -13.4413 -13.4412 -13.3597 -13.3596
   -13.3490 -13.3489 -13.2915 -13.2915  -2.0502  -2.0502   3.7628   3.7628
     6.6064   6.6064   6.9355   6.9355   8.2382   8.2382  10.0616  10.0616
    10.8130  10.8130  11.5338  11.5338

     occupation numbers 
     1.0000   1.0000   1.0000   1.0000   1.0000   1.0000   1.0000   1.0000
     1.0000   1.0000   1.0000   1.0000   1.0000   1.0000   1.0000   1.0000
     1.0000   1.0000   1.0000   1.0000   1.0000   1.0000   1.0000   1.0000
     1.0000   1.0000   1.0000   1.0000   0.0000   0.0000   0.0000   0.0000
     0.0000   0.0000   0.0000   0.0000

          k = 0.2652 0.1768-0.1768 (  6054 PWs)   bands (ev):

   -14.5211 -14.5211 -14.5004 -14.5003 -14.4508 -14.4507 -14.4279 -14.4278
   -13.5536 -13.5536 -13.4721 -13.4720 -13.4478 -13.4477 -13.3539 -13.3538
   -13.3399 -13.3398 -13.2970 -13.2970  -1.7890  -1.7890   3.0105   3.0105
     6.4120   6.4120   6.7494   6.7494   8.0955   8.0956  10.3143  10.3143
    10.9540  10.9540  12.2131  12.2131

     occupation numbers 
     1.0000   1.0000   1.0000   1.0000   1.0000   1.0000   1.0000   1.0000
     1.0000   1.0000   1.0000   1.0000   1.0000   1.0000   1.0000   1.0000
     1.0000   1.0000   1.0000   1.0000   1.0000   1.0000   1.0000   1.0000
     1.0000   1.0000   1.0000   1.0000   0.0000   0.0000   0.0000   0.0000
     0.0000   0.0000   0.0000   0.0000

          k = 0.3094 0.2210-0.2210 (  6068 PWs)   bands (ev):

   -14.5224 -14.5224 -14.4945 -14.4944 -14.4565 -14.4565 -14.4259 -14.4258
   -13.5416 -13.5416 -13.4841 -13.4840 -13.4530 -13.4530 -13.3492 -13.3492
   -13.3323 -13.3323 -13.3026 -13.3026  -1.4975  -1.4975   2.3413   2.3413
     6.2519   6.2519   6.6148   6.6148   7.9682   7.9682  10.4706  10.4706
    10.9868  10.9868  12.8815  12.8816

     occupation numbers 
     1.0000   1.0000   1.0000   1.0000   1.0000   1.0000   1.0000   1.0000
     1.0000   1.0000   1.0000   1.0000   1.0000   1.0000   1.0000   1.0000
     1.0000   1.0000   1.0000   1.0000   1.0000   1.0000   1.0000   1.0000
     1.0000   1.0000   1.0000   1.0000   0.0000   0.0000   0.0000   0.0000
     0.0000   0.0000   0.0000   0.0000

          k = 0.3536 0.2652-0.2652 (  6053 PWs)   bands (ev):

   -14.5234 -14.5233 -14.4887 -14.4885 -14.4623 -14.4621 -14.4244 -14.4244
   -13.5297 -13.5297 -13.4954 -13.4954 -13.4566 -13.4566 -13.3459 -13.3459
   -13.3266 -13.3266 -13.3074 -13.3074  -1.2223  -1.2223   1.8161   1.8162
     6.1336   6.1337   6.5405   6.5405   7.8752   7.8753  10.5547  10.5548
    10.9567  10.9567  13.3239  13.3239

     occupation numbers 
     1.0000   1.0000   1.0000   1.0000   1.0000   1.0000   1.0000   1.0000
     1.0000   1.0000   1.0000   1.0000   1.0000   1.0000   1.0000   1.0000
     1.0000   1.0000   1.0000   1.0000   1.0000   1.0000   1.0000   1.0000
     1.0000   1.0000   1.0000   1.0000   0.0000   0.0000   0.0000   0.0000
     0.0000   0.0000   0.0000   0.0000

          k =-0.3094-0.3977 0.3977 (  6060 PWs)   bands (ev):

   -14.5238 -14.5238 -14.4847 -14.4845 -14.4663 -14.4661 -14.4237 -14.4237
   -13.5199 -13.5199 -13.5049 -13.5049 -13.4582 -13.4582 -13.3445 -13.3444
   -13.3232 -13.3232 -13.3105 -13.3105  -1.0548  -1.0548   1.5338   1.5338
     6.0631   6.0632   6.5283   6.5283   7.8251   7.8251  10.6062  10.6063
    10.9090  10.9090  13.4258  13.4259

     occupation numbers 
     1.0000   1.0000   1.0000   1.0000   1.0000   1.0000   1.0000   1.0000
     1.0000   1.0000   1.0000   1.0000   1.0000   1.0000   1.0000   1.0000
     1.0000   1.0000   1.0000   1.0000   1.0000   1.0000   1.0000   1.0000
     1.0000   1.0000   1.0000   1.0000   0.0000   0.0000   0.0000   0.0000
     0.0000   0.0000   0.0000   0.0000

          k =-0.2652-0.3536 0.3536 (  6070 PWs)   bands (ev):

   -14.5237 -14.5237 -14.4856 -14.4853 -14.4654 -14.4652 -14.4239 -14.4238
   -13.5226 -13.5226 -13.5022 -13.5022 -13.4579 -13.4578 -13.3450 -13.3450
   -13.3237 -13.3237 -13.3099 -13.3099  -1.0917  -1.0917   1.5939   1.5939
     6.0451   6.0451   6.5761   6.5761   7.8208   7.8208  10.6394  10.6394
    10.8735  10.8735  13.4377  13.4378

     occupation numbers 
     1.0000   1.0000   1.0000   1.0000   1.0000   1.0000   1.0000   1.0000
     1.0000   1.0000   1.0000   1.0000   1.0000   1.0000   1.0000   1.0000
     1.0000   1.0000   1.0000   1.0000   1.0000   1.0000   1.0000   1.0000
     1.0000   1.0000   1.0000   1.0000   0.0000   0.0000   0.0000   0.0000
     0.0000   0.0000   0.0000   0.0000

          k =-0.2210-0.3094 0.3094 (  6063 PWs)   bands (ev):

   -14.5231 -14.5231 -14.4904 -14.4903 -14.4606 -14.4605 -14.4248 -14.4247
   -13.5337 -13.5337 -13.4917 -13.4917 -13.4555 -13.4554 -13.3474 -13.3474
   -13.3276 -13.3276 -13.3061 -13.3061  -1.3082  -1.3082   1.9711   1.9711
     6.0830   6.0830   6.6799   6.6799   7.8620   7.8620  10.6331  10.6331
    10.8644  10.8644  13.3120  13.3120

     occupation numbers 
     1.0000   1.0000   1.0000   1.0000   1.0000   1.0000   1.0000   1.0000
     1.0000   1.0000   1.0000   1.0000   1.0000   1.0000   1.0000   1.0000
     1.0000   1.0000   1.0000   1.0000   1.0000   1.0000   1.0000   1.0000
     1.0000   1.0000   1.0000   1.0000   0.0000   0.0000   0.0000   0.0000
     0.0000   0.0000   0.0000   0.0000

          k =-0.1768-0.2652 0.2652 (  6060 PWs)   bands (ev):

   -14.5221 -14.5221 -14.4963 -14.4962 -14.4548 -14.4547 -14.4264 -14.4263
   -13.5457 -13.5457 -13.4802 -13.4802 -13.4513 -13.4512 -13.3514 -13.3514
   -13.3338 -13.3338 -13.3009 -13.3009  -1.5965  -1.5965   2.5530   2.5530
     6.1789   6.1789   6.8330   6.8330   7.9438   7.9438  10.5584  10.5584
    10.8534  10.8534  12.7345  12.7346

     occupation numbers 
     1.0000   1.0000   1.0000   1.0000   1.0000   1.0000   1.0000   1.0000
     1.0000   1.0000   1.0000   1.0000   1.0000   1.0000   1.0000   1.0000
     1.0000   1.0000   1.0000   1.0000   1.0000   1.0000   1.0000   1.0000
     1.0000   1.0000   1.0000   1.0000   0.0000   0.0000   0.0000   0.0000
     0.0000   0.0000   0.0000   0.0000

          k =-0.1326-0.2210 0.2210 (  6046 PWs)   bands (ev):

   -14.5207 -14.5207 -14.5021 -14.5020 -14.4491 -14.4491 -14.4285 -14.4284
   -13.5576 -13.5575 -13.4680 -13.4680 -13.4456 -13.4455 -13.3567 -13.3566
   -13.3418 -13.3417 -13.2953 -13.2953  -1.8814  -1.8814   3.2545   3.2545
     6.3334   6.3335   7.0253   7.0253   8.0541   8.0541  10.4014  10.4014
    10.7582  10.7582  12.0057  12.0058

     occupation numbers 
     1.0000   1.0000   1.0000   1.0000   1.0000   1.0000   1.0000   1.0000
     1.0000   1.0000   1.0000   1.0000   1.0000   1.0000   1.0000   1.0000
     1.0000   1.0000   1.0000   1.0000   1.0000   1.0000   1.0000   1.0000
     1.0000   1.0000   1.0000   1.0000   0.0000   0.0000   0.0000   0.0000
     0.0000   0.0000   0.0000   0.0000

          k =-0.0884-0.1768 0.1768 (  6060 PWs)   bands (ev):

   -14.5192 -14.5191 -14.5071 -14.5071 -14.4442 -14.4442 -14.4308 -14.4307
   -13.5683 -13.5683 -13.4555 -13.4554 -13.4388 -13.4387 -13.3628 -13.3627
   -13.3512 -13.3512 -13.2899 -13.2899  -2.1268  -2.1268   4.0207   4.0207
     6.5449   6.5449   7.2393   7.2393   8.1647   8.1647  10.1690  10.1690
    10.5062  10.5062  11.3487  11.3487

     occupation numbers 
     1.0000   1.0000   1.0000   1.0000   1.0000   1.0000   1.0000   1.0000
     1.0000   1.0000   1.0000   1.0000   1.0000   1.0000   1.0000   1.0000
     1.0000   1.0000   1.0000   1.0000   1.0000   1.0000   1.0000   1.0000
     1.0000   1.0000   1.0000   1.0000   0.0000   0.0000   0.0000   0.0000
     0.0000   0.0000   0.0000   0.0000

          k =-0.0442-0.1326 0.1326 (  6051 PWs)   bands (ev):

   -14.5177 -14.5176 -14.5111 -14.5111 -14.4403 -14.4403 -14.4330 -14.4329
   -13.5771 -13.5771 -13.4430 -13.4429 -13.4317 -13.4316 -13.3693 -13.3692
   -13.3615 -13.3614 -13.2855 -13.2855  -2.3163  -2.3163   4.7981   4.7981
     6.8066   6.8067   7.4451   7.4451   8.2135   8.2135   9.9026   9.9026
    10.1623  10.1623  10.7785  10.7785

     occupation numbers 
     1.0000   1.0000   1.0000   1.0000   1.0000   1.0000   1.0000   1.0000
     1.0000   1.0000   1.0000   1.0000   1.0000   1.0000   1.0000   1.0000
     1.0000   1.0000   1.0000   1.0000   1.0000   1.0000   1.0000   1.0000
     1.0000   1.0000   1.0000   1.0000   0.0000   0.0000   0.0000   0.0000
     0.0000   0.0000   0.0000   0.0000

          k = 0.0000-0.0884 0.0884 (  6039 PWs)   bands (ev):

   -14.5165 -14.5165 -14.5138 -14.5138 -14.4377 -14.4377 -14.4346 -14.4345
   -13.5832 -13.5832 -13.4316 -13.4315 -13.4257 -13.4256 -13.3751 -13.3750
   -13.3712 -13.3712 -13.2823 -13.2823  -2.4417  -2.4417   5.5002   5.5002
     7.0873   7.0873   7.6076   7.6076   8.1070   8.1070   9.6602   9.6602
     9.9461   9.9461  10.2763  10.2764

     occupation numbers 
     1.0000   1.0000   1.0000   1.0000   1.0000   1.0000   1.0000   1.0000
     1.0000   1.0000   1.0000   1.0000   1.0000   1.0000   1.0000   1.0000
     1.0000   1.0000   1.0000   1.0000   1.0000   1.0000   1.0000   1.0000
     1.0000   1.0000   0.0000   0.0000   0.0000   0.0000   0.0000   0.0000
     0.0000   0.0000   0.0000   0.0000

          k = 0.1768 0.0000 0.0000 (  6058 PWs)   bands (ev):

   -14.5159 -14.5159 -14.5134 -14.5134 -14.4383 -14.4383 -14.4345 -14.4345
   -13.5787 -13.5787 -13.4414 -13.4414 -13.4288 -13.4288 -13.3683 -13.3683
   -13.3667 -13.3667 -13.2843 -13.2843  -2.3491  -2.3491   5.0520   5.0520
     6.8360   6.8360   7.0924   7.0924   8.8226   8.8226   9.2115   9.2115
    10.5240  10.5240  10.6302  10.6302

     occupation numbers 
     1.0000   1.0000   1.0000   1.0000   1.0000   1.0000   1.0000   1.0000
     1.0000   1.0000   1.0000   1.0000   1.0000   1.0000   1.0000   1.0000
     1.0000   1.0000   1.0000   1.0000   1.0000   1.0000   1.0000   1.0000
     1.0000   1.0000   1.0000   1.0000   0.0000   0.0000   0.0000   0.0000
     0.0000   0.0000   0.0000   0.0000

          k = 0.2210 0.0442-0.0442 (  6052 PWs)   bands (ev):

   -14.5168 -14.5168 -14.5111 -14.5110 -14.4406 -14.4405 -14.4332 -14.4331
   -13.5727 -13.5727 -13.4507 -13.4507 -13.4334 -13.4334 -13.3650 -13.3650
   -13.3585 -13.3585 -13.2869 -13.2869  -2.2234  -2.2234   4.5100   4.5100
     6.6167   6.6167   6.8510   6.8510   8.9702   8.9704   9.2404   9.2406
    10.8960  10.8960  11.0264  11.0264

     occupation numbers 
     1.0000   1.0000   1.0000   1.0000   1.0000   1.0000   1.0000   1.0000
     1.0000   1.0000   1.0000   1.0000   1.0000   1.0000   1.0000   1.0000
     1.0000   1.0000   1.0000   1.0000   1.0000   1.0000   1.0000   1.0000
     1.0000   1.0000   1.0000   1.0000   0.0000   0.0000   0.0000   0.0000
     0.0000   0.0000   0.0000   0.0000

          k = 0.2652 0.0884-0.0884 (  6054 PWs)   bands (ev):

   -14.5184 -14.5184 -14.5071 -14.5071 -14.4444 -14.4444 -14.4309 -14.4308
   -13.5641 -13.5641 -13.4616 -13.4615 -13.4390 -13.4389 -13.3624 -13.3624
   -13.3483 -13.3482 -13.2904 -13.2904  -2.0339  -2.0339   3.8357   3.8357
     6.3671   6.3671   6.6292   6.6292   8.8982   8.8984   9.5276   9.5278
    11.1928  11.1928  11.4540  11.4541

     occupation numbers 
     1.0000   1.0000   1.0000   1.0000   1.0000   1.0000   1.0000   1.0000
     1.0000   1.0000   1.0000   1.0000   1.0000   1.0000   1.0000   1.0000
     1.0000   1.0000   1.0000   1.0000   1.0000   1.0000   1.0000   1.0000
     1.0000   1.0000   1.0000   1.0000   0.0000   0.0000   0.0000   0.0000
     0.0000   0.0000   0.0000   0.0000

          k = 0.3094 0.1326-0.1326 (  6054 PWs)   bands (ev):

   -14.5201 -14.5201 -14.5021 -14.5021 -14.4494 -14.4493 -14.4284 -14.4284
   -13.5538 -13.5538 -13.4726 -13.4725 -13.4446 -13.4445 -13.3603 -13.3603
   -13.3388 -13.3387 -13.2942 -13.2942  -1.7882  -1.7882   3.1353   3.1353
     6.1127   6.1127   6.4521   6.4521   8.7641   8.7642   9.8988   9.8988
    11.3648  11.3648  11.7776  11.7776

     occupation numbers 
     1.0000   1.0000   1.0000   1.0000   1.0000   1.0000   1.0000   1.0000
     1.0000   1.0000   1.0000   1.0000   1.0000   1.0000   1.0000   1.0000
     1.0000   1.0000   1.0000   1.0000   1.0000   1.0000   1.0000   1.0000
     1.0000   1.0000   1.0000   1.0000   0.0000   0.0000   0.0000   0.0000
     0.0000   0.0000   0.0000   0.0000

          k = 0.3536 0.1768-0.1768 (  6061 PWs)   bands (ev):

   -14.5216 -14.5216 -14.4965 -14.4964 -14.4550 -14.4549 -14.4261 -14.4261
   -13.5427 -13.5427 -13.4829 -13.4829 -13.4496 -13.4495 -13.3588 -13.3588
   -13.3312 -13.3312 -13.2975 -13.2975  -1.5027  -1.5027   2.4755   2.4755
     5.8802   5.8802   6.3382   6.3382   8.6254   8.6254  10.2174  10.2174
    11.4031  11.4031  12.1378  12.1378

     occupation numbers 
     1.0000   1.0000   1.0000   1.0000   1.0000   1.0000   1.0000   1.0000
     1.0000   1.0000   1.0000   1.0000   1.0000   1.0000   1.0000   1.0000
     1.0000   1.0000   1.0000   1.0000   1.0000   1.0000   1.0000   1.0000
     1.0000   1.0000   1.0000   1.0000   0.0000   0.0000   0.0000   0.0000
     0.0000   0.0000   0.0000   0.0000

          k = 0.3977 0.2210-0.2210 (  6055 PWs)   bands (ev):

   -14.5228 -14.5227 -14.4908 -14.4905 -14.4609 -14.4606 -14.4243 -14.4242
   -13.5319 -13.5319 -13.4923 -13.4922 -13.4535 -13.4535 -13.3581 -13.3580
   -13.3263 -13.3263 -13.2996 -13.2996  -1.2129  -1.2129   1.9184   1.9184
     5.6903   5.6903   6.2898   6.2898   8.5115   8.5115  10.4162  10.4162
    11.3488  11.3488  12.6533  12.6533

     occupation numbers 
     1.0000   1.0000   1.0000   1.0000   1.0000   1.0000   1.0000   1.0000
     1.0000   1.0000   1.0000   1.0000   1.0000   1.0000   1.0000   1.0000
     1.0000   1.0000   1.0000   1.0000   1.0000   1.0000   1.0000   1.0000
     1.0000   1.0000   1.0000   1.0000   0.0000   0.0000   0.0000   0.0000
     0.0000   0.0000   0.0000   0.0000

          k =-0.2652-0.4419 0.4419 (  6059 PWs)   bands (ev):

   -14.5235 -14.5234 -14.4859 -14.4855 -14.4660 -14.4655 -14.4231 -14.4231
   -13.5232 -13.5232 -13.4998 -13.4997 -13.4558 -13.4557 -13.3580 -13.3580
   -13.3238 -13.3238 -13.3004 -13.3004  -0.9949  -0.9949   1.5536   1.5536
     5.5551   5.5551   6.3055   6.3055   8.4360   8.4360  10.5360  10.5360
    11.2513  11.2513  13.2193  13.2194

     occupation numbers 
     1.0000   1.0000   1.0000   1.0000   1.0000   1.0000   1.0000   1.0000
     1.0000   1.0000   1.0000   1.0000   1.0000   1.0000   1.0000   1.0000
     1.0000   1.0000   1.0000   1.0000   1.0000   1.0000   1.0000   1.0000
     1.0000   1.0000   1.0000   1.0000   0.0000   0.0000   0.0000   0.0000
     0.0000   0.0000   0.0000   0.0000

          k =-0.2210-0.3977 0.3977 (  6065 PWs)   bands (ev):

   -14.5237 -14.5236 -14.4845 -14.4840 -14.4675 -14.4669 -14.4228 -14.4228
   -13.5216 -13.5216 -13.5012 -13.5012 -13.4559 -13.4558 -13.3585 -13.3585
   -13.3230 -13.3230 -13.3006 -13.3006  -0.9596  -0.9596   1.4985   1.4985
     5.4824   5.4824   6.3819   6.3819   8.4038   8.4038  10.6330  10.6331
    11.1399  11.1399  13.5247  13.5248

     occupation numbers 
     1.0000   1.0000   1.0000   1.0000   1.0000   1.0000   1.0000   1.0000
     1.0000   1.0000   1.0000   1.0000   1.0000   1.0000   1.0000   1.0000
     1.0000   1.0000   1.0000   1.0000   1.0000   1.0000   1.0000   1.0000
     1.0000   1.0000   1.0000   1.0000   0.0000   0.0000   0.0000   0.0000
     0.0000   0.0000   0.0000   0.0000

          k =-0.1768-0.3536 0.3536 (  6059 PWs)   bands (ev):

   -14.5233 -14.5233 -14.4880 -14.4877 -14.4639 -14.4635 -14.4234 -14.4234
   -13.5289 -13.5289 -13.4950 -13.4950 -13.4538 -13.4538 -13.3595 -13.3595
   -13.3238 -13.3237 -13.3003 -13.3003  -1.1314  -1.1314   1.7775   1.7775
     5.4785   5.4785   6.5138   6.5138   8.4139   8.4139  10.7220  10.7221
    11.0243  11.0243  13.2658  13.2659

     occupation numbers 
     1.0000   1.0000   1.0000   1.0000   1.0000   1.0000   1.0000   1.0000
     1.0000   1.0000   1.0000   1.0000   1.0000   1.0000   1.0000   1.0000
     1.0000   1.0000   1.0000   1.0000   1.0000   1.0000   1.0000   1.0000
     1.0000   1.0000   1.0000   1.0000   0.0000   0.0000   0.0000   0.0000
     0.0000   0.0000   0.0000   0.0000

          k =-0.1326-0.3094 0.3094 (  6053 PWs)   bands (ev):

   -14.5226 -14.5225 -14.4935 -14.4933 -14.4584 -14.4582 -14.4247 -14.4247
   -13.5393 -13.5393 -13.4863 -13.4863 -13.4500 -13.4499 -13.3610 -13.3610
   -13.3268 -13.3268 -13.2990 -13.2989  -1.4090  -1.4090   2.2835   2.2835
     5.5500   5.5501   6.6927   6.6927   8.4588   8.4589  10.7409  10.7410
    10.9264  10.9264  12.6170  12.6171

     occupation numbers 
     1.0000   1.0000   1.0000   1.0000   1.0000   1.0000   1.0000   1.0000
     1.0000   1.0000   1.0000   1.0000   1.0000   1.0000   1.0000   1.0000
     1.0000   1.0000   1.0000   1.0000   1.0000   1.0000   1.0000   1.0000
     1.0000   1.0000   1.0000   1.0000   0.0000   0.0000   0.0000   0.0000
     0.0000   0.0000   0.0000   0.0000

          k =-0.0884-0.2652 0.2652 (  6050 PWs)   bands (ev):

   -14.5214 -14.5213 -14.4991 -14.4990 -14.4527 -14.4526 -14.4267 -14.4266
   -13.5505 -13.5504 -13.4764 -13.4763 -13.4451 -13.4451 -13.3629 -13.3628
   -13.3328 -13.3328 -13.2962 -13.2961  -1.7009  -1.7009   2.9105   2.9105
     5.7063   5.7064   6.9047   6.9047   8.5197   8.5197  10.5826  10.5826
    10.8406  10.8406  12.0098  12.0099

     occupation numbers 
     1.0000   1.0000   1.0000   1.0000   1.0000   1.0000   1.0000   1.0000
     1.0000   1.0000   1.0000   1.0000   1.0000   1.0000   1.0000   1.0000
     1.0000   1.0000   1.0000   1.0000   1.0000   1.0000   1.0000   1.0000
     1.0000   1.0000   1.0000   1.0000   0.0000   0.0000   0.0000   0.0000
     0.0000   0.0000   0.0000   0.0000

          k =-0.0442-0.2210 0.2210 (  6046 PWs)   bands (ev):

   -14.5200 -14.5199 -14.5042 -14.5041 -14.4475 -14.4474 -14.4290 -14.4289
   -13.5611 -13.5611 -13.4655 -13.4654 -13.4400 -13.4399 -13.3651 -13.3650
   -13.3413 -13.3412 -13.2924 -13.2924  -1.9614  -1.9614   3.5852   3.5852
     5.9614   5.9614   7.1264   7.1264   8.5527   8.5527  10.3328  10.3328
    10.5765  10.5765  11.6228  11.6228

     occupation numbers 
     1.0000   1.0000   1.0000   1.0000   1.0000   1.0000   1.0000   1.0000
     1.0000   1.0000   1.0000   1.0000   1.0000   1.0000   1.0000   1.0000
     1.0000   1.0000   1.0000   1.0000   1.0000   1.0000   1.0000   1.0000
     1.0000   1.0000   1.0000   1.0000   0.0000   0.0000   0.0000   0.0000
     0.0000   0.0000   0.0000   0.0000

          k = 0.0000-0.1768 0.1768 (  6047 PWs)   bands (ev):

   -14.5186 -14.5186 -14.5083 -14.5083 -14.4432 -14.4432 -14.4312 -14.4311
   -13.5703 -13.5703 -13.4540 -13.4539 -13.4353 -13.4352 -13.3674 -13.3673
   -13.3513 -13.3513 -13.2886 -13.2886  -2.1698  -2.1698   4.2394   4.2395
     6.3324   6.3325   7.3198   7.3198   8.4730   8.4731  10.0755  10.0756
    10.2732  10.2732  11.2782  11.2782

     occupation numbers 
     1.0000   1.0000   1.0000   1.0000   1.0000   1.0000   1.0000   1.0000
     1.0000   1.0000   1.0000   1.0000   1.0000   1.0000   1.0000   1.0000
     1.0000   1.0000   1.0000   1.0000   1.0000   1.0000   1.0000   1.0000
     1.0000   1.0000   1.0000   1.0000   0.0000   0.0000   0.0000   0.0000
     0.0000   0.0000   0.0000   0.0000

          k = 0.2652 0.0000 0.0000 (  6058 PWs)   bands (ev):

   -14.5160 -14.5160 -14.5110 -14.5110 -14.4409 -14.4409 -14.4333 -14.4333
   -13.5679 -13.5679 -13.4573 -13.4573 -13.4359 -13.4359 -13.3607 -13.3607
   -13.3562 -13.3562 -13.2881 -13.2881  -2.1193  -2.1193   4.1986   4.1986
     6.4250   6.4250   6.5972   6.5972   8.8871   8.8871   9.3710   9.3710
    11.2995  11.2995  11.3368  11.3368

     occupation numbers 
     1.0000   1.0000   1.0000   1.0000   1.0000   1.0000   1.0000   1.0000
     1.0000   1.0000   1.0000   1.0000   1.0000   1.0000   1.0000   1.0000
     1.0000   1.0000   1.0000   1.0000   1.0000   1.0000   1.0000   1.0000
     1.0000   1.0000   1.0000   1.0000   0.0000   0.0000   0.0000   0.0000
     0.0000   0.0000   0.0000   0.0000

          k = 0.3094 0.0442-0.0442 (  6047 PWs)   bands (ev):

   -14.5168 -14.5168 -14.5084 -14.5084 -14.4433 -14.4433 -14.4320 -14.4320
   -13.5605 -13.5605 -13.4660 -13.4660 -13.4396 -13.4396 -13.3613 -13.3613
   -13.3475 -13.3474 -13.2902 -13.2901  -1.9500  -1.9500   3.6949   3.6949
     6.1934   6.1934   6.3718   6.3718   8.8681   8.8682   9.4765   9.4765
    11.6329  11.6329  11.6851  11.6851

     occupation numbers 
     1.0000   1.0000   1.0000   1.0000   1.0000   1.0000   1.0000   1.0000
     1.0000   1.0000   1.0000   1.0000   1.0000   1.0000   1.0000   1.0000
     1.0000   1.0000   1.0000   1.0000   1.0000   1.0000   1.0000   1.0000
     1.0000   1.0000   1.0000   1.0000   0.0000   0.0000   0.0000   0.0000
     0.0000   0.0000   0.0000   0.0000

          k = 0.3536 0.0884-0.0884 (  6057 PWs)   bands (ev):

   -14.5185 -14.5184 -14.5041 -14.5041 -14.4476 -14.4475 -14.4297 -14.4296
   -13.5513 -13.5513 -13.4752 -13.4752 -13.4434 -13.4434 -13.3634 -13.3634
   -13.3381 -13.3381 -13.2923 -13.2923  -1.7213  -1.7213   3.1044   3.1044
     5.9028   5.9029   6.1927   6.1927   8.9556   8.9557   9.6238   9.6239
    11.7180  11.7180  11.9089  11.9089

     occupation numbers 
     1.0000   1.0000   1.0000   1.0000   1.0000   1.0000   1.0000   1.0000
     1.0000   1.0000   1.0000   1.0000   1.0000   1.0000   1.0000   1.0000
     1.0000   1.0000   1.0000   1.0000   1.0000   1.0000   1.0000   1.0000
     1.0000   1.0000   1.0000   1.0000   0.0000   0.0000   0.0000   0.0000
     0.0000   0.0000   0.0000   0.0000

          k = 0.3977 0.1326-0.1326 (  6053 PWs)   bands (ev):

   -14.5202 -14.5201 -14.4990 -14.4989 -14.4529 -14.4527 -14.4271 -14.4270
   -13.5414 -13.5414 -13.4838 -13.4837 -13.4469 -13.4469 -13.3661 -13.3661
   -13.3306 -13.3305 -13.2936 -13.2936  -1.4456  -1.4456   2.5036   2.5036
     5.5995   5.5995   6.0829   6.0829   8.9283   8.9284   9.9991   9.9992
    11.7261  11.7261  11.9912  11.9912

     occupation numbers 
     1.0000   1.0000   1.0000   1.0000   1.0000   1.0000   1.0000   1.0000
     1.0000   1.0000   1.0000   1.0000   1.0000   1.0000   1.0000   1.0000
     1.0000   1.0000   1.0000   1.0000   1.0000   1.0000   1.0000   1.0000
     1.0000   1.0000   1.0000   1.0000   0.0000   0.0000   0.0000   0.0000
     0.0000   0.0000   0.0000   0.0000

          k = 0.4419 0.1768-0.1768 (  6051 PWs)   bands (ev):

   -14.5216 -14.5216 -14.4936 -14.4933 -14.4586 -14.4583 -14.4247 -14.4247
   -13.5321 -13.5321 -13.4907 -13.4907 -13.4500 -13.4499 -13.3690 -13.3690
   -13.3259 -13.3259 -13.2935 -13.2935  -1.1493  -1.1493   1.9565   1.9565
     5.3337   5.3337   6.0407   6.0407   8.8535   8.8536  10.4104  10.4104
    11.8491  11.8491  12.0002  12.0002

     occupation numbers 
     1.0000   1.0000   1.0000   1.0000   1.0000   1.0000   1.0000   1.0000
     1.0000   1.0000   1.0000   1.0000   1.0000   1.0000   1.0000   1.0000
     1.0000   1.0000   1.0000   1.0000   1.0000   1.0000   1.0000   1.0000
     1.0000   1.0000   1.0000   1.0000   0.0000   0.0000   0.0000   0.0000
     0.0000   0.0000   0.0000   0.0000

          k =-0.2210-0.4861 0.4861 (  6058 PWs)   bands (ev):

   -14.5227 -14.5227 -14.4884 -14.4880 -14.4641 -14.4636 -14.4230 -14.4229
   -13.5252 -13.5252 -13.4954 -13.4953 -13.4521 -13.4520 -13.3716 -13.3715
   -13.3238 -13.3237 -13.2926 -13.2926  -0.8928  -0.8928   1.5446   1.5446
     5.1299   5.1299   6.0642   6.0642   8.7962   8.7962  10.6694  10.6694
    11.7941  11.7941  12.4099  12.4100

     occupation numbers 
     1.0000   1.0000   1.0000   1.0000   1.0000   1.0000   1.0000   1.0000
     1.0000   1.0000   1.0000   1.0000   1.0000   1.0000   1.0000   1.0000
     1.0000   1.0000   1.0000   1.0000   1.0000   1.0000   1.0000   1.0000
     1.0000   1.0000   1.0000   1.0000   0.0000   0.0000   0.0000   0.0000
     0.0000   0.0000   0.0000   0.0000

          k =-0.1768-0.4419 0.4419 (  6052 PWs)   bands (ev):

   -14.5233 -14.5232 -14.4851 -14.4845 -14.4678 -14.4671 -14.4220 -14.4220
   -13.5228 -13.5228 -13.4970 -13.4969 -13.4524 -13.4523 -13.3732 -13.3731
   -13.3229 -13.3229 -13.2921 -13.2921  -0.7879  -0.7879   1.3901   1.3902
     5.0010   5.0011   6.1505   6.1505   8.7742   8.7742  10.8070  10.8070
    11.6443  11.6443  13.0334  13.0334

     occupation numbers 
     1.0000   1.0000   1.0000   1.0000   1.0000   1.0000   1.0000   1.0000
     1.0000   1.0000   1.0000   1.0000   1.0000   1.0000   1.0000   1.0000
     1.0000   1.0000   1.0000   1.0000   1.0000   1.0000   1.0000   1.0000
     1.0000   1.0000   1.0000   1.0000   0.0000   0.0000   0.0000   0.0000
     0.0000   0.0000   0.0000   0.0000

          k =-0.1326-0.3977 0.3977 (  6051 PWs)   bands (ev):

   -14.5233 -14.5233 -14.4860 -14.4854 -14.4670 -14.4663 -14.4220 -14.4220
   -13.5259 -13.5259 -13.4952 -13.4952 -13.4507 -13.4507 -13.3735 -13.3734
   -13.3227 -13.3227 -13.2927 -13.2926  -0.9071  -0.9071   1.5672   1.5672
     4.9576   4.9577   6.2940   6.2940   8.7869   8.7869  10.9160  10.9160
    11.4644  11.4644  13.1363  13.1364

     occupation numbers 
     1.0000   1.0000   1.0000   1.0000   1.0000   1.0000   1.0000   1.0000
     1.0000   1.0000   1.0000   1.0000   1.0000   1.0000   1.0000   1.0000
     1.0000   1.0000   1.0000   1.0000   1.0000   1.0000   1.0000   1.0000
     1.0000   1.0000   1.0000   1.0000   0.0000   0.0000   0.0000   0.0000
     0.0000   0.0000   0.0000   0.0000

          k =-0.0884-0.3536 0.3536 (  6047 PWs)   bands (ev):

   -14.5229 -14.5229 -14.4902 -14.4898 -14.4626 -14.4622 -14.4229 -14.4229
   -13.5330 -13.5330 -13.4907 -13.4907 -13.4477 -13.4477 -13.3725 -13.3724
   -13.3235 -13.3234 -13.2941 -13.2940  -1.1686  -1.1686   1.9856   1.9856
     5.0123   5.0123   6.4853   6.4853   8.8205   8.8205  11.0165  11.0166
    11.2489  11.2489  12.4753  12.4754

     occupation numbers 
     1.0000   1.0000   1.0000   1.0000   1.0000   1.0000   1.0000   1.0000
     1.0000   1.0000   1.0000   1.0000   1.0000   1.0000   1.0000   1.0000
     1.0000   1.0000   1.0000   1.0000   1.0000   1.0000   1.0000   1.0000
     1.0000   1.0000   1.0000   1.0000   0.0000   0.0000   0.0000   0.0000
     0.0000   0.0000   0.0000   0.0000

          k =-0.0442-0.3094 0.3094 (  6053 PWs)   bands (ev):

   -14.5221 -14.5221 -14.4953 -14.4951 -14.4572 -14.4570 -14.4246 -14.4245
   -13.5423 -13.5422 -13.4840 -13.4840 -13.4445 -13.4445 -13.3704 -13.3704
   -13.3264 -13.3263 -13.2950 -13.2950  -1.4639  -1.4639   2.5170   2.5170
     5.1833   5.1833   6.7082   6.7082   8.8416   8.8417  10.9325  10.9325
    11.0812  11.0813  11.8696  11.8697

     occupation numbers 
     1.0000   1.0000   1.0000   1.0000   1.0000   1.0000   1.0000   1.0000
     1.0000   1.0000   1.0000   1.0000   1.0000   1.0000   1.0000   1.0000
     1.0000   1.0000   1.0000   1.0000   1.0000   1.0000   1.0000   1.0000
     1.0000   1.0000   1.0000   1.0000   0.0000   0.0000   0.0000   0.0000
     0.0000   0.0000   0.0000   0.0000

          k = 0.0000-0.2652 0.2652 (  6057 PWs)   bands (ev):

   -14.5211 -14.5210 -14.5001 -14.5000 -14.4520 -14.4519 -14.4268 -14.4267
   -13.5521 -13.5520 -13.4754 -13.4753 -13.4418 -13.4418 -13.3678 -13.3678
   -13.3325 -13.3324 -13.2944 -13.2944  -1.7365  -1.7365   3.0714   3.0714
     5.4944   5.4944   6.9359   6.9359   8.7820   8.7820  10.6272  10.6272
    10.8220  10.8221  11.6751  11.6752

     occupation numbers 
     1.0000   1.0000   1.0000   1.0000   1.0000   1.0000   1.0000   1.0000
     1.0000   1.0000   1.0000   1.0000   1.0000   1.0000   1.0000   1.0000
     1.0000   1.0000   1.0000   1.0000   1.0000   1.0000   1.0000   1.0000
     1.0000   1.0000   1.0000   1.0000   0.0000   0.0000   0.0000   0.0000
     0.0000   0.0000   0.0000   0.0000

          k = 0.3536 0.0000 0.0000 (  6030 PWs)   bands (ev):

   -14.5156 -14.5156 -14.5084 -14.5084 -14.4433 -14.4433 -14.4326 -14.4326
   -13.5543 -13.5543 -13.4723 -13.4723 -13.4419 -13.4419 -13.3616 -13.3616
   -13.3431 -13.3431 -13.2908 -13.2908  -1.8004  -1.8004   3.3513   3.3513
     6.0418   6.0418   6.1609   6.1609   8.6078   8.6078   9.5389   9.5389
    12.0997  12.0998  12.1312  12.1312

     occupation numbers 
     1.0000   1.0000   1.0000   1.0000   1.0000   1.0000   1.0000   1.0000
     1.0000   1.0000   1.0000   1.0000   1.0000   1.0000   1.0000   1.0000
     1.0000   1.0000   1.0000   1.0000   1.0000   1.0000   1.0000   1.0000
     1.0000   1.0000   1.0000   1.0000   0.0000   0.0000   0.0000   0.0000
     0.0000   0.0000   0.0000   0.0000

          k = 0.3977 0.0442-0.0442 (  6054 PWs)   bands (ev):

   -14.5163 -14.5163 -14.5060 -14.5059 -14.4456 -14.4456 -14.4315 -14.4314
   -13.5464 -13.5464 -13.4796 -13.4796 -13.4441 -13.4441 -13.3656 -13.3656
   -13.3355 -13.3355 -13.2916 -13.2916  -1.5894  -1.5894   2.8858   2.8858
     5.8195   5.8195   5.9728   5.9728   8.6291   8.6291   9.5071   9.5071
    12.2541  12.2541  12.4592  12.4592

     occupation numbers 
     1.0000   1.0000   1.0000   1.0000   1.0000   1.0000   1.0000   1.0000
     1.0000   1.0000   1.0000   1.0000   1.0000   1.0000   1.0000   1.0000
     1.0000   1.0000   1.0000   1.0000   1.0000   1.0000   1.0000   1.0000
     1.0000   1.0000   1.0000   1.0000   0.0000   0.0000   0.0000   0.0000
     0.0000   0.0000   0.0000   0.0000

          k = 0.4419 0.0884-0.0884 (  6061 PWs)   bands (ev):

   -14.5180 -14.5179 -14.5018 -14.5017 -14.4500 -14.4498 -14.4290 -14.4290
   -13.5378 -13.5378 -13.4864 -13.4864 -13.4457 -13.4457 -13.3715 -13.3715
   -13.3285 -13.3284 -13.2917 -13.2917  -1.3260  -1.3260   2.3739   2.3739
     5.5012   5.5012   5.8528   5.8528   8.7704   8.7705   9.6416   9.6417
    12.1324  12.1324  12.6227  12.6227

     occupation numbers 
     1.0000   1.0000   1.0000   1.0000   1.0000   1.0000   1.0000   1.0000
     1.0000   1.0000   1.0000   1.0000   1.0000   1.0000   1.0000   1.0000
     1.0000   1.0000   1.0000   1.0000   1.0000   1.0000   1.0000   1.0000
     1.0000   1.0000   1.0000   1.0000   0.0000   0.0000   0.0000   0.0000
     0.0000   0.0000   0.0000   0.0000

          k = 0.4861 0.1326-0.1326 (  6052 PWs)   bands (ev):

   -14.5197 -14.5197 -14.4970 -14.4968 -14.4552 -14.4550 -14.4262 -14.4262
   -13.5303 -13.5302 -13.4912 -13.4912 -13.4469 -13.4468 -13.3779 -13.3778
   -13.3242 -13.3241 -13.2903 -13.2903  -1.0296  -1.0296   1.8744   1.8744
     5.1708   5.1708   5.8054   5.8054   8.8127   8.8128  10.0958  10.0958
    12.0117  12.0117  12.6158  12.6159

     occupation numbers 
     1.0000   1.0000   1.0000   1.0000   1.0000   1.0000   1.0000   1.0000
     1.0000   1.0000   1.0000   1.0000   1.0000   1.0000   1.0000   1.0000
     1.0000   1.0000   1.0000   1.0000   1.0000   1.0000   1.0000   1.0000
     1.0000   1.0000   1.0000   1.0000   0.0000   0.0000   0.0000   0.0000
     0.0000   0.0000   0.0000   0.0000

          k =-0.1768-0.5303 0.5303 (  6053 PWs)   bands (ev):

   -14.5212 -14.5212 -14.4921 -14.4918 -14.4607 -14.4602 -14.4238 -14.4238
   -13.5255 -13.5254 -13.4931 -13.4930 -13.4476 -13.4475 -13.3835 -13.3834
   -13.3225 -13.3225 -13.2880 -13.2880  -0.7460  -0.7460   1.4554   1.4554
     4.8922   4.8923   5.8255   5.8255   8.8094   8.8094  10.7068  10.7069
    11.9968  11.9968  12.4981  12.4981

     occupation numbers 
     1.0000   1.0000   1.0000   1.0000   1.0000   1.0000   1.0000   1.0000
[...]

     occupation numbers 
     1.0000   1.0000   1.0000   1.0000   1.0000   1.0000   1.0000   1.0000
     1.0000   1.0000   1.0000   1.0000   1.0000   1.0000   1.0000   1.0000
     1.0000   1.0000   1.0000   1.0000   1.0000   1.0000   1.0000   1.0000
     1.0000   1.0000   1.0000   1.0000   0.0000   0.0000   0.0000   0.0000
     0.0000   0.0000   0.0000   0.0000

          k =-0.1326-0.3977 0.5745 (  6042 PWs)   bands (ev):

   -14.5223 -14.5222 -14.4880 -14.4873 -14.4659 -14.4650 -14.4216 -14.4216
   -13.5249 -13.5249 -13.4904 -13.4903 -13.4456 -13.4455 -13.3921 -13.3919
   -13.3231 -13.3230 -13.2837 -13.2837  -0.4897  -0.4897   1.1587   1.1587
     4.6589   4.6590   5.6352   5.6352   9.4733   9.4733  10.7346  10.7347
    12.0009  12.0009  12.7095  12.7095

     occupation numbers 
     1.0000   1.0000   1.0000   1.0000   1.0000   1.0000   1.0000   1.0000
     1.0000   1.0000   1.0000   1.0000   1.0000   1.0000   1.0000   1.0000
     1.0000   1.0000   1.0000   1.0000   1.0000   1.0000   1.0000   1.0000
     1.0000   1.0000   1.0000   1.0000   0.0000   0.0000   0.0000   0.0000
     0.0000   0.0000   0.0000   0.0000

          k =-0.0884-0.3536 0.5303 (  6041 PWs)   bands (ev):

   -14.5225 -14.5224 -14.4875 -14.4867 -14.4665 -14.4657 -14.4214 -14.4213
   -13.5254 -13.5253 -13.4905 -13.4904 -13.4453 -13.4452 -13.3916 -13.3914
   -13.3232 -13.3231 -13.2840 -13.2839  -0.5442  -0.5442   1.2278   1.2279
     4.6266   4.6266   5.7035   5.7035   9.5161   9.5162  10.7298  10.7299
    12.0572  12.0573  12.6760  12.6760

     occupation numbers 
     1.0000   1.0000   1.0000   1.0000   1.0000   1.0000   1.0000   1.0000
     1.0000   1.0000   1.0000   1.0000   1.0000   1.0000   1.0000   1.0000
     1.0000   1.0000   1.0000   1.0000   1.0000   1.0000   1.0000   1.0000
     1.0000   1.0000   1.0000   1.0000   0.0000   0.0000   0.0000   0.0000
     0.0000   0.0000   0.0000   0.0000

          k =-0.0442-0.3094 0.4861 (  6046 PWs)   bands (ev):

   -14.5223 -14.5223 -14.4895 -14.4889 -14.4641 -14.4635 -14.4221 -14.4220
   -13.5276 -13.5275 -13.4911 -13.4910 -13.4450 -13.4449 -13.3871 -13.3870
   -13.3234 -13.3233 -13.2862 -13.2861  -0.7875  -0.7875   1.5467   1.5467
     4.6978   4.6979   5.8452   5.8452   9.5624   9.5624  10.6163  10.6164
    11.5034  11.5035  12.8792  12.8792

     occupation numbers 
     1.0000   1.0000   1.0000   1.0000   1.0000   1.0000   1.0000   1.0000
     1.0000   1.0000   1.0000   1.0000   1.0000   1.0000   1.0000   1.0000
     1.0000   1.0000   1.0000   1.0000   1.0000   1.0000   1.0000   1.0000
     1.0000   1.0000   1.0000   1.0000   0.0000   0.0000   0.0000   0.0000
     0.0000   0.0000   0.0000   0.0000

          k = 0.0000-0.2652 0.4419 (  6045 PWs)   bands (ev):

   -14.5218 -14.5217 -14.4930 -14.4926 -14.4601 -14.4597 -14.4235 -14.4235
   -13.5323 -13.5323 -13.4898 -13.4898 -13.4450 -13.4450 -13.3799 -13.3798
   -13.3245 -13.3244 -13.2896 -13.2895  -1.0851  -1.0851   1.9653   1.9653
     4.8915   4.8915   6.0352   6.0352   9.5517   9.5518  10.2721  10.2722
    11.3318  11.3318  12.6524  12.6524

     occupation numbers 
     1.0000   1.0000   1.0000   1.0000   1.0000   1.0000   1.0000   1.0000
     1.0000   1.0000   1.0000   1.0000   1.0000   1.0000   1.0000   1.0000
     1.0000   1.0000   1.0000   1.0000   1.0000   1.0000   1.0000   1.0000
     1.0000   1.0000   1.0000   1.0000   0.0000   0.0000   0.0000   0.0000
     0.0000   0.0000   0.0000   0.0000

          k =-0.1768-0.5303 0.7071 (  6053 PWs)   bands (ev):

   -14.5189 -14.5189 -14.4975 -14.4972 -14.4550 -14.4546 -14.4264 -14.4263
   -13.5268 -13.5268 -13.4925 -13.4924 -13.4437 -13.4436 -13.3878 -13.3878
   -13.3216 -13.3215 -13.2876 -13.2876  -0.7942  -0.7942   1.5842   1.5842
     5.0555   5.0556   5.5120   5.5121   9.2119   9.2121   9.6038   9.6040
    12.0107  12.0108  13.6002  13.6002

     occupation numbers 
     1.0000   1.0000   1.0000   1.0000   1.0000   1.0000   1.0000   1.0000
     1.0000   1.0000   1.0000   1.0000   1.0000   1.0000   1.0000   1.0000
     1.0000   1.0000   1.0000   1.0000   1.0000   1.0000   1.0000   1.0000
     1.0000   1.0000   1.0000   1.0000   0.0000   0.0000   0.0000   0.0000
     0.0000   0.0000   0.0000   0.0000

          k =-0.1326-0.4861 0.6629 (  6051 PWs)   bands (ev):

   -14.5200 -14.5199 -14.4944 -14.4939 -14.4589 -14.4584 -14.4243 -14.4242
   -13.5250 -13.5249 -13.4911 -13.4910 -13.4415 -13.4413 -13.3967 -13.3965
   -13.3212 -13.3211 -13.2841 -13.2840  -0.4908  -0.4908   1.2009   1.2009
     4.8285   4.8285   5.3902   5.3902   9.3826   9.3827  10.0682  10.0683
    11.8396  11.8397  13.5574  13.5574

     occupation numbers 
     1.0000   1.0000   1.0000   1.0000   1.0000   1.0000   1.0000   1.0000
     1.0000   1.0000   1.0000   1.0000   1.0000   1.0000   1.0000   1.0000
     1.0000   1.0000   1.0000   1.0000   1.0000   1.0000   1.0000   1.0000
     1.0000   1.0000   1.0000   1.0000   0.0000   0.0000   0.0000   0.0000
     0.0000   0.0000   0.0000   0.0000

          k =-0.0884-0.4419 0.6187 (  6041 PWs)   bands (ev):

   -14.5211 -14.5210 -14.4913 -14.4906 -14.4626 -14.4619 -14.4225 -14.4224
   -13.5251 -13.5250 -13.4885 -13.4884 -13.4398 -13.4394 -13.4028 -13.4025
   -13.3220 -13.3219 -13.2814 -13.2813  -0.2533  -0.2533   0.9259   0.9259
     4.6338   4.6339   5.3788   5.3788   9.4411   9.4412  10.7805  10.7805
    11.7427  11.7428  12.9919  12.9919

     occupation numbers 
     1.0000   1.0000   1.0000   1.0000   1.0000   1.0000   1.0000   1.0000
     1.0000   1.0000   1.0000   1.0000   1.0000   1.0000   1.0000   1.0000
     1.0000   1.0000   1.0000   1.0000   1.0000   1.0000   1.0000   1.0000
     1.0000   1.0000   1.0000   1.0000   0.0000   0.0000   0.0000   0.0000
     0.0000   0.0000   0.0000   0.0000

          k =-0.0442-0.3977 0.5745 (  6042 PWs)   bands (ev):

   -14.5218 -14.5218 -14.4890 -14.4882 -14.4653 -14.4644 -14.4215 -14.4214
   -13.5256 -13.5256 -13.4875 -13.4874 -13.4400 -13.4396 -13.4032 -13.4029
   -13.3227 -13.3226 -13.2806 -13.2806  -0.2554  -0.2554   0.9308   0.9308
     4.5231   4.5232   5.4661   5.4661   9.5166   9.5166  11.2398  11.2398
    11.9488  11.9489  12.2871  12.2872

     occupation numbers 
     1.0000   1.0000   1.0000   1.0000   1.0000   1.0000   1.0000   1.0000
     1.0000   1.0000   1.0000   1.0000   1.0000   1.0000   1.0000   1.0000
     1.0000   1.0000   1.0000   1.0000   1.0000   1.0000   1.0000   1.0000
     1.0000   1.0000   1.0000   1.0000   0.0000   0.0000   0.0000   0.0000
     0.0000   0.0000   0.0000   0.0000

          k = 0.0000-0.3536 0.5303 (  6045 PWs)   bands (ev):

   -14.5223 -14.5222 -14.4883 -14.4875 -14.4659 -14.4650 -14.4213 -14.4213
   -13.5262 -13.5261 -13.4890 -13.4889 -13.4422 -13.4419 -13.3972 -13.3969
   -13.3231 -13.3230 -13.2823 -13.2823  -0.4904  -0.4904   1.1994   1.1994
     4.5361   4.5362   5.6305   5.6306   9.5900   9.5900  11.1070  11.1071
    11.5819  11.5820  12.7525  12.7525

     occupation numbers 
     1.0000   1.0000   1.0000   1.0000   1.0000   1.0000   1.0000   1.0000
     1.0000   1.0000   1.0000   1.0000   1.0000   1.0000   1.0000   1.0000
     1.0000   1.0000   1.0000   1.0000   1.0000   1.0000   1.0000   1.0000
     1.0000   1.0000   1.0000   1.0000   0.0000   0.0000   0.0000   0.0000
     0.0000   0.0000   0.0000   0.0000

          k =-0.0884-0.5303 0.7071 (  6044 PWs)   bands (ev):

   -14.5181 -14.5180 -14.4976 -14.4972 -14.4551 -14.4546 -14.4266 -14.4265
   -13.5228 -13.5227 -13.4933 -13.4932 -13.4364 -13.4361 -13.4040 -13.4037
   -13.3178 -13.3177 -13.2850 -13.2849  -0.2687  -0.2687   0.9338   0.9338
     4.9741   4.9742   5.2309   5.2309   9.1769   9.1772   9.4315   9.4318
    12.6764  12.6764  13.8925  13.8926

     occupation numbers 
     1.0000   1.0000   1.0000   1.0000   1.0000   1.0000   1.0000   1.0000
     1.0000   1.0000   1.0000   1.0000   1.0000   1.0000   1.0000   1.0000
     1.0000   1.0000   1.0000   1.0000   1.0000   1.0000   1.0000   1.0000
     1.0000   1.0000   1.0000   1.0000   0.0000   0.0000   0.0000   0.0000
     0.0000   0.0000   0.0000   0.0000

          k =-0.0442-0.4861 0.6629 (  6036 PWs)   bands (ev):

   -14.5195 -14.5194 -14.4947 -14.4942 -14.4587 -14.4581 -14.4244 -14.4242
   -13.5240 -13.5240 -13.4896 -13.4895 -13.4329 -13.4324 -13.4116 -13.4110
   -13.3196 -13.3195 -13.2816 -13.2816   0.0143   0.0143   0.6346   0.6346
     4.7718   4.7718   5.1839   5.1840   9.3336   9.3337  10.0154  10.0155
    12.4953  12.4954  13.2109  13.2110

     occupation numbers 
     1.0000   1.0000   1.0000   1.0000   1.0000   1.0000   1.0000   1.0000
     1.0000   1.0000   1.0000   1.0000   1.0000   1.0000   1.0000   1.0000
     1.0000   1.0000   1.0000   1.0000   1.0000   1.0000   1.0000   1.0000
     1.0000   1.0000   1.0000   1.0000   0.0000   0.0000   0.0000   0.0000
     0.0000   0.0000   0.0000   0.0000

          k = 0.0000-0.4419 0.6187 (  6039 PWs)   bands (ev):

   -14.5208 -14.5207 -14.4917 -14.4910 -14.4624 -14.4616 -14.4225 -14.4224
   -13.5252 -13.5252 -13.4871 -13.4869 -13.4345 -13.4339 -13.4113 -13.4108
   -13.3215 -13.3214 -13.2799 -13.2799   0.0120   0.0120   0.6461   0.6462
     4.5850   4.5850   5.2835   5.2835   9.4226   9.4226  10.8194  10.8194
    12.3057  12.3061  12.4011  12.4014

     occupation numbers 
     1.0000   1.0000   1.0000   1.0000   1.0000   1.0000   1.0000   1.0000
     1.0000   1.0000   1.0000   1.0000   1.0000   1.0000   1.0000   1.0000
     1.0000   1.0000   1.0000   1.0000   1.0000   1.0000   1.0000   1.0000
     1.0000   1.0000   1.0000   1.0000   0.0000   0.0000   0.0000   0.0000
     0.0000   0.0000   0.0000   0.0000

          k =-0.7071 0.1768 0.0000 (  6042 PWs)   bands (ev):

   -14.5178 -14.5177 -14.4978 -14.4973 -14.4549 -14.4544 -14.4267 -14.4266
   -13.5220 -13.5220 -13.4930 -13.4929 -13.4276 -13.4267 -13.4164 -13.4155
   -13.3164 -13.3164 -13.2840 -13.2840   0.2958   0.2962   0.3270   0.3274
     4.9720   4.9722   5.1106   5.1107   9.1935   9.1940   9.3338   9.3343
    13.3170  13.3173  13.4760  13.4762

     occupation numbers 
     1.0000   1.0000   1.0000   1.0000   1.0000   1.0000   1.0000   1.0000
     1.0000   1.0000   1.0000   1.0000   1.0000   1.0000   1.0000   1.0000
     1.0000   1.0000   1.0000   1.0000   1.0000   1.0000   1.0000   1.0000
     1.0000   1.0000   1.0000   1.0000   0.0000   0.0000   0.0000   0.0000
     0.0000   0.0000   0.0000   0.0000

          k =-0.1768-0.4419 0.7071 (  6045 PWs)   bands (ev):

   -14.5213 -14.5212 -14.4921 -14.4915 -14.4615 -14.4609 -14.4230 -14.4229
   -13.5267 -13.5266 -13.4904 -13.4903 -13.4434 -13.4433 -13.3920 -13.3919
   -13.3231 -13.3229 -13.2844 -13.2844  -0.6607  -0.6607   1.4118   1.4118
     4.7522   4.7522   5.5460   5.5460   9.9013   9.9016  10.1838  10.1840
    11.2880  11.2881  13.3336  13.3337

     occupation numbers 
     1.0000   1.0000   1.0000   1.0000   1.0000   1.0000   1.0000   1.0000
     1.0000   1.0000   1.0000   1.0000   1.0000   1.0000   1.0000   1.0000
     1.0000   1.0000   1.0000   1.0000   1.0000   1.0000   1.0000   1.0000
     1.0000   1.0000   1.0000   1.0000   0.0000   0.0000   0.0000   0.0000
     0.0000   0.0000   0.0000   0.0000

          k =-0.1326-0.3977 0.6629 (  6038 PWs)   bands (ev):

   -14.5217 -14.5216 -14.4900 -14.4893 -14.4641 -14.4633 -14.4219 -14.4218
   -13.5259 -13.5258 -13.4881 -13.4879 -13.4414 -13.4411 -13.4000 -13.3997
   -13.3231 -13.3229 -13.2813 -13.2813  -0.3777  -0.3777   1.0735   1.0735
     4.6250   4.6251   5.3916   5.3917   9.9729   9.9730  10.6275  10.6276
    11.3972  11.3973  12.8794  12.8794

     occupation numbers 
     1.0000   1.0000   1.0000   1.0000   1.0000   1.0000   1.0000   1.0000
     1.0000   1.0000   1.0000   1.0000   1.0000   1.0000   1.0000   1.0000
     1.0000   1.0000   1.0000   1.0000   1.0000   1.0000   1.0000   1.0000
     1.0000   1.0000   1.0000   1.0000   0.0000   0.0000   0.0000   0.0000
     0.0000   0.0000   0.0000   0.0000

          k =-0.0884-0.3536 0.6187 (  6030 PWs)   bands (ev):

   -14.5218 -14.5217 -14.4892 -14.4884 -14.4652 -14.4643 -14.4215 -14.4213
   -13.5258 -13.5257 -13.4868 -13.4867 -13.4404 -13.4401 -13.4031 -13.4028
   -13.3232 -13.3231 -13.2802 -13.2801  -0.2401  -0.2400   0.9163   0.9163
     4.5846   4.5846   5.3353   5.3353   9.9779   9.9780  10.7491  10.7492
    11.8919  11.8921  12.2287  12.2288

     occupation numbers 
     1.0000   1.0000   1.0000   1.0000   1.0000   1.0000   1.0000   1.0000
     1.0000   1.0000   1.0000   1.0000   1.0000   1.0000   1.0000   1.0000
     1.0000   1.0000   1.0000   1.0000   1.0000   1.0000   1.0000   1.0000
     1.0000   1.0000   1.0000   1.0000   0.0000   0.0000   0.0000   0.0000
     0.0000   0.0000   0.0000   0.0000

          k =-0.0884-0.4419 0.7071 (  6038 PWs)   bands (ev):

   -14.5206 -14.5205 -14.4926 -14.4919 -14.4613 -14.4606 -14.4230 -14.4228
   -13.5253 -13.5253 -13.4878 -13.4876 -13.4373 -13.4369 -13.4066 -13.4062
   -13.3219 -13.3218 -13.2806 -13.2806  -0.1855  -0.1855   0.8639   0.8640
     4.7353   4.7354   5.1606   5.1607   9.9634   9.9638  10.1796  10.1800
    11.6639  11.6639  13.0464  13.0464

     occupation numbers 
     1.0000   1.0000   1.0000   1.0000   1.0000   1.0000   1.0000   1.0000
     1.0000   1.0000   1.0000   1.0000   1.0000   1.0000   1.0000   1.0000
     1.0000   1.0000   1.0000   1.0000   1.0000   1.0000   1.0000   1.0000
     1.0000   1.0000   1.0000   1.0000   0.0000   0.0000   0.0000   0.0000
     0.0000   0.0000   0.0000   0.0000

          k =-0.0442-0.3977 0.6629 (  6031 PWs)   bands (ev):

   -14.5211 -14.5210 -14.4911 -14.4902 -14.4634 -14.4625 -14.4219 -14.4218
   -13.5260 -13.5260 -13.4852 -13.4851 -13.4345 -13.4340 -13.4124 -13.4118
   -13.3227 -13.3226 -13.2786 -13.2786   0.0337   0.0337   0.6354   0.6355
     4.6535   4.6536   5.0815   5.0816  10.1046  10.1047  10.8135  10.8137
    11.5900  11.5901  12.2008  12.2008

     occupation numbers 
     1.0000   1.0000   1.0000   1.0000   1.0000   1.0000   1.0000   1.0000
     1.0000   1.0000   1.0000   1.0000   1.0000   1.0000   1.0000   1.0000
     1.0000   1.0000   1.0000   1.0000   1.0000   1.0000   1.0000   1.0000
     1.0000   1.0000   1.0000   1.0000   0.0000   0.0000   0.0000   0.0000
     0.0000   0.0000   0.0000   0.0000

          k =-0.0000-0.3536 0.6187 (  6031 PWs)   bands (ev):

   -14.5215 -14.5214 -14.4901 -14.4892 -14.4644 -14.4635 -14.4216 -14.4214
   -13.5262 -13.5261 -13.4854 -13.4852 -13.4367 -13.4363 -13.4093 -13.4089
   -13.3231 -13.3230 -13.2789 -13.2788  -0.0879  -0.0879   0.7650   0.7650
     4.5931   4.5931   5.1806   5.1807  10.1518  10.1518  10.9959  10.9960
    11.4772  11.4773  12.1095  12.1095

     occupation numbers 
     1.0000   1.0000   1.0000   1.0000   1.0000   1.0000   1.0000   1.0000
     1.0000   1.0000   1.0000   1.0000   1.0000   1.0000   1.0000   1.0000
     1.0000   1.0000   1.0000   1.0000   1.0000   1.0000   1.0000   1.0000
     1.0000   1.0000   1.0000   1.0000   0.0000   0.0000   0.0000   0.0000
     0.0000   0.0000   0.0000   0.0000

          k =-0.7071 0.2652 0.0000 (  6040 PWs)   bands (ev):

   -14.5202 -14.5201 -14.4930 -14.4923 -14.4610 -14.4603 -14.4230 -14.4229
   -13.5253 -13.5253 -13.4864 -13.4863 -13.4304 -13.4294 -13.4169 -13.4160
   -13.3214 -13.3213 -13.2793 -13.2792   0.3066   0.3070   0.3481   0.3485
     4.7964   4.7966   4.9616   4.9617   9.9629   9.9634  10.1610  10.1614
    12.2770  12.2774  12.3801  12.3804

     occupation numbers 
     1.0000   1.0000   1.0000   1.0000   1.0000   1.0000   1.0000   1.0000
     1.0000   1.0000   1.0000   1.0000   1.0000   1.0000   1.0000   1.0000
     1.0000   1.0000   1.0000   1.0000   1.0000   1.0000   1.0000   1.0000
     1.0000   1.0000   1.0000   1.0000   0.0000   0.0000   0.0000   0.0000
     0.0000   0.0000   0.0000   0.0000

          k =-0.7071 0.3536 0.0000 (  6032 PWs)   bands (ev):

   -14.5211 -14.5210 -14.4910 -14.4901 -14.4636 -14.4627 -14.4217 -14.4215
   -13.5264 -13.5264 -13.4839 -13.4837 -13.4314 -13.4304 -13.4174 -13.4165
   -13.3231 -13.3230 -13.2776 -13.2776   0.3114   0.3118   0.3567   0.3571
     4.7307   4.7309   4.9038   4.9040  10.5540  10.5543  10.8788  10.8791
    11.5661  11.5666  11.5914  11.5918

     occupation numbers 
     1.0000   1.0000   1.0000   1.0000   1.0000   1.0000   1.0000   1.0000
     1.0000   1.0000   1.0000   1.0000   1.0000   1.0000   1.0000   1.0000
     1.0000   1.0000   1.0000   1.0000   1.0000   1.0000   1.0000   1.0000
     1.0000   1.0000   1.0000   1.0000   0.0000   0.0000   0.0000   0.0000
     0.0000   0.0000   0.0000   0.0000

     the Fermi energy is     7.5913 ev

!    total energy              =    -885.88621505 Ry
     Harris-Foulkes estimate   =    -885.88621479 Ry
     estimated scf accuracy    <       0.00000027 Ry

     total all-electron energy =    -24716.586030 Ry

     The total energy is the sum of the following terms:

     one-electron contribution =    -155.28941586 Ry
     hartree contribution      =      78.93823982 Ry
     xc contribution           =     -54.74538002 Ry
     ewald contribution        =    -167.52979533 Ry
     one-center paw contrib.   =    -587.25986361 Ry
     smearing contrib. (-TS)   =      -0.00000006 Ry

     convergence has been achieved in   5 iterations

     Writing output data file Sn.save
 
     init_run     :     14.27s CPU     15.64s WALL (       1 calls)
     electrons    :    313.26s CPU    332.54s WALL (       1 calls)

     Called by init_run:
     wfcinit      :     13.58s CPU     14.61s WALL (       1 calls)
     potinit      :      0.24s CPU      0.29s WALL (       1 calls)

     Called by electrons:
     c_bands      :    266.79s CPU    283.31s WALL (       6 calls)
     sum_band     :     44.94s CPU     47.52s WALL (       6 calls)
     v_of_rho     :      0.09s CPU      0.10s WALL (       6 calls)
     v_h          :      0.01s CPU      0.01s WALL (       6 calls)
     v_xc         :      0.08s CPU      0.09s WALL (       6 calls)
     newd         :      0.51s CPU      0.56s WALL (       6 calls)
     PAW_pot      :      1.16s CPU      1.27s WALL (       6 calls)
     mix_rho      :      0.04s CPU      0.05s WALL (       6 calls)

     Called by c_bands:
     init_us_2    :      0.65s CPU      0.73s WALL (    1885 calls)
     cegterg      :    255.51s CPU    271.73s WALL (     870 calls)

     Called by sum_band:
     sum_band:bec :      2.81s CPU      2.89s WALL (     870 calls)
     addusdens    :      0.38s CPU      0.47s WALL (       6 calls)

     Called by *egterg:
     h_psi        :    220.63s CPU    234.04s WALL (    3463 calls)
     s_psi        :      5.65s CPU      5.69s WALL (    3463 calls)
     g_psi        :      0.61s CPU      0.62s WALL (    2448 calls)
     cdiaghg      :     14.82s CPU     15.14s WALL (    3173 calls)
     cegterg:over :     10.56s CPU     10.62s WALL (    2448 calls)
     cegterg:upda :      5.44s CPU      5.47s WALL (    2448 calls)
     cegterg:last :      3.96s CPU      3.97s WALL (    1013 calls)

     Called by h_psi:
     h_psi:vloc   :    207.15s CPU    220.36s WALL (    3463 calls)
     h_psi:vnl    :     13.02s CPU     13.18s WALL (    3463 calls)
     add_vuspsi   :      5.98s CPU      6.01s WALL (    3463 calls)

     General routines
     calbec       :      9.25s CPU      9.41s WALL (    4333 calls)
     fft          :      0.16s CPU      0.29s WALL (     116 calls)
     fftw         :    230.14s CPU    244.74s WALL (  429720 calls)
     davcio       :      0.04s CPU      0.76s WALL (     145 calls)
 
     Parallel routines
     fft_scatter  :    149.79s CPU    159.49s WALL (  429836 calls)

     PAW routines
     PAW_pot      :      1.16s CPU      1.27s WALL (       6 calls)
     PAW_symme    :      0.02s CPU      0.02s WALL (      12 calls)
 
     PWSCF        :  5m29.28s CPU     5m51.06s WALL

 
   This run was terminated on:  23: 0:29  16Mar2020            

=------------------------------------------------------------------------------=
   JOB DONE.
=------------------------------------------------------------------------------=
