
     Program PWSCF v.5.4.0 starts on 16Mar2020 at 22:54:23 

     This program is part of the open-source Quantum ESPRESSO suite
     for quantum simulation of materials; please cite
         "P. Giannozzi et al., J. Phys.:Condens. Matter 21 395502 (2009);
          URL http://www.quantum-espresso.org", 
     in publications or presentations arising from this work. More details at
     http://www.quantum-espresso.org/quote

     Parallel version (MPI & OpenMP), running on      16 processor cores
     Number of MPI processes:                16
     Threads/MPI process:                     1
     R & G space division:  proc/nbgrp/npool/nimage =      16
     Waiting for input...
     Reading input from standard input
Warning: card &IONS ignored
Warning: card / ignored
Warning: card &CELL ignored
Warning: card / ignored

     Current dimensions of program PWSCF are:
     Max number of different atomic species (ntypx) = 10
     Max number of k-points (npk) =  40000
     Max angular momentum in pseudopotentials (lmaxx) =  3
               file Sn.rel-pbe-dn-rrkjus_psl.1.0.0.UPF: wavefunction(s)  5S 4D 4D renormalized

     Subspace diagonalization in iterative solution of the eigenvalue problem:
     a serial algorithm will be used

 
     Parallelization info
     --------------------
     sticks:   dense  smooth     PW     G-vecs:    dense   smooth      PW
     Min         117     117     33                 3318     3318     505
     Max         119     119     34                 3319     3319     507
     Sum        1879    1879    535                53089    53089    8099
 

     Title: 
     Sn                                                                         


     bravais-lattice index     =            0
     lattice parameter (alat)  =       8.9127  a.u.
     unit-cell volume          =     500.6268 (a.u.)^3
     number of atoms/cell      =            2
     number of atomic types    =            1
     number of electrons       =        28.00
     number of Kohn-Sham states=           36
     kinetic-energy cutoff     =      85.0000  Ry
     charge density cutoff     =     340.0000  Ry
     convergence threshold     =      1.0E-06
     mixing beta               =       0.7000
     number of iterations used =            8  plain     mixing
     Exchange-correlation      = PBE ( 1  4  3  4 0 0)
     Non magnetic calculation with spin-orbit


     celldm(1)=   8.912709  celldm(2)=   0.000000  celldm(3)=   0.000000
     celldm(4)=   0.000000  celldm(5)=   0.000000  celldm(6)=   0.000000

     crystal axes: (cart. coord. in units of alat)
               a(1) = (   0.000000   0.707107   0.707107 )  
               a(2) = (   0.707107   0.000000   0.707107 )  
               a(3) = (   0.707107   0.707107   0.000000 )  

     reciprocal axes: (cart. coord. in units 2 pi/alat)
               b(1) = ( -0.707107  0.707107  0.707107 )  
               b(2) = (  0.707107 -0.707107  0.707107 )  
               b(3) = (  0.707107  0.707107 -0.707107 )  


     PseudoPot. # 1 for Sn read from file:
     ../PseudopotentialDatabase/Sn.rel-pbe-dn-rrkjus_psl.1.0.0.UPF
     MD5 check sum: e9415cc9ba1036dfb73502962f03961a
     Pseudo is Ultrasoft + core correction, Zval = 14.0
     Generated using "atomic" code by A. Dal Corso  v.6.3
     Using radial grid of 1243 points, 10 beta functions with: 
                l(1) =   0
                l(2) =   0
                l(3) =   1
                l(4) =   1
                l(5) =   1
                l(6) =   1
                l(7) =   2
                l(8) =   2
                l(9) =   2
               l(10) =   2
     Q(r) pseudized with 0 coefficients 


     atomic species   valence    mass     pseudopotential
        Sn            14.00   118.71000     Sn( 1.00)

     24 Sym. Ops. (no inversion) found
          (note: 24 additional sym.ops. were found but ignored
           their fractional translations are incommensurate with FFT grid)

                                    s                        frac. trans.

      isym =  1     identity                                     

 cryst.   s( 1) = (     1          0          0      )
                  (     0          1          0      )
                  (     0          0          1      )

 cart.    s( 1) = (  1.0000000  0.0000000  0.0000000 )
                  (  0.0000000  1.0000000  0.0000000 )
                  (  0.0000000  0.0000000  1.0000000 )


      isym =  2     180 deg rotation - cart. axis [0,0,1]        

 cryst.   s( 2) = (     0          1         -1      )
                  (     1          0         -1      )
                  (     0          0         -1      )

 cart.    s( 2) = ( -1.0000000  0.0000000  0.0000000 )
                  (  0.0000000 -1.0000000  0.0000000 )
                  (  0.0000000  0.0000000  1.0000000 )


      isym =  3     180 deg rotation - cart. axis [0,1,0]        

 cryst.   s( 3) = (     0         -1          1      )
                  (     0         -1          0      )
                  (     1         -1          0      )

 cart.    s( 3) = ( -1.0000000  0.0000000  0.0000000 )
                  (  0.0000000  1.0000000  0.0000000 )
                  (  0.0000000  0.0000000 -1.0000000 )


      isym =  4     180 deg rotation - cart. axis [1,0,0]        

 cryst.   s( 4) = (    -1          0          0      )
                  (    -1          0          1      )
                  (    -1          1          0      )

 cart.    s( 4) = (  1.0000000  0.0000000  0.0000000 )
                  (  0.0000000 -1.0000000  0.0000000 )
                  (  0.0000000  0.0000000 -1.0000000 )


      isym =  5     120 deg rotation - cart. axis [-1,-1,-1]     

 cryst.   s( 5) = (     0          0          1      )
                  (     1          0          0      )
                  (     0          1          0      )

 cart.    s( 5) = (  0.0000000  1.0000000  0.0000000 )
                  (  0.0000000  0.0000000  1.0000000 )
                  (  1.0000000  0.0000000  0.0000000 )


      isym =  6     120 deg rotation - cart. axis [-1,1,1]       

 cryst.   s( 6) = (     1         -1          0      )
                  (     0         -1          1      )
                  (     0         -1          0      )

 cart.    s( 6) = (  0.0000000 -1.0000000  0.0000000 )
                  (  0.0000000  0.0000000  1.0000000 )
                  ( -1.0000000  0.0000000  0.0000000 )


      isym =  7     120 deg rotation - cart. axis [1,1,-1]       

 cryst.   s( 7) = (    -1          1          0      )
                  (    -1          0          0      )
                  (    -1          0          1      )

 cart.    s( 7) = (  0.0000000  1.0000000  0.0000000 )
                  (  0.0000000  0.0000000 -1.0000000 )
                  ( -1.0000000  0.0000000  0.0000000 )


      isym =  8     120 deg rotation - cart. axis [1,-1,1]       

 cryst.   s( 8) = (     0          0         -1      )
                  (     0          1         -1      )
                  (     1          0         -1      )

 cart.    s( 8) = (  0.0000000 -1.0000000  0.0000000 )
                  (  0.0000000  0.0000000 -1.0000000 )
                  (  1.0000000  0.0000000  0.0000000 )


      isym =  9     120 deg rotation - cart. axis [1,1,1]        

 cryst.   s( 9) = (     0          1          0      )
                  (     0          0          1      )
                  (     1          0          0      )

 cart.    s( 9) = (  0.0000000  0.0000000  1.0000000 )
                  (  1.0000000  0.0000000  0.0000000 )
                  (  0.0000000  1.0000000  0.0000000 )


      isym = 10     120 deg rotation - cart. axis [-1,1,-1]      

 cryst.   s(10) = (    -1          0          1      )
                  (    -1          1          0      )
                  (    -1          0          0      )

 cart.    s(10) = (  0.0000000  0.0000000  1.0000000 )
                  ( -1.0000000  0.0000000  0.0000000 )
                  (  0.0000000 -1.0000000  0.0000000 )


      isym = 11     120 deg rotation - cart. axis [1,-1,-1]      

 cryst.   s(11) = (     1          0         -1      )
                  (     0          0         -1      )
                  (     0          1         -1      )

 cart.    s(11) = (  0.0000000  0.0000000 -1.0000000 )
                  ( -1.0000000  0.0000000  0.0000000 )
                  (  0.0000000  1.0000000  0.0000000 )


      isym = 12     120 deg rotation - cart. axis [-1,-1,1]      

 cryst.   s(12) = (     0         -1          0      )
                  (     1         -1          0      )
                  (     0         -1          1      )

 cart.    s(12) = (  0.0000000  0.0000000 -1.0000000 )
                  (  1.0000000  0.0000000  0.0000000 )
                  (  0.0000000 -1.0000000  0.0000000 )


      isym = 13     inv. 180 deg rotation - cart. axis [1,1,0]   

 cryst.   s(13) = (     1          0         -1      )
                  (     0          1         -1      )
                  (     0          0         -1      )

 cart.    s(13) = (  0.0000000 -1.0000000  0.0000000 )
                  ( -1.0000000  0.0000000  0.0000000 )
                  (  0.0000000  0.0000000  1.0000000 )


      isym = 14     inv. 180 deg rotation - cart. axis [1,-1,0]  

 cryst.   s(14) = (     0          1          0      )
                  (     1          0          0      )
                  (     0          0          1      )

 cart.    s(14) = (  0.0000000  1.0000000  0.0000000 )
                  (  1.0000000  0.0000000  0.0000000 )
                  (  0.0000000  0.0000000  1.0000000 )


      isym = 15     inv.  90 deg rotation - cart. axis [0,0,-1]  

 cryst.   s(15) = (     0         -1          0      )
                  (     0         -1          1      )
                  (     1         -1          0      )

 cart.    s(15) = (  0.0000000 -1.0000000  0.0000000 )
                  (  1.0000000  0.0000000  0.0000000 )
                  (  0.0000000  0.0000000 -1.0000000 )


      isym = 16     inv.  90 deg rotation - cart. axis [0,0,1]   

 cryst.   s(16) = (    -1          0          1      )
                  (    -1          0          0      )
                  (    -1          1          0      )

 cart.    s(16) = (  0.0000000  1.0000000  0.0000000 )
                  ( -1.0000000  0.0000000  0.0000000 )
                  (  0.0000000  0.0000000 -1.0000000 )


      isym = 17     inv. 180 deg rotation - cart. axis [1,0,1]   

 cryst.   s(17) = (     1         -1          0      )
                  (     0         -1          0      )
                  (     0         -1          1      )

 cart.    s(17) = (  0.0000000  0.0000000 -1.0000000 )
                  (  0.0000000  1.0000000  0.0000000 )
                  ( -1.0000000  0.0000000  0.0000000 )


      isym = 18     inv. 180 deg rotation - cart. axis [-1,0,1]  

 cryst.   s(18) = (     0          0          1      )
                  (     0          1          0      )
                  (     1          0          0      )

 cart.    s(18) = (  0.0000000  0.0000000  1.0000000 )
                  (  0.0000000  1.0000000  0.0000000 )
                  (  1.0000000  0.0000000  0.0000000 )


      isym = 19     inv.  90 deg rotation - cart. axis [0,1,0]   

 cryst.   s(19) = (     0          0         -1      )
                  (     1          0         -1      )
                  (     0          1         -1      )

 cart.    s(19) = (  0.0000000  0.0000000 -1.0000000 )
                  (  0.0000000 -1.0000000  0.0000000 )
                  (  1.0000000  0.0000000  0.0000000 )


      isym = 20     inv.  90 deg rotation - cart. axis [0,-1,0]  

 cryst.   s(20) = (    -1          1          0      )
                  (    -1          0          1      )
                  (    -1          0          0      )

 cart.    s(20) = (  0.0000000  0.0000000  1.0000000 )
                  (  0.0000000 -1.0000000  0.0000000 )
                  ( -1.0000000  0.0000000  0.0000000 )


      isym = 21     inv. 180 deg rotation - cart. axis [0,1,1]   

 cryst.   s(21) = (    -1          0          0      )
                  (    -1          1          0      )
                  (    -1          0          1      )

 cart.    s(21) = (  1.0000000  0.0000000  0.0000000 )
                  (  0.0000000  0.0000000 -1.0000000 )
                  (  0.0000000 -1.0000000  0.0000000 )


      isym = 22     inv. 180 deg rotation - cart. axis [0,1,-1]  

 cryst.   s(22) = (     1          0          0      )
                  (     0          0          1      )
                  (     0          1          0      )

 cart.    s(22) = (  1.0000000  0.0000000  0.0000000 )
                  (  0.0000000  0.0000000  1.0000000 )
                  (  0.0000000  1.0000000  0.0000000 )


      isym = 23     inv.  90 deg rotation - cart. axis [-1,0,0]  

 cryst.   s(23) = (     0          1         -1      )
                  (     0          0         -1      )
                  (     1          0         -1      )

 cart.    s(23) = ( -1.0000000  0.0000000  0.0000000 )
                  (  0.0000000  0.0000000 -1.0000000 )
                  (  0.0000000  1.0000000  0.0000000 )


      isym = 24     inv.  90 deg rotation - cart. axis [1,0,0]   

 cryst.   s(24) = (     0         -1          1      )
                  (     1         -1          0      )
                  (     0         -1          0      )

 cart.    s(24) = ( -1.0000000  0.0000000  0.0000000 )
                  (  0.0000000  0.0000000  1.0000000 )
                  (  0.0000000 -1.0000000  0.0000000 )


   Cartesian axes

     site n.     atom                  positions (alat units)
         1           Sn  tau(   1) = (   0.0000000   0.0000000   0.0000000  )
         2           Sn  tau(   2) = (   0.3535534   0.3535534   0.3535534  )

   Crystallographic axes

     site n.     atom                  positions (cryst. coord.)
         1           Sn  tau(   1) = (  0.0000000  0.0000000  0.0000000  )
         2           Sn  tau(   2) = (  0.2500000  0.2500000  0.2500000  )

     number of k points=   145  gaussian smearing, width (Ry)=  0.0001
                       cart. coord. in units 2pi/alat
        k(    1) = (   0.0000000   0.0000000   0.0000000), wk =   0.0002441
        k(    2) = (   0.0441942   0.0441942  -0.0441942), wk =   0.0019531
        k(    3) = (   0.0883883   0.0883883  -0.0883883), wk =   0.0019531
        k(    4) = (   0.1325825   0.1325825  -0.1325825), wk =   0.0019531
        k(    5) = (   0.1767767   0.1767767  -0.1767767), wk =   0.0019531
        k(    6) = (   0.2209709   0.2209709  -0.2209709), wk =   0.0019531
        k(    7) = (   0.2651650   0.2651650  -0.2651650), wk =   0.0019531
        k(    8) = (   0.3093592   0.3093592  -0.3093592), wk =   0.0019531
        k(    9) = (  -0.3535534  -0.3535534   0.3535534), wk =   0.0009766
        k(   10) = (   0.0883883   0.0000000   0.0000000), wk =   0.0014648
        k(   11) = (   0.1325825   0.0441942  -0.0441942), wk =   0.0058594
        k(   12) = (   0.1767767   0.0883883  -0.0883883), wk =   0.0058594
        k(   13) = (   0.2209709   0.1325825  -0.1325825), wk =   0.0058594
        k(   14) = (   0.2651650   0.1767767  -0.1767767), wk =   0.0058594
        k(   15) = (   0.3093592   0.2209709  -0.2209709), wk =   0.0058594
        k(   16) = (   0.3535534   0.2651650  -0.2651650), wk =   0.0058594
        k(   17) = (  -0.3093592  -0.3977476   0.3977476), wk =   0.0058594
        k(   18) = (  -0.2651650  -0.3535534   0.3535534), wk =   0.0058594
        k(   19) = (  -0.2209709  -0.3093592   0.3093592), wk =   0.0058594
        k(   20) = (  -0.1767767  -0.2651650   0.2651650), wk =   0.0058594
        k(   21) = (  -0.1325825  -0.2209709   0.2209709), wk =   0.0058594
        k(   22) = (  -0.0883883  -0.1767767   0.1767767), wk =   0.0058594
        k(   23) = (  -0.0441942  -0.1325825   0.1325825), wk =   0.0058594
        k(   24) = (   0.0000000  -0.0883883   0.0883883), wk =   0.0029297
        k(   25) = (   0.1767767   0.0000000   0.0000000), wk =   0.0014648
        k(   26) = (   0.2209709   0.0441942  -0.0441942), wk =   0.0058594
        k(   27) = (   0.2651650   0.0883883  -0.0883883), wk =   0.0058594
        k(   28) = (   0.3093592   0.1325825  -0.1325825), wk =   0.0058594
        k(   29) = (   0.3535534   0.1767767  -0.1767767), wk =   0.0058594
        k(   30) = (   0.3977476   0.2209709  -0.2209709), wk =   0.0058594
        k(   31) = (  -0.2651650  -0.4419417   0.4419417), wk =   0.0058594
        k(   32) = (  -0.2209709  -0.3977476   0.3977476), wk =   0.0058594
        k(   33) = (  -0.1767767  -0.3535534   0.3535534), wk =   0.0058594
        k(   34) = (  -0.1325825  -0.3093592   0.3093592), wk =   0.0058594
        k(   35) = (  -0.0883883  -0.2651650   0.2651650), wk =   0.0058594
        k(   36) = (  -0.0441942  -0.2209709   0.2209709), wk =   0.0058594
        k(   37) = (   0.0000000  -0.1767767   0.1767767), wk =   0.0029297
        k(   38) = (   0.2651650   0.0000000   0.0000000), wk =   0.0014648
        k(   39) = (   0.3093592   0.0441942  -0.0441942), wk =   0.0058594
        k(   40) = (   0.3535534   0.0883883  -0.0883883), wk =   0.0058594
        k(   41) = (   0.3977476   0.1325825  -0.1325825), wk =   0.0058594
        k(   42) = (   0.4419417   0.1767767  -0.1767767), wk =   0.0058594
        k(   43) = (  -0.2209709  -0.4861359   0.4861359), wk =   0.0058594
        k(   44) = (  -0.1767767  -0.4419417   0.4419417), wk =   0.0058594
        k(   45) = (  -0.1325825  -0.3977476   0.3977476), wk =   0.0058594
        k(   46) = (  -0.0883883  -0.3535534   0.3535534), wk =   0.0058594
        k(   47) = (  -0.0441942  -0.3093592   0.3093592), wk =   0.0058594
        k(   48) = (   0.0000000  -0.2651650   0.2651650), wk =   0.0029297
        k(   49) = (   0.3535534   0.0000000   0.0000000), wk =   0.0014648
        k(   50) = (   0.3977476   0.0441942  -0.0441942), wk =   0.0058594
        k(   51) = (   0.4419417   0.0883883  -0.0883883), wk =   0.0058594
        k(   52) = (   0.4861359   0.1325825  -0.1325825), wk =   0.0058594
        k(   53) = (  -0.1767767  -0.5303301   0.5303301), wk =   0.0058594
        k(   54) = (  -0.1325825  -0.4861359   0.4861359), wk =   0.0058594
        k(   55) = (  -0.0883883  -0.4419417   0.4419417), wk =   0.0058594
        k(   56) = (  -0.0441942  -0.3977476   0.3977476), wk =   0.0058594
        k(   57) = (   0.0000000  -0.3535534   0.3535534), wk =   0.0029297
        k(   58) = (   0.4419417   0.0000000   0.0000000), wk =   0.0014648
        k(   59) = (   0.4861359   0.0441942  -0.0441942), wk =   0.0058594
        k(   60) = (   0.5303301   0.0883883  -0.0883883), wk =   0.0058594
        k(   61) = (  -0.1325825  -0.5745243   0.5745243), wk =   0.0058594
        k(   62) = (  -0.0883883  -0.5303301   0.5303301), wk =   0.0058594
        k(   63) = (  -0.0441942  -0.4861359   0.4861359), wk =   0.0058594
        k(   64) = (   0.0000000  -0.4419417   0.4419417), wk =   0.0029297
        k(   65) = (   0.5303301   0.0000000   0.0000000), wk =   0.0014648
        k(   66) = (   0.5745243   0.0441942  -0.0441942), wk =   0.0058594
        k(   67) = (  -0.0883883  -0.6187184   0.6187184), wk =   0.0058594
        k(   68) = (  -0.0441942  -0.5745243   0.5745243), wk =   0.0058594
        k(   69) = (   0.0000000  -0.5303301   0.5303301), wk =   0.0029297
        k(   70) = (   0.6187184   0.0000000   0.0000000), wk =   0.0014648
        k(   71) = (  -0.0441942  -0.6629126   0.6629126), wk =   0.0058594
        k(   72) = (   0.0000000  -0.6187184   0.6187184), wk =   0.0029297
        k(   73) = (  -0.7071068   0.0000000   0.0000000), wk =   0.0007324
        k(   74) = (   0.1767767   0.0883883   0.0000000), wk =   0.0058594
        k(   75) = (   0.2209709   0.1325825  -0.0441942), wk =   0.0117188
        k(   76) = (   0.2651650   0.1767767  -0.0883883), wk =   0.0117188
        k(   77) = (   0.3093592   0.2209709  -0.1325825), wk =   0.0117188
        k(   78) = (   0.3535534   0.2651650  -0.1767767), wk =   0.0117188
        k(   79) = (  -0.3093592  -0.3977476   0.4861359), wk =   0.0117188
        k(   80) = (  -0.2651650  -0.3535534   0.4419417), wk =   0.0058594
        k(   81) = (   0.2651650   0.0883883   0.0000000), wk =   0.0058594
        k(   82) = (   0.3093592   0.1325825  -0.0441942), wk =   0.0117188
        k(   83) = (   0.3535534   0.1767767  -0.0883883), wk =   0.0117188
        k(   84) = (   0.3977476   0.2209709  -0.1325825), wk =   0.0117188
        k(   85) = (  -0.2651650  -0.4419417   0.5303301), wk =   0.0117188
        k(   86) = (  -0.2209709  -0.3977476   0.4861359), wk =   0.0117188
        k(   87) = (  -0.1767767  -0.3535534   0.4419417), wk =   0.0117188
        k(   88) = (  -0.1325825  -0.3093592   0.3977476), wk =   0.0117188
        k(   89) = (  -0.0883883  -0.2651650   0.3535534), wk =   0.0117188
        k(   90) = (  -0.0441942  -0.2209709   0.3093592), wk =   0.0117188
        k(   91) = (   0.0000000  -0.1767767   0.2651650), wk =   0.0058594
        k(   92) = (   0.3535534   0.0883883   0.0000000), wk =   0.0058594
        k(   93) = (   0.3977476   0.1325825  -0.0441942), wk =   0.0117188
        k(   94) = (   0.4419417   0.1767767  -0.0883883), wk =   0.0117188
        k(   95) = (  -0.2209709  -0.4861359   0.5745243), wk =   0.0117188
        k(   96) = (  -0.1767767  -0.4419417   0.5303301), wk =   0.0117188
        k(   97) = (  -0.1325825  -0.3977476   0.4861359), wk =   0.0117188
        k(   98) = (  -0.0883883  -0.3535534   0.4419417), wk =   0.0117188
        k(   99) = (  -0.0441942  -0.3093592   0.3977476), wk =   0.0117188
        k(  100) = (   0.0000000  -0.2651650   0.3535534), wk =   0.0058594
        k(  101) = (   0.4419417   0.0883883   0.0000000), wk =   0.0058594
        k(  102) = (   0.4861359   0.1325825  -0.0441942), wk =   0.0117188
        k(  103) = (  -0.1767767  -0.5303301   0.6187184), wk =   0.0117188
        k(  104) = (  -0.1325825  -0.4861359   0.5745243), wk =   0.0117188
        k(  105) = (  -0.0883883  -0.4419417   0.5303301), wk =   0.0117188
        k(  106) = (  -0.0441942  -0.3977476   0.4861359), wk =   0.0117188
        k(  107) = (   0.0000000  -0.3535534   0.4419417), wk =   0.0058594
        k(  108) = (   0.5303301   0.0883883   0.0000000), wk =   0.0058594
        k(  109) = (  -0.1325825  -0.5745243   0.6629126), wk =   0.0117188
        k(  110) = (  -0.0883883  -0.5303301   0.6187184), wk =   0.0117188
        k(  111) = (  -0.0441942  -0.4861359   0.5745243), wk =   0.0117188
        k(  112) = (   0.0000000  -0.4419417   0.5303301), wk =   0.0058594
        k(  113) = (  -0.0883883  -0.6187184   0.7071068), wk =   0.0058594
        k(  114) = (  -0.0441942  -0.5745243   0.6629126), wk =   0.0117188
        k(  115) = (  -0.0000000  -0.5303301   0.6187184), wk =   0.0058594
        k(  116) = (  -0.7071068   0.0883883   0.0000000), wk =   0.0029297
        k(  117) = (   0.3535534   0.1767767   0.0000000), wk =   0.0058594
        k(  118) = (   0.3977476   0.2209709  -0.0441942), wk =   0.0117188
        k(  119) = (  -0.2651650  -0.4419417   0.6187184), wk =   0.0117188
        k(  120) = (  -0.2209709  -0.3977476   0.5745243), wk =   0.0117188
        k(  121) = (  -0.1767767  -0.3535534   0.5303301), wk =   0.0058594
        k(  122) = (   0.4419417   0.1767767   0.0000000), wk =   0.0058594
        k(  123) = (  -0.2209709  -0.4861359   0.6629126), wk =   0.0117188
        k(  124) = (  -0.1767767  -0.4419417   0.6187184), wk =   0.0117188
        k(  125) = (  -0.1325825  -0.3977476   0.5745243), wk =   0.0117188
        k(  126) = (  -0.0883883  -0.3535534   0.5303301), wk =   0.0117188
        k(  127) = (  -0.0441942  -0.3093592   0.4861359), wk =   0.0117188
        k(  128) = (   0.0000000  -0.2651650   0.4419417), wk =   0.0058594
        k(  129) = (  -0.1767767  -0.5303301   0.7071068), wk =   0.0058594
        k(  130) = (  -0.1325825  -0.4861359   0.6629126), wk =   0.0117188
        k(  131) = (  -0.0883883  -0.4419417   0.6187184), wk =   0.0117188
        k(  132) = (  -0.0441942  -0.3977476   0.5745243), wk =   0.0117188
        k(  133) = (   0.0000000  -0.3535534   0.5303301), wk =   0.0058594
        k(  134) = (  -0.0883883  -0.5303301   0.7071068), wk =   0.0058594
        k(  135) = (  -0.0441942  -0.4861359   0.6629126), wk =   0.0117188
        k(  136) = (   0.0000000  -0.4419417   0.6187184), wk =   0.0058594
        k(  137) = (  -0.7071068   0.1767767   0.0000000), wk =   0.0029297
        k(  138) = (  -0.1767767  -0.4419417   0.7071068), wk =   0.0058594
        k(  139) = (  -0.1325825  -0.3977476   0.6629126), wk =   0.0117188
        k(  140) = (  -0.0883883  -0.3535534   0.6187184), wk =   0.0058594
        k(  141) = (  -0.0883883  -0.4419417   0.7071068), wk =   0.0058594
        k(  142) = (  -0.0441942  -0.3977476   0.6629126), wk =   0.0117188
        k(  143) = (  -0.0000000  -0.3535534   0.6187184), wk =   0.0058594
        k(  144) = (  -0.7071068   0.2651650   0.0000000), wk =   0.0029297
        k(  145) = (  -0.7071068   0.3535534   0.0000000), wk =   0.0014648

                       cryst. coord.
        k(    1) = (   0.0000000   0.0000000   0.0000000), wk =   0.0002441
        k(    2) = (   0.0000000   0.0000000   0.0625000), wk =   0.0019531
        k(    3) = (   0.0000000   0.0000000   0.1250000), wk =   0.0019531
        k(    4) = (   0.0000000   0.0000000   0.1875000), wk =   0.0019531
        k(    5) = (   0.0000000   0.0000000   0.2500000), wk =   0.0019531
        k(    6) = (   0.0000000   0.0000000   0.3125000), wk =   0.0019531
        k(    7) = (   0.0000000   0.0000000   0.3750000), wk =   0.0019531
        k(    8) = (   0.0000000   0.0000000   0.4375000), wk =   0.0019531
        k(    9) = (   0.0000000   0.0000000  -0.5000000), wk =   0.0009766
        k(   10) = (   0.0000000   0.0625000   0.0625000), wk =   0.0014648
        k(   11) = (   0.0000000   0.0625000   0.1250000), wk =   0.0058594
        k(   12) = (   0.0000000   0.0625000   0.1875000), wk =   0.0058594
        k(   13) = (   0.0000000   0.0625000   0.2500000), wk =   0.0058594
        k(   14) = (   0.0000000   0.0625000   0.3125000), wk =   0.0058594
        k(   15) = (   0.0000000   0.0625000   0.3750000), wk =   0.0058594
        k(   16) = (   0.0000000   0.0625000   0.4375000), wk =   0.0058594
        k(   17) = (   0.0000000   0.0625000  -0.5000000), wk =   0.0058594
        k(   18) = (   0.0000000   0.0625000  -0.4375000), wk =   0.0058594
        k(   19) = (   0.0000000   0.0625000  -0.3750000), wk =   0.0058594
        k(   20) = (   0.0000000   0.0625000  -0.3125000), wk =   0.0058594
        k(   21) = (   0.0000000   0.0625000  -0.2500000), wk =   0.0058594
        k(   22) = (   0.0000000   0.0625000  -0.1875000), wk =   0.0058594
        k(   23) = (   0.0000000   0.0625000  -0.1250000), wk =   0.0058594
        k(   24) = (   0.0000000   0.0625000  -0.0625000), wk =   0.0029297
        k(   25) = (   0.0000000   0.1250000   0.1250000), wk =   0.0014648
        k(   26) = (   0.0000000   0.1250000   0.1875000), wk =   0.0058594
        k(   27) = (   0.0000000   0.1250000   0.2500000), wk =   0.0058594
        k(   28) = (   0.0000000   0.1250000   0.3125000), wk =   0.0058594
        k(   29) = (   0.0000000   0.1250000   0.3750000), wk =   0.0058594
        k(   30) = (   0.0000000   0.1250000   0.4375000), wk =   0.0058594
        k(   31) = (   0.0000000   0.1250000  -0.5000000), wk =   0.0058594
        k(   32) = (   0.0000000   0.1250000  -0.4375000), wk =   0.0058594
        k(   33) = (   0.0000000   0.1250000  -0.3750000), wk =   0.0058594
        k(   34) = (   0.0000000   0.1250000  -0.3125000), wk =   0.0058594
        k(   35) = (   0.0000000   0.1250000  -0.2500000), wk =   0.0058594
        k(   36) = (   0.0000000   0.1250000  -0.1875000), wk =   0.0058594
        k(   37) = (   0.0000000   0.1250000  -0.1250000), wk =   0.0029297
        k(   38) = (   0.0000000   0.1875000   0.1875000), wk =   0.0014648
        k(   39) = (   0.0000000   0.1875000   0.2500000), wk =   0.0058594
        k(   40) = (   0.0000000   0.1875000   0.3125000), wk =   0.0058594
        k(   41) = (   0.0000000   0.1875000   0.3750000), wk =   0.0058594
        k(   42) = (   0.0000000   0.1875000   0.4375000), wk =   0.0058594
        k(   43) = (   0.0000000   0.1875000  -0.5000000), wk =   0.0058594
        k(   44) = (   0.0000000   0.1875000  -0.4375000), wk =   0.0058594
        k(   45) = (   0.0000000   0.1875000  -0.3750000), wk =   0.0058594
        k(   46) = (   0.0000000   0.1875000  -0.3125000), wk =   0.0058594
        k(   47) = (   0.0000000   0.1875000  -0.2500000), wk =   0.0058594
        k(   48) = (   0.0000000   0.1875000  -0.1875000), wk =   0.0029297
        k(   49) = (   0.0000000   0.2500000   0.2500000), wk =   0.0014648
        k(   50) = (   0.0000000   0.2500000   0.3125000), wk =   0.0058594
        k(   51) = (   0.0000000   0.2500000   0.3750000), wk =   0.0058594
        k(   52) = (   0.0000000   0.2500000   0.4375000), wk =   0.0058594
        k(   53) = (   0.0000000   0.2500000  -0.5000000), wk =   0.0058594
        k(   54) = (   0.0000000   0.2500000  -0.4375000), wk =   0.0058594
        k(   55) = (   0.0000000   0.2500000  -0.3750000), wk =   0.0058594
        k(   56) = (   0.0000000   0.2500000  -0.3125000), wk =   0.0058594
        k(   57) = (   0.0000000   0.2500000  -0.2500000), wk =   0.0029297
        k(   58) = (   0.0000000   0.3125000   0.3125000), wk =   0.0014648
        k(   59) = (   0.0000000   0.3125000   0.3750000), wk =   0.0058594
        k(   60) = (   0.0000000   0.3125000   0.4375000), wk =   0.0058594
        k(   61) = (   0.0000000   0.3125000  -0.5000000), wk =   0.0058594
        k(   62) = (   0.0000000   0.3125000  -0.4375000), wk =   0.0058594
        k(   63) = (   0.0000000   0.3125000  -0.3750000), wk =   0.0058594
        k(   64) = (   0.0000000   0.3125000  -0.3125000), wk =   0.0029297
        k(   65) = (   0.0000000   0.3750000   0.3750000), wk =   0.0014648
        k(   66) = (   0.0000000   0.3750000   0.4375000), wk =   0.0058594
        k(   67) = (   0.0000000   0.3750000  -0.5000000), wk =   0.0058594
        k(   68) = (   0.0000000   0.3750000  -0.4375000), wk =   0.0058594
        k(   69) = (   0.0000000   0.3750000  -0.3750000), wk =   0.0029297
        k(   70) = (   0.0000000   0.4375000   0.4375000), wk =   0.0014648
        k(   71) = (   0.0000000   0.4375000  -0.5000000), wk =   0.0058594
        k(   72) = (   0.0000000   0.4375000  -0.4375000), wk =   0.0029297
        k(   73) = (   0.0000000  -0.5000000  -0.5000000), wk =   0.0007324
        k(   74) = (   0.0625000   0.1250000   0.1875000), wk =   0.0058594
        k(   75) = (   0.0625000   0.1250000   0.2500000), wk =   0.0117188
        k(   76) = (   0.0625000   0.1250000   0.3125000), wk =   0.0117188
        k(   77) = (   0.0625000   0.1250000   0.3750000), wk =   0.0117188
        k(   78) = (   0.0625000   0.1250000   0.4375000), wk =   0.0117188
        k(   79) = (   0.0625000   0.1250000  -0.5000000), wk =   0.0117188
        k(   80) = (   0.0625000   0.1250000  -0.4375000), wk =   0.0058594
        k(   81) = (   0.0625000   0.1875000   0.2500000), wk =   0.0058594
        k(   82) = (   0.0625000   0.1875000   0.3125000), wk =   0.0117188
        k(   83) = (   0.0625000   0.1875000   0.3750000), wk =   0.0117188
        k(   84) = (   0.0625000   0.1875000   0.4375000), wk =   0.0117188
        k(   85) = (   0.0625000   0.1875000  -0.5000000), wk =   0.0117188
        k(   86) = (   0.0625000   0.1875000  -0.4375000), wk =   0.0117188
        k(   87) = (   0.0625000   0.1875000  -0.3750000), wk =   0.0117188
        k(   88) = (   0.0625000   0.1875000  -0.3125000), wk =   0.0117188
        k(   89) = (   0.0625000   0.1875000  -0.2500000), wk =   0.0117188
        k(   90) = (   0.0625000   0.1875000  -0.1875000), wk =   0.0117188
        k(   91) = (   0.0625000   0.1875000  -0.1250000), wk =   0.0058594
        k(   92) = (   0.0625000   0.2500000   0.3125000), wk =   0.0058594
        k(   93) = (   0.0625000   0.2500000   0.3750000), wk =   0.0117188
        k(   94) = (   0.0625000   0.2500000   0.4375000), wk =   0.0117188
        k(   95) = (   0.0625000   0.2500000  -0.5000000), wk =   0.0117188
        k(   96) = (   0.0625000   0.2500000  -0.4375000), wk =   0.0117188
        k(   97) = (   0.0625000   0.2500000  -0.3750000), wk =   0.0117188
        k(   98) = (   0.0625000   0.2500000  -0.3125000), wk =   0.0117188
        k(   99) = (   0.0625000   0.2500000  -0.2500000), wk =   0.0117188
        k(  100) = (   0.0625000   0.2500000  -0.1875000), wk =   0.0058594
        k(  101) = (   0.0625000   0.3125000   0.3750000), wk =   0.0058594
        k(  102) = (   0.0625000   0.3125000   0.4375000), wk =   0.0117188
        k(  103) = (   0.0625000   0.3125000  -0.5000000), wk =   0.0117188
        k(  104) = (   0.0625000   0.3125000  -0.4375000), wk =   0.0117188
        k(  105) = (   0.0625000   0.3125000  -0.3750000), wk =   0.0117188
        k(  106) = (   0.0625000   0.3125000  -0.3125000), wk =   0.0117188
        k(  107) = (   0.0625000   0.3125000  -0.2500000), wk =   0.0058594
        k(  108) = (   0.0625000   0.3750000   0.4375000), wk =   0.0058594
        k(  109) = (   0.0625000   0.3750000  -0.5000000), wk =   0.0117188
        k(  110) = (   0.0625000   0.3750000  -0.4375000), wk =   0.0117188
        k(  111) = (   0.0625000   0.3750000  -0.3750000), wk =   0.0117188
        k(  112) = (   0.0625000   0.3750000  -0.3125000), wk =   0.0058594
        k(  113) = (   0.0625000   0.4375000  -0.5000000), wk =   0.0058594
        k(  114) = (   0.0625000   0.4375000  -0.4375000), wk =   0.0117188
        k(  115) = (   0.0625000   0.4375000  -0.3750000), wk =   0.0058594
        k(  116) = (   0.0625000  -0.5000000  -0.4375000), wk =   0.0029297
        k(  117) = (   0.1250000   0.2500000   0.3750000), wk =   0.0058594
        k(  118) = (   0.1250000   0.2500000   0.4375000), wk =   0.0117188
        k(  119) = (   0.1250000   0.2500000  -0.5000000), wk =   0.0117188
        k(  120) = (   0.1250000   0.2500000  -0.4375000), wk =   0.0117188
        k(  121) = (   0.1250000   0.2500000  -0.3750000), wk =   0.0058594
        k(  122) = (   0.1250000   0.3125000   0.4375000), wk =   0.0058594
        k(  123) = (   0.1250000   0.3125000  -0.5000000), wk =   0.0117188
        k(  124) = (   0.1250000   0.3125000  -0.4375000), wk =   0.0117188
        k(  125) = (   0.1250000   0.3125000  -0.3750000), wk =   0.0117188
        k(  126) = (   0.1250000   0.3125000  -0.3125000), wk =   0.0117188
        k(  127) = (   0.1250000   0.3125000  -0.2500000), wk =   0.0117188
        k(  128) = (   0.1250000   0.3125000  -0.1875000), wk =   0.0058594
        k(  129) = (   0.1250000   0.3750000  -0.5000000), wk =   0.0058594
        k(  130) = (   0.1250000   0.3750000  -0.4375000), wk =   0.0117188
        k(  131) = (   0.1250000   0.3750000  -0.3750000), wk =   0.0117188
        k(  132) = (   0.1250000   0.3750000  -0.3125000), wk =   0.0117188
        k(  133) = (   0.1250000   0.3750000  -0.2500000), wk =   0.0058594
        k(  134) = (   0.1250000   0.4375000  -0.4375000), wk =   0.0058594
        k(  135) = (   0.1250000   0.4375000  -0.3750000), wk =   0.0117188
        k(  136) = (   0.1250000   0.4375000  -0.3125000), wk =   0.0058594
        k(  137) = (   0.1250000  -0.5000000  -0.3750000), wk =   0.0029297
        k(  138) = (   0.1875000   0.3750000  -0.4375000), wk =   0.0058594
        k(  139) = (   0.1875000   0.3750000  -0.3750000), wk =   0.0117188
        k(  140) = (   0.1875000   0.3750000  -0.3125000), wk =   0.0058594
        k(  141) = (   0.1875000   0.4375000  -0.3750000), wk =   0.0058594
        k(  142) = (   0.1875000   0.4375000  -0.3125000), wk =   0.0117188
        k(  143) = (   0.1875000   0.4375000  -0.2500000), wk =   0.0058594
        k(  144) = (   0.1875000  -0.5000000  -0.3125000), wk =   0.0029297
        k(  145) = (   0.2500000  -0.5000000  -0.2500000), wk =   0.0014648

     Dense  grid:    53089 G-vectors     FFT dimensions: (  54,  54,  54)

     Largest allocated arrays     est. size (Mb)     dimensions
        Kohn-Sham Wavefunctions         0.47 Mb     (     858,   36)
        NL pseudopotentials             0.45 Mb     (     429,   68)
        Each V/rho on FFT grid          0.18 Mb     (   11664)
        Each G-vector array             0.03 Mb     (    3319)
        G-vector shells                 0.00 Mb     (     445)
     Largest temporary arrays     est. size (Mb)     dimensions
        Auxiliary wavefunctions         1.89 Mb     (     858,  144)
        Each subspace H/S matrix        0.32 Mb     (     144,  144)
        Each <psi_i|beta_j> matrix      0.07 Mb     (      68,   2,   36)
        Arrays for rho mixing           1.42 Mb     (   11664,    8)

     Initial potential from superposition of free atoms

     starting charge   27.99781, renormalised to   28.00000
     Starting wfc are   36 randomized atomic wfcs

     total cpu time spent up to now is       15.0 secs

     Self-consistent Calculation

     iteration #  1     ecut=    85.00 Ry     beta=0.70
     Davidson diagonalization with overlap
     ethr =  1.00E-02,  avg # of iterations =  3.5

     Threshold (ethr) on eigenvalues was too large:
     Diagonalizing with lowered threshold

     Davidson diagonalization with overlap
     ethr =  5.69E-05,  avg # of iterations =  3.5

     total cpu time spent up to now is      114.4 secs

     total energy              =    -325.85571209 Ry
     Harris-Foulkes estimate   =    -325.85772456 Ry
     estimated scf accuracy    <       0.01886633 Ry

     iteration #  2     ecut=    85.00 Ry     beta=0.70
     Davidson diagonalization with overlap
     ethr =  6.74E-05,  avg # of iterations =  1.0

     total cpu time spent up to now is      152.9 secs

     total energy              =    -325.85629609 Ry
     Harris-Foulkes estimate   =    -325.85640715 Ry
     estimated scf accuracy    <       0.00151212 Ry

     iteration #  3     ecut=    85.00 Ry     beta=0.70
     Davidson diagonalization with overlap
     ethr =  5.40E-06,  avg # of iterations =  2.3

     total cpu time spent up to now is      204.6 secs

     total energy              =    -325.85650900 Ry
     Harris-Foulkes estimate   =    -325.85654885 Ry
     estimated scf accuracy    <       0.00008178 Ry

     iteration #  4     ecut=    85.00 Ry     beta=0.70
     Davidson diagonalization with overlap
     ethr =  2.92E-07,  avg # of iterations =  2.0

     total cpu time spent up to now is      252.9 secs

     total energy              =    -325.85652947 Ry
     Harris-Foulkes estimate   =    -325.85652774 Ry
     estimated scf accuracy    <       0.00000288 Ry

     iteration #  5     ecut=    85.00 Ry     beta=0.70
     Davidson diagonalization with overlap
     ethr =  1.03E-08,  avg # of iterations =  2.0

     total cpu time spent up to now is      295.7 secs

     End of self-consistent calculation

          k = 0.0000 0.0000 0.0000 (  6615 PWs)   bands (ev):

   -15.1251 -15.1251 -15.1251 -15.1251 -15.0453 -15.0453 -15.0453 -15.0453
   -14.1985 -14.1985 -14.0301 -14.0301 -14.0301 -14.0301 -13.9928 -13.9928
   -13.9928 -13.9928 -13.8893 -13.8893  -3.1710  -3.1710   5.7240   5.7240
     6.5511   6.5511   7.1992   7.1992   7.1993   7.1993   8.7333   8.7333
     9.2031   9.2031   9.2031   9.2031

     occupation numbers 
     1.0000   1.0000   1.0000   1.0000   1.0000   1.0000   1.0000   1.0000
     1.0000   1.0000   1.0000   1.0000   1.0000   1.0000   1.0000   1.0000
     1.0000   1.0000   1.0000   1.0000   1.0000   1.0000   1.0000   1.0000
     1.0000   1.0000   0.0000   0.0000   0.0000   0.0000   0.0000   0.0000
     0.0000   0.0000   0.0000   0.0000

          k = 0.0442 0.0442-0.0442 (  6615 PWs)   bands (ev):

   -15.1255 -15.1255 -15.1243 -15.1243 -15.0461 -15.0461 -15.0448 -15.0448
   -14.1967 -14.1967 -14.0351 -14.0351 -14.0332 -14.0332 -13.9895 -13.9895
   -13.9885 -13.9885 -13.8902 -13.8902  -3.1362  -3.1362   5.3153   5.3153
     6.5972   6.5972   7.1244   7.1244   7.2605   7.2605   8.8903   8.8903
     9.2857   9.2857   9.3001   9.3001

     occupation numbers 
     1.0000   1.0000   1.0000   1.0000   1.0000   1.0000   1.0000   1.0000
     1.0000   1.0000   1.0000   1.0000   1.0000   1.0000   1.0000   1.0000
     1.0000   1.0000   1.0000   1.0000   1.0000   1.0000   1.0000   1.0000
     1.0000   1.0000   0.0000   0.0000   0.0000   0.0000   0.0000   0.0000
     0.0000   0.0000   0.0000   0.0000

          k = 0.0884 0.0884-0.0884 (  6630 PWs)   bands (ev):

   -15.1265 -15.1265 -15.1220 -15.1220 -15.0483 -15.0483 -15.0433 -15.0433
   -14.1916 -14.1916 -14.0461 -14.0461 -14.0403 -14.0403 -13.9819 -13.9819
   -13.9795 -13.9795 -13.8929 -13.8929  -3.0328  -3.0328   4.5524   4.5524
     6.4905   6.4905   6.9426   6.9426   7.3079   7.3079   9.2167   9.2167
     9.5373   9.5373   9.6402   9.6402

     occupation numbers 
     1.0000   1.0000   1.0000   1.0000   1.0000   1.0000   1.0000   1.0000
     1.0000   1.0000   1.0000   1.0000   1.0000   1.0000   1.0000   1.0000
     1.0000   1.0000   1.0000   1.0000   1.0000   1.0000   1.0000   1.0000
     1.0000   1.0000   1.0000   1.0000   0.0000   0.0000   0.0000   0.0000
     0.0000   0.0000   0.0000   0.0000

          k = 0.1326 0.1326-0.1326 (  6600 PWs)   bands (ev):

   -15.1280 -15.1280 -15.1184 -15.1184 -15.0518 -15.0518 -15.0413 -15.0413
   -14.1835 -14.1835 -14.0591 -14.0591 -14.0482 -14.0482 -13.9730 -13.9730
   -13.9696 -13.9696 -13.8973 -13.8973  -2.8635  -2.8635   3.7245   3.7245
     6.2949   6.2949   6.7243   6.7243   7.2293   7.2293   9.5031   9.5031
     9.8117   9.8117  10.3080  10.3080

     occupation numbers 
     1.0000   1.0000   1.0000   1.0000   1.0000   1.0000   1.0000   1.0000
     1.0000   1.0000   1.0000   1.0000   1.0000   1.0000   1.0000   1.0000
     1.0000   1.0000   1.0000   1.0000   1.0000   1.0000   1.0000   1.0000
     1.0000   1.0000   1.0000   1.0000   0.0000   0.0000   0.0000   0.0000
     0.0000   0.0000   0.0000   0.0000

          k = 0.1768 0.1768-0.1768 (  6609 PWs)   bands (ev):

   -15.1296 -15.1296 -15.1136 -15.1136 -15.0564 -15.0564 -15.0390 -15.0390
   -14.1733 -14.1733 -14.0725 -14.0725 -14.0557 -14.0557 -13.9646 -13.9646
   -13.9603 -13.9603 -13.9029 -13.9029  -2.6348  -2.6348   2.9144   2.9144
     6.0947   6.0947   6.5153   6.5153   7.0906   7.0906   9.7351   9.7351
    10.0341  10.0341  11.1161  11.1161

     occupation numbers 
     1.0000   1.0000   1.0000   1.0000   1.0000   1.0000   1.0000   1.0000
     1.0000   1.0000   1.0000   1.0000   1.0000   1.0000   1.0000   1.0000
     1.0000   1.0000   1.0000   1.0000   1.0000   1.0000   1.0000   1.0000
     1.0000   1.0000   1.0000   1.0000   0.0000   0.0000   0.0000   0.0000
     0.0000   0.0000   0.0000   0.0000

          k = 0.2210 0.2210-0.2210 (  6603 PWs)   bands (ev):

   -15.1311 -15.1311 -15.1080 -15.1080 -15.0618 -15.0618 -15.0368 -15.0368
   -14.1616 -14.1616 -14.0857 -14.0857 -14.0620 -14.0620 -13.9573 -13.9573
   -13.9518 -13.9518 -13.9094 -13.9094  -2.3598  -2.3598   2.1674   2.1674
     5.9227   5.9227   6.3392   6.3392   6.9515   6.9515   9.8852   9.8852
    10.1601  10.1601  11.9770  11.9770

     occupation numbers 
     1.0000   1.0000   1.0000   1.0000   1.0000   1.0000   1.0000   1.0000
     1.0000   1.0000   1.0000   1.0000   1.0000   1.0000   1.0000   1.0000
     1.0000   1.0000   1.0000   1.0000   1.0000   1.0000   1.0000   1.0000
     1.0000   1.0000   1.0000   1.0000   0.1250   0.1250   0.0000   0.0000
     0.0000   0.0000   0.0000   0.0000

          k = 0.2652 0.2652-0.2652 (  6604 PWs)   bands (ev):

   -15.1323 -15.1323 -15.1020 -15.1020 -15.0676 -15.0676 -15.0350 -15.0350
   -14.1493 -14.1493 -14.0983 -14.0983 -14.0666 -14.0666 -13.9518 -13.9518
   -13.9442 -13.9442 -13.9162 -13.9162  -2.0664  -2.0664   1.5280   1.5280
     5.7933   5.7933   6.2078   6.2078   6.8409   6.8409   9.9556   9.9556
    10.2033  10.2033  12.6317  12.6318

     occupation numbers 
     1.0000   1.0000   1.0000   1.0000   1.0000   1.0000   1.0000   1.0000
     1.0000   1.0000   1.0000   1.0000   1.0000   1.0000   1.0000   1.0000
     1.0000   1.0000   1.0000   1.0000   1.0000   1.0000   1.0000   1.0000
     1.0000   1.0000   1.0000   1.0000   1.0000   1.0000   0.0000   0.0000
     0.0000   0.0000   0.0000   0.0000

          k = 0.3094 0.3094-0.3094 (  6616 PWs)   bands (ev):

   -15.1330 -15.1330 -15.0965 -15.0965 -15.0730 -15.0730 -15.0339 -15.0339
   -14.1372 -14.1372 -14.1102 -14.1102 -14.0695 -14.0695 -13.9484 -13.9484
   -13.9372 -13.9372 -13.9230 -13.9230  -1.8147  -1.8147   1.0655   1.0655
     5.7136   5.7136   6.1271   6.1271   6.7712   6.7712   9.9778   9.9778
    10.2065  10.2065  12.6552  12.6552

     occupation numbers 
     1.0000   1.0000   1.0000   1.0000   1.0000   1.0000   1.0000   1.0000
     1.0000   1.0000   1.0000   1.0000   1.0000   1.0000   1.0000   1.0000
     1.0000   1.0000   1.0000   1.0000   1.0000   1.0000   1.0000   1.0000
     1.0000   1.0000   1.0000   1.0000   1.0000   1.0000   0.0000   0.0000
     0.0000   0.0000   0.0000   0.0000

          k =-0.3536-0.3536 0.3536 (  6586 PWs)   bands (ev):

   -15.1333 -15.1333 -15.0939 -15.0939 -15.0756 -15.0756 -15.0335 -15.0335
   -14.1290 -14.1290 -14.1183 -14.1183 -14.0705 -14.0705 -13.9472 -13.9472
   -13.9320 -13.9320 -13.9282 -13.9282  -1.7083  -1.7083   0.8884   0.8884
     5.6866   5.6866   6.0999   6.0999   6.7475   6.7475   9.9815   9.9815
    10.2037  10.2037  12.6301  12.6301

     occupation numbers 
     1.0000   1.0000   1.0000   1.0000   1.0000   1.0000   1.0000   1.0000
     1.0000   1.0000   1.0000   1.0000   1.0000   1.0000   1.0000   1.0000
     1.0000   1.0000   1.0000   1.0000   1.0000   1.0000   1.0000   1.0000
     1.0000   1.0000   1.0000   1.0000   1.0000   1.0000   0.0000   0.0000
     0.0000   0.0000   0.0000   0.0000

          k = 0.0884 0.0000 0.0000 (  6611 PWs)   bands (ev):

   -15.1252 -15.1252 -15.1245 -15.1245 -15.0460 -15.0460 -15.0449 -15.0449
   -14.1961 -14.1961 -14.0375 -14.0375 -14.0331 -14.0331 -13.9888 -13.9888
   -13.9871 -13.9871 -13.8905 -13.8905  -3.1246  -3.1246   5.2346   5.2346
     6.5299   6.5299   6.9440   6.9440   7.5175   7.5175   8.8078   8.8078
     9.2993   9.2993   9.4340   9.4340

     occupation numbers 
     1.0000   1.0000   1.0000   1.0000   1.0000   1.0000   1.0000   1.0000
     1.0000   1.0000   1.0000   1.0000   1.0000   1.0000   1.0000   1.0000
     1.0000   1.0000   1.0000   1.0000   1.0000   1.0000   1.0000   1.0000
     1.0000   1.0000   1.0000   1.0000   0.0000   0.0000   0.0000   0.0000
     0.0000   0.0000   0.0000   0.0000

          k = 0.1326 0.0442-0.0442 (  6618 PWs)   bands (ev):

   -15.1259 -15.1259 -15.1228 -15.1228 -15.0476 -15.0476 -15.0439 -15.0439
   -14.1921 -14.1921 -14.0464 -14.0464 -14.0380 -14.0380 -13.9835 -13.9835
   -13.9798 -13.9798 -13.8925 -13.8925  -3.0438  -3.0438   4.6692   4.6692
     6.3905   6.3905   6.7334   6.7334   7.7205   7.7205   8.8745   8.8745
     9.5853   9.5853   9.7354   9.7354

     occupation numbers 
     1.0000   1.0000   1.0000   1.0000   1.0000   1.0000   1.0000   1.0000
     1.0000   1.0000   1.0000   1.0000   1.0000   1.0000   1.0000   1.0000
     1.0000   1.0000   1.0000   1.0000   1.0000   1.0000   1.0000   1.0000
     1.0000   1.0000   1.0000   1.0000   0.0000   0.0000   0.0000   0.0000
     0.0000   0.0000   0.0000   0.0000

          k = 0.1768 0.0884-0.0884 (  6599 PWs)   bands (ev):

   -15.1273 -15.1273 -15.1196 -15.1196 -15.0507 -15.0507 -15.0419 -15.0419
   -14.1850 -14.1850 -14.0581 -14.0581 -14.0451 -14.0451 -13.9769 -13.9769
   -13.9698 -13.9698 -13.8962 -13.8962  -2.8961  -2.8961   3.9170   3.9170
     6.1858   6.1858   6.5150   6.5150   7.7161   7.7161   9.1176   9.1176
     9.9186   9.9186  10.2476  10.2476

     occupation numbers 
     1.0000   1.0000   1.0000   1.0000   1.0000   1.0000   1.0000   1.0000
     1.0000   1.0000   1.0000   1.0000   1.0000   1.0000   1.0000   1.0000
     1.0000   1.0000   1.0000   1.0000   1.0000   1.0000   1.0000   1.0000
     1.0000   1.0000   1.0000   1.0000   0.0000   0.0000   0.0000   0.0000
     0.0000   0.0000   0.0000   0.0000

          k = 0.2210 0.1326-0.1326 (  6609 PWs)   bands (ev):

   -15.1290 -15.1290 -15.1151 -15.1151 -15.0550 -15.0550 -15.0396 -15.0396
   -14.1755 -14.1755 -14.0707 -14.0707 -14.0524 -14.0524 -13.9704 -13.9704
   -13.9596 -13.9596 -13.9010 -13.9010  -2.6862  -2.6862   3.1304   3.1304
     5.9700   5.9700   6.2973   6.2973   7.5990   7.5990   9.4227   9.4227
    10.1735  10.1735  10.8847  10.8847

     occupation numbers 
     1.0000   1.0000   1.0000   1.0000   1.0000   1.0000   1.0000   1.0000
     1.0000   1.0000   1.0000   1.0000   1.0000   1.0000   1.0000   1.0000
     1.0000   1.0000   1.0000   1.0000   1.0000   1.0000   1.0000   1.0000
     1.0000   1.0000   1.0000   1.0000   0.0000   0.0000   0.0000   0.0000
     0.0000   0.0000   0.0000   0.0000

          k = 0.2652 0.1768-0.1768 (  6617 PWs)   bands (ev):

   -15.1305 -15.1305 -15.1098 -15.1098 -15.0602 -15.0602 -15.0373 -15.0373
   -14.1644 -14.1644 -14.0831 -14.0831 -14.0590 -14.0590 -13.9645 -13.9645
   -13.9503 -13.9503 -13.9066 -13.9066  -2.4245  -2.4245   2.3778   2.3778
     5.7753   5.7753   6.1111   6.1111   7.4556   7.4556   9.6766   9.6766
    10.3140  10.3140  11.5601  11.5601

     occupation numbers 
     1.0000   1.0000   1.0000   1.0000   1.0000   1.0000   1.0000   1.0000
     1.0000   1.0000   1.0000   1.0000   1.0000   1.0000   1.0000   1.0000
     1.0000   1.0000   1.0000   1.0000   1.0000   1.0000   1.0000   1.0000
     1.0000   1.0000   1.0000   1.0000   0.0000   0.0000   0.0000   0.0000
     0.0000   0.0000   0.0000   0.0000

          k = 0.3094 0.2210-0.2210 (  6611 PWs)   bands (ev):

   -15.1319 -15.1319 -15.1039 -15.1039 -15.0660 -15.0660 -15.0353 -15.0353
   -14.1525 -14.1525 -14.0951 -14.0951 -14.0643 -14.0643 -13.9598 -13.9598
   -13.9426 -13.9426 -13.9123 -13.9123  -2.1324  -2.1324   1.7081   1.7081
     5.6150   5.6150   5.9766   5.9766   7.3279   7.3279   9.8335   9.8335
    10.3464  10.3464  12.2235  12.2235

     occupation numbers 
     1.0000   1.0000   1.0000   1.0000   1.0000   1.0000   1.0000   1.0000
     1.0000   1.0000   1.0000   1.0000   1.0000   1.0000   1.0000   1.0000
     1.0000   1.0000   1.0000   1.0000   1.0000   1.0000   1.0000   1.0000
     1.0000   1.0000   1.0000   1.0000   0.0000   0.0000   0.0000   0.0000
     0.0000   0.0000   0.0000   0.0000

          k = 0.3536 0.2652-0.2652 (  6616 PWs)   bands (ev):

   -15.1328 -15.1328 -15.0981 -15.0981 -15.0717 -15.0717 -15.0339 -15.0339
   -14.1408 -14.1408 -14.1063 -14.1063 -14.0679 -14.0679 -13.9565 -13.9565
   -13.9367 -13.9367 -13.9174 -13.9174  -1.8566  -1.8566   1.1823   1.1823
     5.4965   5.4965   5.9024   5.9024   7.2348   7.2348   9.9180   9.9180
    10.3159  10.3159  12.6501  12.6501

     occupation numbers 
     1.0000   1.0000   1.0000   1.0000   1.0000   1.0000   1.0000   1.0000
     1.0000   1.0000   1.0000   1.0000   1.0000   1.0000   1.0000   1.0000
     1.0000   1.0000   1.0000   1.0000   1.0000   1.0000   1.0000   1.0000
     1.0000   1.0000   1.0000   1.0000   0.0000   0.0000   0.0000   0.0000
     0.0000   0.0000   0.0000   0.0000

          k =-0.3094-0.3977 0.3977 (  6610 PWs)   bands (ev):

   -15.1332 -15.1332 -15.0941 -15.0941 -15.0756 -15.0756 -15.0332 -15.0332
   -14.1312 -14.1312 -14.1154 -14.1154 -14.0696 -14.0696 -13.9550 -13.9550
   -13.9332 -13.9332 -13.9206 -13.9206  -1.6886  -1.6886   0.8995   0.8995
     5.4258   5.4258   5.8903   5.8903   7.1845   7.1845   9.9701   9.9701
    10.2674  10.2674  12.7427  12.7428

     occupation numbers 
     1.0000   1.0000   1.0000   1.0000   1.0000   1.0000   1.0000   1.0000
     1.0000   1.0000   1.0000   1.0000   1.0000   1.0000   1.0000   1.0000
     1.0000   1.0000   1.0000   1.0000   1.0000   1.0000   1.0000   1.0000
     1.0000   1.0000   1.0000   1.0000   0.0000   0.0000   0.0000   0.0000
     0.0000   0.0000   0.0000   0.0000

          k =-0.2652-0.3536 0.3536 (  6618 PWs)   bands (ev):

   -15.1332 -15.1332 -15.0950 -15.0950 -15.0748 -15.0748 -15.0333 -15.0333
   -14.1338 -14.1338 -14.1129 -14.1129 -14.0692 -14.0692 -13.9555 -13.9555
   -13.9337 -13.9337 -13.9200 -13.9200  -1.7256  -1.7256   0.9598   0.9598
     5.4077   5.4077   5.9383   5.9383   7.1803   7.1803  10.0046  10.0046
    10.2304  10.2304  12.7554  12.7554

     occupation numbers 
     1.0000   1.0000   1.0000   1.0000   1.0000   1.0000   1.0000   1.0000
     1.0000   1.0000   1.0000   1.0000   1.0000   1.0000   1.0000   1.0000
     1.0000   1.0000   1.0000   1.0000   1.0000   1.0000   1.0000   1.0000
     1.0000   1.0000   1.0000   1.0000   0.0000   0.0000   0.0000   0.0000
     0.0000   0.0000   0.0000   0.0000

          k =-0.2210-0.3094 0.3094 (  6616 PWs)   bands (ev):

   -15.1326 -15.1326 -15.0998 -15.0998 -15.0700 -15.0700 -15.0342 -15.0342
   -14.1446 -14.1446 -14.1027 -14.1027 -14.0668 -14.0668 -13.9580 -13.9580
   -13.9378 -13.9378 -13.9160 -13.9160  -1.9426  -1.9426   1.3375   1.3375
     5.4455   5.4455   6.0422   6.0422   7.2216   7.2216   9.9991   9.9991
    10.2204  10.2204  12.6431  12.6431

     occupation numbers 
     1.0000   1.0000   1.0000   1.0000   1.0000   1.0000   1.0000   1.0000
     1.0000   1.0000   1.0000   1.0000   1.0000   1.0000   1.0000   1.0000
     1.0000   1.0000   1.0000   1.0000   1.0000   1.0000   1.0000   1.0000
     1.0000   1.0000   1.0000   1.0000   0.0000   0.0000   0.0000   0.0000
     0.0000   0.0000   0.0000   0.0000

          k =-0.1768-0.2652 0.2652 (  6623 PWs)   bands (ev):

   -15.1315 -15.1315 -15.1057 -15.1057 -15.0642 -15.0642 -15.0358 -15.0358
   -14.1565 -14.1565 -14.0912 -14.0912 -14.0625 -14.0625 -13.9620 -13.9620
   -13.9442 -13.9442 -13.9106 -13.9106  -2.2316  -2.2316   1.9200   1.9200
     5.5415   5.5415   6.1955   6.1955   7.3037   7.3037   9.9237   9.9237
    10.2100  10.2100  12.0791  12.0791

     occupation numbers 
     1.0000   1.0000   1.0000   1.0000   1.0000   1.0000   1.0000   1.0000
     1.0000   1.0000   1.0000   1.0000   1.0000   1.0000   1.0000   1.0000
     1.0000   1.0000   1.0000   1.0000   1.0000   1.0000   1.0000   1.0000
     1.0000   1.0000   1.0000   1.0000   0.0000   0.0000   0.0000   0.0000
     0.0000   0.0000   0.0000   0.0000

          k =-0.1326-0.2210 0.2210 (  6621 PWs)   bands (ev):

   -15.1301 -15.1301 -15.1115 -15.1115 -15.0586 -15.0586 -15.0379 -15.0379
   -14.1683 -14.1683 -14.0791 -14.0791 -14.0567 -14.0567 -13.9673 -13.9673
   -13.9523 -13.9523 -13.9048 -13.9048  -2.5171  -2.5171   2.6219   2.6219
     5.6961   5.6961   6.3879   6.3879   7.4146   7.4146   9.7658   9.7658
    10.1152  10.1152  11.3541  11.3541

     occupation numbers 
     1.0000   1.0000   1.0000   1.0000   1.0000   1.0000   1.0000   1.0000
     1.0000   1.0000   1.0000   1.0000   1.0000   1.0000   1.0000   1.0000
     1.0000   1.0000   1.0000   1.0000   1.0000   1.0000   1.0000   1.0000
     1.0000   1.0000   1.0000   1.0000   0.0000   0.0000   0.0000   0.0000
     0.0000   0.0000   0.0000   0.0000

          k =-0.0884-0.1768 0.1768 (  6604 PWs)   bands (ev):

   -15.1286 -15.1286 -15.1165 -15.1165 -15.0537 -15.0537 -15.0402 -15.0402
   -14.1790 -14.1790 -14.0665 -14.0665 -14.0498 -14.0498 -13.9735 -13.9735
   -13.9619 -13.9619 -13.8994 -13.8994  -2.7630  -2.7630   3.3884   3.3884
     5.9078   5.9078   6.6020   6.6020   7.5262   7.5262   9.5326   9.5327
     9.8623   9.8623  10.7022  10.7022

     occupation numbers 
     1.0000   1.0000   1.0000   1.0000   1.0000   1.0000   1.0000   1.0000
     1.0000   1.0000   1.0000   1.0000   1.0000   1.0000   1.0000   1.0000
     1.0000   1.0000   1.0000   1.0000   1.0000   1.0000   1.0000   1.0000
     1.0000   1.0000   1.0000   1.0000   0.0000   0.0000   0.0000   0.0000
     0.0000   0.0000   0.0000   0.0000

          k =-0.0442-0.1326 0.1326 (  6606 PWs)   bands (ev):

   -15.1270 -15.1270 -15.1205 -15.1205 -15.0498 -15.0498 -15.0424 -15.0424
   -14.1877 -14.1877 -14.0539 -14.0539 -14.0427 -14.0427 -13.9801 -13.9801
   -13.9722 -13.9722 -13.8949 -13.8949  -2.9528  -2.9528   4.1659   4.1659
     6.1699   6.1699   6.8078   6.8078   7.5762   7.5762   9.2657   9.2657
     9.5180   9.5180  10.1373  10.1373

     occupation numbers 
     1.0000   1.0000   1.0000   1.0000   1.0000   1.0000   1.0000   1.0000
     1.0000   1.0000   1.0000   1.0000   1.0000   1.0000   1.0000   1.0000
     1.0000   1.0000   1.0000   1.0000   1.0000   1.0000   1.0000   1.0000
     1.0000   1.0000   1.0000   1.0000   0.0000   0.0000   0.0000   0.0000
     0.0000   0.0000   0.0000   0.0000

          k = 0.0000-0.0884 0.0884 (  6619 PWs)   bands (ev):

   -15.1259 -15.1259 -15.1232 -15.1232 -15.0472 -15.0472 -15.0441 -15.0441
   -14.1938 -14.1938 -14.0425 -14.0425 -14.0365 -14.0365 -13.9860 -13.9860
   -13.9821 -13.9821 -13.8917 -13.8917  -3.0785  -3.0785   4.8679   4.8679
     6.4513   6.4513   6.9701   6.9701   7.4700   7.4700   9.0238   9.0238
     9.3041   9.3041   9.6374   9.6374

     occupation numbers 
     1.0000   1.0000   1.0000   1.0000   1.0000   1.0000   1.0000   1.0000
     1.0000   1.0000   1.0000   1.0000   1.0000   1.0000   1.0000   1.0000
     1.0000   1.0000   1.0000   1.0000   1.0000   1.0000   1.0000   1.0000
     1.0000   1.0000   0.0000   0.0000   0.0000   0.0000   0.0000   0.0000
     0.0000   0.0000   0.0000   0.0000

          k = 0.1768 0.0000 0.0000 (  6619 PWs)   bands (ev):

   -15.1253 -15.1253 -15.1228 -15.1228 -15.0478 -15.0478 -15.0439 -15.0439
   -14.1893 -14.1893 -14.0524 -14.0524 -14.0397 -14.0397 -13.9792 -13.9792
   -13.9775 -13.9775 -13.8937 -13.8937  -2.9857  -2.9857   4.4202   4.4202
     6.2000   6.2000   6.4552   6.4552   8.1847   8.1847   8.5684   8.5684
     9.8867   9.8867   9.9902   9.9902

     occupation numbers 
     1.0000   1.0000   1.0000   1.0000   1.0000   1.0000   1.0000   1.0000
     1.0000   1.0000   1.0000   1.0000   1.0000   1.0000   1.0000   1.0000
     1.0000   1.0000   1.0000   1.0000   1.0000   1.0000   1.0000   1.0000
     1.0000   1.0000   1.0000   1.0000   0.0000   0.0000   0.0000   0.0000
     0.0000   0.0000   0.0000   0.0000

          k = 0.2210 0.0442-0.0442 (  6605 PWs)   bands (ev):

   -15.1262 -15.1262 -15.1205 -15.1205 -15.0501 -15.0501 -15.0426 -15.0426
   -14.1833 -14.1833 -14.0618 -14.0618 -14.0444 -14.0444 -13.9758 -13.9758
   -13.9692 -13.9692 -13.8963 -13.8963  -2.8598  -2.8598   3.8784   3.8784
     5.9804   5.9804   6.2135   6.2135   8.3310   8.3310   8.5973   8.5973
    10.2576  10.2577  10.3848  10.3848

     occupation numbers 
     1.0000   1.0000   1.0000   1.0000   1.0000   1.0000   1.0000   1.0000
     1.0000   1.0000   1.0000   1.0000   1.0000   1.0000   1.0000   1.0000
     1.0000   1.0000   1.0000   1.0000   1.0000   1.0000   1.0000   1.0000
     1.0000   1.0000   1.0000   1.0000   0.0000   0.0000   0.0000   0.0000
     0.0000   0.0000   0.0000   0.0000

          k = 0.2652 0.0884-0.0884 (  6602 PWs)   bands (ev):

   -15.1278 -15.1278 -15.1165 -15.1165 -15.0539 -15.0539 -15.0403 -15.0403
   -14.1748 -14.1748 -14.0727 -14.0727 -14.0500 -14.0500 -13.9731 -13.9731
   -13.9588 -13.9588 -13.8999 -13.8999  -2.6699  -2.6699   3.2040   3.2040
     5.7302   5.7302   5.9914   5.9914   8.2580   8.2580   8.8857   8.8857
    10.5536  10.5536  10.8074  10.8074

     occupation numbers 
     1.0000   1.0000   1.0000   1.0000   1.0000   1.0000   1.0000   1.0000
     1.0000   1.0000   1.0000   1.0000   1.0000   1.0000   1.0000   1.0000
     1.0000   1.0000   1.0000   1.0000   1.0000   1.0000   1.0000   1.0000
     1.0000   1.0000   1.0000   1.0000   0.0000   0.0000   0.0000   0.0000
     0.0000   0.0000   0.0000   0.0000

          k = 0.3094 0.1326-0.1326 (  6622 PWs)   bands (ev):

   -15.1295 -15.1295 -15.1116 -15.1116 -15.0588 -15.0588 -15.0378 -15.0378
   -14.1646 -14.1646 -14.0837 -14.0837 -14.0557 -14.0557 -13.9710 -13.9710
   -13.9492 -13.9492 -13.9038 -13.9038  -2.4237  -2.4237   2.5033   2.5033
     5.4751   5.4751   5.8143   5.8143   8.1234   8.1234   9.2580   9.2580
    10.7251  10.7251  11.1252  11.1252

     occupation numbers 
     1.0000   1.0000   1.0000   1.0000   1.0000   1.0000   1.0000   1.0000
     1.0000   1.0000   1.0000   1.0000   1.0000   1.0000   1.0000   1.0000
     1.0000   1.0000   1.0000   1.0000   1.0000   1.0000   1.0000   1.0000
     1.0000   1.0000   1.0000   1.0000   0.0000   0.0000   0.0000   0.0000
     0.0000   0.0000   0.0000   0.0000

          k = 0.3536 0.1768-0.1768 (  6618 PWs)   bands (ev):

   -15.1311 -15.1311 -15.1059 -15.1059 -15.0645 -15.0645 -15.0355 -15.0355
   -14.1536 -14.1536 -14.0940 -14.0940 -14.0608 -14.0608 -13.9694 -13.9694
   -13.9415 -13.9415 -13.9073 -13.9073  -2.1376  -2.1376   1.8430   1.8430
     5.2422   5.2422   5.7005   5.7005   7.9846   7.9846   9.5769   9.5769
    10.7633  10.7633  11.4816  11.4816

     occupation numbers 
     1.0000   1.0000   1.0000   1.0000   1.0000   1.0000   1.0000   1.0000
     1.0000   1.0000   1.0000   1.0000   1.0000   1.0000   1.0000   1.0000
     1.0000   1.0000   1.0000   1.0000   1.0000   1.0000   1.0000   1.0000
     1.0000   1.0000   1.0000   1.0000   0.0000   0.0000   0.0000   0.0000
     0.0000   0.0000   0.0000   0.0000

          k = 0.3977 0.2210-0.2210 (  6627 PWs)   bands (ev):

   -15.1322 -15.1322 -15.1001 -15.1001 -15.0703 -15.0703 -15.0337 -15.0337
   -14.1429 -14.1429 -14.1032 -14.1032 -14.0648 -14.0648 -13.9687 -13.9687
   -13.9363 -13.9363 -13.9096 -13.9096  -1.8472  -1.8472   1.2852   1.2852
     5.0520   5.0520   5.6522   5.6522   7.8708   7.8708   9.7749   9.7749
    10.7092  10.7092  11.9947  11.9947

     occupation numbers 
     1.0000   1.0000   1.0000   1.0000   1.0000   1.0000   1.0000   1.0000
     1.0000   1.0000   1.0000   1.0000   1.0000   1.0000   1.0000   1.0000
     1.0000   1.0000   1.0000   1.0000   1.0000   1.0000   1.0000   1.0000
     1.0000   1.0000   1.0000   1.0000   0.0000   0.0000   0.0000   0.0000
     0.0000   0.0000   0.0000   0.0000

          k =-0.2652-0.4419 0.4419 (  6608 PWs)   bands (ev):

   -15.1329 -15.1329 -15.0952 -15.0952 -15.0752 -15.0752 -15.0326 -15.0326
   -14.1345 -14.1345 -14.1104 -14.1104 -14.0671 -14.0671 -13.9686 -13.9686
   -13.9337 -13.9337 -13.9106 -13.9106  -1.6287  -1.6287   0.9199   0.9199
     4.9167   4.9167   5.6680   5.6680   7.7954   7.7954   9.8935   9.8935
    10.6117  10.6117  12.5572  12.5572

     occupation numbers 
     1.0000   1.0000   1.0000   1.0000   1.0000   1.0000   1.0000   1.0000
     1.0000   1.0000   1.0000   1.0000   1.0000   1.0000   1.0000   1.0000
     1.0000   1.0000   1.0000   1.0000   1.0000   1.0000   1.0000   1.0000
     1.0000   1.0000   1.0000   1.0000   0.0000   0.0000   0.0000   0.0000
     0.0000   0.0000   0.0000   0.0000

          k =-0.2210-0.3977 0.3977 (  6620 PWs)   bands (ev):

   -15.1331 -15.1331 -15.0938 -15.0938 -15.0767 -15.0767 -15.0322 -15.0322
   -14.1330 -14.1330 -14.1118 -14.1118 -14.0672 -14.0672 -13.9691 -13.9691
   -13.9329 -13.9329 -13.9108 -13.9108  -1.5933  -1.5933   0.8647   0.8647
     4.8439   4.8439   5.7445   5.7445   7.7634   7.7634   9.9899   9.9899
    10.5000  10.5000  12.8596  12.8596

     occupation numbers 
     1.0000   1.0000   1.0000   1.0000   1.0000   1.0000   1.0000   1.0000
     1.0000   1.0000   1.0000   1.0000   1.0000   1.0000   1.0000   1.0000
     1.0000   1.0000   1.0000   1.0000   1.0000   1.0000   1.0000   1.0000
     1.0000   1.0000   1.0000   1.0000   0.0000   0.0000   0.0000   0.0000
     0.0000   0.0000   0.0000   0.0000

          k =-0.1768-0.3536 0.3536 (  6625 PWs)   bands (ev):

   -15.1328 -15.1328 -15.0974 -15.0973 -15.0732 -15.0732 -15.0328 -15.0328
   -14.1400 -14.1400 -14.1059 -14.1059 -14.0651 -14.0651 -13.9702 -13.9702
   -13.9337 -13.9337 -13.9105 -13.9105  -1.7655  -1.7655   1.1441   1.1441
     4.8398   4.8398   5.8765   5.8765   7.7738   7.7738  10.0798  10.0798
    10.3831  10.3831  12.6068  12.6069

     occupation numbers 
     1.0000   1.0000   1.0000   1.0000   1.0000   1.0000   1.0000   1.0000
     1.0000   1.0000   1.0000   1.0000   1.0000   1.0000   1.0000   1.0000
     1.0000   1.0000   1.0000   1.0000   1.0000   1.0000   1.0000   1.0000
     1.0000   1.0000   1.0000   1.0000   0.0000   0.0000   0.0000   0.0000
     0.0000   0.0000   0.0000   0.0000

          k =-0.1326-0.3094 0.3094 (  6612 PWs)   bands (ev):

   -15.1320 -15.1320 -15.1028 -15.1028 -15.0678 -15.0678 -15.0341 -15.0341
   -14.1502 -14.1502 -14.0973 -14.0973 -14.0612 -14.0612 -13.9717 -13.9717
   -13.9369 -13.9369 -13.9089 -13.9089  -2.0437  -2.0437   1.6507   1.6507
     4.9114   4.9114   6.0555   6.0555   7.8193   7.8193  10.1030  10.1030
    10.2808  10.2808  11.9611  11.9611

     occupation numbers 
     1.0000   1.0000   1.0000   1.0000   1.0000   1.0000   1.0000   1.0000
     1.0000   1.0000   1.0000   1.0000   1.0000   1.0000   1.0000   1.0000
     1.0000   1.0000   1.0000   1.0000   1.0000   1.0000   1.0000   1.0000
     1.0000   1.0000   1.0000   1.0000   0.0000   0.0000   0.0000   0.0000
     0.0000   0.0000   0.0000   0.0000

          k =-0.0884-0.2652 0.2652 (  6627 PWs)   bands (ev):

   -15.1308 -15.1308 -15.1085 -15.1085 -15.0621 -15.0621 -15.0361 -15.0361
   -14.1612 -14.1612 -14.0875 -14.0875 -14.0563 -14.0563 -13.9736 -13.9736
   -13.9431 -13.9431 -13.9058 -13.9058  -2.3362  -2.3362   2.2783   2.2783
     5.0677   5.0677   6.2676   6.2676   7.8810   7.8810   9.9457   9.9457
    10.1938  10.1938  11.3563  11.3563

     occupation numbers 
     1.0000   1.0000   1.0000   1.0000   1.0000   1.0000   1.0000   1.0000
     1.0000   1.0000   1.0000   1.0000   1.0000   1.0000   1.0000   1.0000
     1.0000   1.0000   1.0000   1.0000   1.0000   1.0000   1.0000   1.0000
     1.0000   1.0000   1.0000   1.0000   0.0000   0.0000   0.0000   0.0000
     0.0000   0.0000   0.0000   0.0000

          k =-0.0442-0.2210 0.2210 (  6614 PWs)   bands (ev):

   -15.1294 -15.1294 -15.1136 -15.1136 -15.0570 -15.0570 -15.0384 -15.0384
   -14.1718 -14.1718 -14.0766 -14.0766 -14.0511 -14.0511 -13.9758 -13.9758
   -13.9518 -13.9518 -13.9019 -13.9019  -2.5972  -2.5972   2.9533   2.9533
     5.3229   5.3229   6.4893   6.4893   7.9151   7.9151   9.6952   9.6952
     9.9288   9.9288  10.9747  10.9747

     occupation numbers 
     1.0000   1.0000   1.0000   1.0000   1.0000   1.0000   1.0000   1.0000
     1.0000   1.0000   1.0000   1.0000   1.0000   1.0000   1.0000   1.0000
     1.0000   1.0000   1.0000   1.0000   1.0000   1.0000   1.0000   1.0000
     1.0000   1.0000   1.0000   1.0000   0.0000   0.0000   0.0000   0.0000
     0.0000   0.0000   0.0000   0.0000

          k = 0.0000-0.1768 0.1768 (  6579 PWs)   bands (ev):

   -15.1280 -15.1280 -15.1177 -15.1177 -15.0527 -15.0527 -15.0407 -15.0407
   -14.1809 -14.1809 -14.0651 -14.0650 -14.0463 -14.0463 -13.9782 -13.9782
   -13.9620 -13.9620 -13.8980 -13.8980  -2.8060  -2.8060   3.6076   3.6076
     5.6946   5.6946   6.6827   6.6827   7.8362   7.8362   9.4376   9.4376
     9.6261   9.6261  10.6353  10.6353

     occupation numbers 
     1.0000   1.0000   1.0000   1.0000   1.0000   1.0000   1.0000   1.0000
     1.0000   1.0000   1.0000   1.0000   1.0000   1.0000   1.0000   1.0000
     1.0000   1.0000   1.0000   1.0000   1.0000   1.0000   1.0000   1.0000
     1.0000   1.0000   1.0000   1.0000   0.0000   0.0000   0.0000   0.0000
     0.0000   0.0000   0.0000   0.0000

          k = 0.2652 0.0000 0.0000 (  6587 PWs)   bands (ev):

   -15.1254 -15.1254 -15.1204 -15.1204 -15.0504 -15.0504 -15.0428 -15.0428
   -14.1785 -14.1785 -14.0685 -14.0685 -14.0469 -14.0469 -13.9714 -13.9714
   -13.9669 -13.9669 -13.8976 -13.8976  -2.7555  -2.7555   3.5672   3.5672
     5.7886   5.7886   5.9599   5.9599   8.2411   8.2411   8.7315   8.7315
    10.6616  10.6616  10.6951  10.6951

     occupation numbers 
     1.0000   1.0000   1.0000   1.0000   1.0000   1.0000   1.0000   1.0000
     1.0000   1.0000   1.0000   1.0000   1.0000   1.0000   1.0000   1.0000
     1.0000   1.0000   1.0000   1.0000   1.0000   1.0000   1.0000   1.0000
     1.0000   1.0000   1.0000   1.0000   0.0000   0.0000   0.0000   0.0000
     0.0000   0.0000   0.0000   0.0000

          k = 0.3094 0.0442-0.0442 (  6599 PWs)   bands (ev):

   -15.1262 -15.1262 -15.1178 -15.1178 -15.0528 -15.0528 -15.0415 -15.0415
   -14.1712 -14.1712 -14.0772 -14.0772 -14.0507 -14.0507 -13.9719 -13.9719
   -13.9581 -13.9581 -13.8997 -13.8997  -2.5859  -2.5859   3.0636   3.0636
     5.5566   5.5566   5.7343   5.7343   8.2219   8.2219   8.8362   8.8362
    10.9910  10.9910  11.0429  11.0429

     occupation numbers 
     1.0000   1.0000   1.0000   1.0000   1.0000   1.0000   1.0000   1.0000
     1.0000   1.0000   1.0000   1.0000   1.0000   1.0000   1.0000   1.0000
     1.0000   1.0000   1.0000   1.0000   1.0000   1.0000   1.0000   1.0000
     1.0000   1.0000   1.0000   1.0000   0.0000   0.0000   0.0000   0.0000
     0.0000   0.0000   0.0000   0.0000

          k = 0.3536 0.0884-0.0884 (  6615 PWs)   bands (ev):

   -15.1279 -15.1279 -15.1135 -15.1135 -15.0571 -15.0571 -15.0391 -15.0391
   -14.1621 -14.1621 -14.0865 -14.0865 -14.0544 -14.0544 -13.9740 -13.9740
   -13.9485 -13.9485 -13.9020 -13.9020  -2.3568  -2.3568   2.4730   2.4730
     5.2651   5.2651   5.5551   5.5551   8.3105   8.3105   8.9830   8.9830
    11.0680  11.0680  11.2682  11.2682

     occupation numbers 
     1.0000   1.0000   1.0000   1.0000   1.0000   1.0000   1.0000   1.0000
     1.0000   1.0000   1.0000   1.0000   1.0000   1.0000   1.0000   1.0000
     1.0000   1.0000   1.0000   1.0000   1.0000   1.0000   1.0000   1.0000
     1.0000   1.0000   1.0000   1.0000   0.0000   0.0000   0.0000   0.0000
     0.0000   0.0000   0.0000   0.0000

          k = 0.3977 0.1326-0.1326 (  6630 PWs)   bands (ev):

   -15.1296 -15.1296 -15.1084 -15.1084 -15.0623 -15.0623 -15.0365 -15.0365
   -14.1523 -14.1523 -14.0950 -14.0950 -14.0580 -14.0580 -13.9767 -13.9767
   -13.9408 -13.9408 -13.9034 -13.9034  -2.0805  -2.0805   1.8718   1.8718
     4.9610   4.9610   5.4453   5.4453   8.2846   8.2846   9.3582   9.3582
    11.0716  11.0716  11.3506  11.3506

     occupation numbers 
     1.0000   1.0000   1.0000   1.0000   1.0000   1.0000   1.0000   1.0000
     1.0000   1.0000   1.0000   1.0000   1.0000   1.0000   1.0000   1.0000
     1.0000   1.0000   1.0000   1.0000   1.0000   1.0000   1.0000   1.0000
     1.0000   1.0000   1.0000   1.0000   0.0000   0.0000   0.0000   0.0000
     0.0000   0.0000   0.0000   0.0000

          k = 0.4419 0.1768-0.1768 (  6633 PWs)   bands (ev):

   -15.1311 -15.1311 -15.1029 -15.1029 -15.0680 -15.0680 -15.0341 -15.0341
   -14.1432 -14.1432 -14.1017 -14.1017 -14.0611 -14.0611 -13.9796 -13.9796
   -13.9360 -13.9360 -13.9036 -13.9036  -1.7836  -1.7836   1.3242   1.3242
     4.6948   4.6948   5.4032   5.4032   8.2106   8.2106   9.7693   9.7693
    11.1986  11.1986  11.3533  11.3533

     occupation numbers 
     1.0000   1.0000   1.0000   1.0000   1.0000   1.0000   1.0000   1.0000
     1.0000   1.0000   1.0000   1.0000   1.0000   1.0000   1.0000   1.0000
     1.0000   1.0000   1.0000   1.0000   1.0000   1.0000   1.0000   1.0000
     1.0000   1.0000   1.0000   1.0000   0.0000   0.0000   0.0000   0.0000
     0.0000   0.0000   0.0000   0.0000

          k =-0.2210-0.4861 0.4861 (  6630 PWs)   bands (ev):

   -15.1321 -15.1321 -15.0977 -15.0977 -15.0734 -15.0733 -15.0324 -15.0324
   -14.1365 -14.1365 -14.1062 -14.1062 -14.0632 -14.0632 -13.9821 -13.9821
   -13.9336 -13.9336 -13.9028 -13.9028  -1.5265  -1.5265   0.9117   0.9117
     4.4907   4.4907   5.4268   5.4268   8.1540   8.1540  10.0260  10.0260
    11.1538  11.1538  11.7531  11.7531

     occupation numbers 
     1.0000   1.0000   1.0000   1.0000   1.0000   1.0000   1.0000   1.0000
     1.0000   1.0000   1.0000   1.0000   1.0000   1.0000   1.0000   1.0000
     1.0000   1.0000   1.0000   1.0000   1.0000   1.0000   1.0000   1.0000
     1.0000   1.0000   1.0000   1.0000   0.0000   0.0000   0.0000   0.0000
     0.0000   0.0000   0.0000   0.0000

          k =-0.1768-0.4419 0.4419 (  6636 PWs)   bands (ev):

   -15.1327 -15.1327 -15.0943 -15.0943 -15.0769 -15.0769 -15.0314 -15.0314
   -14.1343 -14.1343 -14.1076 -14.1076 -14.0636 -14.0636 -13.9838 -13.9838
   -13.9327 -13.9327 -13.9023 -13.9023  -1.4213  -1.4213   0.7570   0.7570
     4.3617   4.3617   5.5131   5.5131   8.1327   8.1327  10.1609  10.1609
    11.0046  11.0046  12.3780  12.3781

     occupation numbers 
     1.0000   1.0000   1.0000   1.0000   1.0000   1.0000   1.0000   1.0000
     1.0000   1.0000   1.0000   1.0000   1.0000   1.0000   1.0000   1.0000
     1.0000   1.0000   1.0000   1.0000   1.0000   1.0000   1.0000   1.0000
     1.0000   1.0000   1.0000   1.0000   0.0000   0.0000   0.0000   0.0000
     0.0000   0.0000   0.0000   0.0000

          k =-0.1326-0.3977 0.3977 (  6629 PWs)   bands (ev):

   -15.1328 -15.1328 -15.0952 -15.0952 -15.0761 -15.0761 -15.0314 -15.0314
   -14.1372 -14.1372 -14.1059 -14.1059 -14.0619 -14.0619 -13.9841 -13.9841
   -13.9325 -13.9325 -13.9029 -13.9029  -1.5408  -1.5408   0.9343   0.9343
     4.3181   4.3181   5.6568   5.6568   8.1462   8.1462  10.2682  10.2682
    10.8247  10.8247  12.4835  12.4835

     occupation numbers 
     1.0000   1.0000   1.0000   1.0000   1.0000   1.0000   1.0000   1.0000
     1.0000   1.0000   1.0000   1.0000   1.0000   1.0000   1.0000   1.0000
     1.0000   1.0000   1.0000   1.0000   1.0000   1.0000   1.0000   1.0000
     1.0000   1.0000   1.0000   1.0000   0.0000   0.0000   0.0000   0.0000
     0.0000   0.0000   0.0000   0.0000

          k =-0.0884-0.3536 0.3536 (  6616 PWs)   bands (ev):

   -15.1324 -15.1324 -15.0995 -15.0995 -15.0719 -15.0719 -15.0323 -15.0323
   -14.1441 -14.1441 -14.1017 -14.1017 -14.0589 -14.0589 -13.9832 -13.9832
   -13.9333 -13.9333 -13.9042 -13.9042  -1.8028  -1.8028   1.3533   1.3533
     4.3727   4.3727   5.8482   5.8482   8.1808   8.1808  10.3690  10.3690
    10.6082  10.6082  11.8210  11.8210

     occupation numbers 
     1.0000   1.0000   1.0000   1.0000   1.0000   1.0000   1.0000   1.0000
     1.0000   1.0000   1.0000   1.0000   1.0000   1.0000   1.0000   1.0000
     1.0000   1.0000   1.0000   1.0000   1.0000   1.0000   1.0000   1.0000
     1.0000   1.0000   1.0000   1.0000   0.0000   0.0000   0.0000   0.0000
     0.0000   0.0000   0.0000   0.0000

          k =-0.0442-0.3094 0.3094 (  6612 PWs)   bands (ev):

   -15.1316 -15.1316 -15.1046 -15.1046 -15.0666 -15.0666 -15.0340 -15.0340
   -14.1532 -14.1532 -14.0951 -14.0951 -14.0557 -14.0557 -13.9812 -13.9812
   -13.9365 -13.9365 -13.9049 -13.9049  -2.0988  -2.0988   1.8851   1.8851
     4.5437   4.5437   6.0712   6.0712   8.2032   8.2032  10.2938  10.2938
    10.4321  10.4321  11.2150  11.2150

     occupation numbers 
     1.0000   1.0000   1.0000   1.0000   1.0000   1.0000   1.0000   1.0000
     1.0000   1.0000   1.0000   1.0000   1.0000   1.0000   1.0000   1.0000
     1.0000   1.0000   1.0000   1.0000   1.0000   1.0000   1.0000   1.0000
     1.0000   1.0000   1.0000   1.0000   0.0000   0.0000   0.0000   0.0000
     0.0000   0.0000   0.0000   0.0000

          k = 0.0000-0.2652 0.2652 (  6603 PWs)   bands (ev):

   -15.1305 -15.1305 -15.1095 -15.1095 -15.0614 -15.0614 -15.0362 -15.0362
   -14.1628 -14.1628 -14.0865 -14.0865 -14.0529 -14.0529 -13.9785 -13.9785
   -13.9428 -13.9428 -13.9041 -13.9041  -2.3719  -2.3719   2.4398   2.4398
     4.8552   4.8552   6.2989   6.2989   8.1446   8.1446   9.9890   9.9891
    10.1725  10.1725  11.0230  11.0230

     occupation numbers 
     1.0000   1.0000   1.0000   1.0000   1.0000   1.0000   1.0000   1.0000
     1.0000   1.0000   1.0000   1.0000   1.0000   1.0000   1.0000   1.0000
     1.0000   1.0000   1.0000   1.0000   1.0000   1.0000   1.0000   1.0000
     1.0000   1.0000   1.0000   1.0000   0.0000   0.0000   0.0000   0.0000
     0.0000   0.0000   0.0000   0.0000

          k = 0.3536 0.0000 0.0000 (  6606 PWs)   bands (ev):

   -15.1251 -15.1251 -15.1179 -15.1179 -15.0528 -15.0528 -15.0421 -15.0421
   -14.1650 -14.1650 -14.0836 -14.0836 -14.0529 -14.0529 -13.9721 -13.9721
   -13.9537 -13.9537 -13.9004 -13.9004  -2.4360  -2.4360   2.7203   2.7203
     5.4050   5.4050   5.5234   5.5234   7.9604   7.9604   8.8965   8.8965
    11.4559  11.4560  11.4926  11.4926

     occupation numbers 
     1.0000   1.0000   1.0000   1.0000   1.0000   1.0000   1.0000   1.0000
     1.0000   1.0000   1.0000   1.0000   1.0000   1.0000   1.0000   1.0000
     1.0000   1.0000   1.0000   1.0000   1.0000   1.0000   1.0000   1.0000
     1.0000   1.0000   1.0000   1.0000   0.0000   0.0000   0.0000   0.0000
     0.0000   0.0000   0.0000   0.0000

          k = 0.3977 0.0442-0.0442 (  6613 PWs)   bands (ev):

   -15.1258 -15.1258 -15.1154 -15.1154 -15.0551 -15.0551 -15.0409 -15.0409
   -14.1572 -14.1572 -14.0909 -14.0909 -14.0551 -14.0551 -13.9761 -13.9761
   -13.9460 -13.9460 -13.9013 -13.9013  -2.2246  -2.2246   2.2547   2.2547
     5.1822   5.1822   5.3352   5.3352   7.9819   7.9819   8.8637   8.8637
    11.6070  11.6070  11.8186  11.8186

     occupation numbers 
     1.0000   1.0000   1.0000   1.0000   1.0000   1.0000   1.0000   1.0000
     1.0000   1.0000   1.0000   1.0000   1.0000   1.0000   1.0000   1.0000
     1.0000   1.0000   1.0000   1.0000   1.0000   1.0000   1.0000   1.0000
     1.0000   1.0000   1.0000   1.0000   0.0000   0.0000   0.0000   0.0000
     0.0000   0.0000   0.0000   0.0000

          k = 0.4419 0.0884-0.0884 (  6614 PWs)   bands (ev):

   -15.1274 -15.1274 -15.1112 -15.1112 -15.0594 -15.0594 -15.0384 -15.0384
   -14.1487 -14.1487 -14.0977 -14.0977 -14.0567 -14.0567 -13.9820 -13.9820
   -13.9388 -13.9388 -13.9016 -13.9016  -1.9607  -1.9607   1.7426   1.7426
     4.8629   4.8629   5.2152   5.2152   8.1241   8.1241   8.9979   8.9979
    11.4817  11.4817  11.9818  11.9819

     occupation numbers 
     1.0000   1.0000   1.0000   1.0000   1.0000   1.0000   1.0000   1.0000
     1.0000   1.0000   1.0000   1.0000   1.0000   1.0000   1.0000   1.0000
     1.0000   1.0000   1.0000   1.0000   1.0000   1.0000   1.0000   1.0000
     1.0000   1.0000   1.0000   1.0000   0.0000   0.0000   0.0000   0.0000
     0.0000   0.0000   0.0000   0.0000

          k = 0.4861 0.1326-0.1326 (  6637 PWs)   bands (ev):

   -15.1292 -15.1292 -15.1064 -15.1064 -15.0646 -15.0646 -15.0356 -15.0356
   -14.1414 -14.1414 -14.1024 -14.1024 -14.0579 -14.0578 -13.9884 -13.9884
   -13.9343 -13.9343 -13.9003 -13.9003  -1.6637  -1.6637   1.2428   1.2428
     4.5317   4.5317   5.1678   5.1678   8.1673   8.1673   9.4523   9.4523
    11.3583  11.3583  11.9751  11.9751

     occupation numbers 
     1.0000   1.0000   1.0000   1.0000   1.0000   1.0000   1.0000   1.0000
     1.0000   1.0000   1.0000   1.0000   1.0000   1.0000   1.0000   1.0000
     1.0000   1.0000   1.0000   1.0000   1.0000   1.0000   1.0000   1.0000
     1.0000   1.0000   1.0000   1.0000   0.0000   0.0000   0.0000   0.0000
     0.0000   0.0000   0.0000   0.0000

          k =-0.1768-0.5303 0.5303 (  6630 PWs)   bands (ev):

   -15.1307 -15.1307 -15.1015 -15.1015 -15.0699 -15.0699 -15.0332 -15.0332
   -14.1368 -14.1368 -14.1040 -14.1040 -14.0585 -14.0585 -13.9940 -13.9940
   -13.9324 -13.9324 -13.8982 -13.8982  -1.3796  -1.3796   0.8233   0.8233
     4.2526   4.2526   5.1879   5.1879   8.1647   8.1647  10.0642  10.0642
    11.3405  11.3405  11.8574  11.8574

     occupation numbers 
     1.0000   1.0000   1.0000   1.0000   1.0000   1.0000   1.0000   1.0000
     1.0000   1.0000   1.0000   1.0000   1.0000   1.0000   1.0000   1.0000
     1.0000   1.0000   1.0000   1.0000   1.0000   1.0000   1.0000   1.0000
     1.0000   1.0000   1.0000   1.0000   0.0000   0.0000   0.0000   0.0000
     0.0000   0.0000   0.0000   0.0000

[...]

   -15.1311 -15.1311 -15.1001 -15.1001 -15.0718 -15.0718 -15.0321 -15.0321
   -14.1374 -14.1374 -14.1021 -14.1021 -14.0566 -14.0566 -13.9992 -13.9992
   -13.9329 -13.9329 -13.8956 -13.8956  -1.3046  -1.3046   0.7599   0.7599
     4.1385   4.1385   5.0147   5.0147   8.8104   8.8104   9.9126   9.9126
    10.8466  10.8466  12.3813  12.3813

     occupation numbers 
     1.0000   1.0000   1.0000   1.0000   1.0000   1.0000   1.0000   1.0000
     1.0000   1.0000   1.0000   1.0000   1.0000   1.0000   1.0000   1.0000
     1.0000   1.0000   1.0000   1.0000   1.0000   1.0000   1.0000   1.0000
     1.0000   1.0000   1.0000   1.0000   0.0000   0.0000   0.0000   0.0000
     0.0000   0.0000   0.0000   0.0000

          k =-0.1326-0.3977 0.5745 (  6631 PWs)   bands (ev):

   -15.1317 -15.1317 -15.0972 -15.0972 -15.0749 -15.0749 -15.0310 -15.0310
   -14.1364 -14.1364 -14.1011 -14.1011 -14.0565 -14.0565 -14.0027 -14.0027
   -13.9328 -13.9328 -13.8939 -13.8939  -1.1228  -1.1228   0.5264   0.5264
     4.0189   4.0189   4.9969   4.9969   8.8315   8.8315  10.0877  10.0877
    11.3507  11.3507  12.0639  12.0639

     occupation numbers 
     1.0000   1.0000   1.0000   1.0000   1.0000   1.0000   1.0000   1.0000
     1.0000   1.0000   1.0000   1.0000   1.0000   1.0000   1.0000   1.0000
     1.0000   1.0000   1.0000   1.0000   1.0000   1.0000   1.0000   1.0000
     1.0000   1.0000   1.0000   1.0000   0.0000   0.0000   0.0000   0.0000
     0.0000   0.0000   0.0000   0.0000

          k =-0.0884-0.3536 0.5303 (  6626 PWs)   bands (ev):

   -15.1320 -15.1320 -15.0966 -15.0966 -15.0755 -15.0755 -15.0308 -15.0308
   -14.1369 -14.1369 -14.1012 -14.1012 -14.0563 -14.0563 -14.0023 -14.0023
   -13.9329 -13.9329 -13.8942 -13.8942  -1.1774  -1.1774   0.5957   0.5957
     3.9865   3.9865   5.0652   5.0652   8.8754   8.8754  10.0815  10.0815
    11.4084  11.4084  12.0301  12.0301

     occupation numbers 
     1.0000   1.0000   1.0000   1.0000   1.0000   1.0000   1.0000   1.0000
     1.0000   1.0000   1.0000   1.0000   1.0000   1.0000   1.0000   1.0000
     1.0000   1.0000   1.0000   1.0000   1.0000   1.0000   1.0000   1.0000
     1.0000   1.0000   1.0000   1.0000   0.0000   0.0000   0.0000   0.0000
     0.0000   0.0000   0.0000   0.0000

          k =-0.0442-0.3094 0.4861 (  6627 PWs)   bands (ev):

   -15.1318 -15.1318 -15.0987 -15.0987 -15.0733 -15.0733 -15.0315 -15.0314
   -14.1389 -14.1389 -14.1019 -14.1019 -14.0560 -14.0560 -13.9978 -13.9978
   -13.9332 -13.9332 -13.8963 -13.8963  -1.4212  -1.4212   0.9149   0.9149
     4.0577   4.0577   5.2071   5.2071   8.9228   8.9228   9.9698   9.9698
    10.8498  10.8498  12.2370  12.2370

     occupation numbers 
     1.0000   1.0000   1.0000   1.0000   1.0000   1.0000   1.0000   1.0000
     1.0000   1.0000   1.0000   1.0000   1.0000   1.0000   1.0000   1.0000
     1.0000   1.0000   1.0000   1.0000   1.0000   1.0000   1.0000   1.0000
     1.0000   1.0000   1.0000   1.0000   0.0000   0.0000   0.0000   0.0000
     0.0000   0.0000   0.0000   0.0000

          k = 0.0000-0.2652 0.4419 (  6629 PWs)   bands (ev):

   -15.1312 -15.1312 -15.1023 -15.1023 -15.0694 -15.0694 -15.0329 -15.0329
   -14.1434 -14.1434 -14.1009 -14.1009 -14.0561 -14.0561 -13.9905 -13.9905
   -13.9344 -13.9344 -13.8997 -13.8997  -1.7193  -1.7193   1.3337   1.3337
     4.2516   4.2516   5.3973   5.3973   8.9132   8.9132   9.6268   9.6268
    10.6762  10.6762  12.0096  12.0096

     occupation numbers 
     1.0000   1.0000   1.0000   1.0000   1.0000   1.0000   1.0000   1.0000
     1.0000   1.0000   1.0000   1.0000   1.0000   1.0000   1.0000   1.0000
     1.0000   1.0000   1.0000   1.0000   1.0000   1.0000   1.0000   1.0000
     1.0000   1.0000   1.0000   1.0000   0.0000   0.0000   0.0000   0.0000
     0.0000   0.0000   0.0000   0.0000

          k =-0.1768-0.5303 0.7071 (  6646 PWs)   bands (ev):

   -15.1284 -15.1284 -15.1069 -15.1069 -15.0643 -15.0643 -15.0358 -15.0358
   -14.1380 -14.1380 -14.1036 -14.1036 -14.0545 -14.0545 -13.9984 -13.9984
   -13.9316 -13.9316 -13.8977 -13.8977  -1.4280  -1.4280   0.9527   0.9527
     4.4165   4.4165   4.8736   4.8736   8.5660   8.5660   8.9592   8.9592
    11.3603  11.3603  12.9592  12.9592

     occupation numbers 
     1.0000   1.0000   1.0000   1.0000   1.0000   1.0000   1.0000   1.0000
     1.0000   1.0000   1.0000   1.0000   1.0000   1.0000   1.0000   1.0000
     1.0000   1.0000   1.0000   1.0000   1.0000   1.0000   1.0000   1.0000
     1.0000   1.0000   1.0000   1.0000   0.0000   0.0000   0.0000   0.0000
     0.0000   0.0000   0.0000   0.0000

          k =-0.1326-0.4861 0.6629 (  6645 PWs)   bands (ev):

   -15.1295 -15.1295 -15.1036 -15.1036 -15.0681 -15.0681 -15.0337 -15.0337
   -14.1364 -14.1364 -14.1021 -14.1021 -14.0522 -14.0522 -14.0073 -14.0073
   -13.9311 -13.9311 -13.8943 -13.8943  -1.1241  -1.1241   0.5691   0.5691
     4.1889   4.1889   4.7515   4.7515   8.7375   8.7375   9.4235   9.4235
    11.1880  11.1881  12.9151  12.9151

     occupation numbers 
     1.0000   1.0000   1.0000   1.0000   1.0000   1.0000   1.0000   1.0000
     1.0000   1.0000   1.0000   1.0000   1.0000   1.0000   1.0000   1.0000
     1.0000   1.0000   1.0000   1.0000   1.0000   1.0000   1.0000   1.0000
     1.0000   1.0000   1.0000   1.0000   0.0000   0.0000   0.0000   0.0000
     0.0000   0.0000   0.0000   0.0000

          k =-0.0884-0.4419 0.6187 (  6640 PWs)   bands (ev):

   -15.1305 -15.1305 -15.1005 -15.1005 -15.0717 -15.0717 -15.0319 -15.0319
   -14.1366 -14.1366 -14.0993 -14.0993 -14.0504 -14.0504 -14.0134 -14.0134
   -13.9318 -13.9318 -13.8916 -13.8916  -0.8862  -0.8862   0.2938   0.2938
     3.9938   3.9938   4.7400   4.7400   8.7968   8.7968  10.1367  10.1367
    11.0894  11.0894  12.3449  12.3449

     occupation numbers 
     1.0000   1.0000   1.0000   1.0000   1.0000   1.0000   1.0000   1.0000
     1.0000   1.0000   1.0000   1.0000   1.0000   1.0000   1.0000   1.0000
     1.0000   1.0000   1.0000   1.0000   1.0000   1.0000   1.0000   1.0000
     1.0000   1.0000   1.0000   1.0000   0.0000   0.0000   0.0000   0.0000
     0.0000   0.0000   0.0000   0.0000

          k =-0.0442-0.3977 0.5745 (  6643 PWs)   bands (ev):

   -15.1313 -15.1313 -15.0982 -15.0981 -15.0743 -15.0743 -15.0308 -15.0308
   -14.1372 -14.1372 -14.0983 -14.0983 -14.0506 -14.0506 -14.0138 -14.0138
   -13.9325 -13.9325 -13.8908 -13.8908  -0.8882  -0.8882   0.2987   0.2987
     3.8828   3.8828   4.8275   4.8275   8.8734   8.8734  10.5955  10.5955
    11.2975  11.2975  11.6361  11.6361

     occupation numbers 
     1.0000   1.0000   1.0000   1.0000   1.0000   1.0000   1.0000   1.0000
     1.0000   1.0000   1.0000   1.0000   1.0000   1.0000   1.0000   1.0000
     1.0000   1.0000   1.0000   1.0000   1.0000   1.0000   1.0000   1.0000
     1.0000   1.0000   1.0000   1.0000   0.0000   0.0000   0.0000   0.0000
     0.0000   0.0000   0.0000   0.0000

          k = 0.0000-0.3536 0.5303 (  6634 PWs)   bands (ev):

   -15.1317 -15.1317 -15.0975 -15.0975 -15.0749 -15.0749 -15.0307 -15.0307
   -14.1377 -14.1377 -14.0998 -14.0998 -14.0530 -14.0530 -14.0078 -14.0078
   -13.9328 -13.9328 -13.8925 -13.8925  -1.1236  -1.1236   0.5675   0.5675
     3.8958   3.8958   4.9922   4.9922   8.9485   8.9485  10.4621  10.4621
    10.9283  10.9283  12.1062  12.1062

     occupation numbers 
     1.0000   1.0000   1.0000   1.0000   1.0000   1.0000   1.0000   1.0000
     1.0000   1.0000   1.0000   1.0000   1.0000   1.0000   1.0000   1.0000
     1.0000   1.0000   1.0000   1.0000   1.0000   1.0000   1.0000   1.0000
     1.0000   1.0000   1.0000   1.0000   0.0000   0.0000   0.0000   0.0000
     0.0000   0.0000   0.0000   0.0000

          k =-0.0884-0.5303 0.7071 (  6627 PWs)   bands (ev):

   -15.1276 -15.1276 -15.1069 -15.1069 -15.0643 -15.0643 -15.0360 -15.0359
   -14.1342 -14.1342 -14.1044 -14.1044 -14.0469 -14.0469 -14.0145 -14.0145
   -13.9278 -13.9278 -13.8951 -13.8951  -0.9018  -0.9018   0.3019   0.3019
     4.3352   4.3352   4.5919   4.5920   8.5309   8.5309   8.7855   8.7855
    12.0267  12.0267  13.2496  13.2497

     occupation numbers 
     1.0000   1.0000   1.0000   1.0000   1.0000   1.0000   1.0000   1.0000
     1.0000   1.0000   1.0000   1.0000   1.0000   1.0000   1.0000   1.0000
     1.0000   1.0000   1.0000   1.0000   1.0000   1.0000   1.0000   1.0000
     1.0000   1.0000   1.0000   1.0000   0.0000   0.0000   0.0000   0.0000
     0.0000   0.0000   0.0000   0.0000

          k =-0.0442-0.4861 0.6629 (  6643 PWs)   bands (ev):

   -15.1289 -15.1289 -15.1040 -15.1040 -15.0679 -15.0679 -15.0337 -15.0337
   -14.1356 -14.1356 -14.1006 -14.1006 -14.0432 -14.0432 -14.0221 -14.0221
   -13.9295 -13.9295 -13.8918 -13.8918  -0.6183  -0.6183   0.0025   0.0025
     4.1322   4.1322   4.5449   4.5449   8.6880   8.6880   9.3695   9.3695
    11.8449  11.8449  12.5631  12.5631

     occupation numbers 
     1.0000   1.0000   1.0000   1.0000   1.0000   1.0000   1.0000   1.0000
     1.0000   1.0000   1.0000   1.0000   1.0000   1.0000   1.0000   1.0000
     1.0000   1.0000   1.0000   1.0000   1.0000   1.0000   1.0000   1.0000
     1.0000   1.0000   1.0000   1.0000   0.0000   0.0000   0.0000   0.0000
     0.0000   0.0000   0.0000   0.0000

          k = 0.0000-0.4419 0.6187 (  6651 PWs)   bands (ev):

   -15.1302 -15.1302 -15.1009 -15.1009 -15.0714 -15.0714 -15.0318 -15.0318
   -14.1368 -14.1368 -14.0980 -14.0980 -14.0447 -14.0447 -14.0219 -14.0219
   -13.9313 -13.9313 -13.8901 -13.8901  -0.6205  -0.6205   0.0140   0.0140
     3.9448   3.9448   4.6446   4.6446   8.7778   8.7778  10.1744  10.1744
    11.6533  11.6533  11.7525  11.7525

     occupation numbers 
     1.0000   1.0000   1.0000   1.0000   1.0000   1.0000   1.0000   1.0000
     1.0000   1.0000   1.0000   1.0000   1.0000   1.0000   1.0000   1.0000
     1.0000   1.0000   1.0000   1.0000   1.0000   1.0000   1.0000   1.0000
     1.0000   1.0000   1.0000   1.0000   0.0000   0.0000   0.0000   0.0000
     0.0000   0.0000   0.0000   0.0000

          k =-0.7071 0.1768 0.0000 (  6638 PWs)   bands (ev):

   -15.1272 -15.1272 -15.1071 -15.1071 -15.0641 -15.0641 -15.0361 -15.0361
   -14.1336 -14.1336 -14.1041 -14.1041 -14.0375 -14.0375 -14.0268 -14.0268
   -13.9264 -13.9264 -13.8942 -13.8942  -0.3362  -0.3362  -0.3054  -0.3054
     4.3334   4.3334   4.4713   4.4713   8.5477   8.5477   8.6874   8.6874
    12.6675  12.6675  12.8296  12.8296

     occupation numbers 
     1.0000   1.0000   1.0000   1.0000   1.0000   1.0000   1.0000   1.0000
     1.0000   1.0000   1.0000   1.0000   1.0000   1.0000   1.0000   1.0000
     1.0000   1.0000   1.0000   1.0000   1.0000   1.0000   1.0000   1.0000
     1.0000   1.0000   1.0000   1.0000   0.0000   0.0000   0.0000   0.0000
     0.0000   0.0000   0.0000   0.0000

          k =-0.1768-0.4419 0.7071 (  6639 PWs)   bands (ev):

   -15.1307 -15.1307 -15.1013 -15.1013 -15.0707 -15.0707 -15.0324 -15.0324
   -14.1381 -14.1381 -14.1013 -14.1013 -14.0543 -14.0543 -14.0027 -14.0027
   -13.9329 -13.9329 -13.8946 -13.8946  -1.2943  -1.2943   0.7802   0.7802
     4.1123   4.1123   4.9074   4.9074   9.2609   9.2609   9.5388   9.5388
    10.6329  10.6329  12.6920  12.6920

     occupation numbers 
     1.0000   1.0000   1.0000   1.0000   1.0000   1.0000   1.0000   1.0000
     1.0000   1.0000   1.0000   1.0000   1.0000   1.0000   1.0000   1.0000
     1.0000   1.0000   1.0000   1.0000   1.0000   1.0000   1.0000   1.0000
     1.0000   1.0000   1.0000   1.0000   0.0000   0.0000   0.0000   0.0000
     0.0000   0.0000   0.0000   0.0000

          k =-0.1326-0.3977 0.6629 (  6637 PWs)   bands (ev):

   -15.1311 -15.1311 -15.0992 -15.0992 -15.0732 -15.0732 -15.0312 -15.0312
   -14.1374 -14.1374 -14.0989 -14.0989 -14.0521 -14.0521 -14.0106 -14.0106
   -13.9328 -13.9328 -13.8915 -13.8915  -1.0108  -1.0108   0.4416   0.4416
     3.9849   3.9849   4.7528   4.7528   9.3325   9.3325   9.9817   9.9817
    10.7428  10.7428  12.2320  12.2320

     occupation numbers 
     1.0000   1.0000   1.0000   1.0000   1.0000   1.0000   1.0000   1.0000
     1.0000   1.0000   1.0000   1.0000   1.0000   1.0000   1.0000   1.0000
     1.0000   1.0000   1.0000   1.0000   1.0000   1.0000   1.0000   1.0000
     1.0000   1.0000   1.0000   1.0000   0.0000   0.0000   0.0000   0.0000
     0.0000   0.0000   0.0000   0.0000

          k =-0.0884-0.3536 0.6187 (  6652 PWs)   bands (ev):

   -15.1313 -15.1312 -15.0983 -15.0983 -15.0742 -15.0742 -15.0308 -15.0308
   -14.1373 -14.1373 -14.0976 -14.0976 -14.0511 -14.0511 -14.0138 -14.0138
   -13.9329 -13.9329 -13.8904 -13.8904  -0.8728  -0.8728   0.2842   0.2842
     3.9444   3.9444   4.6963   4.6963   9.3375   9.3375  10.1006  10.1006
    11.2427  11.2427  11.5769  11.5769

     occupation numbers 
     1.0000   1.0000   1.0000   1.0000   1.0000   1.0000   1.0000   1.0000
     1.0000   1.0000   1.0000   1.0000   1.0000   1.0000   1.0000   1.0000
     1.0000   1.0000   1.0000   1.0000   1.0000   1.0000   1.0000   1.0000
     1.0000   1.0000   1.0000   1.0000   0.0000   0.0000   0.0000   0.0000
     0.0000   0.0000   0.0000   0.0000

          k =-0.0884-0.4419 0.7071 (  6650 PWs)   bands (ev):

   -15.1300 -15.1300 -15.1018 -15.1018 -15.0704 -15.0704 -15.0323 -15.0323
   -14.1369 -14.1369 -14.0987 -14.0987 -14.0478 -14.0478 -14.0172 -14.0172
   -13.9317 -13.9317 -13.8908 -13.8908  -0.8184  -0.8184   0.2321   0.2321
     4.0956   4.0956   4.5213   4.5213   9.3198   9.3198   9.5347   9.5347
    11.0114  11.0114  12.3982  12.3982

     occupation numbers 
     1.0000   1.0000   1.0000   1.0000   1.0000   1.0000   1.0000   1.0000
     1.0000   1.0000   1.0000   1.0000   1.0000   1.0000   1.0000   1.0000
     1.0000   1.0000   1.0000   1.0000   1.0000   1.0000   1.0000   1.0000
     1.0000   1.0000   1.0000   1.0000   0.0000   0.0000   0.0000   0.0000
     0.0000   0.0000   0.0000   0.0000

          k =-0.0442-0.3977 0.6629 (  6651 PWs)   bands (ev):

   -15.1305 -15.1305 -15.1002 -15.1002 -15.0724 -15.0724 -15.0313 -15.0313
   -14.1376 -14.1376 -14.0961 -14.0961 -14.0448 -14.0448 -14.0230 -14.0230
   -13.9325 -13.9325 -13.8888 -13.8888  -0.5988  -0.5988   0.0034   0.0034
     4.0136   4.0136   4.4420   4.4420   9.4617   9.4617  10.1702  10.1702
    10.9360  10.9360  11.5496  11.5496

     occupation numbers 
     1.0000   1.0000   1.0000   1.0000   1.0000   1.0000   1.0000   1.0000
     1.0000   1.0000   1.0000   1.0000   1.0000   1.0000   1.0000   1.0000
     1.0000   1.0000   1.0000   1.0000   1.0000   1.0000   1.0000   1.0000
     1.0000   1.0000   1.0000   1.0000   0.0000   0.0000   0.0000   0.0000
     0.0000   0.0000   0.0000   0.0000

          k =-0.0000-0.3536 0.6187 (  6657 PWs)   bands (ev):

   -15.1309 -15.1309 -15.0992 -15.0992 -15.0734 -15.0734 -15.0309 -15.0309
   -14.1377 -14.1377 -14.0962 -14.0962 -14.0471 -14.0471 -14.0200 -14.0200
   -13.9329 -13.9329 -13.8891 -13.8891  -0.7205  -0.7205   0.1330   0.1330
     3.9530   3.9530   4.5413   4.5413   9.5107   9.5107  10.3519  10.3519
    10.8234  10.8234  11.4573  11.4573

     occupation numbers 
     1.0000   1.0000   1.0000   1.0000   1.0000   1.0000   1.0000   1.0000
     1.0000   1.0000   1.0000   1.0000   1.0000   1.0000   1.0000   1.0000
     1.0000   1.0000   1.0000   1.0000   1.0000   1.0000   1.0000   1.0000
     1.0000   1.0000   1.0000   1.0000   0.0000   0.0000   0.0000   0.0000
     0.0000   0.0000   0.0000   0.0000

          k =-0.7071 0.2652 0.0000 (  6650 PWs)   bands (ev):

   -15.1297 -15.1297 -15.1022 -15.1022 -15.0701 -15.0701 -15.0323 -15.0323
   -14.1369 -14.1369 -14.0974 -14.0974 -14.0402 -14.0402 -14.0276 -14.0276
   -13.9312 -13.9312 -13.8895 -13.8895  -0.3253  -0.3253  -0.2842  -0.2842
     4.1573   4.1573   4.3215   4.3215   9.3188   9.3188   9.5153   9.5153
    11.6249  11.6249  11.7312  11.7312

     occupation numbers 
     1.0000   1.0000   1.0000   1.0000   1.0000   1.0000   1.0000   1.0000
     1.0000   1.0000   1.0000   1.0000   1.0000   1.0000   1.0000   1.0000
     1.0000   1.0000   1.0000   1.0000   1.0000   1.0000   1.0000   1.0000
     1.0000   1.0000   1.0000   1.0000   0.0000   0.0000   0.0000   0.0000
     0.0000   0.0000   0.0000   0.0000

          k =-0.7071 0.3536 0.0000 (  6652 PWs)   bands (ev):

   -15.1305 -15.1305 -15.1001 -15.1001 -15.0726 -15.0726 -15.0310 -15.0310
   -14.1380 -14.1380 -14.0947 -14.0947 -14.0412 -14.0412 -14.0281 -14.0281
   -13.9329 -13.9329 -13.8878 -13.8878  -0.3204  -0.3204  -0.2756  -0.2756
     4.0914   4.0914   4.2635   4.2635   9.9143   9.9143  10.2365  10.2365
    10.9136  10.9136  10.9348  10.9348

     occupation numbers 
     1.0000   1.0000   1.0000   1.0000   1.0000   1.0000   1.0000   1.0000
     1.0000   1.0000   1.0000   1.0000   1.0000   1.0000   1.0000   1.0000
     1.0000   1.0000   1.0000   1.0000   1.0000   1.0000   1.0000   1.0000
     1.0000   1.0000   1.0000   1.0000   0.0000   0.0000   0.0000   0.0000
     0.0000   0.0000   0.0000   0.0000

     the Fermi energy is     6.9504 ev

!    total energy              =    -325.85652995 Ry
     Harris-Foulkes estimate   =    -325.85652990 Ry
     estimated scf accuracy    <       0.00000010 Ry

     The total energy is the sum of the following terms:

     one-electron contribution =    -157.76573132 Ry
     hartree contribution      =      95.54400907 Ry
     xc contribution           =     -96.10501231 Ry
     ewald contribution        =    -167.52979533 Ry
     smearing contrib. (-TS)   =      -0.00000006 Ry

     convergence has been achieved in   5 iterations

     Writing output data file Sn.save
 
     init_run     :     12.64s CPU     14.01s WALL (       1 calls)
     electrons    :    257.04s CPU    280.70s WALL (       1 calls)

     Called by init_run:
     wfcinit      :     12.18s CPU     13.35s WALL (       1 calls)
     potinit      :      0.03s CPU      0.04s WALL (       1 calls)

     Called by electrons:
     c_bands      :    214.13s CPU    234.18s WALL (       6 calls)
     sum_band     :     42.31s CPU     45.75s WALL (       6 calls)
     v_of_rho     :      0.08s CPU      0.10s WALL (       6 calls)
     v_h          :      0.01s CPU      0.01s WALL (       6 calls)
     v_xc         :      0.08s CPU      0.09s WALL (       6 calls)
     newd         :      0.57s CPU      0.66s WALL (       6 calls)
     mix_rho      :      0.03s CPU      0.05s WALL (       6 calls)

     Called by c_bands:
     init_us_2    :      0.86s CPU      0.98s WALL (    1885 calls)
     cegterg      :    200.41s CPU    220.29s WALL (     870 calls)

     Called by sum_band:
     sum_band:bec :      2.97s CPU      3.05s WALL (     870 calls)
     addusdens    :      0.52s CPU      0.64s WALL (       6 calls)

     Called by *egterg:
     h_psi        :    169.17s CPU    184.88s WALL (    3082 calls)
     s_psi        :      5.98s CPU      6.01s WALL (    3082 calls)
     g_psi        :      0.59s CPU      0.59s WALL (    2067 calls)
     cdiaghg      :     11.74s CPU     11.98s WALL (    2792 calls)
     cegterg:over :      9.47s CPU      9.51s WALL (    2067 calls)
     cegterg:upda :      5.26s CPU      5.29s WALL (    2067 calls)
     cegterg:last :      2.87s CPU      2.88s WALL (     870 calls)

     Called by h_psi:
     h_psi:vloc   :    154.94s CPU    170.42s WALL (    3082 calls)
     h_psi:vnl    :     13.61s CPU     13.81s WALL (    3082 calls)
     add_vuspsi   :      6.33s CPU      6.37s WALL (    3082 calls)

     General routines
     calbec       :      9.94s CPU     10.15s WALL (    3952 calls)
     fft          :      0.10s CPU      0.15s WALL (     116 calls)
     fftw         :    166.54s CPU    183.29s WALL (  392104 calls)
     davcio       :      0.09s CPU      0.66s WALL (     145 calls)
 
     Parallel routines
     fft_scatter  :     88.10s CPU     97.01s WALL (  392220 calls)
 
     PWSCF        :  4m31.38s CPU     4m57.22s WALL

 
   This run was terminated on:  22:59:20  16Mar2020            

=------------------------------------------------------------------------------=
   JOB DONE.
=------------------------------------------------------------------------------=
