
     Program PWSCF v.5.4.0 starts on 15Mar2020 at 19:56:34 

     This program is part of the open-source Quantum ESPRESSO suite
     for quantum simulation of materials; please cite
         "P. Giannozzi et al., J. Phys.:Condens. Matter 21 395502 (2009);
          URL http://www.quantum-espresso.org", 
     in publications or presentations arising from this work. More details at
     http://www.quantum-espresso.org/quote

     Parallel version (MPI & OpenMP), running on      16 processor cores
     Number of MPI processes:                16
     Threads/MPI process:                     1
     R & G space division:  proc/nbgrp/npool/nimage =      16
     Waiting for input...
     Reading input from standard input
Warning: card &IONS ignored
Warning: card / ignored
Warning: card &CELL ignored
Warning: card / ignored

     Current dimensions of program PWSCF are:
     Max number of different atomic species (ntypx) = 10
     Max number of k-points (npk) =  40000
     Max angular momentum in pseudopotentials (lmaxx) =  3
               file Sn.pbe-dn-kjpaw_psl.1.0.0.UPF: wavefunction(s)  5S 5P 4D renormalized
     Message from routine setup:
     At least one non s.o. pseudo

     Subspace diagonalization in iterative solution of the eigenvalue problem:
     a serial algorithm will be used

 
     Parallelization info
     --------------------
     sticks:   dense  smooth     PW     G-vecs:    dense   smooth      PW
     Min          81      81     23                 1953     1953     312
     Max          82      82     24                 1958     1958     316
     Sum        1303    1303    379                31283    31283    5029
 

     Title: 
     Sn                                                                         


     bravais-lattice index     =            0
     lattice parameter (alat)  =       8.9127  a.u.
     unit-cell volume          =     500.6268 (a.u.)^3
     number of atoms/cell      =            2
     number of atomic types    =            1
     number of electrons       =        28.00
     number of Kohn-Sham states=           36
     kinetic-energy cutoff     =      60.0000  Ry
     charge density cutoff     =     240.0000  Ry
     convergence threshold     =      1.0E-06
     mixing beta               =       0.7000
     number of iterations used =            8  plain     mixing
     Exchange-correlation      =  SLA  PW   PBX  PBC ( 1  4  3  4 0 0)
     Non magnetic calculation with spin-orbit


     celldm(1)=   8.912709  celldm(2)=   0.000000  celldm(3)=   0.000000
     celldm(4)=   0.000000  celldm(5)=   0.000000  celldm(6)=   0.000000

     crystal axes: (cart. coord. in units of alat)
               a(1) = (   0.000000   0.707107   0.707107 )  
               a(2) = (   0.707107   0.000000   0.707107 )  
               a(3) = (   0.707107   0.707107   0.000000 )  

     reciprocal axes: (cart. coord. in units 2 pi/alat)
               b(1) = ( -0.707107  0.707107  0.707107 )  
               b(2) = (  0.707107 -0.707107  0.707107 )  
               b(3) = (  0.707107  0.707107 -0.707107 )  


     PseudoPot. # 1 for Sn read from file:
     ../PseudopotentialDatabase/Sn.pbe-dn-kjpaw_psl.1.0.0.UPF
     MD5 check sum: 67f11dec737d427557dc41ea34975807
     Pseudo is Projector augmented-wave + core cor, Zval = 14.0
     Generated using "atomic" code by A. Dal Corso  v.6.3
     Shape of augmentation charge: PSQ
     Using radial grid of 1243 points,  6 beta functions with: 
                l(1) =   0
                l(2) =   0
                l(3) =   1
                l(4) =   1
                l(5) =   2
                l(6) =   2
     Q(r) pseudized with 0 coefficients 


     atomic species   valence    mass     pseudopotential
        Sn            14.00   118.71000     Sn( 1.00)

     24 Sym. Ops. (no inversion) found
          (note: 24 additional sym.ops. were found but ignored
           their fractional translations are incommensurate with FFT grid)

                                    s                        frac. trans.

      isym =  1     identity                                     

 cryst.   s( 1) = (     1          0          0      )
                  (     0          1          0      )
                  (     0          0          1      )

 cart.    s( 1) = (  1.0000000  0.0000000  0.0000000 )
                  (  0.0000000  1.0000000  0.0000000 )
                  (  0.0000000  0.0000000  1.0000000 )


      isym =  2     180 deg rotation - cart. axis [0,0,1]        

 cryst.   s( 2) = (     0          1         -1      )
                  (     1          0         -1      )
                  (     0          0         -1      )

 cart.    s( 2) = ( -1.0000000  0.0000000  0.0000000 )
                  (  0.0000000 -1.0000000  0.0000000 )
                  (  0.0000000  0.0000000  1.0000000 )


      isym =  3     180 deg rotation - cart. axis [0,1,0]        

 cryst.   s( 3) = (     0         -1          1      )
                  (     0         -1          0      )
                  (     1         -1          0      )

 cart.    s( 3) = ( -1.0000000  0.0000000  0.0000000 )
                  (  0.0000000  1.0000000  0.0000000 )
                  (  0.0000000  0.0000000 -1.0000000 )


      isym =  4     180 deg rotation - cart. axis [1,0,0]        

 cryst.   s( 4) = (    -1          0          0      )
                  (    -1          0          1      )
                  (    -1          1          0      )

 cart.    s( 4) = (  1.0000000  0.0000000  0.0000000 )
                  (  0.0000000 -1.0000000  0.0000000 )
                  (  0.0000000  0.0000000 -1.0000000 )


      isym =  5     120 deg rotation - cart. axis [-1,-1,-1]     

 cryst.   s( 5) = (     0          0          1      )
                  (     1          0          0      )
                  (     0          1          0      )

 cart.    s( 5) = (  0.0000000  1.0000000  0.0000000 )
                  (  0.0000000  0.0000000  1.0000000 )
                  (  1.0000000  0.0000000  0.0000000 )


      isym =  6     120 deg rotation - cart. axis [-1,1,1]       

 cryst.   s( 6) = (     1         -1          0      )
                  (     0         -1          1      )
                  (     0         -1          0      )

 cart.    s( 6) = (  0.0000000 -1.0000000  0.0000000 )
                  (  0.0000000  0.0000000  1.0000000 )
                  ( -1.0000000  0.0000000  0.0000000 )


      isym =  7     120 deg rotation - cart. axis [1,1,-1]       

 cryst.   s( 7) = (    -1          1          0      )
                  (    -1          0          0      )
                  (    -1          0          1      )

 cart.    s( 7) = (  0.0000000  1.0000000  0.0000000 )
                  (  0.0000000  0.0000000 -1.0000000 )
                  ( -1.0000000  0.0000000  0.0000000 )


      isym =  8     120 deg rotation - cart. axis [1,-1,1]       

 cryst.   s( 8) = (     0          0         -1      )
                  (     0          1         -1      )
                  (     1          0         -1      )

 cart.    s( 8) = (  0.0000000 -1.0000000  0.0000000 )
                  (  0.0000000  0.0000000 -1.0000000 )
                  (  1.0000000  0.0000000  0.0000000 )


      isym =  9     120 deg rotation - cart. axis [1,1,1]        

 cryst.   s( 9) = (     0          1          0      )
                  (     0          0          1      )
                  (     1          0          0      )

 cart.    s( 9) = (  0.0000000  0.0000000  1.0000000 )
                  (  1.0000000  0.0000000  0.0000000 )
                  (  0.0000000  1.0000000  0.0000000 )


      isym = 10     120 deg rotation - cart. axis [-1,1,-1]      

 cryst.   s(10) = (    -1          0          1      )
                  (    -1          1          0      )
                  (    -1          0          0      )

 cart.    s(10) = (  0.0000000  0.0000000  1.0000000 )
                  ( -1.0000000  0.0000000  0.0000000 )
                  (  0.0000000 -1.0000000  0.0000000 )


      isym = 11     120 deg rotation - cart. axis [1,-1,-1]      

 cryst.   s(11) = (     1          0         -1      )
                  (     0          0         -1      )
                  (     0          1         -1      )

 cart.    s(11) = (  0.0000000  0.0000000 -1.0000000 )
                  ( -1.0000000  0.0000000  0.0000000 )
                  (  0.0000000  1.0000000  0.0000000 )


      isym = 12     120 deg rotation - cart. axis [-1,-1,1]      

 cryst.   s(12) = (     0         -1          0      )
                  (     1         -1          0      )
                  (     0         -1          1      )

 cart.    s(12) = (  0.0000000  0.0000000 -1.0000000 )
                  (  1.0000000  0.0000000  0.0000000 )
                  (  0.0000000 -1.0000000  0.0000000 )


      isym = 13     inv. 180 deg rotation - cart. axis [1,1,0]   

 cryst.   s(13) = (     1          0         -1      )
                  (     0          1         -1      )
                  (     0          0         -1      )

 cart.    s(13) = (  0.0000000 -1.0000000  0.0000000 )
                  ( -1.0000000  0.0000000  0.0000000 )
                  (  0.0000000  0.0000000  1.0000000 )


      isym = 14     inv. 180 deg rotation - cart. axis [1,-1,0]  

 cryst.   s(14) = (     0          1          0      )
                  (     1          0          0      )
                  (     0          0          1      )

 cart.    s(14) = (  0.0000000  1.0000000  0.0000000 )
                  (  1.0000000  0.0000000  0.0000000 )
                  (  0.0000000  0.0000000  1.0000000 )


      isym = 15     inv.  90 deg rotation - cart. axis [0,0,-1]  

 cryst.   s(15) = (     0         -1          0      )
                  (     0         -1          1      )
                  (     1         -1          0      )

 cart.    s(15) = (  0.0000000 -1.0000000  0.0000000 )
                  (  1.0000000  0.0000000  0.0000000 )
                  (  0.0000000  0.0000000 -1.0000000 )


      isym = 16     inv.  90 deg rotation - cart. axis [0,0,1]   

 cryst.   s(16) = (    -1          0          1      )
                  (    -1          0          0      )
                  (    -1          1          0      )

 cart.    s(16) = (  0.0000000  1.0000000  0.0000000 )
                  ( -1.0000000  0.0000000  0.0000000 )
                  (  0.0000000  0.0000000 -1.0000000 )


      isym = 17     inv. 180 deg rotation - cart. axis [1,0,1]   

 cryst.   s(17) = (     1         -1          0      )
                  (     0         -1          0      )
                  (     0         -1          1      )

 cart.    s(17) = (  0.0000000  0.0000000 -1.0000000 )
                  (  0.0000000  1.0000000  0.0000000 )
                  ( -1.0000000  0.0000000  0.0000000 )


      isym = 18     inv. 180 deg rotation - cart. axis [-1,0,1]  

 cryst.   s(18) = (     0          0          1      )
                  (     0          1          0      )
                  (     1          0          0      )

 cart.    s(18) = (  0.0000000  0.0000000  1.0000000 )
                  (  0.0000000  1.0000000  0.0000000 )
                  (  1.0000000  0.0000000  0.0000000 )


      isym = 19     inv.  90 deg rotation - cart. axis [0,1,0]   

 cryst.   s(19) = (     0          0         -1      )
                  (     1          0         -1      )
                  (     0          1         -1      )

 cart.    s(19) = (  0.0000000  0.0000000 -1.0000000 )
                  (  0.0000000 -1.0000000  0.0000000 )
                  (  1.0000000  0.0000000  0.0000000 )


      isym = 20     inv.  90 deg rotation - cart. axis [0,-1,0]  

 cryst.   s(20) = (    -1          1          0      )
                  (    -1          0          1      )
                  (    -1          0          0      )

 cart.    s(20) = (  0.0000000  0.0000000  1.0000000 )
                  (  0.0000000 -1.0000000  0.0000000 )
                  ( -1.0000000  0.0000000  0.0000000 )


      isym = 21     inv. 180 deg rotation - cart. axis [0,1,1]   

 cryst.   s(21) = (    -1          0          0      )
                  (    -1          1          0      )
                  (    -1          0          1      )

 cart.    s(21) = (  1.0000000  0.0000000  0.0000000 )
                  (  0.0000000  0.0000000 -1.0000000 )
                  (  0.0000000 -1.0000000  0.0000000 )


      isym = 22     inv. 180 deg rotation - cart. axis [0,1,-1]  

 cryst.   s(22) = (     1          0          0      )
                  (     0          0          1      )
                  (     0          1          0      )

 cart.    s(22) = (  1.0000000  0.0000000  0.0000000 )
                  (  0.0000000  0.0000000  1.0000000 )
                  (  0.0000000  1.0000000  0.0000000 )


      isym = 23     inv.  90 deg rotation - cart. axis [-1,0,0]  

 cryst.   s(23) = (     0          1         -1      )
                  (     0          0         -1      )
                  (     1          0         -1      )

 cart.    s(23) = ( -1.0000000  0.0000000  0.0000000 )
                  (  0.0000000  0.0000000 -1.0000000 )
                  (  0.0000000  1.0000000  0.0000000 )


      isym = 24     inv.  90 deg rotation - cart. axis [1,0,0]   

 cryst.   s(24) = (     0         -1          1      )
                  (     1         -1          0      )
                  (     0         -1          0      )

 cart.    s(24) = ( -1.0000000  0.0000000  0.0000000 )
                  (  0.0000000  0.0000000  1.0000000 )
                  (  0.0000000 -1.0000000  0.0000000 )


   Cartesian axes

     site n.     atom                  positions (alat units)
         1           Sn  tau(   1) = (   0.0000000   0.0000000   0.0000000  )
         2           Sn  tau(   2) = (   0.3535534   0.3535534   0.3535534  )

   Crystallographic axes

     site n.     atom                  positions (cryst. coord.)
         1           Sn  tau(   1) = (  0.0000000  0.0000000  0.0000000  )
         2           Sn  tau(   2) = (  0.2500000  0.2500000  0.2500000  )

     number of k points=   145  gaussian smearing, width (Ry)=  0.0001
                       cart. coord. in units 2pi/alat
        k(    1) = (   0.0000000   0.0000000   0.0000000), wk =   0.0002441
        k(    2) = (   0.0441942   0.0441942  -0.0441942), wk =   0.0019531
        k(    3) = (   0.0883883   0.0883883  -0.0883883), wk =   0.0019531
        k(    4) = (   0.1325825   0.1325825  -0.1325825), wk =   0.0019531
        k(    5) = (   0.1767767   0.1767767  -0.1767767), wk =   0.0019531
        k(    6) = (   0.2209709   0.2209709  -0.2209709), wk =   0.0019531
        k(    7) = (   0.2651650   0.2651650  -0.2651650), wk =   0.0019531
        k(    8) = (   0.3093592   0.3093592  -0.3093592), wk =   0.0019531
        k(    9) = (  -0.3535534  -0.3535534   0.3535534), wk =   0.0009766
        k(   10) = (   0.0883883   0.0000000   0.0000000), wk =   0.0014648
        k(   11) = (   0.1325825   0.0441942  -0.0441942), wk =   0.0058594
        k(   12) = (   0.1767767   0.0883883  -0.0883883), wk =   0.0058594
        k(   13) = (   0.2209709   0.1325825  -0.1325825), wk =   0.0058594
        k(   14) = (   0.2651650   0.1767767  -0.1767767), wk =   0.0058594
        k(   15) = (   0.3093592   0.2209709  -0.2209709), wk =   0.0058594
        k(   16) = (   0.3535534   0.2651650  -0.2651650), wk =   0.0058594
        k(   17) = (  -0.3093592  -0.3977476   0.3977476), wk =   0.0058594
        k(   18) = (  -0.2651650  -0.3535534   0.3535534), wk =   0.0058594
        k(   19) = (  -0.2209709  -0.3093592   0.3093592), wk =   0.0058594
        k(   20) = (  -0.1767767  -0.2651650   0.2651650), wk =   0.0058594
        k(   21) = (  -0.1325825  -0.2209709   0.2209709), wk =   0.0058594
        k(   22) = (  -0.0883883  -0.1767767   0.1767767), wk =   0.0058594
        k(   23) = (  -0.0441942  -0.1325825   0.1325825), wk =   0.0058594
        k(   24) = (   0.0000000  -0.0883883   0.0883883), wk =   0.0029297
        k(   25) = (   0.1767767   0.0000000   0.0000000), wk =   0.0014648
        k(   26) = (   0.2209709   0.0441942  -0.0441942), wk =   0.0058594
        k(   27) = (   0.2651650   0.0883883  -0.0883883), wk =   0.0058594
        k(   28) = (   0.3093592   0.1325825  -0.1325825), wk =   0.0058594
        k(   29) = (   0.3535534   0.1767767  -0.1767767), wk =   0.0058594
        k(   30) = (   0.3977476   0.2209709  -0.2209709), wk =   0.0058594
        k(   31) = (  -0.2651650  -0.4419417   0.4419417), wk =   0.0058594
        k(   32) = (  -0.2209709  -0.3977476   0.3977476), wk =   0.0058594
        k(   33) = (  -0.1767767  -0.3535534   0.3535534), wk =   0.0058594
        k(   34) = (  -0.1325825  -0.3093592   0.3093592), wk =   0.0058594
        k(   35) = (  -0.0883883  -0.2651650   0.2651650), wk =   0.0058594
        k(   36) = (  -0.0441942  -0.2209709   0.2209709), wk =   0.0058594
        k(   37) = (   0.0000000  -0.1767767   0.1767767), wk =   0.0029297
        k(   38) = (   0.2651650   0.0000000   0.0000000), wk =   0.0014648
        k(   39) = (   0.3093592   0.0441942  -0.0441942), wk =   0.0058594
        k(   40) = (   0.3535534   0.0883883  -0.0883883), wk =   0.0058594
        k(   41) = (   0.3977476   0.1325825  -0.1325825), wk =   0.0058594
        k(   42) = (   0.4419417   0.1767767  -0.1767767), wk =   0.0058594
        k(   43) = (  -0.2209709  -0.4861359   0.4861359), wk =   0.0058594
        k(   44) = (  -0.1767767  -0.4419417   0.4419417), wk =   0.0058594
        k(   45) = (  -0.1325825  -0.3977476   0.3977476), wk =   0.0058594
        k(   46) = (  -0.0883883  -0.3535534   0.3535534), wk =   0.0058594
        k(   47) = (  -0.0441942  -0.3093592   0.3093592), wk =   0.0058594
        k(   48) = (   0.0000000  -0.2651650   0.2651650), wk =   0.0029297
        k(   49) = (   0.3535534   0.0000000   0.0000000), wk =   0.0014648
        k(   50) = (   0.3977476   0.0441942  -0.0441942), wk =   0.0058594
        k(   51) = (   0.4419417   0.0883883  -0.0883883), wk =   0.0058594
        k(   52) = (   0.4861359   0.1325825  -0.1325825), wk =   0.0058594
        k(   53) = (  -0.1767767  -0.5303301   0.5303301), wk =   0.0058594
        k(   54) = (  -0.1325825  -0.4861359   0.4861359), wk =   0.0058594
        k(   55) = (  -0.0883883  -0.4419417   0.4419417), wk =   0.0058594
        k(   56) = (  -0.0441942  -0.3977476   0.3977476), wk =   0.0058594
        k(   57) = (   0.0000000  -0.3535534   0.3535534), wk =   0.0029297
        k(   58) = (   0.4419417   0.0000000   0.0000000), wk =   0.0014648
        k(   59) = (   0.4861359   0.0441942  -0.0441942), wk =   0.0058594
        k(   60) = (   0.5303301   0.0883883  -0.0883883), wk =   0.0058594
        k(   61) = (  -0.1325825  -0.5745243   0.5745243), wk =   0.0058594
        k(   62) = (  -0.0883883  -0.5303301   0.5303301), wk =   0.0058594
        k(   63) = (  -0.0441942  -0.4861359   0.4861359), wk =   0.0058594
        k(   64) = (   0.0000000  -0.4419417   0.4419417), wk =   0.0029297
        k(   65) = (   0.5303301   0.0000000   0.0000000), wk =   0.0014648
        k(   66) = (   0.5745243   0.0441942  -0.0441942), wk =   0.0058594
        k(   67) = (  -0.0883883  -0.6187184   0.6187184), wk =   0.0058594
        k(   68) = (  -0.0441942  -0.5745243   0.5745243), wk =   0.0058594
        k(   69) = (   0.0000000  -0.5303301   0.5303301), wk =   0.0029297
        k(   70) = (   0.6187184   0.0000000   0.0000000), wk =   0.0014648
        k(   71) = (  -0.0441942  -0.6629126   0.6629126), wk =   0.0058594
        k(   72) = (   0.0000000  -0.6187184   0.6187184), wk =   0.0029297
        k(   73) = (  -0.7071068   0.0000000   0.0000000), wk =   0.0007324
        k(   74) = (   0.1767767   0.0883883   0.0000000), wk =   0.0058594
        k(   75) = (   0.2209709   0.1325825  -0.0441942), wk =   0.0117188
        k(   76) = (   0.2651650   0.1767767  -0.0883883), wk =   0.0117188
        k(   77) = (   0.3093592   0.2209709  -0.1325825), wk =   0.0117188
        k(   78) = (   0.3535534   0.2651650  -0.1767767), wk =   0.0117188
        k(   79) = (  -0.3093592  -0.3977476   0.4861359), wk =   0.0117188
        k(   80) = (  -0.2651650  -0.3535534   0.4419417), wk =   0.0058594
        k(   81) = (   0.2651650   0.0883883   0.0000000), wk =   0.0058594
        k(   82) = (   0.3093592   0.1325825  -0.0441942), wk =   0.0117188
        k(   83) = (   0.3535534   0.1767767  -0.0883883), wk =   0.0117188
        k(   84) = (   0.3977476   0.2209709  -0.1325825), wk =   0.0117188
        k(   85) = (  -0.2651650  -0.4419417   0.5303301), wk =   0.0117188
        k(   86) = (  -0.2209709  -0.3977476   0.4861359), wk =   0.0117188
        k(   87) = (  -0.1767767  -0.3535534   0.4419417), wk =   0.0117188
        k(   88) = (  -0.1325825  -0.3093592   0.3977476), wk =   0.0117188
        k(   89) = (  -0.0883883  -0.2651650   0.3535534), wk =   0.0117188
        k(   90) = (  -0.0441942  -0.2209709   0.3093592), wk =   0.0117188
        k(   91) = (   0.0000000  -0.1767767   0.2651650), wk =   0.0058594
        k(   92) = (   0.3535534   0.0883883   0.0000000), wk =   0.0058594
        k(   93) = (   0.3977476   0.1325825  -0.0441942), wk =   0.0117188
        k(   94) = (   0.4419417   0.1767767  -0.0883883), wk =   0.0117188
        k(   95) = (  -0.2209709  -0.4861359   0.5745243), wk =   0.0117188
        k(   96) = (  -0.1767767  -0.4419417   0.5303301), wk =   0.0117188
        k(   97) = (  -0.1325825  -0.3977476   0.4861359), wk =   0.0117188
        k(   98) = (  -0.0883883  -0.3535534   0.4419417), wk =   0.0117188
        k(   99) = (  -0.0441942  -0.3093592   0.3977476), wk =   0.0117188
        k(  100) = (   0.0000000  -0.2651650   0.3535534), wk =   0.0058594
        k(  101) = (   0.4419417   0.0883883   0.0000000), wk =   0.0058594
        k(  102) = (   0.4861359   0.1325825  -0.0441942), wk =   0.0117188
        k(  103) = (  -0.1767767  -0.5303301   0.6187184), wk =   0.0117188
        k(  104) = (  -0.1325825  -0.4861359   0.5745243), wk =   0.0117188
        k(  105) = (  -0.0883883  -0.4419417   0.5303301), wk =   0.0117188
        k(  106) = (  -0.0441942  -0.3977476   0.4861359), wk =   0.0117188
        k(  107) = (   0.0000000  -0.3535534   0.4419417), wk =   0.0058594
        k(  108) = (   0.5303301   0.0883883   0.0000000), wk =   0.0058594
        k(  109) = (  -0.1325825  -0.5745243   0.6629126), wk =   0.0117188
        k(  110) = (  -0.0883883  -0.5303301   0.6187184), wk =   0.0117188
        k(  111) = (  -0.0441942  -0.4861359   0.5745243), wk =   0.0117188
        k(  112) = (   0.0000000  -0.4419417   0.5303301), wk =   0.0058594
        k(  113) = (  -0.0883883  -0.6187184   0.7071068), wk =   0.0058594
        k(  114) = (  -0.0441942  -0.5745243   0.6629126), wk =   0.0117188
        k(  115) = (  -0.0000000  -0.5303301   0.6187184), wk =   0.0058594
        k(  116) = (  -0.7071068   0.0883883   0.0000000), wk =   0.0029297
        k(  117) = (   0.3535534   0.1767767   0.0000000), wk =   0.0058594
        k(  118) = (   0.3977476   0.2209709  -0.0441942), wk =   0.0117188
        k(  119) = (  -0.2651650  -0.4419417   0.6187184), wk =   0.0117188
        k(  120) = (  -0.2209709  -0.3977476   0.5745243), wk =   0.0117188
        k(  121) = (  -0.1767767  -0.3535534   0.5303301), wk =   0.0058594
        k(  122) = (   0.4419417   0.1767767   0.0000000), wk =   0.0058594
        k(  123) = (  -0.2209709  -0.4861359   0.6629126), wk =   0.0117188
        k(  124) = (  -0.1767767  -0.4419417   0.6187184), wk =   0.0117188
        k(  125) = (  -0.1325825  -0.3977476   0.5745243), wk =   0.0117188
        k(  126) = (  -0.0883883  -0.3535534   0.5303301), wk =   0.0117188
        k(  127) = (  -0.0441942  -0.3093592   0.4861359), wk =   0.0117188
        k(  128) = (   0.0000000  -0.2651650   0.4419417), wk =   0.0058594
        k(  129) = (  -0.1767767  -0.5303301   0.7071068), wk =   0.0058594
        k(  130) = (  -0.1325825  -0.4861359   0.6629126), wk =   0.0117188
        k(  131) = (  -0.0883883  -0.4419417   0.6187184), wk =   0.0117188
        k(  132) = (  -0.0441942  -0.3977476   0.5745243), wk =   0.0117188
        k(  133) = (   0.0000000  -0.3535534   0.5303301), wk =   0.0058594
        k(  134) = (  -0.0883883  -0.5303301   0.7071068), wk =   0.0058594
        k(  135) = (  -0.0441942  -0.4861359   0.6629126), wk =   0.0117188
        k(  136) = (   0.0000000  -0.4419417   0.6187184), wk =   0.0058594
        k(  137) = (  -0.7071068   0.1767767   0.0000000), wk =   0.0029297
        k(  138) = (  -0.1767767  -0.4419417   0.7071068), wk =   0.0058594
        k(  139) = (  -0.1325825  -0.3977476   0.6629126), wk =   0.0117188
        k(  140) = (  -0.0883883  -0.3535534   0.6187184), wk =   0.0058594
        k(  141) = (  -0.0883883  -0.4419417   0.7071068), wk =   0.0058594
        k(  142) = (  -0.0441942  -0.3977476   0.6629126), wk =   0.0117188
        k(  143) = (  -0.0000000  -0.3535534   0.6187184), wk =   0.0058594
        k(  144) = (  -0.7071068   0.2651650   0.0000000), wk =   0.0029297
        k(  145) = (  -0.7071068   0.3535534   0.0000000), wk =   0.0014648

                       cryst. coord.
        k(    1) = (   0.0000000   0.0000000   0.0000000), wk =   0.0002441
        k(    2) = (   0.0000000   0.0000000   0.0625000), wk =   0.0019531
        k(    3) = (   0.0000000   0.0000000   0.1250000), wk =   0.0019531
        k(    4) = (   0.0000000   0.0000000   0.1875000), wk =   0.0019531
        k(    5) = (   0.0000000   0.0000000   0.2500000), wk =   0.0019531
        k(    6) = (   0.0000000   0.0000000   0.3125000), wk =   0.0019531
        k(    7) = (   0.0000000   0.0000000   0.3750000), wk =   0.0019531
        k(    8) = (   0.0000000   0.0000000   0.4375000), wk =   0.0019531
        k(    9) = (   0.0000000   0.0000000  -0.5000000), wk =   0.0009766
        k(   10) = (   0.0000000   0.0625000   0.0625000), wk =   0.0014648
        k(   11) = (   0.0000000   0.0625000   0.1250000), wk =   0.0058594
        k(   12) = (   0.0000000   0.0625000   0.1875000), wk =   0.0058594
        k(   13) = (   0.0000000   0.0625000   0.2500000), wk =   0.0058594
        k(   14) = (   0.0000000   0.0625000   0.3125000), wk =   0.0058594
        k(   15) = (   0.0000000   0.0625000   0.3750000), wk =   0.0058594
        k(   16) = (   0.0000000   0.0625000   0.4375000), wk =   0.0058594
        k(   17) = (   0.0000000   0.0625000  -0.5000000), wk =   0.0058594
        k(   18) = (   0.0000000   0.0625000  -0.4375000), wk =   0.0058594
        k(   19) = (   0.0000000   0.0625000  -0.3750000), wk =   0.0058594
        k(   20) = (   0.0000000   0.0625000  -0.3125000), wk =   0.0058594
        k(   21) = (   0.0000000   0.0625000  -0.2500000), wk =   0.0058594
        k(   22) = (   0.0000000   0.0625000  -0.1875000), wk =   0.0058594
        k(   23) = (   0.0000000   0.0625000  -0.1250000), wk =   0.0058594
        k(   24) = (   0.0000000   0.0625000  -0.0625000), wk =   0.0029297
        k(   25) = (   0.0000000   0.1250000   0.1250000), wk =   0.0014648
        k(   26) = (   0.0000000   0.1250000   0.1875000), wk =   0.0058594
        k(   27) = (   0.0000000   0.1250000   0.2500000), wk =   0.0058594
        k(   28) = (   0.0000000   0.1250000   0.3125000), wk =   0.0058594
        k(   29) = (   0.0000000   0.1250000   0.3750000), wk =   0.0058594
        k(   30) = (   0.0000000   0.1250000   0.4375000), wk =   0.0058594
        k(   31) = (   0.0000000   0.1250000  -0.5000000), wk =   0.0058594
        k(   32) = (   0.0000000   0.1250000  -0.4375000), wk =   0.0058594
        k(   33) = (   0.0000000   0.1250000  -0.3750000), wk =   0.0058594
        k(   34) = (   0.0000000   0.1250000  -0.3125000), wk =   0.0058594
        k(   35) = (   0.0000000   0.1250000  -0.2500000), wk =   0.0058594
        k(   36) = (   0.0000000   0.1250000  -0.1875000), wk =   0.0058594
        k(   37) = (   0.0000000   0.1250000  -0.1250000), wk =   0.0029297
        k(   38) = (   0.0000000   0.1875000   0.1875000), wk =   0.0014648
        k(   39) = (   0.0000000   0.1875000   0.2500000), wk =   0.0058594
        k(   40) = (   0.0000000   0.1875000   0.3125000), wk =   0.0058594
        k(   41) = (   0.0000000   0.1875000   0.3750000), wk =   0.0058594
        k(   42) = (   0.0000000   0.1875000   0.4375000), wk =   0.0058594
        k(   43) = (   0.0000000   0.1875000  -0.5000000), wk =   0.0058594
        k(   44) = (   0.0000000   0.1875000  -0.4375000), wk =   0.0058594
        k(   45) = (   0.0000000   0.1875000  -0.3750000), wk =   0.0058594
        k(   46) = (   0.0000000   0.1875000  -0.3125000), wk =   0.0058594
        k(   47) = (   0.0000000   0.1875000  -0.2500000), wk =   0.0058594
        k(   48) = (   0.0000000   0.1875000  -0.1875000), wk =   0.0029297
        k(   49) = (   0.0000000   0.2500000   0.2500000), wk =   0.0014648
        k(   50) = (   0.0000000   0.2500000   0.3125000), wk =   0.0058594
        k(   51) = (   0.0000000   0.2500000   0.3750000), wk =   0.0058594
        k(   52) = (   0.0000000   0.2500000   0.4375000), wk =   0.0058594
        k(   53) = (   0.0000000   0.2500000  -0.5000000), wk =   0.0058594
        k(   54) = (   0.0000000   0.2500000  -0.4375000), wk =   0.0058594
        k(   55) = (   0.0000000   0.2500000  -0.3750000), wk =   0.0058594
        k(   56) = (   0.0000000   0.2500000  -0.3125000), wk =   0.0058594
        k(   57) = (   0.0000000   0.2500000  -0.2500000), wk =   0.0029297
        k(   58) = (   0.0000000   0.3125000   0.3125000), wk =   0.0014648
        k(   59) = (   0.0000000   0.3125000   0.3750000), wk =   0.0058594
        k(   60) = (   0.0000000   0.3125000   0.4375000), wk =   0.0058594
        k(   61) = (   0.0000000   0.3125000  -0.5000000), wk =   0.0058594
        k(   62) = (   0.0000000   0.3125000  -0.4375000), wk =   0.0058594
        k(   63) = (   0.0000000   0.3125000  -0.3750000), wk =   0.0058594
        k(   64) = (   0.0000000   0.3125000  -0.3125000), wk =   0.0029297
        k(   65) = (   0.0000000   0.3750000   0.3750000), wk =   0.0014648
        k(   66) = (   0.0000000   0.3750000   0.4375000), wk =   0.0058594
        k(   67) = (   0.0000000   0.3750000  -0.5000000), wk =   0.0058594
        k(   68) = (   0.0000000   0.3750000  -0.4375000), wk =   0.0058594
        k(   69) = (   0.0000000   0.3750000  -0.3750000), wk =   0.0029297
        k(   70) = (   0.0000000   0.4375000   0.4375000), wk =   0.0014648
        k(   71) = (   0.0000000   0.4375000  -0.5000000), wk =   0.0058594
        k(   72) = (   0.0000000   0.4375000  -0.4375000), wk =   0.0029297
        k(   73) = (   0.0000000  -0.5000000  -0.5000000), wk =   0.0007324
        k(   74) = (   0.0625000   0.1250000   0.1875000), wk =   0.0058594
        k(   75) = (   0.0625000   0.1250000   0.2500000), wk =   0.0117188
        k(   76) = (   0.0625000   0.1250000   0.3125000), wk =   0.0117188
        k(   77) = (   0.0625000   0.1250000   0.3750000), wk =   0.0117188
        k(   78) = (   0.0625000   0.1250000   0.4375000), wk =   0.0117188
        k(   79) = (   0.0625000   0.1250000  -0.5000000), wk =   0.0117188
        k(   80) = (   0.0625000   0.1250000  -0.4375000), wk =   0.0058594
        k(   81) = (   0.0625000   0.1875000   0.2500000), wk =   0.0058594
        k(   82) = (   0.0625000   0.1875000   0.3125000), wk =   0.0117188
        k(   83) = (   0.0625000   0.1875000   0.3750000), wk =   0.0117188
        k(   84) = (   0.0625000   0.1875000   0.4375000), wk =   0.0117188
        k(   85) = (   0.0625000   0.1875000  -0.5000000), wk =   0.0117188
        k(   86) = (   0.0625000   0.1875000  -0.4375000), wk =   0.0117188
        k(   87) = (   0.0625000   0.1875000  -0.3750000), wk =   0.0117188
        k(   88) = (   0.0625000   0.1875000  -0.3125000), wk =   0.0117188
        k(   89) = (   0.0625000   0.1875000  -0.2500000), wk =   0.0117188
        k(   90) = (   0.0625000   0.1875000  -0.1875000), wk =   0.0117188
        k(   91) = (   0.0625000   0.1875000  -0.1250000), wk =   0.0058594
        k(   92) = (   0.0625000   0.2500000   0.3125000), wk =   0.0058594
        k(   93) = (   0.0625000   0.2500000   0.3750000), wk =   0.0117188
        k(   94) = (   0.0625000   0.2500000   0.4375000), wk =   0.0117188
        k(   95) = (   0.0625000   0.2500000  -0.5000000), wk =   0.0117188
        k(   96) = (   0.0625000   0.2500000  -0.4375000), wk =   0.0117188
        k(   97) = (   0.0625000   0.2500000  -0.3750000), wk =   0.0117188
        k(   98) = (   0.0625000   0.2500000  -0.3125000), wk =   0.0117188
        k(   99) = (   0.0625000   0.2500000  -0.2500000), wk =   0.0117188
        k(  100) = (   0.0625000   0.2500000  -0.1875000), wk =   0.0058594
        k(  101) = (   0.0625000   0.3125000   0.3750000), wk =   0.0058594
        k(  102) = (   0.0625000   0.3125000   0.4375000), wk =   0.0117188
        k(  103) = (   0.0625000   0.3125000  -0.5000000), wk =   0.0117188
        k(  104) = (   0.0625000   0.3125000  -0.4375000), wk =   0.0117188
        k(  105) = (   0.0625000   0.3125000  -0.3750000), wk =   0.0117188
        k(  106) = (   0.0625000   0.3125000  -0.3125000), wk =   0.0117188
        k(  107) = (   0.0625000   0.3125000  -0.2500000), wk =   0.0058594
        k(  108) = (   0.0625000   0.3750000   0.4375000), wk =   0.0058594
        k(  109) = (   0.0625000   0.3750000  -0.5000000), wk =   0.0117188
        k(  110) = (   0.0625000   0.3750000  -0.4375000), wk =   0.0117188
        k(  111) = (   0.0625000   0.3750000  -0.3750000), wk =   0.0117188
        k(  112) = (   0.0625000   0.3750000  -0.3125000), wk =   0.0058594
        k(  113) = (   0.0625000   0.4375000  -0.5000000), wk =   0.0058594
        k(  114) = (   0.0625000   0.4375000  -0.4375000), wk =   0.0117188
        k(  115) = (   0.0625000   0.4375000  -0.3750000), wk =   0.0058594
        k(  116) = (   0.0625000  -0.5000000  -0.4375000), wk =   0.0029297
        k(  117) = (   0.1250000   0.2500000   0.3750000), wk =   0.0058594
        k(  118) = (   0.1250000   0.2500000   0.4375000), wk =   0.0117188
        k(  119) = (   0.1250000   0.2500000  -0.5000000), wk =   0.0117188
        k(  120) = (   0.1250000   0.2500000  -0.4375000), wk =   0.0117188
        k(  121) = (   0.1250000   0.2500000  -0.3750000), wk =   0.0058594
        k(  122) = (   0.1250000   0.3125000   0.4375000), wk =   0.0058594
        k(  123) = (   0.1250000   0.3125000  -0.5000000), wk =   0.0117188
        k(  124) = (   0.1250000   0.3125000  -0.4375000), wk =   0.0117188
        k(  125) = (   0.1250000   0.3125000  -0.3750000), wk =   0.0117188
        k(  126) = (   0.1250000   0.3125000  -0.3125000), wk =   0.0117188
        k(  127) = (   0.1250000   0.3125000  -0.2500000), wk =   0.0117188
        k(  128) = (   0.1250000   0.3125000  -0.1875000), wk =   0.0058594
        k(  129) = (   0.1250000   0.3750000  -0.5000000), wk =   0.0058594
        k(  130) = (   0.1250000   0.3750000  -0.4375000), wk =   0.0117188
        k(  131) = (   0.1250000   0.3750000  -0.3750000), wk =   0.0117188
        k(  132) = (   0.1250000   0.3750000  -0.3125000), wk =   0.0117188
        k(  133) = (   0.1250000   0.3750000  -0.2500000), wk =   0.0058594
        k(  134) = (   0.1250000   0.4375000  -0.4375000), wk =   0.0058594
        k(  135) = (   0.1250000   0.4375000  -0.3750000), wk =   0.0117188
        k(  136) = (   0.1250000   0.4375000  -0.3125000), wk =   0.0058594
        k(  137) = (   0.1250000  -0.5000000  -0.3750000), wk =   0.0029297
        k(  138) = (   0.1875000   0.3750000  -0.4375000), wk =   0.0058594
        k(  139) = (   0.1875000   0.3750000  -0.3750000), wk =   0.0117188
        k(  140) = (   0.1875000   0.3750000  -0.3125000), wk =   0.0058594
        k(  141) = (   0.1875000   0.4375000  -0.3750000), wk =   0.0058594
        k(  142) = (   0.1875000   0.4375000  -0.3125000), wk =   0.0117188
        k(  143) = (   0.1875000   0.4375000  -0.2500000), wk =   0.0058594
        k(  144) = (   0.1875000  -0.5000000  -0.3125000), wk =   0.0029297
        k(  145) = (   0.2500000  -0.5000000  -0.2500000), wk =   0.0014648

     Dense  grid:    31283 G-vectors     FFT dimensions: (  45,  45,  45)

     Largest allocated arrays     est. size (Mb)     dimensions
        Kohn-Sham Wavefunctions         0.28 Mb     (     518,   36)
        NL pseudopotentials             0.14 Mb     (     259,   36)
        Each V/rho on FFT grid          0.09 Mb     (    6075)
        Each G-vector array             0.01 Mb     (    1958)
        G-vector shells                 0.00 Mb     (     301)
     Largest temporary arrays     est. size (Mb)     dimensions
        Auxiliary wavefunctions         1.14 Mb     (     518,  144)
        Each subspace H/S matrix        0.32 Mb     (     144,  144)
        Each <psi_i|beta_j> matrix      0.04 Mb     (      36,   2,   36)
        Arrays for rho mixing           0.74 Mb     (    6075,    8)

     Check: negative/imaginary core charge=   -0.000001    0.000000

     Initial potential from superposition of free atoms

     starting charge   27.99723, renormalised to   28.00000
     Starting wfc are   36 randomized atomic wfcs
     Checking if some PAW data can be deallocated... 

     total cpu time spent up to now is       11.0 secs

     Self-consistent Calculation

     iteration #  1     ecut=    60.00 Ry     beta=0.70
     Davidson diagonalization with overlap
     ethr =  1.00E-02,  avg # of iterations =  3.4

     Threshold (ethr) on eigenvalues was too large:
     Diagonalizing with lowered threshold

     Davidson diagonalization with overlap
     ethr =  6.62E-05,  avg # of iterations =  3.3

     total cpu time spent up to now is       80.8 secs

     total energy              =    -884.11199919 Ry
     Harris-Foulkes estimate   =    -884.11533831 Ry
     estimated scf accuracy    <       0.02239178 Ry

     iteration #  2     ecut=    60.00 Ry     beta=0.70
     Davidson diagonalization with overlap
     ethr =  8.00E-05,  avg # of iterations =  1.0

     total cpu time spent up to now is      108.6 secs

     total energy              =    -884.11289668 Ry
     Harris-Foulkes estimate   =    -884.11296799 Ry
     estimated scf accuracy    <       0.00161927 Ry

     iteration #  3     ecut=    60.00 Ry     beta=0.70
     Davidson diagonalization with overlap
     ethr =  5.78E-06,  avg # of iterations =  2.5

     total cpu time spent up to now is      146.9 secs

     total energy              =    -884.11316803 Ry
     Harris-Foulkes estimate   =    -884.11320189 Ry
     estimated scf accuracy    <       0.00007480 Ry

     iteration #  4     ecut=    60.00 Ry     beta=0.70
     Davidson diagonalization with overlap
     ethr =  2.67E-07,  avg # of iterations =  2.0

     total cpu time spent up to now is      184.0 secs

     total energy              =    -884.11319098 Ry
     Harris-Foulkes estimate   =    -884.11318898 Ry
     estimated scf accuracy    <       0.00000458 Ry

     iteration #  5     ecut=    60.00 Ry     beta=0.70
     Davidson diagonalization with overlap
     ethr =  1.64E-08,  avg # of iterations =  2.0

     total cpu time spent up to now is      215.5 secs

     End of self-consistent calculation

          k = 0.0000 0.0000 0.0000 (  3839 PWs)   bands (ev):

   -14.6566 -14.6566 -14.6566 -14.6566 -14.6566 -14.6566 -14.6098 -14.6098
   -14.6098 -14.6098 -14.3605 -14.3605 -14.3605 -14.3605 -14.3598 -14.3598
   -14.3598 -14.3598 -14.3598 -14.3598  -3.1842  -3.1842   5.7028   5.7028
     6.9839   6.9839   6.9839   6.9839   6.9839   6.9839   9.0491   9.0491
     9.0491   9.0491   9.0491   9.0491

     occupation numbers 
     1.0000   1.0000   1.0000   1.0000   1.0000   1.0000   1.0000   1.0000
     1.0000   1.0000   1.0000   1.0000   1.0000   1.0000   1.0000   1.0000
     1.0000   1.0000   1.0000   1.0000   1.0000   1.0000   1.0000   1.0000
     0.0000   0.0000   0.0000   0.0000   0.0000   0.0000   0.0000   0.0000
     0.0000   0.0000   0.0000   0.0000

          k = 0.0442 0.0442-0.0442 (  3879 PWs)   bands (ev):

   -14.6595 -14.6595 -14.6595 -14.6595 -14.6561 -14.6561 -14.6066 -14.6066
   -14.6066 -14.6066 -14.3712 -14.3712 -14.3712 -14.3712 -14.3616 -14.3616
   -14.3503 -14.3503 -14.3503 -14.3503  -3.1495  -3.1495   5.3082   5.3082
     6.9115   6.9115   6.9115   6.9115   7.1659   7.1659   9.1439   9.1439
     9.1439   9.1439   9.1786   9.1786

     occupation numbers 
     1.0000   1.0000   1.0000   1.0000   1.0000   1.0000   1.0000   1.0000
     1.0000   1.0000   1.0000   1.0000   1.0000   1.0000   1.0000   1.0000
     1.0000   1.0000   1.0000   1.0000   1.0000   1.0000   1.0000   1.0000
     0.0229   0.0229   0.0229   0.0229   0.0000   0.0000   0.0000   0.0000
     0.0000   0.0000   0.0000   0.0000

          k = 0.0884 0.0884-0.0884 (  3888 PWs)   bands (ev):

   -14.6656 -14.6656 -14.6656 -14.6656 -14.6539 -14.6539 -14.5982 -14.5982
   -14.5982 -14.5982 -14.3820 -14.3820 -14.3820 -14.3820 -14.3640 -14.3640
   -14.3414 -14.3414 -14.3414 -14.3414  -3.0460  -3.0460   4.5478   4.5478
     6.7341   6.7341   6.7341   6.7341   7.2961   7.2961   9.3779   9.3779
     9.3779   9.3779   9.6116   9.6116

     occupation numbers 
     1.0000   1.0000   1.0000   1.0000   1.0000   1.0000   1.0000   1.0000
     1.0000   1.0000   1.0000   1.0000   1.0000   1.0000   1.0000   1.0000
     1.0000   1.0000   1.0000   1.0000   1.0000   1.0000   1.0000   1.0000
     1.0000   1.0000   1.0000   1.0000   0.0000   0.0000   0.0000   0.0000
     0.0000   0.0000   0.0000   0.0000

          k = 0.1326 0.1326-0.1326 (  3900 PWs)   bands (ev):

   -14.6722 -14.6722 -14.6722 -14.6722 -14.6508 -14.6508 -14.5879 -14.5879
   -14.5879 -14.5879 -14.3920 -14.3920 -14.3920 -14.3920 -14.3688 -14.3688
   -14.3338 -14.3338 -14.3338 -14.3338  -2.8768  -2.8768   3.7185   3.7185
     6.5195   6.5195   6.5195   6.5195   7.2335   7.2335   9.6533   9.6533
     9.6533   9.6533  10.2923  10.2923

     occupation numbers 
     1.0000   1.0000   1.0000   1.0000   1.0000   1.0000   1.0000   1.0000
     1.0000   1.0000   1.0000   1.0000   1.0000   1.0000   1.0000   1.0000
     1.0000   1.0000   1.0000   1.0000   1.0000   1.0000   1.0000   1.0000
     1.0000   1.0000   1.0000   1.0000   0.0000   0.0000   0.0000   0.0000
     0.0000   0.0000   0.0000   0.0000

          k = 0.1768 0.1768-0.1768 (  3912 PWs)   bands (ev):

   -14.6778 -14.6778 -14.6778 -14.6778 -14.6466 -14.6466 -14.5786 -14.5786
   -14.5786 -14.5786 -14.4004 -14.4004 -14.4004 -14.4004 -14.3741 -14.3741
   -14.3278 -14.3278 -14.3278 -14.3278  -2.6482  -2.6482   2.9072   2.9072
     6.3128   6.3128   6.3128   6.3128   7.0942   7.0942   9.8840   9.8840
     9.8840   9.8840  11.1014  11.1015

     occupation numbers 
     1.0000   1.0000   1.0000   1.0000   1.0000   1.0000   1.0000   1.0000
     1.0000   1.0000   1.0000   1.0000   1.0000   1.0000   1.0000   1.0000
     1.0000   1.0000   1.0000   1.0000   1.0000   1.0000   1.0000   1.0000
     1.0000   1.0000   1.0000   1.0000   0.0000   0.0000   0.0000   0.0000
     0.0000   0.0000   0.0000   0.0000

          k = 0.2210 0.2210-0.2210 (  3897 PWs)   bands (ev):

   -14.6822 -14.6822 -14.6822 -14.6822 -14.6418 -14.6418 -14.5706 -14.5706
   -14.5706 -14.5706 -14.4070 -14.4070 -14.4070 -14.4070 -14.3787 -14.3787
   -14.3232 -14.3232 -14.3232 -14.3232  -2.3733  -2.3733   2.1594   2.1594
     6.1381   6.1381   6.1381   6.1381   6.9528   6.9528  10.0241  10.0241
    10.0241  10.0241  11.9663  11.9663

     occupation numbers 
     1.0000   1.0000   1.0000   1.0000   1.0000   1.0000   1.0000   1.0000
     1.0000   1.0000   1.0000   1.0000   1.0000   1.0000   1.0000   1.0000
     1.0000   1.0000   1.0000   1.0000   1.0000   1.0000   1.0000   1.0000
     1.0000   1.0000   1.0000   1.0000   0.0000   0.0000   0.0000   0.0000
     0.0000   0.0000   0.0000   0.0000

          k = 0.2652 0.2652-0.2652 (  3903 PWs)   bands (ev):

   -14.6849 -14.6849 -14.6849 -14.6849 -14.6381 -14.6381 -14.5653 -14.5653
   -14.5653 -14.5653 -14.4113 -14.4113 -14.4113 -14.4113 -14.3833 -14.3833
   -14.3202 -14.3202 -14.3202 -14.3202  -2.0801  -2.0801   1.5197   1.5197
     6.0074   6.0074   6.0074   6.0074   6.8403   6.8403  10.0815  10.0815
    10.0815  10.0815  12.6312  12.6312

     occupation numbers 
     1.0000   1.0000   1.0000   1.0000   1.0000   1.0000   1.0000   1.0000
     1.0000   1.0000   1.0000   1.0000   1.0000   1.0000   1.0000   1.0000
     1.0000   1.0000   1.0000   1.0000   1.0000   1.0000   1.0000   1.0000
     1.0000   1.0000   1.0000   1.0000   1.0000   1.0000   0.0000   0.0000
     0.0000   0.0000   0.0000   0.0000

          k = 0.3094 0.3094-0.3094 (  3903 PWs)   bands (ev):

   -14.6864 -14.6864 -14.6864 -14.6864 -14.6355 -14.6355 -14.5621 -14.5621
   -14.5621 -14.5621 -14.4136 -14.4136 -14.4136 -14.4136 -14.3866 -14.3866
   -14.3186 -14.3186 -14.3186 -14.3186  -1.8288  -1.8288   1.0574   1.0574
     5.9270   5.9270   5.9270   5.9270   6.7696   6.7696  10.0942  10.0942
    10.0942  10.0942  12.6585  12.6585

     occupation numbers 
     1.0000   1.0000   1.0000   1.0000   1.0000   1.0000   1.0000   1.0000
     1.0000   1.0000   1.0000   1.0000   1.0000   1.0000   1.0000   1.0000
     1.0000   1.0000   1.0000   1.0000   1.0000   1.0000   1.0000   1.0000
     1.0000   1.0000   1.0000   1.0000   1.0000   1.0000   0.0000   0.0000
     0.0000   0.0000   0.0000   0.0000

          k =-0.3536-0.3536 0.3536 (  3906 PWs)   bands (ev):

   -14.6871 -14.6871 -14.6871 -14.6871 -14.6345 -14.6345 -14.5608 -14.5608
   -14.5608 -14.5608 -14.4147 -14.4147 -14.4147 -14.4147 -14.3880 -14.3880
   -14.3178 -14.3178 -14.3178 -14.3178  -1.7225  -1.7225   0.8803   0.8803
     5.8999   5.8999   5.8999   5.8999   6.7456   6.7456  10.0945  10.0945
    10.0945  10.0945  12.6337  12.6337

     occupation numbers 
     1.0000   1.0000   1.0000   1.0000   1.0000   1.0000   1.0000   1.0000
     1.0000   1.0000   1.0000   1.0000   1.0000   1.0000   1.0000   1.0000
     1.0000   1.0000   1.0000   1.0000   1.0000   1.0000   1.0000   1.0000
     1.0000   1.0000   1.0000   1.0000   1.0000   1.0000   0.0000   0.0000
     0.0000   0.0000   0.0000   0.0000

          k = 0.0884 0.0000 0.0000 (  3883 PWs)   bands (ev):

   -14.6591 -14.6591 -14.6589 -14.6589 -14.6589 -14.6589 -14.6075 -14.6075
   -14.6030 -14.6030 -14.3803 -14.3803 -14.3630 -14.3630 -14.3581 -14.3581
   -14.3581 -14.3581 -14.3462 -14.3462  -3.1378  -3.1378   5.2282   5.2282
     6.7789   6.7789   6.7789   6.7789   7.4393   7.4393   8.9048   8.9048
     9.3136   9.3136   9.3136   9.3136

     occupation numbers 
     1.0000   1.0000   1.0000   1.0000   1.0000   1.0000   1.0000   1.0000
     1.0000   1.0000   1.0000   1.0000   1.0000   1.0000   1.0000   1.0000
     1.0000   1.0000   1.0000   1.0000   1.0000   1.0000   1.0000   1.0000
     1.0000   1.0000   1.0000   1.0000   0.0000   0.0000   0.0000   0.0000
     0.0000   0.0000   0.0000   0.0000

          k = 0.1326 0.0442-0.0442 (  3896 PWs)   bands (ev):

   -14.6654 -14.6654 -14.6628 -14.6628 -14.6568 -14.6568 -14.6025 -14.6025
   -14.5944 -14.5944 -14.3918 -14.3918 -14.3720 -14.3720 -14.3583 -14.3583
   -14.3497 -14.3497 -14.3395 -14.3395  -3.0571  -3.0571   4.6644   4.6644
     6.5711   6.5711   6.6024   6.6024   7.6921   7.6921   8.9040   8.9040
     9.5964   9.5964   9.6704   9.6704

     occupation numbers 
     1.0000   1.0000   1.0000   1.0000   1.0000   1.0000   1.0000   1.0000
     1.0000   1.0000   1.0000   1.0000   1.0000   1.0000   1.0000   1.0000
     1.0000   1.0000   1.0000   1.0000   1.0000   1.0000   1.0000   1.0000
     1.0000   1.0000   1.0000   1.0000   0.0000   0.0000   0.0000   0.0000
     0.0000   0.0000   0.0000   0.0000

          k = 0.1768 0.0884-0.0884 (  3893 PWs)   bands (ev):

   -14.6728 -14.6728 -14.6689 -14.6689 -14.6531 -14.6531 -14.5937 -14.5937
   -14.5834 -14.5834 -14.4025 -14.4025 -14.3823 -14.3823 -14.3621 -14.3621
   -14.3408 -14.3408 -14.3316 -14.3316  -2.9094  -2.9094   3.9110   3.9110
     6.3489   6.3489   6.3853   6.3853   7.7108   7.7108   9.1308   9.1308
     9.9021   9.9021  10.2226  10.2226

     occupation numbers 
     1.0000   1.0000   1.0000   1.0000   1.0000   1.0000   1.0000   1.0000
     1.0000   1.0000   1.0000   1.0000   1.0000   1.0000   1.0000   1.0000
     1.0000   1.0000   1.0000   1.0000   1.0000   1.0000   1.0000   1.0000
     1.0000   1.0000   1.0000   1.0000   0.0000   0.0000   0.0000   0.0000
     0.0000   0.0000   0.0000   0.0000

          k = 0.2210 0.1326-0.1326 (  3920 PWs)   bands (ev):

   -14.6797 -14.6797 -14.6750 -14.6750 -14.6481 -14.6481 -14.5843 -14.5843
   -14.5734 -14.5734 -14.4117 -14.4117 -14.3918 -14.3918 -14.3688 -14.3688
   -14.3336 -14.3336 -14.3249 -14.3249  -2.6996  -2.6996   3.1231   3.1231
     6.1450   6.1450   6.1487   6.1487   7.5965   7.5965   9.4430   9.4430
    10.1498  10.1498  10.8682  10.8682

     occupation numbers 
     1.0000   1.0000   1.0000   1.0000   1.0000   1.0000   1.0000   1.0000
     1.0000   1.0000   1.0000   1.0000   1.0000   1.0000   1.0000   1.0000
     1.0000   1.0000   1.0000   1.0000   1.0000   1.0000   1.0000   1.0000
     1.0000   1.0000   1.0000   1.0000   0.0000   0.0000   0.0000   0.0000
     0.0000   0.0000   0.0000   0.0000

          k = 0.2652 0.1768-0.1768 (  3914 PWs)   bands (ev):

   -14.6850 -14.6850 -14.6798 -14.6798 -14.6419 -14.6419 -14.5758 -14.5758
   -14.5652 -14.5652 -14.4181 -14.4181 -14.3999 -14.3999 -14.3755 -14.3755
   -14.3275 -14.3275 -14.3195 -14.3195  -2.4380  -2.4380   2.3697   2.3697
     5.9198   5.9198   5.9895   5.9895   7.4515   7.4515   9.7036   9.7036
    10.2884  10.2884  11.5476  11.5476

     occupation numbers 
     1.0000   1.0000   1.0000   1.0000   1.0000   1.0000   1.0000   1.0000
     1.0000   1.0000   1.0000   1.0000   1.0000   1.0000   1.0000   1.0000
     1.0000   1.0000   1.0000   1.0000   1.0000   1.0000   1.0000   1.0000
     1.0000   1.0000   1.0000   1.0000   0.0000   0.0000   0.0000   0.0000
     0.0000   0.0000   0.0000   0.0000

          k = 0.3094 0.2210-0.2210 (  3910 PWs)   bands (ev):

   -14.6888 -14.6888 -14.6835 -14.6835 -14.6361 -14.6361 -14.5684 -14.5684
   -14.5599 -14.5599 -14.4213 -14.4213 -14.4066 -14.4066 -14.3825 -14.3825
   -14.3229 -14.3229 -14.3158 -14.3158  -2.1460  -2.1460   1.6996   1.6996
     5.7315   5.7315   5.8811   5.8811   7.3223   7.3223   9.8632   9.8632
    10.3206  10.3206  12.2172  12.2172

     occupation numbers 
     1.0000   1.0000   1.0000   1.0000   1.0000   1.0000   1.0000   1.0000
     1.0000   1.0000   1.0000   1.0000   1.0000   1.0000   1.0000   1.0000
     1.0000   1.0000   1.0000   1.0000   1.0000   1.0000   1.0000   1.0000
     1.0000   1.0000   1.0000   1.0000   0.0000   0.0000   0.0000   0.0000
     0.0000   0.0000   0.0000   0.0000

          k = 0.3536 0.2652-0.2652 (  3909 PWs)   bands (ev):

   -14.6909 -14.6909 -14.6859 -14.6859 -14.6318 -14.6318 -14.5629 -14.5629
   -14.5577 -14.5577 -14.4211 -14.4211 -14.4121 -14.4121 -14.3886 -14.3886
   -14.3194 -14.3194 -14.3137 -14.3137  -1.8705  -1.8705   1.1738   1.1738
     5.5911   5.5911   5.8281   5.8281   7.2280   7.2280   9.9504   9.9504
    10.2876  10.2876  12.6516  12.6516

     occupation numbers 
     1.0000   1.0000   1.0000   1.0000   1.0000   1.0000   1.0000   1.0000
     1.0000   1.0000   1.0000   1.0000   1.0000   1.0000   1.0000   1.0000
     1.0000   1.0000   1.0000   1.0000   1.0000   1.0000   1.0000   1.0000
     1.0000   1.0000   1.0000   1.0000   0.0000   0.0000   0.0000   0.0000
     0.0000   0.0000   0.0000   0.0000

          k =-0.3094-0.3977 0.3977 (  3918 PWs)   bands (ev):

   -14.6914 -14.6914 -14.6877 -14.6877 -14.6294 -14.6294 -14.5593 -14.5593
   -14.5585 -14.5585 -14.4184 -14.4184 -14.4162 -14.4162 -14.3925 -14.3925
   -14.3173 -14.3173 -14.3134 -14.3134  -1.7028  -1.7028   0.8911   0.8911
     5.5044   5.5044   5.8317   5.8317   7.1772   7.1772  10.0114  10.0114
    10.2300  10.2300  12.7465  12.7465

     occupation numbers 
     1.0000   1.0000   1.0000   1.0000   1.0000   1.0000   1.0000   1.0000
     1.0000   1.0000   1.0000   1.0000   1.0000   1.0000   1.0000   1.0000
     1.0000   1.0000   1.0000   1.0000   1.0000   1.0000   1.0000   1.0000
     1.0000   1.0000   1.0000   1.0000   0.0000   0.0000   0.0000   0.0000
     0.0000   0.0000   0.0000   0.0000

          k =-0.2652-0.3536 0.3536 (  3919 PWs)   bands (ev):

   -14.6906 -14.6906 -14.6883 -14.6883 -14.6295 -14.6295 -14.5611 -14.5611
   -14.5573 -14.5573 -14.4190 -14.4190 -14.4147 -14.4147 -14.3928 -14.3928
   -14.3164 -14.3164 -14.3147 -14.3147  -1.7397  -1.7397   0.9514   0.9514
     5.4751   5.4751   5.8911   5.8911   7.1729   7.1729  10.0712  10.0712
    10.1677  10.1677  12.7592  12.7592

     occupation numbers 
     1.0000   1.0000   1.0000   1.0000   1.0000   1.0000   1.0000   1.0000
     1.0000   1.0000   1.0000   1.0000   1.0000   1.0000   1.0000   1.0000
     1.0000   1.0000   1.0000   1.0000   1.0000   1.0000   1.0000   1.0000
     1.0000   1.0000   1.0000   1.0000   0.0000   0.0000   0.0000   0.0000
     0.0000   0.0000   0.0000   0.0000

          k =-0.2210-0.3094 0.3094 (  3913 PWs)   bands (ev):

   -14.6883 -14.6883 -14.6878 -14.6878 -14.6321 -14.6321 -14.5654 -14.5654
   -14.5581 -14.5581 -14.4195 -14.4195 -14.4105 -14.4105 -14.3892 -14.3892
   -14.3176 -14.3176 -14.3164 -14.3164  -1.9565  -1.9565   1.3290   1.3290
     5.5056   5.5056   6.0031   6.0031   7.2145   7.2145  10.0968  10.0968
    10.1267  10.1267  12.6437  12.6437

     occupation numbers 
     1.0000   1.0000   1.0000   1.0000   1.0000   1.0000   1.0000   1.0000
     1.0000   1.0000   1.0000   1.0000   1.0000   1.0000   1.0000   1.0000
     1.0000   1.0000   1.0000   1.0000   1.0000   1.0000   1.0000   1.0000
     1.0000   1.0000   1.0000   1.0000   0.0000   0.0000   0.0000   0.0000
     0.0000   0.0000   0.0000   0.0000

          k =-0.1768-0.2652 0.2652 (  3918 PWs)   bands (ev):

   -14.6861 -14.6861 -14.6849 -14.6849 -14.6367 -14.6367 -14.5713 -14.5713
   -14.5618 -14.5618 -14.4173 -14.4173 -14.4062 -14.4062 -14.3827 -14.3827
   -14.3222 -14.3222 -14.3180 -14.3180  -2.2452  -2.2452   1.9116   1.9116
     5.5973   5.5973   6.1620   6.1620   7.2976   7.2976   9.9930   9.9930
    10.1439  10.1439  12.0707  12.0707

     occupation numbers 
     1.0000   1.0000   1.0000   1.0000   1.0000   1.0000   1.0000   1.0000
     1.0000   1.0000   1.0000   1.0000   1.0000   1.0000   1.0000   1.0000
     1.0000   1.0000   1.0000   1.0000   1.0000   1.0000   1.0000   1.0000
     1.0000   1.0000   1.0000   1.0000   0.0000   0.0000   0.0000   0.0000
     0.0000   0.0000   0.0000   0.0000

          k =-0.1326-0.2210 0.2210 (  3918 PWs)   bands (ev):

   -14.6827 -14.6827 -14.6799 -14.6799 -14.6427 -14.6427 -14.5783 -14.5783
   -14.5688 -14.5688 -14.4121 -14.4121 -14.4006 -14.4006 -14.3748 -14.3748
   -14.3284 -14.3284 -14.3214 -14.3214  -2.5305  -2.5305   2.6140   2.6140
     5.7506   5.7506   6.3579   6.3579   7.4101   7.4101   9.8252   9.8252
    10.0556  10.0556  11.3403  11.3403

     occupation numbers 
     1.0000   1.0000   1.0000   1.0000   1.0000   1.0000   1.0000   1.0000
     1.0000   1.0000   1.0000   1.0000   1.0000   1.0000   1.0000   1.0000
     1.0000   1.0000   1.0000   1.0000   1.0000   1.0000   1.0000   1.0000
     1.0000   1.0000   1.0000   1.0000   0.0000   0.0000   0.0000   0.0000
     0.0000   0.0000   0.0000   0.0000

          k =-0.0884-0.1768 0.1768 (  3922 PWs)   bands (ev):

   -14.6777 -14.6777 -14.6737 -14.6737 -14.6486 -14.6486 -14.5869 -14.5869
   -14.5783 -14.5783 -14.4041 -14.4041 -14.3935 -14.3935 -14.3671 -14.3671
   -14.3361 -14.3361 -14.3263 -14.3263  -2.7763  -2.7763   3.3815   3.3815
     5.9653   5.9653   6.5732   6.5732   7.5227   7.5227   9.5893   9.5893
     9.8000   9.8000  10.6849  10.6849

     occupation numbers 
     1.0000   1.0000   1.0000   1.0000   1.0000   1.0000   1.0000   1.0000
     1.0000   1.0000   1.0000   1.0000   1.0000   1.0000   1.0000   1.0000
     1.0000   1.0000   1.0000   1.0000   1.0000   1.0000   1.0000   1.0000
     1.0000   1.0000   1.0000   1.0000   0.0000   0.0000   0.0000   0.0000
     0.0000   0.0000   0.0000   0.0000

          k =-0.0442-0.1326 0.1326 (  3902 PWs)   bands (ev):

   -14.6713 -14.6713 -14.6668 -14.6668 -14.6532 -14.6532 -14.5959 -14.5959
   -14.5891 -14.5891 -14.3940 -14.3940 -14.3849 -14.3849 -14.3597 -14.3597
   -14.3449 -14.3449 -14.3329 -14.3329  -2.9661  -2.9661   4.1603   4.1603
     6.2405   6.2405   6.7754   6.7754   7.5660   7.5660   9.3353   9.3353
     9.4439   9.4439  10.1127  10.1127

     occupation numbers 
     1.0000   1.0000   1.0000   1.0000   1.0000   1.0000   1.0000   1.0000
     1.0000   1.0000   1.0000   1.0000   1.0000   1.0000   1.0000   1.0000
     1.0000   1.0000   1.0000   1.0000   1.0000   1.0000   1.0000   1.0000
     1.0000   1.0000   1.0000   1.0000   0.0000   0.0000   0.0000   0.0000
     0.0000   0.0000   0.0000   0.0000

          k = 0.0000-0.0884 0.0884 (  3893 PWs)   bands (ev):

   -14.6646 -14.6646 -14.6607 -14.6607 -14.6562 -14.6562 -14.6034 -14.6034
   -14.5996 -14.5996 -14.3826 -14.3826 -14.3759 -14.3759 -14.3554 -14.3554
   -14.3539 -14.3539 -14.3410 -14.3410  -3.0917  -3.0917   4.8630   4.8630
     6.5752   6.5752   6.9087   6.9087   7.4261   7.4261   9.1564   9.1564
     9.1961   9.1961   9.5902   9.5902

     occupation numbers 
     1.0000   1.0000   1.0000   1.0000   1.0000   1.0000   1.0000   1.0000
     1.0000   1.0000   1.0000   1.0000   1.0000   1.0000   1.0000   1.0000
     1.0000   1.0000   1.0000   1.0000   1.0000   1.0000   1.0000   1.0000
     1.0000   1.0000   0.8028   0.8028   0.0000   0.0000   0.0000   0.0000
     0.0000   0.0000   0.0000   0.0000

          k = 0.1768 0.0000 0.0000 (  3903 PWs)   bands (ev):

   -14.6643 -14.6643 -14.6643 -14.6643 -14.6624 -14.6624 -14.6006 -14.6006
   -14.5850 -14.5850 -14.4052 -14.4052 -14.3700 -14.3700 -14.3514 -14.3514
   -14.3514 -14.3514 -14.3387 -14.3387  -2.9990  -2.9990   4.4148   4.4148
     6.3488   6.3488   6.3488   6.3488   8.1603   8.1603   8.5853   8.5853
     9.9202   9.9202   9.9202   9.9202

     occupation numbers 
     1.0000   1.0000   1.0000   1.0000   1.0000   1.0000   1.0000   1.0000
     1.0000   1.0000   1.0000   1.0000   1.0000   1.0000   1.0000   1.0000
     1.0000   1.0000   1.0000   1.0000   1.0000   1.0000   1.0000   1.0000
     1.0000   1.0000   1.0000   1.0000   0.0000   0.0000   0.0000   0.0000
     0.0000   0.0000   0.0000   0.0000

          k = 0.2210 0.0442-0.0442 (  3908 PWs)   bands (ev):

   -14.6720 -14.6720 -14.6689 -14.6689 -14.6585 -14.6585 -14.5939 -14.5939
   -14.5739 -14.5739 -14.4180 -14.4180 -14.3779 -14.3779 -14.3517 -14.3517
   -14.3442 -14.3442 -14.3331 -14.3331  -2.8731  -2.8731   3.8718   3.8718
     6.1059   6.1059   6.1217   6.1217   8.3434   8.3434   8.5802   8.5802
    10.2666  10.2666  10.3488  10.3488

     occupation numbers 
     1.0000   1.0000   1.0000   1.0000   1.0000   1.0000   1.0000   1.0000
     1.0000   1.0000   1.0000   1.0000   1.0000   1.0000   1.0000   1.0000
     1.0000   1.0000   1.0000   1.0000   1.0000   1.0000   1.0000   1.0000
     1.0000   1.0000   1.0000   1.0000   0.0000   0.0000   0.0000   0.0000
     0.0000   0.0000   0.0000   0.0000

          k = 0.2652 0.0884-0.0884 (  3934 PWs)   bands (ev):

   -14.6805 -14.6805 -14.6746 -14.6746 -14.6518 -14.6518 -14.5850 -14.5850
   -14.5630 -14.5630 -14.4292 -14.4292 -14.3879 -14.3879 -14.3591 -14.3591
   -14.3364 -14.3364 -14.3247 -14.3247  -2.6832  -2.6832   3.1960   3.1960
     5.8258   5.8258   5.9225   5.9225   8.2704   8.2704   8.8735   8.8735
    10.5559  10.5559  10.7847  10.7847

     occupation numbers 
     1.0000   1.0000   1.0000   1.0000   1.0000   1.0000   1.0000   1.0000
     1.0000   1.0000   1.0000   1.0000   1.0000   1.0000   1.0000   1.0000
     1.0000   1.0000   1.0000   1.0000   1.0000   1.0000   1.0000   1.0000
     1.0000   1.0000   1.0000   1.0000   0.0000   0.0000   0.0000   0.0000
     0.0000   0.0000   0.0000   0.0000

          k = 0.3094 0.1326-0.1326 (  3920 PWs)   bands (ev):

   -14.6878 -14.6878 -14.6796 -14.6796 -14.6430 -14.6430 -14.5758 -14.5758
   -14.5539 -14.5539 -14.4371 -14.4371 -14.3973 -14.3973 -14.3684 -14.3684
   -14.3293 -14.3293 -14.3166 -14.3166  -2.4371  -2.4371   2.4945   2.4945
     5.5428   5.5428   5.7691   5.7691   8.1291   8.1291   9.2570   9.2570
    10.7251  10.7251  11.1083  11.1083

     occupation numbers 
     1.0000   1.0000   1.0000   1.0000   1.0000   1.0000   1.0000   1.0000
     1.0000   1.0000   1.0000   1.0000   1.0000   1.0000   1.0000   1.0000
     1.0000   1.0000   1.0000   1.0000   1.0000   1.0000   1.0000   1.0000
     1.0000   1.0000   1.0000   1.0000   0.0000   0.0000   0.0000   0.0000
     0.0000   0.0000   0.0000   0.0000

          k = 0.3536 0.1768-0.1768 (  3924 PWs)   bands (ev):

   -14.6937 -14.6937 -14.6838 -14.6838 -14.6339 -14.6339 -14.5673 -14.5673
   -14.5481 -14.5481 -14.4409 -14.4409 -14.4062 -14.4062 -14.3790 -14.3790
   -14.3235 -14.3235 -14.3106 -14.3106  -2.1512  -2.1512   1.8337   1.8337
     5.2919   5.2919   5.6709   5.6709   7.9863   7.9863   9.5823   9.5823
    10.7624  10.7624  11.4682  11.4682

     occupation numbers 
     1.0000   1.0000   1.0000   1.0000   1.0000   1.0000   1.0000   1.0000
     1.0000   1.0000   1.0000   1.0000   1.0000   1.0000   1.0000   1.0000
     1.0000   1.0000   1.0000   1.0000   1.0000   1.0000   1.0000   1.0000
     1.0000   1.0000   1.0000   1.0000   0.0000   0.0000   0.0000   0.0000
     0.0000   0.0000   0.0000   0.0000

          k = 0.3977 0.2210-0.2210 (  3921 PWs)   bands (ev):

   -14.6978 -14.6978 -14.6872 -14.6872 -14.6255 -14.6255 -14.5597 -14.5597
   -14.5467 -14.5467 -14.4398 -14.4398 -14.4142 -14.4142 -14.3891 -14.3891
   -14.3187 -14.3187 -14.3063 -14.3063  -1.8610  -1.8610   1.2759   1.2759
     5.0908   5.0908   5.6323   5.6323   7.8702   7.8702   9.7823   9.7823
    10.7072  10.7072  11.9864  11.9864

     occupation numbers 
     1.0000   1.0000   1.0000   1.0000   1.0000   1.0000   1.0000   1.0000
     1.0000   1.0000   1.0000   1.0000   1.0000   1.0000   1.0000   1.0000
     1.0000   1.0000   1.0000   1.0000   1.0000   1.0000   1.0000   1.0000
     1.0000   1.0000   1.0000   1.0000   0.0000   0.0000   0.0000   0.0000
     0.0000   0.0000   0.0000   0.0000

          k =-0.2652-0.4419 0.4419 (  3936 PWs)   bands (ev):

   -14.6999 -14.6999 -14.6897 -14.6897 -14.6196 -14.6196 -14.5536 -14.5536
   -14.5492 -14.5492 -14.4344 -14.4344 -14.4214 -14.4214 -14.3975 -14.3975
   -14.3153 -14.3153 -14.3046 -14.3046  -1.6428  -1.6428   0.9107   0.9107
     4.9488   4.9488   5.6543   5.6543   7.7935   7.7935   9.9021   9.9021
    10.6079  10.6079  12.5553  12.5554

     occupation numbers 
     1.0000   1.0000   1.0000   1.0000   1.0000   1.0000   1.0000   1.0000
     1.0000   1.0000   1.0000   1.0000   1.0000   1.0000   1.0000   1.0000
     1.0000   1.0000   1.0000   1.0000   1.0000   1.0000   1.0000   1.0000
     1.0000   1.0000   1.0000   1.0000   0.0000   0.0000   0.0000   0.0000
     0.0000   0.0000   0.0000   0.0000

          k =-0.2210-0.3977 0.3977 (  3927 PWs)   bands (ev):

   -14.6998 -14.6998 -14.6910 -14.6910 -14.6169 -14.6169 -14.5544 -14.5544
   -14.5491 -14.5491 -14.4269 -14.4269 -14.4253 -14.4253 -14.4031 -14.4031
   -14.3129 -14.3129 -14.3050 -14.3050  -1.6074  -1.6074   0.8555   0.8555
     4.8719   4.8719   5.7352   5.7352   7.7610   7.7610  10.0018  10.0018
    10.4925  10.4925  12.8622  12.8622

     occupation numbers 
     1.0000   1.0000   1.0000   1.0000   1.0000   1.0000   1.0000   1.0000
     1.0000   1.0000   1.0000   1.0000   1.0000   1.0000   1.0000   1.0000
     1.0000   1.0000   1.0000   1.0000   1.0000   1.0000   1.0000   1.0000
     1.0000   1.0000   1.0000   1.0000   0.0000   0.0000   0.0000   0.0000
     0.0000   0.0000   0.0000   0.0000

          k =-0.1768-0.3536 0.3536 (  3927 PWs)   bands (ev):

   -14.6975 -14.6975 -14.6914 -14.6914 -14.6185 -14.6185 -14.5608 -14.5608
   -14.5476 -14.5476 -14.4300 -14.4300 -14.4151 -14.4151 -14.4040 -14.4040
   -14.3121 -14.3121 -14.3081 -14.3081  -1.7793  -1.7793   1.1348   1.1348
     4.8655   4.8655   5.8704   5.8704   7.7716   7.7716  10.1032  10.1032
    10.3638  10.3638  12.6059  12.6060

     occupation numbers 
     1.0000   1.0000   1.0000   1.0000   1.0000   1.0000   1.0000   1.0000
     1.0000   1.0000   1.0000   1.0000   1.0000   1.0000   1.0000   1.0000
     1.0000   1.0000   1.0000   1.0000   1.0000   1.0000   1.0000   1.0000
     1.0000   1.0000   1.0000   1.0000   0.0000   0.0000   0.0000   0.0000
     0.0000   0.0000   0.0000   0.0000

          k =-0.1326-0.3094 0.3094 (  3917 PWs)   bands (ev):

   -14.6932 -14.6932 -14.6903 -14.6903 -14.6239 -14.6239 -14.5676 -14.5676
   -14.5500 -14.5500 -14.4293 -14.4293 -14.4093 -14.4093 -14.3959 -14.3959
   -14.3136 -14.3136 -14.3127 -14.3127  -2.0573  -2.0573   1.6414   1.6414
     4.9361   4.9361   6.0517   6.0517   7.8181   7.8181  10.1835  10.1836
    10.2037  10.2037  11.9528  11.9528

     occupation numbers 
     1.0000   1.0000   1.0000   1.0000   1.0000   1.0000   1.0000   1.0000
     1.0000   1.0000   1.0000   1.0000   1.0000   1.0000   1.0000   1.0000
     1.0000   1.0000   1.0000   1.0000   1.0000   1.0000   1.0000   1.0000
     1.0000   1.0000   1.0000   1.0000   0.0000   0.0000   0.0000   0.0000
     0.0000   0.0000   0.0000   0.0000

          k =-0.0884-0.2652 0.2652 (  3913 PWs)   bands (ev):

   -14.6876 -14.6876 -14.6872 -14.6872 -14.6321 -14.6321 -14.5745 -14.5745
   -14.5564 -14.5564 -14.4247 -14.4247 -14.4056 -14.4056 -14.3829 -14.3829
   -14.3213 -14.3213 -14.3151 -14.3151  -2.3497  -2.3497   2.2692   2.2692
     5.0930   5.0930   6.2653   6.2653   7.8818   7.8818   9.9889   9.9889
    10.1507  10.1507  11.3428  11.3428

     occupation numbers 
     1.0000   1.0000   1.0000   1.0000   1.0000   1.0000   1.0000   1.0000
     1.0000   1.0000   1.0000   1.0000   1.0000   1.0000   1.0000   1.0000
     1.0000   1.0000   1.0000   1.0000   1.0000   1.0000   1.0000   1.0000
     1.0000   1.0000   1.0000   1.0000   0.0000   0.0000   0.0000   0.0000
     0.0000   0.0000   0.0000   0.0000

          k =-0.0442-0.2210 0.2210 (  3925 PWs)   bands (ev):

   -14.6833 -14.6833 -14.6799 -14.6799 -14.6412 -14.6412 -14.5823 -14.5823
   -14.5662 -14.5662 -14.4164 -14.4164 -14.4001 -14.4001 -14.3706 -14.3706
   -14.3313 -14.3313 -14.3195 -14.3195  -2.6106  -2.6106   2.9449   2.9449
     5.3510   5.3510   6.4875   6.4875   7.9184   7.9184   9.7260   9.7260
     9.8912   9.8912  10.9584  10.9584

     occupation numbers 
     1.0000   1.0000   1.0000   1.0000   1.0000   1.0000   1.0000   1.0000
     1.0000   1.0000   1.0000   1.0000   1.0000   1.0000   1.0000   1.0000
     1.0000   1.0000   1.0000   1.0000   1.0000   1.0000   1.0000   1.0000
     1.0000   1.0000   1.0000   1.0000   0.0000   0.0000   0.0000   0.0000
     0.0000   0.0000   0.0000   0.0000

          k = 0.0000-0.1768 0.1768 (  3905 PWs)   bands (ev):

   -14.6775 -14.6775 -14.6723 -14.6723 -14.6488 -14.6488 -14.5897 -14.5897
   -14.5775 -14.5775 -14.4057 -14.4057 -14.3926 -14.3926 -14.3605 -14.3605
   -14.3412 -14.3412 -14.3253 -14.3253  -2.8194  -2.8194   3.6004   3.6004
     5.7312   5.7312   6.6775   6.6775   7.8373   7.8373   9.4760   9.4760
     9.5765   9.5765  10.6165  10.6165

     occupation numbers 
     1.0000   1.0000   1.0000   1.0000   1.0000   1.0000   1.0000   1.0000
     1.0000   1.0000   1.0000   1.0000   1.0000   1.0000   1.0000   1.0000
     1.0000   1.0000   1.0000   1.0000   1.0000   1.0000   1.0000   1.0000
     1.0000   1.0000   1.0000   1.0000   0.0000   0.0000   0.0000   0.0000
     0.0000   0.0000   0.0000   0.0000

          k = 0.2652 0.0000 0.0000 (  3931 PWs)   bands (ev):

   -14.6722 -14.6722 -14.6722 -14.6722 -14.6626 -14.6626 -14.5891 -14.5891
   -14.5618 -14.5618 -14.4336 -14.4336 -14.3817 -14.3817 -14.3412 -14.3412
   -14.3412 -14.3412 -14.3374 -14.3374  -2.7688  -2.7688   3.5597   3.5597
     5.8902   5.8902   5.8902   5.8902   8.2447   8.2447   8.7233   8.7233
    10.6677  10.6677  10.6677  10.6677

     occupation numbers 
     1.0000   1.0000   1.0000   1.0000   1.0000   1.0000   1.0000   1.0000
     1.0000   1.0000   1.0000   1.0000   1.0000   1.0000   1.0000   1.0000
     1.0000   1.0000   1.0000   1.0000   1.0000   1.0000   1.0000   1.0000
     1.0000   1.0000   1.0000   1.0000   0.0000   0.0000   0.0000   0.0000
     0.0000   0.0000   0.0000   0.0000

          k = 0.3094 0.0442-0.0442 (  3938 PWs)   bands (ev):

   -14.6795 -14.6795 -14.6768 -14.6768 -14.6570 -14.6570 -14.5808 -14.5808
   -14.5493 -14.5493 -14.4475 -14.4475 -14.3900 -14.3900 -14.3479 -14.3479
   -14.3347 -14.3347 -14.3282 -14.3282  -2.5992  -2.5992   3.0549   3.0549
     5.6311   5.6311   5.6873   5.6873   8.2298   8.2298   8.8257   8.8257
    10.9968  10.9968  11.0244  11.0244

     occupation numbers 
     1.0000   1.0000   1.0000   1.0000   1.0000   1.0000   1.0000   1.0000
     1.0000   1.0000   1.0000   1.0000   1.0000   1.0000   1.0000   1.0000
     1.0000   1.0000   1.0000   1.0000   1.0000   1.0000   1.0000   1.0000
     1.0000   1.0000   1.0000   1.0000   0.0000   0.0000   0.0000   0.0000
     0.0000   0.0000   0.0000   0.0000

          k = 0.3536 0.0884-0.0884 (  3927 PWs)   bands (ev):

   -14.6882 -14.6882 -14.6815 -14.6815 -14.6466 -14.6466 -14.5713 -14.5713
   -14.5382 -14.5382 -14.4583 -14.4583 -14.3997 -14.3997 -14.3596 -14.3596
   -14.3279 -14.3279 -14.3174 -14.3174  -2.3701  -2.3701   2.4633   2.4633
     5.3117   5.3117   5.5315   5.5315   8.3233   8.3233   8.9711   8.9711
    11.0684  11.0684  11.2599  11.2599

     occupation numbers 
     1.0000   1.0000   1.0000   1.0000   1.0000   1.0000   1.0000   1.0000
     1.0000   1.0000   1.0000   1.0000   1.0000   1.0000   1.0000   1.0000
     1.0000   1.0000   1.0000   1.0000   1.0000   1.0000   1.0000   1.0000
     1.0000   1.0000   1.0000   1.0000   0.0000   0.0000   0.0000   0.0000
     0.0000   0.0000   0.0000   0.0000

          k = 0.3977 0.1326-0.1326 (  3922 PWs)   bands (ev):

   -14.6962 -14.6962 -14.6858 -14.6858 -14.6344 -14.6344 -14.5617 -14.5617
   -14.5309 -14.5309 -14.4646 -14.4646 -14.4100 -14.4100 -14.3731 -14.3731
   -14.3216 -14.3216 -14.3080 -14.3080  -2.0939  -2.0939   1.8616   1.8616
     4.9935   4.9935   5.4329   5.4329   8.2930   8.2930   9.3543   9.3543
    11.0759  11.0759  11.3382  11.3383

     occupation numbers 
     1.0000   1.0000   1.0000   1.0000   1.0000   1.0000   1.0000   1.0000
     1.0000   1.0000   1.0000   1.0000   1.0000   1.0000   1.0000   1.0000
     1.0000   1.0000   1.0000   1.0000   1.0000   1.0000   1.0000   1.0000
     1.0000   1.0000   1.0000   1.0000   0.0000   0.0000   0.0000   0.0000
     0.0000   0.0000   0.0000   0.0000

          k = 0.4419 0.1768-0.1768 (  3925 PWs)   bands (ev):

   -14.7025 -14.7025 -14.6893 -14.6893 -14.6224 -14.6224 -14.5527 -14.5527
   -14.5288 -14.5288 -14.4651 -14.4651 -14.4198 -14.4198 -14.3869 -14.3869
   -14.3162 -14.3162 -14.3011 -14.3011  -1.7972  -1.7972   1.3137   1.3137
     4.7198   4.7198   5.3964   5.3964   8.2155   8.2155   9.7717   9.7717
    11.2542  11.2542  11.2888  11.2888

     occupation numbers 
     1.0000   1.0000   1.0000   1.0000   1.0000   1.0000   1.0000   1.0000
     1.0000   1.0000   1.0000   1.0000   1.0000   1.0000   1.0000   1.0000
     1.0000   1.0000   1.0000   1.0000   1.0000   1.0000   1.0000   1.0000
     1.0000   1.0000   1.0000   1.0000   0.0000   0.0000   0.0000   0.0000
     0.0000   0.0000   0.0000   0.0000

          k =-0.2210-0.4861 0.4861 (  3935 PWs)   bands (ev):

   -14.7067 -14.7067 -14.6921 -14.6921 -14.6121 -14.6121 -14.5447 -14.5447
   -14.5321 -14.5321 -14.4598 -14.4598 -14.4290 -14.4290 -14.3989 -14.3989
   -14.3123 -14.3123 -14.2969 -14.2969  -1.5404  -1.5404   0.9013   0.9013
     4.5115   4.5115   5.4234   5.4234   8.1571   8.1571  10.0301  10.0301
    11.1671  11.1671  11.7333  11.7334

     occupation numbers 
     1.0000   1.0000   1.0000   1.0000   1.0000   1.0000   1.0000   1.0000
     1.0000   1.0000   1.0000   1.0000   1.0000   1.0000   1.0000   1.0000
     1.0000   1.0000   1.0000   1.0000   1.0000   1.0000   1.0000   1.0000
     1.0000   1.0000   1.0000   1.0000   0.0000   0.0000   0.0000   0.0000
     0.0000   0.0000   0.0000   0.0000

          k =-0.1768-0.4419 0.4419 (  3943 PWs)   bands (ev):

   -14.7082 -14.7082 -14.6941 -14.6941 -14.6057 -14.6057 -14.5397 -14.5397
   -14.5384 -14.5384 -14.4494 -14.4494 -14.4370 -14.4370 -14.4072 -14.4072
   -14.3095 -14.3095 -14.2956 -14.2956  -1.4353  -1.4353   0.7466   0.7466
     4.3801   4.3801   5.5121   5.5121   8.1351   8.1351  10.1654  10.1654
    11.0103  11.0103  12.3692  12.3692

     occupation numbers 
     1.0000   1.0000   1.0000   1.0000   1.0000   1.0000   1.0000   1.0000
     1.0000   1.0000   1.0000   1.0000   1.0000   1.0000   1.0000   1.0000
     1.0000   1.0000   1.0000   1.0000   1.0000   1.0000   1.0000   1.0000
     1.0000   1.0000   1.0000   1.0000   0.0000   0.0000   0.0000   0.0000
     0.0000   0.0000   0.0000   0.0000

          k =-0.1326-0.3977 0.3977 (  3931 PWs)   bands (ev):

   -14.7069 -14.7069 -14.6948 -14.6948 -14.6043 -14.6043 -14.5497 -14.5497
   -14.5351 -14.5351 -14.4418 -14.4418 -14.4347 -14.4347 -14.4116 -14.4116
   -14.3080 -14.3080 -14.2974 -14.2974  -1.5547  -1.5547   0.9238   0.9238
     4.3354   4.3354   5.6575   5.6575   8.1488   8.1488  10.2746  10.2746
    10.8267  10.8268  12.4774  12.4774

     occupation numbers 
     1.0000   1.0000   1.0000   1.0000   1.0000   1.0000   1.0000   1.0000
     1.0000   1.0000   1.0000   1.0000   1.0000   1.0000   1.0000   1.0000
     1.0000   1.0000   1.0000   1.0000   1.0000   1.0000   1.0000   1.0000
     1.0000   1.0000   1.0000   1.0000   0.0000   0.0000   0.0000   0.0000
     0.0000   0.0000   0.0000   0.0000

          k =-0.0884-0.3536 0.3536 (  3927 PWs)   bands (ev):

   -14.7028 -14.7028 -14.6942 -14.6942 -14.6087 -14.6087 -14.5600 -14.5600
   -14.5365 -14.5365 -14.4422 -14.4422 -14.4174 -14.4174 -14.4125 -14.4125
   -14.3083 -14.3083 -14.3026 -14.3026  -1.8165  -1.8165   1.3427   1.3427
     4.3898   4.3898   5.8501   5.8501   8.1845   8.1845  10.3842  10.3842
    10.6014  10.6014  11.8087  11.8087

     occupation numbers 
     1.0000   1.0000   1.0000   1.0000   1.0000   1.0000   1.0000   1.0000
     1.0000   1.0000   1.0000   1.0000   1.0000   1.0000   1.0000   1.0000
     1.0000   1.0000   1.0000   1.0000   1.0000   1.0000   1.0000   1.0000
     1.0000   1.0000   1.0000   1.0000   0.0000   0.0000   0.0000   0.0000
     0.0000   0.0000   0.0000   0.0000

          k =-0.0442-0.3094 0.3094 (  3924 PWs)   bands (ev):

   -14.6965 -14.6965 -14.6921 -14.6921 -14.6182 -14.6182 -14.5685 -14.5685
   -14.5433 -14.5433 -14.4371 -14.4371 -14.4106 -14.4106 -14.3994 -14.3994
   -14.3106 -14.3106 -14.3103 -14.3103  -2.1123  -2.1123   1.8748   1.8748
     4.5618   4.5618   6.0739   6.0739   8.2090   8.2090  10.3185  10.3185
    10.4153  10.4153  11.1955  11.1955

     occupation numbers 
     1.0000   1.0000   1.0000   1.0000   1.0000   1.0000   1.0000   1.0000
     1.0000   1.0000   1.0000   1.0000   1.0000   1.0000   1.0000   1.0000
     1.0000   1.0000   1.0000   1.0000   1.0000   1.0000   1.0000   1.0000
     1.0000   1.0000   1.0000   1.0000   0.0000   0.0000   0.0000   0.0000
     0.0000   0.0000   0.0000   0.0000

          k = 0.0000-0.2652 0.2652 (  3917 PWs)   bands (ev):

   -14.6884 -14.6884 -14.6883 -14.6883 -14.6301 -14.6301 -14.5758 -14.5758
   -14.5538 -14.5538 -14.4280 -14.4280 -14.4062 -14.4062 -14.3829 -14.3829
   -14.3207 -14.3207 -14.3140 -14.3140  -2.3853  -2.3853   2.4301   2.4301
     4.8760   4.8760   6.3014   6.3014   8.1517   8.1517  10.0013  10.0013
    10.1588  10.1588  11.0050  11.0050

     occupation numbers 
     1.0000   1.0000   1.0000   1.0000   1.0000   1.0000   1.0000   1.0000
     1.0000   1.0000   1.0000   1.0000   1.0000   1.0000   1.0000   1.0000
     1.0000   1.0000   1.0000   1.0000   1.0000   1.0000   1.0000   1.0000
     1.0000   1.0000   1.0000   1.0000   0.0000   0.0000   0.0000   0.0000
     0.0000   0.0000   0.0000   0.0000

          k = 0.3536 0.0000 0.0000 (  3928 PWs)   bands (ev):

   -14.6805 -14.6805 -14.6805 -14.6805 -14.6578 -14.6578 -14.5731 -14.5731
   -14.5345 -14.5345 -14.4643 -14.4643 -14.3970 -14.3970 -14.3423 -14.3423
   -14.3298 -14.3298 -14.3298 -14.3298  -2.4493  -2.4493   2.7107   2.7107
     5.4779   5.4779   5.4779   5.4779   7.9599   7.9599   8.8922   8.8922
    11.4742  11.4742  11.4742  11.4742

     occupation numbers 
     1.0000   1.0000   1.0000   1.0000   1.0000   1.0000   1.0000   1.0000
     1.0000   1.0000   1.0000   1.0000   1.0000   1.0000   1.0000   1.0000
     1.0000   1.0000   1.0000   1.0000   1.0000   1.0000   1.0000   1.0000
     1.0000   1.0000   1.0000   1.0000   0.0000   0.0000   0.0000   0.0000
     0.0000   0.0000   0.0000   0.0000

          k = 0.3977 0.0442-0.0442 (  3943 PWs)   bands (ev):

   -14.6871 -14.6871 -14.6847 -14.6847 -14.6500 -14.6500 -14.5637 -14.5637
   -14.5213 -14.5213 -14.4787 -14.4787 -14.4066 -14.4066 -14.3526 -14.3526
   -14.3240 -14.3240 -14.3203 -14.3203  -2.2380  -2.2380   2.2444   2.2444
     5.2273   5.2273   5.3145   5.3145   7.9838   7.9838   8.8581   8.8581
    11.6153  11.6153  11.8158  11.8158

     occupation numbers 
     1.0000   1.0000   1.0000   1.0000   1.0000   1.0000   1.0000   1.0000
     1.0000   1.0000   1.0000   1.0000   1.0000   1.0000   1.0000   1.0000
     1.0000   1.0000   1.0000   1.0000   1.0000   1.0000   1.0000   1.0000
     1.0000   1.0000   1.0000   1.0000   0.0000   0.0000   0.0000   0.0000
     0.0000   0.0000   0.0000   0.0000

          k = 0.4419 0.0884-0.0884 (  3940 PWs)   bands (ev):

   -14.6957 -14.6957 -14.6885 -14.6885 -14.6370 -14.6370 -14.5535 -14.5535
   -14.5119 -14.5119 -14.4884 -14.4884 -14.4170 -14.4170 -14.3675 -14.3675
   -14.3183 -14.3183 -14.3092 -14.3092  -1.9741  -1.9741   1.7315   1.7315
     4.8906   4.8906   5.2085   5.2085   8.1298   8.1298   8.9921   8.9921
    11.4860  11.4860  11.9801  11.9801

     occupation numbers 
     1.0000   1.0000   1.0000   1.0000   1.0000   1.0000   1.0000   1.0000
     1.0000   1.0000   1.0000   1.0000   1.0000   1.0000   1.0000   1.0000
     1.0000   1.0000   1.0000   1.0000   1.0000   1.0000   1.0000   1.0000
     1.0000   1.0000   1.0000   1.0000   0.0000   0.0000   0.0000   0.0000
     0.0000   0.0000   0.0000   0.0000

          k = 0.4861 0.1326-0.1326 (  3936 PWs)   bands (ev):

   -14.7036 -14.7036 -14.6919 -14.6919 -14.6221 -14.6221 -14.5434 -14.5434
   -14.5083 -14.5083 -14.4909 -14.4909 -14.4279 -14.4279 -14.3840 -14.3840
   -14.3131 -14.3131 -14.2999 -14.2999  -1.6772  -1.6772   1.2312   1.2312
     4.5524   4.5524   5.1658   5.1658   8.1721   8.1721   9.4519   9.4519
    11.3611  11.3611  11.9706  11.9706

     occupation numbers 
     1.0000   1.0000   1.0000   1.0000   1.0000   1.0000   1.0000   1.0000
     1.0000   1.0000   1.0000   1.0000   1.0000   1.0000   1.0000   1.0000
     1.0000   1.0000   1.0000   1.0000   1.0000   1.0000   1.0000   1.0000
     1.0000   1.0000   1.0000   1.0000   0.0000   0.0000   0.0000   0.0000
     0.0000   0.0000   0.0000   0.0000

          k =-0.1768-0.5303 0.5303 (  3931 PWs)   bands (ev):

   -14.7098 -14.7098 -14.6947 -14.6947 -14.6083 -14.6083 -14.5337 -14.5337
   -14.5106 -14.5106 -14.4872 -14.4872 -14.4385 -14.4385 -14.3989 -14.3989
   -14.3089 -14.3089 -14.2929 -14.2929  -1.3933  -1.3933   0.8116   0.8116
     4.2699   4.2699   5.1883   5.1883   8.1682   8.1682  10.0716  10.0716
    11.3446  11.3446  11.8463  11.8463

     occupation numbers 
     1.0000   1.0000   1.0000   1.0000   1.0000   1.0000   1.0000   1.0000
     1.0000   1.0000   1.0000   1.0000   1.0000   1.0000   1.0000   1.0000
[...]

     occupation numbers 
     1.0000   1.0000   1.0000   1.0000   1.0000   1.0000   1.0000   1.0000
     1.0000   1.0000   1.0000   1.0000   1.0000   1.0000   1.0000   1.0000
     1.0000   1.0000   1.0000   1.0000   1.0000   1.0000   1.0000   1.0000
     1.0000   1.0000   1.0000   1.0000   0.0000   0.0000   0.0000   0.0000
     0.0000   0.0000   0.0000   0.0000

          k =-0.1326-0.3977 0.5745 (  3932 PWs)   bands (ev):

   -14.7137 -14.7137 -14.7011 -14.7011 -14.5879 -14.5879 -14.5281 -14.5281
   -14.5076 -14.5076 -14.4847 -14.4847 -14.4506 -14.4506 -14.4189 -14.4189
   -14.3013 -14.3013 -14.2887 -14.2887  -1.1366  -1.1366   0.5142   0.5142
     4.0357   4.0357   4.9961   4.9961   8.8440   8.8440  10.0861  10.0861
    11.3642  11.3642  12.0480  12.0480

     occupation numbers 
     1.0000   1.0000   1.0000   1.0000   1.0000   1.0000   1.0000   1.0000
     1.0000   1.0000   1.0000   1.0000   1.0000   1.0000   1.0000   1.0000
     1.0000   1.0000   1.0000   1.0000   1.0000   1.0000   1.0000   1.0000
     1.0000   1.0000   1.0000   1.0000   0.0000   0.0000   0.0000   0.0000
     0.0000   0.0000   0.0000   0.0000

          k =-0.0884-0.3536 0.5303 (  3929 PWs)   bands (ev):

   -14.7136 -14.7136 -14.7012 -14.7012 -14.5873 -14.5873 -14.5309 -14.5309
   -14.5088 -14.5088 -14.4806 -14.4806 -14.4500 -14.4500 -14.4200 -14.4200
   -14.3011 -14.3011 -14.2889 -14.2889  -1.1911  -1.1911   0.5834   0.5834
     4.0027   4.0027   5.0652   5.0652   8.8890   8.8890  10.0782  10.0782
    11.4277  11.4277  12.0091  12.0091

     occupation numbers 
     1.0000   1.0000   1.0000   1.0000   1.0000   1.0000   1.0000   1.0000
     1.0000   1.0000   1.0000   1.0000   1.0000   1.0000   1.0000   1.0000
     1.0000   1.0000   1.0000   1.0000   1.0000   1.0000   1.0000   1.0000
     1.0000   1.0000   1.0000   1.0000   0.0000   0.0000   0.0000   0.0000
     0.0000   0.0000   0.0000   0.0000

          k =-0.0442-0.3094 0.4861 (  3932 PWs)   bands (ev):

   -14.7103 -14.7103 -14.7001 -14.7001 -14.5944 -14.5944 -14.5414 -14.5414
   -14.5112 -14.5112 -14.4782 -14.4782 -14.4370 -14.4370 -14.4156 -14.4156
   -14.3022 -14.3022 -14.2932 -14.2932  -1.4348  -1.4348   0.9028   0.9028
     4.0739   4.0739   5.2076   5.2076   8.9406   8.9406   9.9621   9.9621
    10.8509  10.8509  12.2350  12.2350

     occupation numbers 
     1.0000   1.0000   1.0000   1.0000   1.0000   1.0000   1.0000   1.0000
     1.0000   1.0000   1.0000   1.0000   1.0000   1.0000   1.0000   1.0000
     1.0000   1.0000   1.0000   1.0000   1.0000   1.0000   1.0000   1.0000
     1.0000   1.0000   1.0000   1.0000   0.0000   0.0000   0.0000   0.0000
     0.0000   0.0000   0.0000   0.0000

          k = 0.0000-0.2652 0.4419 (  3924 PWs)   bands (ev):

   -14.7042 -14.7042 -14.6976 -14.6976 -14.6072 -14.6072 -14.5521 -14.5521
   -14.5185 -14.5185 -14.4720 -14.4720 -14.4222 -14.4222 -14.4050 -14.4050
   -14.3047 -14.3047 -14.3006 -14.3006  -1.7329  -1.7329   1.3220   1.3220
     4.2687   4.2687   5.3979   5.3979   8.9398   8.9399   9.6076   9.6076
    10.6749  10.6749  12.0089  12.0089

     occupation numbers 
     1.0000   1.0000   1.0000   1.0000   1.0000   1.0000   1.0000   1.0000
     1.0000   1.0000   1.0000   1.0000   1.0000   1.0000   1.0000   1.0000
     1.0000   1.0000   1.0000   1.0000   1.0000   1.0000   1.0000   1.0000
     1.0000   1.0000   1.0000   1.0000   0.0000   0.0000   0.0000   0.0000
     0.0000   0.0000   0.0000   0.0000

          k =-0.1768-0.5303 0.7071 (  3944 PWs)   bands (ev):

   -14.7025 -14.7025 -14.7006 -14.7006 -14.6108 -14.6108 -14.5328 -14.5328
   -14.5136 -14.5136 -14.4872 -14.4872 -14.4386 -14.4386 -14.3948 -14.3948
   -14.3025 -14.3025 -14.3012 -14.3012  -1.4414  -1.4414   0.9404   0.9404
     4.4389   4.4389   4.8691   4.8691   8.5869   8.5869   8.9417   8.9417
    11.3616  11.3616  12.9695  12.9695

     occupation numbers 
     1.0000   1.0000   1.0000   1.0000   1.0000   1.0000   1.0000   1.0000
     1.0000   1.0000   1.0000   1.0000   1.0000   1.0000   1.0000   1.0000
     1.0000   1.0000   1.0000   1.0000   1.0000   1.0000   1.0000   1.0000
     1.0000   1.0000   1.0000   1.0000   0.0000   0.0000   0.0000   0.0000
     0.0000   0.0000   0.0000   0.0000

          k =-0.1326-0.4861 0.6629 (  3942 PWs)   bands (ev):

   -14.7092 -14.7092 -14.7030 -14.7030 -14.5934 -14.5934 -14.5226 -14.5226
   -14.5182 -14.5182 -14.4811 -14.4811 -14.4509 -14.4509 -14.4121 -14.4121
   -14.2995 -14.2995 -14.2933 -14.2933  -1.1375  -1.1375   0.5563   0.5563
     4.2094   4.2094   4.7477   4.7477   8.7527   8.7527   9.4163   9.4163
    11.1871  11.1872  12.9230  12.9230

     occupation numbers 
     1.0000   1.0000   1.0000   1.0000   1.0000   1.0000   1.0000   1.0000
     1.0000   1.0000   1.0000   1.0000   1.0000   1.0000   1.0000   1.0000
     1.0000   1.0000   1.0000   1.0000   1.0000   1.0000   1.0000   1.0000
     1.0000   1.0000   1.0000   1.0000   0.0000   0.0000   0.0000   0.0000
     0.0000   0.0000   0.0000   0.0000

          k =-0.0884-0.4419 0.6187 (  3940 PWs)   bands (ev):

   -14.7142 -14.7142 -14.7041 -14.7041 -14.5808 -14.5808 -14.5182 -14.5182
   -14.5107 -14.5107 -14.4830 -14.4830 -14.4620 -14.4620 -14.4238 -14.4238
   -14.2980 -14.2980 -14.2879 -14.2879  -0.8996  -0.8996   0.2808   0.2808
     4.0116   4.0116   4.7382   4.7382   8.8076   8.8076  10.1427  10.1427
    11.0843  11.0843  12.3446  12.3446

     occupation numbers 
     1.0000   1.0000   1.0000   1.0000   1.0000   1.0000   1.0000   1.0000
     1.0000   1.0000   1.0000   1.0000   1.0000   1.0000   1.0000   1.0000
     1.0000   1.0000   1.0000   1.0000   1.0000   1.0000   1.0000   1.0000
     1.0000   1.0000   1.0000   1.0000   0.0000   0.0000   0.0000   0.0000
     0.0000   0.0000   0.0000   0.0000

          k =-0.0442-0.3977 0.5745 (  3934 PWs)   bands (ev):

   -14.7161 -14.7161 -14.7040 -14.7040 -14.5775 -14.5775 -14.5148 -14.5148
   -14.5026 -14.5026 -14.4906 -14.4906 -14.4661 -14.4661 -14.4266 -14.4266
   -14.2979 -14.2979 -14.2860 -14.2860  -0.9017  -0.9017   0.2856   0.2856
     3.8990   3.8990   4.8272   4.8272   8.8843   8.8843  10.6110  10.6110
    11.2998  11.2998  11.6168  11.6168

     occupation numbers 
     1.0000   1.0000   1.0000   1.0000   1.0000   1.0000   1.0000   1.0000
     1.0000   1.0000   1.0000   1.0000   1.0000   1.0000   1.0000   1.0000
     1.0000   1.0000   1.0000   1.0000   1.0000   1.0000   1.0000   1.0000
     1.0000   1.0000   1.0000   1.0000   0.0000   0.0000   0.0000   0.0000
     0.0000   0.0000   0.0000   0.0000

          k = 0.0000-0.3536 0.5303 (  3935 PWs)   bands (ev):

   -14.7146 -14.7146 -14.7028 -14.7028 -14.5827 -14.5827 -14.5267 -14.5267
   -14.4998 -14.4998 -14.4901 -14.4901 -14.4557 -14.4557 -14.4233 -14.4233
   -14.2991 -14.2991 -14.2880 -14.2880  -1.1372  -1.1372   0.5547   0.5547
     3.9115   3.9115   4.9926   4.9926   8.9622   8.9622  10.4694  10.4694
    10.9237  10.9237  12.1005  12.1005

     occupation numbers 
     1.0000   1.0000   1.0000   1.0000   1.0000   1.0000   1.0000   1.0000
     1.0000   1.0000   1.0000   1.0000   1.0000   1.0000   1.0000   1.0000
     1.0000   1.0000   1.0000   1.0000   1.0000   1.0000   1.0000   1.0000
     1.0000   1.0000   1.0000   1.0000   0.0000   0.0000   0.0000   0.0000
     0.0000   0.0000   0.0000   0.0000

          k =-0.0884-0.5303 0.7071 (  3938 PWs)   bands (ev):

   -14.7060 -14.7060 -14.7048 -14.7048 -14.5916 -14.5916 -14.5419 -14.5419
   -14.5099 -14.5099 -14.4613 -14.4613 -14.4608 -14.4608 -14.4130 -14.4130
   -14.2972 -14.2972 -14.2961 -14.2961  -0.9150  -0.9150   0.2889   0.2889
     4.3653   4.3653   4.5792   4.5792   8.5555   8.5555   8.7634   8.7634
    12.0347  12.0347  13.2589  13.2589

     occupation numbers 
     1.0000   1.0000   1.0000   1.0000   1.0000   1.0000   1.0000   1.0000
     1.0000   1.0000   1.0000   1.0000   1.0000   1.0000   1.0000   1.0000
     1.0000   1.0000   1.0000   1.0000   1.0000   1.0000   1.0000   1.0000
     1.0000   1.0000   1.0000   1.0000   0.0000   0.0000   0.0000   0.0000
     0.0000   0.0000   0.0000   0.0000

          k =-0.0442-0.4861 0.6629 (  3942 PWs)   bands (ev):

   -14.7116 -14.7116 -14.7059 -14.7059 -14.5748 -14.5748 -14.5428 -14.5428
   -14.4996 -14.4996 -14.4739 -14.4739 -14.4588 -14.4588 -14.4290 -14.4290
   -14.2959 -14.2959 -14.2902 -14.2902  -0.6313  -0.6313  -0.0112  -0.0112
     4.1555   4.1555   4.5379   4.5379   8.7004   8.7004   9.3644   9.3644
    11.8523  11.8523  12.5619  12.5619

     occupation numbers 
     1.0000   1.0000   1.0000   1.0000   1.0000   1.0000   1.0000   1.0000
     1.0000   1.0000   1.0000   1.0000   1.0000   1.0000   1.0000   1.0000
     1.0000   1.0000   1.0000   1.0000   1.0000   1.0000   1.0000   1.0000
     1.0000   1.0000   1.0000   1.0000   0.0000   0.0000   0.0000   0.0000
     0.0000   0.0000   0.0000   0.0000

          k = 0.0000-0.4419 0.6187 (  3930 PWs)   bands (ev):

   -14.7153 -14.7153 -14.7055 -14.7055 -14.5718 -14.5718 -14.5267 -14.5267
   -14.4985 -14.4985 -14.4779 -14.4779 -14.4720 -14.4720 -14.4313 -14.4313
   -14.2962 -14.2962 -14.2862 -14.2862  -0.6336  -0.6336   0.0003   0.0003
     3.9628   3.9628   4.6425   4.6425   8.7875   8.7875  10.1815  10.1815
    11.6941  11.6941  11.7052  11.7052

     occupation numbers 
     1.0000   1.0000   1.0000   1.0000   1.0000   1.0000   1.0000   1.0000
     1.0000   1.0000   1.0000   1.0000   1.0000   1.0000   1.0000   1.0000
     1.0000   1.0000   1.0000   1.0000   1.0000   1.0000   1.0000   1.0000
     1.0000   1.0000   1.0000   1.0000   0.0000   0.0000   0.0000   0.0000
     0.0000   0.0000   0.0000   0.0000

          k =-0.7071 0.1768 0.0000 (  3940 PWs)   bands (ev):

   -14.7068 -14.7068 -14.7067 -14.7067 -14.5689 -14.5689 -14.5677 -14.5677
   -14.4885 -14.4885 -14.4826 -14.4826 -14.4361 -14.4361 -14.4349 -14.4349
   -14.2950 -14.2950 -14.2949 -14.2949  -0.3348  -0.3348  -0.3333  -0.3333
     4.4109   4.4109   4.4110   4.4110   8.6185   8.6185   8.6188   8.6188
    12.7564  12.7564  12.7565  12.7565

     occupation numbers 
     1.0000   1.0000   1.0000   1.0000   1.0000   1.0000   1.0000   1.0000
     1.0000   1.0000   1.0000   1.0000   1.0000   1.0000   1.0000   1.0000
     1.0000   1.0000   1.0000   1.0000   1.0000   1.0000   1.0000   1.0000
     1.0000   1.0000   1.0000   1.0000   0.0000   0.0000   0.0000   0.0000
     0.0000   0.0000   0.0000   0.0000

          k =-0.1768-0.4419 0.7071 (  3933 PWs)   bands (ev):

   -14.7093 -14.7093 -14.7030 -14.7030 -14.5927 -14.5927 -14.5331 -14.5331
   -14.5011 -14.5011 -14.4942 -14.4942 -14.4424 -14.4424 -14.4143 -14.4143
   -14.2994 -14.2994 -14.2938 -14.2938  -1.3078  -1.3078   0.7676   0.7676
     4.1306   4.1306   4.9054   4.9054   9.3394   9.3394   9.4713   9.4713
    10.6286  10.6286  12.6990  12.6990

     occupation numbers 
     1.0000   1.0000   1.0000   1.0000   1.0000   1.0000   1.0000   1.0000
     1.0000   1.0000   1.0000   1.0000   1.0000   1.0000   1.0000   1.0000
     1.0000   1.0000   1.0000   1.0000   1.0000   1.0000   1.0000   1.0000
     1.0000   1.0000   1.0000   1.0000   0.0000   0.0000   0.0000   0.0000
     0.0000   0.0000   0.0000   0.0000

          k =-0.1326-0.3977 0.6629 (  3936 PWs)   bands (ev):

   -14.7136 -14.7136 -14.7052 -14.7052 -14.5792 -14.5792 -14.5226 -14.5226
   -14.5052 -14.5052 -14.4889 -14.4889 -14.4566 -14.4566 -14.4257 -14.4257
   -14.2970 -14.2970 -14.2887 -14.2887  -1.0243  -1.0243   0.4286   0.4286
     4.0033   4.0033   4.7501   4.7501   9.3650   9.3650   9.9639   9.9639
    10.7397  10.7397  12.2308  12.2308

     occupation numbers 
     1.0000   1.0000   1.0000   1.0000   1.0000   1.0000   1.0000   1.0000
     1.0000   1.0000   1.0000   1.0000   1.0000   1.0000   1.0000   1.0000
     1.0000   1.0000   1.0000   1.0000   1.0000   1.0000   1.0000   1.0000
     1.0000   1.0000   1.0000   1.0000   0.0000   0.0000   0.0000   0.0000
     0.0000   0.0000   0.0000   0.0000

          k =-0.0884-0.3536 0.6187 (  3932 PWs)   bands (ev):

   -14.7152 -14.7152 -14.7058 -14.7058 -14.5737 -14.5737 -14.5186 -14.5186
   -14.5033 -14.5033 -14.4895 -14.4895 -14.4631 -14.4631 -14.4299 -14.4299
   -14.2962 -14.2962 -14.2867 -14.2867  -0.8863  -0.8863   0.2711   0.2711
     3.9629   3.9629   4.6933   4.6933   9.3646   9.3646  10.0888  10.0888
    11.2608  11.2608  11.5522  11.5522

     occupation numbers 
     1.0000   1.0000   1.0000   1.0000   1.0000   1.0000   1.0000   1.0000
     1.0000   1.0000   1.0000   1.0000   1.0000   1.0000   1.0000   1.0000
     1.0000   1.0000   1.0000   1.0000   1.0000   1.0000   1.0000   1.0000
     1.0000   1.0000   1.0000   1.0000   0.0000   0.0000   0.0000   0.0000
     0.0000   0.0000   0.0000   0.0000

          k =-0.0884-0.4419 0.7071 (  3941 PWs)   bands (ev):

   -14.7116 -14.7116 -14.7079 -14.7079 -14.5743 -14.5743 -14.5269 -14.5269
   -14.5114 -14.5114 -14.4718 -14.4718 -14.4647 -14.4647 -14.4293 -14.4293
   -14.2942 -14.2942 -14.2904 -14.2904  -0.8316  -0.8316   0.2186   0.2186
     4.1207   4.1207   4.5119   4.5119   9.4127   9.4127   9.4550   9.4550
    11.0081  11.0081  12.3995  12.3995

     occupation numbers 
     1.0000   1.0000   1.0000   1.0000   1.0000   1.0000   1.0000   1.0000
     1.0000   1.0000   1.0000   1.0000   1.0000   1.0000   1.0000   1.0000
     1.0000   1.0000   1.0000   1.0000   1.0000   1.0000   1.0000   1.0000
     1.0000   1.0000   1.0000   1.0000   0.0000   0.0000   0.0000   0.0000
     0.0000   0.0000   0.0000   0.0000

          k =-0.0442-0.3977 0.6629 (  3933 PWs)   bands (ev):

   -14.7143 -14.7143 -14.7091 -14.7091 -14.5619 -14.5619 -14.5285 -14.5285
   -14.5022 -14.5022 -14.4776 -14.4776 -14.4683 -14.4683 -14.4397 -14.4397
   -14.2927 -14.2927 -14.2873 -14.2873  -0.6118  -0.6118  -0.0106  -0.0106
     4.0393   4.0393   4.4317   4.4317   9.4922   9.4922  10.1629  10.1629
    10.9281  10.9281  11.5428  11.5428

     occupation numbers 
     1.0000   1.0000   1.0000   1.0000   1.0000   1.0000   1.0000   1.0000
     1.0000   1.0000   1.0000   1.0000   1.0000   1.0000   1.0000   1.0000
     1.0000   1.0000   1.0000   1.0000   1.0000   1.0000   1.0000   1.0000
     1.0000   1.0000   1.0000   1.0000   0.0000   0.0000   0.0000   0.0000
     0.0000   0.0000   0.0000   0.0000

          k =-0.0000-0.3536 0.6187 (  3928 PWs)   bands (ev):

   -14.7151 -14.7151 -14.7080 -14.7080 -14.5657 -14.5657 -14.5183 -14.5183
   -14.5084 -14.5084 -14.4768 -14.4768 -14.4724 -14.4724 -14.4363 -14.4363
   -14.2936 -14.2936 -14.2866 -14.2866  -0.7337  -0.7337   0.1193   0.1193
     3.9740   3.9740   4.5357   4.5357   9.5425   9.5425  10.3441  10.3441
    10.8174  10.8174  11.4474  11.4474

     occupation numbers 
     1.0000   1.0000   1.0000   1.0000   1.0000   1.0000   1.0000   1.0000
     1.0000   1.0000   1.0000   1.0000   1.0000   1.0000   1.0000   1.0000
     1.0000   1.0000   1.0000   1.0000   1.0000   1.0000   1.0000   1.0000
     1.0000   1.0000   1.0000   1.0000   0.0000   0.0000   0.0000   0.0000
     0.0000   0.0000   0.0000   0.0000

          k =-0.7071 0.2652 0.0000 (  3936 PWs)   bands (ev):

   -14.7111 -14.7111 -14.7110 -14.7110 -14.5526 -14.5526 -14.5511 -14.5511
   -14.4911 -14.4911 -14.4853 -14.4853 -14.4500 -14.4500 -14.4484 -14.4484
   -14.2906 -14.2906 -14.2905 -14.2905  -0.3190  -0.3190  -0.3174  -0.3174
     4.2472   4.2472   4.2473   4.2473   9.4234   9.4234   9.4237   9.4237
    11.6763  11.6763  11.6764  11.6764

     occupation numbers 
     1.0000   1.0000   1.0000   1.0000   1.0000   1.0000   1.0000   1.0000
     1.0000   1.0000   1.0000   1.0000   1.0000   1.0000   1.0000   1.0000
     1.0000   1.0000   1.0000   1.0000   1.0000   1.0000   1.0000   1.0000
     1.0000   1.0000   1.0000   1.0000   0.0000   0.0000   0.0000   0.0000
     0.0000   0.0000   0.0000   0.0000

          k =-0.7071 0.3536 0.0000 (  3972 PWs)   bands (ev):

   -14.7129 -14.7129 -14.7129 -14.7129 -14.5450 -14.5450 -14.5431 -14.5431
   -14.4936 -14.4936 -14.4877 -14.4877 -14.4564 -14.4564 -14.4545 -14.4545
   -14.2895 -14.2895 -14.2894 -14.2894  -0.3123  -0.3123  -0.3107  -0.3107
     4.1850   4.1850   4.1851   4.1851  10.0875  10.0875  10.0882  10.0882
    10.9152  10.9152  10.9157  10.9157

     occupation numbers 
     1.0000   1.0000   1.0000   1.0000   1.0000   1.0000   1.0000   1.0000
     1.0000   1.0000   1.0000   1.0000   1.0000   1.0000   1.0000   1.0000
     1.0000   1.0000   1.0000   1.0000   1.0000   1.0000   1.0000   1.0000
     1.0000   1.0000   1.0000   1.0000   0.0000   0.0000   0.0000   0.0000
     0.0000   0.0000   0.0000   0.0000

     the Fermi energy is     6.9095 ev

!    total energy              =    -884.11319193 Ry
     Harris-Foulkes estimate   =    -884.11319191 Ry
     estimated scf accuracy    <       0.00000050 Ry

     total all-electron energy =    -24709.368765 Ry

     The total energy is the sum of the following terms:

     one-electron contribution =    -154.08083163 Ry
     hartree contribution      =      95.63758105 Ry
     xc contribution           =     -96.23507838 Ry
     ewald contribution        =    -167.52979538 Ry
     one-center paw contrib.   =    -561.90506744 Ry
     smearing contrib. (-TS)   =      -0.00000014 Ry

     convergence has been achieved in   5 iterations

     Writing output data file Sn.save
 
     init_run     :     10.19s CPU     10.47s WALL (       1 calls)
     electrons    :    199.11s CPU    204.54s WALL (       1 calls)

     Called by init_run:
     wfcinit      :      9.85s CPU     10.05s WALL (       1 calls)
     potinit      :      0.13s CPU      0.14s WALL (       1 calls)

     Called by electrons:
     c_bands      :    169.05s CPU    173.87s WALL (       6 calls)
     sum_band     :     29.40s CPU     29.86s WALL (       6 calls)
     v_of_rho     :      0.05s CPU      0.06s WALL (       6 calls)
     v_h          :      0.00s CPU      0.00s WALL (       6 calls)
     v_xc         :      0.05s CPU      0.05s WALL (       6 calls)
     newd         :      0.06s CPU      0.08s WALL (       6 calls)
     PAW_pot      :      0.62s CPU      0.70s WALL (       6 calls)
     mix_rho      :      0.02s CPU      0.02s WALL (       6 calls)

     Called by c_bands:
     init_us_2    :      0.21s CPU      0.29s WALL (    1885 calls)
     cegterg      :    166.75s CPU    171.28s WALL (     870 calls)

     Called by sum_band:
     sum_band:bec :      0.12s CPU      0.12s WALL (     870 calls)
     addusdens    :      0.07s CPU      0.10s WALL (       6 calls)

     Called by *egterg:
     h_psi        :    147.42s CPU    149.66s WALL (    3086 calls)
     s_psi        :      1.71s CPU      1.73s WALL (    3086 calls)
     g_psi        :      0.34s CPU      0.34s WALL (    2071 calls)
     cdiaghg      :     11.51s CPU     11.71s WALL (    2796 calls)
     cegterg:over :      6.11s CPU      6.16s WALL (    2071 calls)
     cegterg:upda :      2.72s CPU      2.75s WALL (    2071 calls)
     cegterg:last :      1.54s CPU      1.55s WALL (     870 calls)

     Called by h_psi:
     h_psi:vloc   :    141.99s CPU    144.15s WALL (    3086 calls)
     h_psi:vnl    :      5.17s CPU      5.21s WALL (    3086 calls)
     add_vuspsi   :      1.84s CPU      1.85s WALL (    3086 calls)

     General routines
     calbec       :      4.40s CPU      4.44s WALL (    3956 calls)
     fft          :      0.08s CPU      0.08s WALL (     116 calls)
     fftw         :    163.45s CPU    165.92s WALL (  393796 calls)
     davcio       :      0.01s CPU      0.63s WALL (     145 calls)
 
     Parallel routines
     fft_scatter  :    127.33s CPU    129.41s WALL (  393912 calls)

     PAW routines
     PAW_pot      :      0.62s CPU      0.70s WALL (       6 calls)
     PAW_symme    :      0.01s CPU      0.01s WALL (      12 calls)
 
     PWSCF        :  3m29.96s CPU     3m36.50s WALL

 
   This run was terminated on:  20: 0:11  15Mar2020            

=------------------------------------------------------------------------------=
   JOB DONE.
=------------------------------------------------------------------------------=
