
     Program PWSCF v.5.4.0 starts on 16Mar2020 at 22:58:41 

     This program is part of the open-source Quantum ESPRESSO suite
     for quantum simulation of materials; please cite
         "P. Giannozzi et al., J. Phys.:Condens. Matter 21 395502 (2009);
          URL http://www.quantum-espresso.org", 
     in publications or presentations arising from this work. More details at
     http://www.quantum-espresso.org/quote

     Parallel version (MPI & OpenMP), running on      16 processor cores
     Number of MPI processes:                16
     Threads/MPI process:                     1
     R & G space division:  proc/nbgrp/npool/nimage =      16
     Waiting for input...
     Reading input from standard input
Warning: card &IONS ignored
Warning: card / ignored
Warning: card &CELL ignored
Warning: card / ignored

     Current dimensions of program PWSCF are:
     Max number of different atomic species (ntypx) = 10
     Max number of k-points (npk) =  40000
     Max angular momentum in pseudopotentials (lmaxx) =  3
               file Sn.pbesol-dn-kjpaw_psl.1.0.0.UPF: wavefunction(s)  5S 5P 4D renormalized
     Message from routine setup:
     At least one non s.o. pseudo

     Subspace diagonalization in iterative solution of the eigenvalue problem:
     a serial algorithm will be used

 
     Parallelization info
     --------------------
     sticks:   dense  smooth     PW     G-vecs:    dense   smooth      PW
     Min         122     122     34                 3603     3603     547
     Max         125     125     35                 3604     3604     551
     Sum        1969    1969    559                57655    57655    8801
 

     Title: 
     Sn                                                                         


     bravais-lattice index     =            0
     lattice parameter (alat)  =       8.9127  a.u.
     unit-cell volume          =     500.6268 (a.u.)^3
     number of atoms/cell      =            2
     number of atomic types    =            1
     number of electrons       =        28.00
     number of Kohn-Sham states=           36
     kinetic-energy cutoff     =      90.0000  Ry
     charge density cutoff     =     360.0000  Ry
     convergence threshold     =      1.0E-06
     mixing beta               =       0.7000
     number of iterations used =            8  plain     mixing
     Exchange-correlation      =  SLA  PW   PSX  PSC ( 1  4 10  8 0 0)
     Non magnetic calculation with spin-orbit


     celldm(1)=   8.912709  celldm(2)=   0.000000  celldm(3)=   0.000000
     celldm(4)=   0.000000  celldm(5)=   0.000000  celldm(6)=   0.000000

     crystal axes: (cart. coord. in units of alat)
               a(1) = (   0.000000   0.707107   0.707107 )  
               a(2) = (   0.707107   0.000000   0.707107 )  
               a(3) = (   0.707107   0.707107   0.000000 )  

     reciprocal axes: (cart. coord. in units 2 pi/alat)
               b(1) = ( -0.707107  0.707107  0.707107 )  
               b(2) = (  0.707107 -0.707107  0.707107 )  
               b(3) = (  0.707107  0.707107 -0.707107 )  


     PseudoPot. # 1 for Sn read from file:
     ../PseudopotentialDatabase/Sn.pbesol-dn-kjpaw_psl.1.0.0.UPF
     MD5 check sum: 3b64f90c238cf26ccb627d174952382c
     Pseudo is Projector augmented-wave + core cor, Zval = 14.0
     Generated using "atomic" code by A. Dal Corso  v.6.3
     Shape of augmentation charge: PSQ
     Using radial grid of 1243 points,  6 beta functions with: 
                l(1) =   0
                l(2) =   0
                l(3) =   1
                l(4) =   1
                l(5) =   2
                l(6) =   2
     Q(r) pseudized with 0 coefficients 


     atomic species   valence    mass     pseudopotential
        Sn            14.00   118.71000     Sn( 1.00)

     24 Sym. Ops. (no inversion) found
          (note: 24 additional sym.ops. were found but ignored
           their fractional translations are incommensurate with FFT grid)

                                    s                        frac. trans.

      isym =  1     identity                                     

 cryst.   s( 1) = (     1          0          0      )
                  (     0          1          0      )
                  (     0          0          1      )

 cart.    s( 1) = (  1.0000000  0.0000000  0.0000000 )
                  (  0.0000000  1.0000000  0.0000000 )
                  (  0.0000000  0.0000000  1.0000000 )


      isym =  2     180 deg rotation - cart. axis [0,0,1]        

 cryst.   s( 2) = (     0          1         -1      )
                  (     1          0         -1      )
                  (     0          0         -1      )

 cart.    s( 2) = ( -1.0000000  0.0000000  0.0000000 )
                  (  0.0000000 -1.0000000  0.0000000 )
                  (  0.0000000  0.0000000  1.0000000 )


      isym =  3     180 deg rotation - cart. axis [0,1,0]        

 cryst.   s( 3) = (     0         -1          1      )
                  (     0         -1          0      )
                  (     1         -1          0      )

 cart.    s( 3) = ( -1.0000000  0.0000000  0.0000000 )
                  (  0.0000000  1.0000000  0.0000000 )
                  (  0.0000000  0.0000000 -1.0000000 )


      isym =  4     180 deg rotation - cart. axis [1,0,0]        

 cryst.   s( 4) = (    -1          0          0      )
                  (    -1          0          1      )
                  (    -1          1          0      )

 cart.    s( 4) = (  1.0000000  0.0000000  0.0000000 )
                  (  0.0000000 -1.0000000  0.0000000 )
                  (  0.0000000  0.0000000 -1.0000000 )


      isym =  5     120 deg rotation - cart. axis [-1,-1,-1]     

 cryst.   s( 5) = (     0          0          1      )
                  (     1          0          0      )
                  (     0          1          0      )

 cart.    s( 5) = (  0.0000000  1.0000000  0.0000000 )
                  (  0.0000000  0.0000000  1.0000000 )
                  (  1.0000000  0.0000000  0.0000000 )


      isym =  6     120 deg rotation - cart. axis [-1,1,1]       

 cryst.   s( 6) = (     1         -1          0      )
                  (     0         -1          1      )
                  (     0         -1          0      )

 cart.    s( 6) = (  0.0000000 -1.0000000  0.0000000 )
                  (  0.0000000  0.0000000  1.0000000 )
                  ( -1.0000000  0.0000000  0.0000000 )


      isym =  7     120 deg rotation - cart. axis [1,1,-1]       

 cryst.   s( 7) = (    -1          1          0      )
                  (    -1          0          0      )
                  (    -1          0          1      )

 cart.    s( 7) = (  0.0000000  1.0000000  0.0000000 )
                  (  0.0000000  0.0000000 -1.0000000 )
                  ( -1.0000000  0.0000000  0.0000000 )


      isym =  8     120 deg rotation - cart. axis [1,-1,1]       

 cryst.   s( 8) = (     0          0         -1      )
                  (     0          1         -1      )
                  (     1          0         -1      )

 cart.    s( 8) = (  0.0000000 -1.0000000  0.0000000 )
                  (  0.0000000  0.0000000 -1.0000000 )
                  (  1.0000000  0.0000000  0.0000000 )


      isym =  9     120 deg rotation - cart. axis [1,1,1]        

 cryst.   s( 9) = (     0          1          0      )
                  (     0          0          1      )
                  (     1          0          0      )

 cart.    s( 9) = (  0.0000000  0.0000000  1.0000000 )
                  (  1.0000000  0.0000000  0.0000000 )
                  (  0.0000000  1.0000000  0.0000000 )


      isym = 10     120 deg rotation - cart. axis [-1,1,-1]      

 cryst.   s(10) = (    -1          0          1      )
                  (    -1          1          0      )
                  (    -1          0          0      )

 cart.    s(10) = (  0.0000000  0.0000000  1.0000000 )
                  ( -1.0000000  0.0000000  0.0000000 )
                  (  0.0000000 -1.0000000  0.0000000 )


      isym = 11     120 deg rotation - cart. axis [1,-1,-1]      

 cryst.   s(11) = (     1          0         -1      )
                  (     0          0         -1      )
                  (     0          1         -1      )

 cart.    s(11) = (  0.0000000  0.0000000 -1.0000000 )
                  ( -1.0000000  0.0000000  0.0000000 )
                  (  0.0000000  1.0000000  0.0000000 )


      isym = 12     120 deg rotation - cart. axis [-1,-1,1]      

 cryst.   s(12) = (     0         -1          0      )
                  (     1         -1          0      )
                  (     0         -1          1      )

 cart.    s(12) = (  0.0000000  0.0000000 -1.0000000 )
                  (  1.0000000  0.0000000  0.0000000 )
                  (  0.0000000 -1.0000000  0.0000000 )


      isym = 13     inv. 180 deg rotation - cart. axis [1,1,0]   

 cryst.   s(13) = (     1          0         -1      )
                  (     0          1         -1      )
                  (     0          0         -1      )

 cart.    s(13) = (  0.0000000 -1.0000000  0.0000000 )
                  ( -1.0000000  0.0000000  0.0000000 )
                  (  0.0000000  0.0000000  1.0000000 )


      isym = 14     inv. 180 deg rotation - cart. axis [1,-1,0]  

 cryst.   s(14) = (     0          1          0      )
                  (     1          0          0      )
                  (     0          0          1      )

 cart.    s(14) = (  0.0000000  1.0000000  0.0000000 )
                  (  1.0000000  0.0000000  0.0000000 )
                  (  0.0000000  0.0000000  1.0000000 )


      isym = 15     inv.  90 deg rotation - cart. axis [0,0,-1]  

 cryst.   s(15) = (     0         -1          0      )
                  (     0         -1          1      )
                  (     1         -1          0      )

 cart.    s(15) = (  0.0000000 -1.0000000  0.0000000 )
                  (  1.0000000  0.0000000  0.0000000 )
                  (  0.0000000  0.0000000 -1.0000000 )


      isym = 16     inv.  90 deg rotation - cart. axis [0,0,1]   

 cryst.   s(16) = (    -1          0          1      )
                  (    -1          0          0      )
                  (    -1          1          0      )

 cart.    s(16) = (  0.0000000  1.0000000  0.0000000 )
                  ( -1.0000000  0.0000000  0.0000000 )
                  (  0.0000000  0.0000000 -1.0000000 )


      isym = 17     inv. 180 deg rotation - cart. axis [1,0,1]   

 cryst.   s(17) = (     1         -1          0      )
                  (     0         -1          0      )
                  (     0         -1          1      )

 cart.    s(17) = (  0.0000000  0.0000000 -1.0000000 )
                  (  0.0000000  1.0000000  0.0000000 )
                  ( -1.0000000  0.0000000  0.0000000 )


      isym = 18     inv. 180 deg rotation - cart. axis [-1,0,1]  

 cryst.   s(18) = (     0          0          1      )
                  (     0          1          0      )
                  (     1          0          0      )

 cart.    s(18) = (  0.0000000  0.0000000  1.0000000 )
                  (  0.0000000  1.0000000  0.0000000 )
                  (  1.0000000  0.0000000  0.0000000 )


      isym = 19     inv.  90 deg rotation - cart. axis [0,1,0]   

 cryst.   s(19) = (     0          0         -1      )
                  (     1          0         -1      )
                  (     0          1         -1      )

 cart.    s(19) = (  0.0000000  0.0000000 -1.0000000 )
                  (  0.0000000 -1.0000000  0.0000000 )
                  (  1.0000000  0.0000000  0.0000000 )


      isym = 20     inv.  90 deg rotation - cart. axis [0,-1,0]  

 cryst.   s(20) = (    -1          1          0      )
                  (    -1          0          1      )
                  (    -1          0          0      )

 cart.    s(20) = (  0.0000000  0.0000000  1.0000000 )
                  (  0.0000000 -1.0000000  0.0000000 )
                  ( -1.0000000  0.0000000  0.0000000 )


      isym = 21     inv. 180 deg rotation - cart. axis [0,1,1]   

 cryst.   s(21) = (    -1          0          0      )
                  (    -1          1          0      )
                  (    -1          0          1      )

 cart.    s(21) = (  1.0000000  0.0000000  0.0000000 )
                  (  0.0000000  0.0000000 -1.0000000 )
                  (  0.0000000 -1.0000000  0.0000000 )


      isym = 22     inv. 180 deg rotation - cart. axis [0,1,-1]  

 cryst.   s(22) = (     1          0          0      )
                  (     0          0          1      )
                  (     0          1          0      )

 cart.    s(22) = (  1.0000000  0.0000000  0.0000000 )
                  (  0.0000000  0.0000000  1.0000000 )
                  (  0.0000000  1.0000000  0.0000000 )


      isym = 23     inv.  90 deg rotation - cart. axis [-1,0,0]  

 cryst.   s(23) = (     0          1         -1      )
                  (     0          0         -1      )
                  (     1          0         -1      )

 cart.    s(23) = ( -1.0000000  0.0000000  0.0000000 )
                  (  0.0000000  0.0000000 -1.0000000 )
                  (  0.0000000  1.0000000  0.0000000 )


      isym = 24     inv.  90 deg rotation - cart. axis [1,0,0]   

 cryst.   s(24) = (     0         -1          1      )
                  (     1         -1          0      )
                  (     0         -1          0      )

 cart.    s(24) = ( -1.0000000  0.0000000  0.0000000 )
                  (  0.0000000  0.0000000  1.0000000 )
                  (  0.0000000 -1.0000000  0.0000000 )


   Cartesian axes

     site n.     atom                  positions (alat units)
         1           Sn  tau(   1) = (   0.0000000   0.0000000   0.0000000  )
         2           Sn  tau(   2) = (   0.3535534   0.3535534   0.3535534  )

   Crystallographic axes

     site n.     atom                  positions (cryst. coord.)
         1           Sn  tau(   1) = (  0.0000000  0.0000000  0.0000000  )
         2           Sn  tau(   2) = (  0.2500000  0.2500000  0.2500000  )

     number of k points=   145  gaussian smearing, width (Ry)=  0.0001
                       cart. coord. in units 2pi/alat
        k(    1) = (   0.0000000   0.0000000   0.0000000), wk =   0.0002441
        k(    2) = (   0.0441942   0.0441942  -0.0441942), wk =   0.0019531
        k(    3) = (   0.0883883   0.0883883  -0.0883883), wk =   0.0019531
        k(    4) = (   0.1325825   0.1325825  -0.1325825), wk =   0.0019531
        k(    5) = (   0.1767767   0.1767767  -0.1767767), wk =   0.0019531
        k(    6) = (   0.2209709   0.2209709  -0.2209709), wk =   0.0019531
        k(    7) = (   0.2651650   0.2651650  -0.2651650), wk =   0.0019531
        k(    8) = (   0.3093592   0.3093592  -0.3093592), wk =   0.0019531
        k(    9) = (  -0.3535534  -0.3535534   0.3535534), wk =   0.0009766
        k(   10) = (   0.0883883   0.0000000   0.0000000), wk =   0.0014648
        k(   11) = (   0.1325825   0.0441942  -0.0441942), wk =   0.0058594
        k(   12) = (   0.1767767   0.0883883  -0.0883883), wk =   0.0058594
        k(   13) = (   0.2209709   0.1325825  -0.1325825), wk =   0.0058594
        k(   14) = (   0.2651650   0.1767767  -0.1767767), wk =   0.0058594
        k(   15) = (   0.3093592   0.2209709  -0.2209709), wk =   0.0058594
        k(   16) = (   0.3535534   0.2651650  -0.2651650), wk =   0.0058594
        k(   17) = (  -0.3093592  -0.3977476   0.3977476), wk =   0.0058594
        k(   18) = (  -0.2651650  -0.3535534   0.3535534), wk =   0.0058594
        k(   19) = (  -0.2209709  -0.3093592   0.3093592), wk =   0.0058594
        k(   20) = (  -0.1767767  -0.2651650   0.2651650), wk =   0.0058594
        k(   21) = (  -0.1325825  -0.2209709   0.2209709), wk =   0.0058594
        k(   22) = (  -0.0883883  -0.1767767   0.1767767), wk =   0.0058594
        k(   23) = (  -0.0441942  -0.1325825   0.1325825), wk =   0.0058594
        k(   24) = (   0.0000000  -0.0883883   0.0883883), wk =   0.0029297
        k(   25) = (   0.1767767   0.0000000   0.0000000), wk =   0.0014648
        k(   26) = (   0.2209709   0.0441942  -0.0441942), wk =   0.0058594
        k(   27) = (   0.2651650   0.0883883  -0.0883883), wk =   0.0058594
        k(   28) = (   0.3093592   0.1325825  -0.1325825), wk =   0.0058594
        k(   29) = (   0.3535534   0.1767767  -0.1767767), wk =   0.0058594
        k(   30) = (   0.3977476   0.2209709  -0.2209709), wk =   0.0058594
        k(   31) = (  -0.2651650  -0.4419417   0.4419417), wk =   0.0058594
        k(   32) = (  -0.2209709  -0.3977476   0.3977476), wk =   0.0058594
        k(   33) = (  -0.1767767  -0.3535534   0.3535534), wk =   0.0058594
        k(   34) = (  -0.1325825  -0.3093592   0.3093592), wk =   0.0058594
        k(   35) = (  -0.0883883  -0.2651650   0.2651650), wk =   0.0058594
        k(   36) = (  -0.0441942  -0.2209709   0.2209709), wk =   0.0058594
        k(   37) = (   0.0000000  -0.1767767   0.1767767), wk =   0.0029297
        k(   38) = (   0.2651650   0.0000000   0.0000000), wk =   0.0014648
        k(   39) = (   0.3093592   0.0441942  -0.0441942), wk =   0.0058594
        k(   40) = (   0.3535534   0.0883883  -0.0883883), wk =   0.0058594
        k(   41) = (   0.3977476   0.1325825  -0.1325825), wk =   0.0058594
        k(   42) = (   0.4419417   0.1767767  -0.1767767), wk =   0.0058594
        k(   43) = (  -0.2209709  -0.4861359   0.4861359), wk =   0.0058594
        k(   44) = (  -0.1767767  -0.4419417   0.4419417), wk =   0.0058594
        k(   45) = (  -0.1325825  -0.3977476   0.3977476), wk =   0.0058594
        k(   46) = (  -0.0883883  -0.3535534   0.3535534), wk =   0.0058594
        k(   47) = (  -0.0441942  -0.3093592   0.3093592), wk =   0.0058594
        k(   48) = (   0.0000000  -0.2651650   0.2651650), wk =   0.0029297
        k(   49) = (   0.3535534   0.0000000   0.0000000), wk =   0.0014648
        k(   50) = (   0.3977476   0.0441942  -0.0441942), wk =   0.0058594
        k(   51) = (   0.4419417   0.0883883  -0.0883883), wk =   0.0058594
        k(   52) = (   0.4861359   0.1325825  -0.1325825), wk =   0.0058594
        k(   53) = (  -0.1767767  -0.5303301   0.5303301), wk =   0.0058594
        k(   54) = (  -0.1325825  -0.4861359   0.4861359), wk =   0.0058594
        k(   55) = (  -0.0883883  -0.4419417   0.4419417), wk =   0.0058594
        k(   56) = (  -0.0441942  -0.3977476   0.3977476), wk =   0.0058594
        k(   57) = (   0.0000000  -0.3535534   0.3535534), wk =   0.0029297
        k(   58) = (   0.4419417   0.0000000   0.0000000), wk =   0.0014648
        k(   59) = (   0.4861359   0.0441942  -0.0441942), wk =   0.0058594
        k(   60) = (   0.5303301   0.0883883  -0.0883883), wk =   0.0058594
        k(   61) = (  -0.1325825  -0.5745243   0.5745243), wk =   0.0058594
        k(   62) = (  -0.0883883  -0.5303301   0.5303301), wk =   0.0058594
        k(   63) = (  -0.0441942  -0.4861359   0.4861359), wk =   0.0058594
        k(   64) = (   0.0000000  -0.4419417   0.4419417), wk =   0.0029297
        k(   65) = (   0.5303301   0.0000000   0.0000000), wk =   0.0014648
        k(   66) = (   0.5745243   0.0441942  -0.0441942), wk =   0.0058594
        k(   67) = (  -0.0883883  -0.6187184   0.6187184), wk =   0.0058594
        k(   68) = (  -0.0441942  -0.5745243   0.5745243), wk =   0.0058594
        k(   69) = (   0.0000000  -0.5303301   0.5303301), wk =   0.0029297
        k(   70) = (   0.6187184   0.0000000   0.0000000), wk =   0.0014648
        k(   71) = (  -0.0441942  -0.6629126   0.6629126), wk =   0.0058594
        k(   72) = (   0.0000000  -0.6187184   0.6187184), wk =   0.0029297
        k(   73) = (  -0.7071068   0.0000000   0.0000000), wk =   0.0007324
        k(   74) = (   0.1767767   0.0883883   0.0000000), wk =   0.0058594
        k(   75) = (   0.2209709   0.1325825  -0.0441942), wk =   0.0117188
        k(   76) = (   0.2651650   0.1767767  -0.0883883), wk =   0.0117188
        k(   77) = (   0.3093592   0.2209709  -0.1325825), wk =   0.0117188
        k(   78) = (   0.3535534   0.2651650  -0.1767767), wk =   0.0117188
        k(   79) = (  -0.3093592  -0.3977476   0.4861359), wk =   0.0117188
        k(   80) = (  -0.2651650  -0.3535534   0.4419417), wk =   0.0058594
        k(   81) = (   0.2651650   0.0883883   0.0000000), wk =   0.0058594
        k(   82) = (   0.3093592   0.1325825  -0.0441942), wk =   0.0117188
        k(   83) = (   0.3535534   0.1767767  -0.0883883), wk =   0.0117188
        k(   84) = (   0.3977476   0.2209709  -0.1325825), wk =   0.0117188
        k(   85) = (  -0.2651650  -0.4419417   0.5303301), wk =   0.0117188
        k(   86) = (  -0.2209709  -0.3977476   0.4861359), wk =   0.0117188
        k(   87) = (  -0.1767767  -0.3535534   0.4419417), wk =   0.0117188
        k(   88) = (  -0.1325825  -0.3093592   0.3977476), wk =   0.0117188
        k(   89) = (  -0.0883883  -0.2651650   0.3535534), wk =   0.0117188
        k(   90) = (  -0.0441942  -0.2209709   0.3093592), wk =   0.0117188
        k(   91) = (   0.0000000  -0.1767767   0.2651650), wk =   0.0058594
        k(   92) = (   0.3535534   0.0883883   0.0000000), wk =   0.0058594
        k(   93) = (   0.3977476   0.1325825  -0.0441942), wk =   0.0117188
        k(   94) = (   0.4419417   0.1767767  -0.0883883), wk =   0.0117188
        k(   95) = (  -0.2209709  -0.4861359   0.5745243), wk =   0.0117188
        k(   96) = (  -0.1767767  -0.4419417   0.5303301), wk =   0.0117188
        k(   97) = (  -0.1325825  -0.3977476   0.4861359), wk =   0.0117188
        k(   98) = (  -0.0883883  -0.3535534   0.4419417), wk =   0.0117188
        k(   99) = (  -0.0441942  -0.3093592   0.3977476), wk =   0.0117188
        k(  100) = (   0.0000000  -0.2651650   0.3535534), wk =   0.0058594
        k(  101) = (   0.4419417   0.0883883   0.0000000), wk =   0.0058594
        k(  102) = (   0.4861359   0.1325825  -0.0441942), wk =   0.0117188
        k(  103) = (  -0.1767767  -0.5303301   0.6187184), wk =   0.0117188
        k(  104) = (  -0.1325825  -0.4861359   0.5745243), wk =   0.0117188
        k(  105) = (  -0.0883883  -0.4419417   0.5303301), wk =   0.0117188
        k(  106) = (  -0.0441942  -0.3977476   0.4861359), wk =   0.0117188
        k(  107) = (   0.0000000  -0.3535534   0.4419417), wk =   0.0058594
        k(  108) = (   0.5303301   0.0883883   0.0000000), wk =   0.0058594
        k(  109) = (  -0.1325825  -0.5745243   0.6629126), wk =   0.0117188
        k(  110) = (  -0.0883883  -0.5303301   0.6187184), wk =   0.0117188
        k(  111) = (  -0.0441942  -0.4861359   0.5745243), wk =   0.0117188
        k(  112) = (   0.0000000  -0.4419417   0.5303301), wk =   0.0058594
        k(  113) = (  -0.0883883  -0.6187184   0.7071068), wk =   0.0058594
        k(  114) = (  -0.0441942  -0.5745243   0.6629126), wk =   0.0117188
        k(  115) = (  -0.0000000  -0.5303301   0.6187184), wk =   0.0058594
        k(  116) = (  -0.7071068   0.0883883   0.0000000), wk =   0.0029297
        k(  117) = (   0.3535534   0.1767767   0.0000000), wk =   0.0058594
        k(  118) = (   0.3977476   0.2209709  -0.0441942), wk =   0.0117188
        k(  119) = (  -0.2651650  -0.4419417   0.6187184), wk =   0.0117188
        k(  120) = (  -0.2209709  -0.3977476   0.5745243), wk =   0.0117188
        k(  121) = (  -0.1767767  -0.3535534   0.5303301), wk =   0.0058594
        k(  122) = (   0.4419417   0.1767767   0.0000000), wk =   0.0058594
        k(  123) = (  -0.2209709  -0.4861359   0.6629126), wk =   0.0117188
        k(  124) = (  -0.1767767  -0.4419417   0.6187184), wk =   0.0117188
        k(  125) = (  -0.1325825  -0.3977476   0.5745243), wk =   0.0117188
        k(  126) = (  -0.0883883  -0.3535534   0.5303301), wk =   0.0117188
        k(  127) = (  -0.0441942  -0.3093592   0.4861359), wk =   0.0117188
        k(  128) = (   0.0000000  -0.2651650   0.4419417), wk =   0.0058594
        k(  129) = (  -0.1767767  -0.5303301   0.7071068), wk =   0.0058594
        k(  130) = (  -0.1325825  -0.4861359   0.6629126), wk =   0.0117188
        k(  131) = (  -0.0883883  -0.4419417   0.6187184), wk =   0.0117188
        k(  132) = (  -0.0441942  -0.3977476   0.5745243), wk =   0.0117188
        k(  133) = (   0.0000000  -0.3535534   0.5303301), wk =   0.0058594
        k(  134) = (  -0.0883883  -0.5303301   0.7071068), wk =   0.0058594
        k(  135) = (  -0.0441942  -0.4861359   0.6629126), wk =   0.0117188
        k(  136) = (   0.0000000  -0.4419417   0.6187184), wk =   0.0058594
        k(  137) = (  -0.7071068   0.1767767   0.0000000), wk =   0.0029297
        k(  138) = (  -0.1767767  -0.4419417   0.7071068), wk =   0.0058594
        k(  139) = (  -0.1325825  -0.3977476   0.6629126), wk =   0.0117188
        k(  140) = (  -0.0883883  -0.3535534   0.6187184), wk =   0.0058594
        k(  141) = (  -0.0883883  -0.4419417   0.7071068), wk =   0.0058594
        k(  142) = (  -0.0441942  -0.3977476   0.6629126), wk =   0.0117188
        k(  143) = (  -0.0000000  -0.3535534   0.6187184), wk =   0.0058594
        k(  144) = (  -0.7071068   0.2651650   0.0000000), wk =   0.0029297
        k(  145) = (  -0.7071068   0.3535534   0.0000000), wk =   0.0014648

                       cryst. coord.
        k(    1) = (   0.0000000   0.0000000   0.0000000), wk =   0.0002441
        k(    2) = (   0.0000000   0.0000000   0.0625000), wk =   0.0019531
        k(    3) = (   0.0000000   0.0000000   0.1250000), wk =   0.0019531
        k(    4) = (   0.0000000   0.0000000   0.1875000), wk =   0.0019531
        k(    5) = (   0.0000000   0.0000000   0.2500000), wk =   0.0019531
        k(    6) = (   0.0000000   0.0000000   0.3125000), wk =   0.0019531
        k(    7) = (   0.0000000   0.0000000   0.3750000), wk =   0.0019531
        k(    8) = (   0.0000000   0.0000000   0.4375000), wk =   0.0019531
        k(    9) = (   0.0000000   0.0000000  -0.5000000), wk =   0.0009766
        k(   10) = (   0.0000000   0.0625000   0.0625000), wk =   0.0014648
        k(   11) = (   0.0000000   0.0625000   0.1250000), wk =   0.0058594
        k(   12) = (   0.0000000   0.0625000   0.1875000), wk =   0.0058594
        k(   13) = (   0.0000000   0.0625000   0.2500000), wk =   0.0058594
        k(   14) = (   0.0000000   0.0625000   0.3125000), wk =   0.0058594
        k(   15) = (   0.0000000   0.0625000   0.3750000), wk =   0.0058594
        k(   16) = (   0.0000000   0.0625000   0.4375000), wk =   0.0058594
        k(   17) = (   0.0000000   0.0625000  -0.5000000), wk =   0.0058594
        k(   18) = (   0.0000000   0.0625000  -0.4375000), wk =   0.0058594
        k(   19) = (   0.0000000   0.0625000  -0.3750000), wk =   0.0058594
        k(   20) = (   0.0000000   0.0625000  -0.3125000), wk =   0.0058594
        k(   21) = (   0.0000000   0.0625000  -0.2500000), wk =   0.0058594
        k(   22) = (   0.0000000   0.0625000  -0.1875000), wk =   0.0058594
        k(   23) = (   0.0000000   0.0625000  -0.1250000), wk =   0.0058594
        k(   24) = (   0.0000000   0.0625000  -0.0625000), wk =   0.0029297
        k(   25) = (   0.0000000   0.1250000   0.1250000), wk =   0.0014648
        k(   26) = (   0.0000000   0.1250000   0.1875000), wk =   0.0058594
        k(   27) = (   0.0000000   0.1250000   0.2500000), wk =   0.0058594
        k(   28) = (   0.0000000   0.1250000   0.3125000), wk =   0.0058594
        k(   29) = (   0.0000000   0.1250000   0.3750000), wk =   0.0058594
        k(   30) = (   0.0000000   0.1250000   0.4375000), wk =   0.0058594
        k(   31) = (   0.0000000   0.1250000  -0.5000000), wk =   0.0058594
        k(   32) = (   0.0000000   0.1250000  -0.4375000), wk =   0.0058594
        k(   33) = (   0.0000000   0.1250000  -0.3750000), wk =   0.0058594
        k(   34) = (   0.0000000   0.1250000  -0.3125000), wk =   0.0058594
        k(   35) = (   0.0000000   0.1250000  -0.2500000), wk =   0.0058594
        k(   36) = (   0.0000000   0.1250000  -0.1875000), wk =   0.0058594
        k(   37) = (   0.0000000   0.1250000  -0.1250000), wk =   0.0029297
        k(   38) = (   0.0000000   0.1875000   0.1875000), wk =   0.0014648
        k(   39) = (   0.0000000   0.1875000   0.2500000), wk =   0.0058594
        k(   40) = (   0.0000000   0.1875000   0.3125000), wk =   0.0058594
        k(   41) = (   0.0000000   0.1875000   0.3750000), wk =   0.0058594
        k(   42) = (   0.0000000   0.1875000   0.4375000), wk =   0.0058594
        k(   43) = (   0.0000000   0.1875000  -0.5000000), wk =   0.0058594
        k(   44) = (   0.0000000   0.1875000  -0.4375000), wk =   0.0058594
        k(   45) = (   0.0000000   0.1875000  -0.3750000), wk =   0.0058594
        k(   46) = (   0.0000000   0.1875000  -0.3125000), wk =   0.0058594
        k(   47) = (   0.0000000   0.1875000  -0.2500000), wk =   0.0058594
        k(   48) = (   0.0000000   0.1875000  -0.1875000), wk =   0.0029297
        k(   49) = (   0.0000000   0.2500000   0.2500000), wk =   0.0014648
        k(   50) = (   0.0000000   0.2500000   0.3125000), wk =   0.0058594
        k(   51) = (   0.0000000   0.2500000   0.3750000), wk =   0.0058594
        k(   52) = (   0.0000000   0.2500000   0.4375000), wk =   0.0058594
        k(   53) = (   0.0000000   0.2500000  -0.5000000), wk =   0.0058594
        k(   54) = (   0.0000000   0.2500000  -0.4375000), wk =   0.0058594
        k(   55) = (   0.0000000   0.2500000  -0.3750000), wk =   0.0058594
        k(   56) = (   0.0000000   0.2500000  -0.3125000), wk =   0.0058594
        k(   57) = (   0.0000000   0.2500000  -0.2500000), wk =   0.0029297
        k(   58) = (   0.0000000   0.3125000   0.3125000), wk =   0.0014648
        k(   59) = (   0.0000000   0.3125000   0.3750000), wk =   0.0058594
        k(   60) = (   0.0000000   0.3125000   0.4375000), wk =   0.0058594
        k(   61) = (   0.0000000   0.3125000  -0.5000000), wk =   0.0058594
        k(   62) = (   0.0000000   0.3125000  -0.4375000), wk =   0.0058594
        k(   63) = (   0.0000000   0.3125000  -0.3750000), wk =   0.0058594
        k(   64) = (   0.0000000   0.3125000  -0.3125000), wk =   0.0029297
        k(   65) = (   0.0000000   0.3750000   0.3750000), wk =   0.0014648
        k(   66) = (   0.0000000   0.3750000   0.4375000), wk =   0.0058594
        k(   67) = (   0.0000000   0.3750000  -0.5000000), wk =   0.0058594
        k(   68) = (   0.0000000   0.3750000  -0.4375000), wk =   0.0058594
        k(   69) = (   0.0000000   0.3750000  -0.3750000), wk =   0.0029297
        k(   70) = (   0.0000000   0.4375000   0.4375000), wk =   0.0014648
        k(   71) = (   0.0000000   0.4375000  -0.5000000), wk =   0.0058594
        k(   72) = (   0.0000000   0.4375000  -0.4375000), wk =   0.0029297
        k(   73) = (   0.0000000  -0.5000000  -0.5000000), wk =   0.0007324
        k(   74) = (   0.0625000   0.1250000   0.1875000), wk =   0.0058594
        k(   75) = (   0.0625000   0.1250000   0.2500000), wk =   0.0117188
        k(   76) = (   0.0625000   0.1250000   0.3125000), wk =   0.0117188
        k(   77) = (   0.0625000   0.1250000   0.3750000), wk =   0.0117188
        k(   78) = (   0.0625000   0.1250000   0.4375000), wk =   0.0117188
        k(   79) = (   0.0625000   0.1250000  -0.5000000), wk =   0.0117188
        k(   80) = (   0.0625000   0.1250000  -0.4375000), wk =   0.0058594
        k(   81) = (   0.0625000   0.1875000   0.2500000), wk =   0.0058594
        k(   82) = (   0.0625000   0.1875000   0.3125000), wk =   0.0117188
        k(   83) = (   0.0625000   0.1875000   0.3750000), wk =   0.0117188
        k(   84) = (   0.0625000   0.1875000   0.4375000), wk =   0.0117188
        k(   85) = (   0.0625000   0.1875000  -0.5000000), wk =   0.0117188
        k(   86) = (   0.0625000   0.1875000  -0.4375000), wk =   0.0117188
        k(   87) = (   0.0625000   0.1875000  -0.3750000), wk =   0.0117188
        k(   88) = (   0.0625000   0.1875000  -0.3125000), wk =   0.0117188
        k(   89) = (   0.0625000   0.1875000  -0.2500000), wk =   0.0117188
        k(   90) = (   0.0625000   0.1875000  -0.1875000), wk =   0.0117188
        k(   91) = (   0.0625000   0.1875000  -0.1250000), wk =   0.0058594
        k(   92) = (   0.0625000   0.2500000   0.3125000), wk =   0.0058594
        k(   93) = (   0.0625000   0.2500000   0.3750000), wk =   0.0117188
        k(   94) = (   0.0625000   0.2500000   0.4375000), wk =   0.0117188
        k(   95) = (   0.0625000   0.2500000  -0.5000000), wk =   0.0117188
        k(   96) = (   0.0625000   0.2500000  -0.4375000), wk =   0.0117188
        k(   97) = (   0.0625000   0.2500000  -0.3750000), wk =   0.0117188
        k(   98) = (   0.0625000   0.2500000  -0.3125000), wk =   0.0117188
        k(   99) = (   0.0625000   0.2500000  -0.2500000), wk =   0.0117188
        k(  100) = (   0.0625000   0.2500000  -0.1875000), wk =   0.0058594
        k(  101) = (   0.0625000   0.3125000   0.3750000), wk =   0.0058594
        k(  102) = (   0.0625000   0.3125000   0.4375000), wk =   0.0117188
        k(  103) = (   0.0625000   0.3125000  -0.5000000), wk =   0.0117188
        k(  104) = (   0.0625000   0.3125000  -0.4375000), wk =   0.0117188
        k(  105) = (   0.0625000   0.3125000  -0.3750000), wk =   0.0117188
        k(  106) = (   0.0625000   0.3125000  -0.3125000), wk =   0.0117188
        k(  107) = (   0.0625000   0.3125000  -0.2500000), wk =   0.0058594
        k(  108) = (   0.0625000   0.3750000   0.4375000), wk =   0.0058594
        k(  109) = (   0.0625000   0.3750000  -0.5000000), wk =   0.0117188
        k(  110) = (   0.0625000   0.3750000  -0.4375000), wk =   0.0117188
        k(  111) = (   0.0625000   0.3750000  -0.3750000), wk =   0.0117188
        k(  112) = (   0.0625000   0.3750000  -0.3125000), wk =   0.0058594
        k(  113) = (   0.0625000   0.4375000  -0.5000000), wk =   0.0058594
        k(  114) = (   0.0625000   0.4375000  -0.4375000), wk =   0.0117188
        k(  115) = (   0.0625000   0.4375000  -0.3750000), wk =   0.0058594
        k(  116) = (   0.0625000  -0.5000000  -0.4375000), wk =   0.0029297
        k(  117) = (   0.1250000   0.2500000   0.3750000), wk =   0.0058594
        k(  118) = (   0.1250000   0.2500000   0.4375000), wk =   0.0117188
        k(  119) = (   0.1250000   0.2500000  -0.5000000), wk =   0.0117188
        k(  120) = (   0.1250000   0.2500000  -0.4375000), wk =   0.0117188
        k(  121) = (   0.1250000   0.2500000  -0.3750000), wk =   0.0058594
        k(  122) = (   0.1250000   0.3125000   0.4375000), wk =   0.0058594
        k(  123) = (   0.1250000   0.3125000  -0.5000000), wk =   0.0117188
        k(  124) = (   0.1250000   0.3125000  -0.4375000), wk =   0.0117188
        k(  125) = (   0.1250000   0.3125000  -0.3750000), wk =   0.0117188
        k(  126) = (   0.1250000   0.3125000  -0.3125000), wk =   0.0117188
        k(  127) = (   0.1250000   0.3125000  -0.2500000), wk =   0.0117188
        k(  128) = (   0.1250000   0.3125000  -0.1875000), wk =   0.0058594
        k(  129) = (   0.1250000   0.3750000  -0.5000000), wk =   0.0058594
        k(  130) = (   0.1250000   0.3750000  -0.4375000), wk =   0.0117188
        k(  131) = (   0.1250000   0.3750000  -0.3750000), wk =   0.0117188
        k(  132) = (   0.1250000   0.3750000  -0.3125000), wk =   0.0117188
        k(  133) = (   0.1250000   0.3750000  -0.2500000), wk =   0.0058594
        k(  134) = (   0.1250000   0.4375000  -0.4375000), wk =   0.0058594
        k(  135) = (   0.1250000   0.4375000  -0.3750000), wk =   0.0117188
        k(  136) = (   0.1250000   0.4375000  -0.3125000), wk =   0.0058594
        k(  137) = (   0.1250000  -0.5000000  -0.3750000), wk =   0.0029297
        k(  138) = (   0.1875000   0.3750000  -0.4375000), wk =   0.0058594
        k(  139) = (   0.1875000   0.3750000  -0.3750000), wk =   0.0117188
        k(  140) = (   0.1875000   0.3750000  -0.3125000), wk =   0.0058594
        k(  141) = (   0.1875000   0.4375000  -0.3750000), wk =   0.0058594
        k(  142) = (   0.1875000   0.4375000  -0.3125000), wk =   0.0117188
        k(  143) = (   0.1875000   0.4375000  -0.2500000), wk =   0.0058594
        k(  144) = (   0.1875000  -0.5000000  -0.3125000), wk =   0.0029297
        k(  145) = (   0.2500000  -0.5000000  -0.2500000), wk =   0.0014648

     Dense  grid:    57655 G-vectors     FFT dimensions: (  54,  54,  54)

     Largest allocated arrays     est. size (Mb)     dimensions
        Kohn-Sham Wavefunctions         0.51 Mb     (     920,   36)
        NL pseudopotentials             0.25 Mb     (     460,   36)
        Each V/rho on FFT grid          0.18 Mb     (   11664)
        Each G-vector array             0.03 Mb     (    3604)
        G-vector shells                 0.00 Mb     (     461)
     Largest temporary arrays     est. size (Mb)     dimensions
        Auxiliary wavefunctions         2.02 Mb     (     920,  144)
        Each subspace H/S matrix        0.32 Mb     (     144,  144)
        Each <psi_i|beta_j> matrix      0.04 Mb     (      36,   2,   36)
        Arrays for rho mixing           1.42 Mb     (   11664,    8)

     Check: negative/imaginary core charge=   -0.000001    0.000000

     Initial potential from superposition of free atoms

     starting charge   27.99749, renormalised to   28.00000
     Starting wfc are   36 randomized atomic wfcs
     Checking if some PAW data can be deallocated... 

     total cpu time spent up to now is       14.1 secs

     Self-consistent Calculation

     iteration #  1     ecut=    90.00 Ry     beta=0.70
     Davidson diagonalization with overlap
     ethr =  1.00E-02,  avg # of iterations =  3.5

     Threshold (ethr) on eigenvalues was too large:
     Diagonalizing with lowered threshold

     Davidson diagonalization with overlap
     ethr =  6.39E-05,  avg # of iterations =  3.4

     total cpu time spent up to now is      107.0 secs

     total energy              =    -873.10538816 Ry
     Harris-Foulkes estimate   =    -873.11098640 Ry
     estimated scf accuracy    <       0.02142156 Ry

     iteration #  2     ecut=    90.00 Ry     beta=0.70
     Davidson diagonalization with overlap
     ethr =  7.65E-05,  avg # of iterations =  1.0

     total cpu time spent up to now is      143.0 secs

     total energy              =    -873.10625055 Ry
     Harris-Foulkes estimate   =    -873.10650925 Ry
     estimated scf accuracy    <       0.00134947 Ry

     iteration #  3     ecut=    90.00 Ry     beta=0.70
     Davidson diagonalization with overlap
     ethr =  4.82E-06,  avg # of iterations =  2.8

     total cpu time spent up to now is      194.3 secs

     total energy              =    -873.10652122 Ry
     Harris-Foulkes estimate   =    -873.10656175 Ry
     estimated scf accuracy    <       0.00006841 Ry

     iteration #  4     ecut=    90.00 Ry     beta=0.70
     Davidson diagonalization with overlap
     ethr =  2.44E-07,  avg # of iterations =  2.0

     total cpu time spent up to now is      242.6 secs

     total energy              =    -873.10654252 Ry
     Harris-Foulkes estimate   =    -873.10654230 Ry
     estimated scf accuracy    <       0.00000418 Ry

     iteration #  5     ecut=    90.00 Ry     beta=0.70
     Davidson diagonalization with overlap
     ethr =  1.49E-08,  avg # of iterations =  2.0

     total cpu time spent up to now is      283.0 secs

     End of self-consistent calculation

          k = 0.0000 0.0000 0.0000 (  7239 PWs)   bands (ev):

   -14.7474 -14.7474 -14.7474 -14.7474 -14.7474 -14.7474 -14.6982 -14.6982
   -14.6982 -14.6982 -14.4482 -14.4482 -14.4482 -14.4482 -14.4482 -14.4482
   -14.4476 -14.4476 -14.4476 -14.4476  -3.3620  -3.3620   5.4962   5.4962
     6.8328   6.8328   6.8328   6.8328   6.8328   6.8328   8.8853   8.8853
     8.8853   8.8853   8.8853   8.8853

     occupation numbers 
     1.0000   1.0000   1.0000   1.0000   1.0000   1.0000   1.0000   1.0000
     1.0000   1.0000   1.0000   1.0000   1.0000   1.0000   1.0000   1.0000
     1.0000   1.0000   1.0000   1.0000   1.0000   1.0000   1.0000   1.0000
     0.0000   0.0000   0.0000   0.0000   0.0000   0.0000   0.0000   0.0000
     0.0000   0.0000   0.0000   0.0000

          k = 0.0442 0.0442-0.0442 (  7267 PWs)   bands (ev):

   -14.7500 -14.7500 -14.7500 -14.7500 -14.7465 -14.7465 -14.6947 -14.6947
   -14.6947 -14.6947 -14.4586 -14.4586 -14.4586 -14.4586 -14.4492 -14.4492
   -14.4378 -14.4378 -14.4378 -14.4378  -3.3271  -3.3271   5.1137   5.1137
     6.7600   6.7600   6.7600   6.7600   7.0007   7.0007   8.9804   8.9804
     8.9804   8.9804   9.0075   9.0076

     occupation numbers 
     1.0000   1.0000   1.0000   1.0000   1.0000   1.0000   1.0000   1.0000
     1.0000   1.0000   1.0000   1.0000   1.0000   1.0000   1.0000   1.0000
     1.0000   1.0000   1.0000   1.0000   1.0000   1.0000   1.0000   1.0000
     0.0007   0.0007   0.0007   0.0007   0.0000   0.0000   0.0000   0.0000
     0.0000   0.0000   0.0000   0.0000

          k = 0.0884 0.0884-0.0884 (  7240 PWs)   bands (ev):

   -14.7558 -14.7558 -14.7558 -14.7558 -14.7441 -14.7441 -14.6864 -14.6864
   -14.6864 -14.6864 -14.4693 -14.4693 -14.4693 -14.4693 -14.4520 -14.4520
   -14.4287 -14.4287 -14.4287 -14.4287  -3.2235  -3.2235   4.3631   4.3631
     6.5819   6.5819   6.5819   6.5819   7.1155   7.1155   9.2148   9.2148
     9.2148   9.2148   9.4261   9.4261

     occupation numbers 
     1.0000   1.0000   1.0000   1.0000   1.0000   1.0000   1.0000   1.0000
     1.0000   1.0000   1.0000   1.0000   1.0000   1.0000   1.0000   1.0000
     1.0000   1.0000   1.0000   1.0000   1.0000   1.0000   1.0000   1.0000
     1.0000   1.0000   1.0000   1.0000   0.0000   0.0000   0.0000   0.0000
     0.0000   0.0000   0.0000   0.0000

          k = 0.1326 0.1326-0.1326 (  7237 PWs)   bands (ev):

   -14.7622 -14.7622 -14.7622 -14.7622 -14.7405 -14.7405 -14.6764 -14.6764
   -14.6764 -14.6764 -14.4792 -14.4792 -14.4792 -14.4792 -14.4563 -14.4563
   -14.4210 -14.4210 -14.4210 -14.4210  -3.0540  -3.0540   3.5381   3.5381
     6.3668   6.3668   6.3668   6.3668   7.0416   7.0416   9.4897   9.4897
     9.4897   9.4897  10.0937  10.0937

     occupation numbers 
     1.0000   1.0000   1.0000   1.0000   1.0000   1.0000   1.0000   1.0000
     1.0000   1.0000   1.0000   1.0000   1.0000   1.0000   1.0000   1.0000
     1.0000   1.0000   1.0000   1.0000   1.0000   1.0000   1.0000   1.0000
     1.0000   1.0000   1.0000   1.0000   0.0000   0.0000   0.0000   0.0000
     0.0000   0.0000   0.0000   0.0000

          k = 0.1768 0.1768-0.1768 (  7243 PWs)   bands (ev):

   -14.7677 -14.7677 -14.7677 -14.7677 -14.7362 -14.7362 -14.6669 -14.6669
   -14.6669 -14.6669 -14.4877 -14.4877 -14.4877 -14.4877 -14.4615 -14.4615
   -14.4148 -14.4148 -14.4148 -14.4148  -2.8250  -2.8250   2.7285   2.7285
     6.1599   6.1599   6.1599   6.1599   6.8947   6.8947   9.7185   9.7185
     9.7185   9.7185  10.8932  10.8932

     occupation numbers 
     1.0000   1.0000   1.0000   1.0000   1.0000   1.0000   1.0000   1.0000
     1.0000   1.0000   1.0000   1.0000   1.0000   1.0000   1.0000   1.0000
     1.0000   1.0000   1.0000   1.0000   1.0000   1.0000   1.0000   1.0000
     1.0000   1.0000   1.0000   1.0000   0.0000   0.0000   0.0000   0.0000
     0.0000   0.0000   0.0000   0.0000

          k = 0.2210 0.2210-0.2210 (  7237 PWs)   bands (ev):

   -14.7718 -14.7718 -14.7718 -14.7718 -14.7317 -14.7317 -14.6592 -14.6592
   -14.6592 -14.6592 -14.4942 -14.4942 -14.4942 -14.4942 -14.4668 -14.4668
   -14.4103 -14.4103 -14.4103 -14.4103  -2.5494  -2.5494   1.9810   1.9810
     5.9850   5.9850   5.9850   5.9850   6.7484   6.7484   9.8554   9.8554
     9.8554   9.8554  11.7524  11.7524

     occupation numbers 
     1.0000   1.0000   1.0000   1.0000   1.0000   1.0000   1.0000   1.0000
     1.0000   1.0000   1.0000   1.0000   1.0000   1.0000   1.0000   1.0000
     1.0000   1.0000   1.0000   1.0000   1.0000   1.0000   1.0000   1.0000
     1.0000   1.0000   1.0000   1.0000   1.0000   1.0000   0.0000   0.0000
     0.0000   0.0000   0.0000   0.0000

          k = 0.2652 0.2652-0.2652 (  7228 PWs)   bands (ev):

   -14.7746 -14.7746 -14.7746 -14.7746 -14.7278 -14.7278 -14.6538 -14.6538
   -14.6538 -14.6538 -14.4986 -14.4986 -14.4986 -14.4986 -14.4714 -14.4714
   -14.4072 -14.4072 -14.4072 -14.4072  -2.2554  -2.2554   1.3409   1.3409
     5.8543   5.8543   5.8543   5.8543   6.6330   6.6330   9.9095   9.9095
     9.9095   9.9095  12.3820  12.3820

     occupation numbers 
     1.0000   1.0000   1.0000   1.0000   1.0000   1.0000   1.0000   1.0000
     1.0000   1.0000   1.0000   1.0000   1.0000   1.0000   1.0000   1.0000
     1.0000   1.0000   1.0000   1.0000   1.0000   1.0000   1.0000   1.0000
     1.0000   1.0000   1.0000   1.0000   1.0000   1.0000   0.0000   0.0000
     0.0000   0.0000   0.0000   0.0000

          k = 0.3094 0.3094-0.3094 (  7234 PWs)   bands (ev):

   -14.7761 -14.7761 -14.7761 -14.7761 -14.7251 -14.7251 -14.6507 -14.6507
   -14.6507 -14.6507 -14.5009 -14.5009 -14.5009 -14.5009 -14.4745 -14.4745
   -14.4055 -14.4055 -14.4055 -14.4055  -2.0032  -2.0032   0.8777   0.8777
     5.7739   5.7739   5.7739   5.7739   6.5607   6.5607   9.9200   9.9200
     9.9200   9.9200  12.3756  12.3756

     occupation numbers 
     1.0000   1.0000   1.0000   1.0000   1.0000   1.0000   1.0000   1.0000
     1.0000   1.0000   1.0000   1.0000   1.0000   1.0000   1.0000   1.0000
     1.0000   1.0000   1.0000   1.0000   1.0000   1.0000   1.0000   1.0000
     1.0000   1.0000   1.0000   1.0000   1.0000   1.0000   0.0000   0.0000
     0.0000   0.0000   0.0000   0.0000

          k =-0.3536-0.3536 0.3536 (  7192 PWs)   bands (ev):

   -14.7766 -14.7766 -14.7766 -14.7766 -14.7241 -14.7241 -14.6497 -14.6497
   -14.6497 -14.6497 -14.5017 -14.5017 -14.5017 -14.5017 -14.4756 -14.4756
   -14.4049 -14.4049 -14.4049 -14.4049  -1.8964  -1.8964   0.7002   0.7002
     5.7468   5.7468   5.7468   5.7468   6.5362   6.5362   9.9196   9.9196
     9.9196   9.9196  12.3468  12.3468

     occupation numbers 
     1.0000   1.0000   1.0000   1.0000   1.0000   1.0000   1.0000   1.0000
     1.0000   1.0000   1.0000   1.0000   1.0000   1.0000   1.0000   1.0000
     1.0000   1.0000   1.0000   1.0000   1.0000   1.0000   1.0000   1.0000
     1.0000   1.0000   1.0000   1.0000   1.0000   1.0000   0.0000   0.0000
     0.0000   0.0000   0.0000   0.0000

          k = 0.0884 0.0000 0.0000 (  7255 PWs)   bands (ev):

   -14.7496 -14.7496 -14.7492 -14.7492 -14.7492 -14.7492 -14.6957 -14.6957
   -14.6912 -14.6912 -14.4679 -14.4679 -14.4500 -14.4500 -14.4457 -14.4457
   -14.4457 -14.4457 -14.4336 -14.4336  -3.3155  -3.3155   5.0345   5.0345
     6.6262   6.6262   6.6262   6.6262   7.2753   7.2753   8.7304   8.7304
     9.1509   9.1509   9.1509   9.1509

     occupation numbers 
     1.0000   1.0000   1.0000   1.0000   1.0000   1.0000   1.0000   1.0000
     1.0000   1.0000   1.0000   1.0000   1.0000   1.0000   1.0000   1.0000
     1.0000   1.0000   1.0000   1.0000   1.0000   1.0000   1.0000   1.0000
     1.0000   1.0000   1.0000   1.0000   0.0000   0.0000   0.0000   0.0000
     0.0000   0.0000   0.0000   0.0000

          k = 0.1326 0.0442-0.0442 (  7242 PWs)   bands (ev):

   -14.7557 -14.7557 -14.7530 -14.7530 -14.7470 -14.7470 -14.6905 -14.6905
   -14.6826 -14.6826 -14.4793 -14.4793 -14.4591 -14.4591 -14.4459 -14.4459
   -14.4369 -14.4369 -14.4266 -14.4266  -3.2346  -3.2346   4.4781   4.4781
     6.4174   6.4174   6.4463   6.4463   7.5209   7.5209   8.7238   8.7238
     9.4343   9.4343   9.5026   9.5026

     occupation numbers 
     1.0000   1.0000   1.0000   1.0000   1.0000   1.0000   1.0000   1.0000
     1.0000   1.0000   1.0000   1.0000   1.0000   1.0000   1.0000   1.0000
     1.0000   1.0000   1.0000   1.0000   1.0000   1.0000   1.0000   1.0000
     1.0000   1.0000   1.0000   1.0000   0.0000   0.0000   0.0000   0.0000
     0.0000   0.0000   0.0000   0.0000

          k = 0.1768 0.0884-0.0884 (  7236 PWs)   bands (ev):

   -14.7629 -14.7629 -14.7588 -14.7588 -14.7429 -14.7429 -14.6818 -14.6818
   -14.6721 -14.6721 -14.4901 -14.4901 -14.4693 -14.4693 -14.4499 -14.4499
   -14.4281 -14.4281 -14.4188 -14.4188  -3.0866  -3.0866   3.7298   3.7298
     6.1945   6.1945   6.2245   6.2245   7.5324   7.5324   8.9521   8.9521
     9.7396   9.7396  10.0407  10.0408

     occupation numbers 
     1.0000   1.0000   1.0000   1.0000   1.0000   1.0000   1.0000   1.0000
     1.0000   1.0000   1.0000   1.0000   1.0000   1.0000   1.0000   1.0000
     1.0000   1.0000   1.0000   1.0000   1.0000   1.0000   1.0000   1.0000
     1.0000   1.0000   1.0000   1.0000   0.0000   0.0000   0.0000   0.0000
     0.0000   0.0000   0.0000   0.0000

          k = 0.2210 0.1326-0.1326 (  7246 PWs)   bands (ev):

   -14.7695 -14.7695 -14.7645 -14.7645 -14.7375 -14.7375 -14.6725 -14.6725
   -14.6619 -14.6619 -14.4991 -14.4991 -14.4787 -14.4787 -14.4561 -14.4561
   -14.4206 -14.4206 -14.4119 -14.4119  -2.8765  -2.8765   2.9443   2.9443
     5.9807   5.9807   5.9940   5.9940   7.4119   7.4119   9.2683   9.2683
     9.9855   9.9855  10.6699  10.6699

     occupation numbers 
     1.0000   1.0000   1.0000   1.0000   1.0000   1.0000   1.0000   1.0000
     1.0000   1.0000   1.0000   1.0000   1.0000   1.0000   1.0000   1.0000
     1.0000   1.0000   1.0000   1.0000   1.0000   1.0000   1.0000   1.0000
     1.0000   1.0000   1.0000   1.0000   0.0000   0.0000   0.0000   0.0000
     0.0000   0.0000   0.0000   0.0000

          k = 0.2652 0.1768-0.1768 (  7237 PWs)   bands (ev):

   -14.7748 -14.7748 -14.7693 -14.7693 -14.7315 -14.7315 -14.6639 -14.6639
   -14.6537 -14.6537 -14.5055 -14.5055 -14.4869 -14.4869 -14.4632 -14.4632
   -14.4146 -14.4146 -14.4065 -14.4065  -2.6143  -2.6143   2.1916   2.1916
     5.7536   5.7536   5.8349   5.8349   7.2626   7.2626   9.5299   9.5299
    10.1210  10.1210  11.3370  11.3370

     occupation numbers 
     1.0000   1.0000   1.0000   1.0000   1.0000   1.0000   1.0000   1.0000
     1.0000   1.0000   1.0000   1.0000   1.0000   1.0000   1.0000   1.0000
     1.0000   1.0000   1.0000   1.0000   1.0000   1.0000   1.0000   1.0000
     1.0000   1.0000   1.0000   1.0000   0.0000   0.0000   0.0000   0.0000
     0.0000   0.0000   0.0000   0.0000

          k = 0.3094 0.2210-0.2210 (  7234 PWs)   bands (ev):

   -14.7784 -14.7784 -14.7730 -14.7730 -14.7258 -14.7258 -14.6567 -14.6567
   -14.6484 -14.6484 -14.5087 -14.5087 -14.4938 -14.4938 -14.4704 -14.4704
   -14.4099 -14.4099 -14.4027 -14.4027  -2.3216  -2.3216   1.5213   1.5213
     5.5643   5.5643   5.7267   5.7267   7.1303   7.1303   9.6867   9.6867
    10.1499  10.1499  11.9973  11.9973

     occupation numbers 
     1.0000   1.0000   1.0000   1.0000   1.0000   1.0000   1.0000   1.0000
     1.0000   1.0000   1.0000   1.0000   1.0000   1.0000   1.0000   1.0000
     1.0000   1.0000   1.0000   1.0000   1.0000   1.0000   1.0000   1.0000
     1.0000   1.0000   1.0000   1.0000   0.0000   0.0000   0.0000   0.0000
     0.0000   0.0000   0.0000   0.0000

          k = 0.3536 0.2652-0.2652 (  7233 PWs)   bands (ev):

   -14.7805 -14.7805 -14.7757 -14.7757 -14.7213 -14.7213 -14.6513 -14.6513
   -14.6463 -14.6463 -14.5085 -14.5085 -14.4992 -14.4992 -14.4765 -14.4765
   -14.4064 -14.4064 -14.4006 -14.4006  -2.0452  -2.0452   0.9948   0.9948
     5.4235   5.4235   5.6740   5.6740   7.0340   7.0340   9.7705   9.7705
    10.1144  10.1144  12.4003  12.4004

     occupation numbers 
     1.0000   1.0000   1.0000   1.0000   1.0000   1.0000   1.0000   1.0000
     1.0000   1.0000   1.0000   1.0000   1.0000   1.0000   1.0000   1.0000
     1.0000   1.0000   1.0000   1.0000   1.0000   1.0000   1.0000   1.0000
     1.0000   1.0000   1.0000   1.0000   0.0000   0.0000   0.0000   0.0000
     0.0000   0.0000   0.0000   0.0000

          k =-0.3094-0.3977 0.3977 (  7214 PWs)   bands (ev):

   -14.7811 -14.7811 -14.7773 -14.7773 -14.7187 -14.7187 -14.6476 -14.6476
   -14.6469 -14.6469 -14.5057 -14.5057 -14.5034 -14.5034 -14.4803 -14.4803
   -14.4041 -14.4041 -14.4003 -14.4003  -1.8768  -1.8768   0.7114   0.7114
     5.3368   5.3368   5.6780   5.6780   6.9820   6.9820   9.8294   9.8294
    10.0557  10.0557  12.4763  12.4763

     occupation numbers 
     1.0000   1.0000   1.0000   1.0000   1.0000   1.0000   1.0000   1.0000
     1.0000   1.0000   1.0000   1.0000   1.0000   1.0000   1.0000   1.0000
     1.0000   1.0000   1.0000   1.0000   1.0000   1.0000   1.0000   1.0000
     1.0000   1.0000   1.0000   1.0000   0.0000   0.0000   0.0000   0.0000
     0.0000   0.0000   0.0000   0.0000

          k =-0.2652-0.3536 0.3536 (  7222 PWs)   bands (ev):

   -14.7802 -14.7802 -14.7779 -14.7779 -14.7188 -14.7188 -14.6495 -14.6495
   -14.6458 -14.6458 -14.5061 -14.5061 -14.5017 -14.5017 -14.4808 -14.4808
   -14.4030 -14.4030 -14.4016 -14.4016  -1.9139  -1.9139   0.7718   0.7718
     5.3078   5.3078   5.7378   5.7378   6.9772   6.9772   9.8890   9.8890
     9.9937   9.9937  12.4906  12.4906

     occupation numbers 
     1.0000   1.0000   1.0000   1.0000   1.0000   1.0000   1.0000   1.0000
     1.0000   1.0000   1.0000   1.0000   1.0000   1.0000   1.0000   1.0000
     1.0000   1.0000   1.0000   1.0000   1.0000   1.0000   1.0000   1.0000
     1.0000   1.0000   1.0000   1.0000   0.0000   0.0000   0.0000   0.0000
     0.0000   0.0000   0.0000   0.0000

          k =-0.2210-0.3094 0.3094 (  7239 PWs)   bands (ev):

   -14.7780 -14.7780 -14.7775 -14.7775 -14.7215 -14.7215 -14.6537 -14.6537
   -14.6465 -14.6465 -14.5067 -14.5067 -14.4977 -14.4977 -14.4772 -14.4772
   -14.4046 -14.4046 -14.4032 -14.4032  -2.1314  -2.1314   1.1502   1.1502
     5.3388   5.3388   5.8503   5.8503   7.0193   7.0193   9.9247   9.9247
     9.9462   9.9462  12.4018  12.4018

     occupation numbers 
     1.0000   1.0000   1.0000   1.0000   1.0000   1.0000   1.0000   1.0000
     1.0000   1.0000   1.0000   1.0000   1.0000   1.0000   1.0000   1.0000
     1.0000   1.0000   1.0000   1.0000   1.0000   1.0000   1.0000   1.0000
     1.0000   1.0000   1.0000   1.0000   0.0000   0.0000   0.0000   0.0000
     0.0000   0.0000   0.0000   0.0000

          k =-0.1768-0.2652 0.2652 (  7233 PWs)   bands (ev):

   -14.7757 -14.7757 -14.7744 -14.7744 -14.7262 -14.7262 -14.6594 -14.6594
   -14.6503 -14.6503 -14.5046 -14.5046 -14.4934 -14.4934 -14.4704 -14.4704
   -14.4092 -14.4092 -14.4049 -14.4049  -2.4210  -2.4210   1.7334   1.7334
     5.4313   5.4313   6.0096   6.0096   7.1038   7.1038   9.8238   9.8238
     9.9664   9.9664  11.8550  11.8551

     occupation numbers 
     1.0000   1.0000   1.0000   1.0000   1.0000   1.0000   1.0000   1.0000
     1.0000   1.0000   1.0000   1.0000   1.0000   1.0000   1.0000   1.0000
     1.0000   1.0000   1.0000   1.0000   1.0000   1.0000   1.0000   1.0000
     1.0000   1.0000   1.0000   1.0000   0.0000   0.0000   0.0000   0.0000
     0.0000   0.0000   0.0000   0.0000

          k =-0.1326-0.2210 0.2210 (  7244 PWs)   bands (ev):

   -14.7724 -14.7724 -14.7695 -14.7695 -14.7321 -14.7321 -14.6666 -14.6666
   -14.6572 -14.6572 -14.4993 -14.4993 -14.4879 -14.4879 -14.4622 -14.4622
   -14.4154 -14.4154 -14.4082 -14.4082  -2.7070  -2.7070   2.4358   2.4358
     5.5859   5.5859   6.2059   6.2059   7.2192   7.2192   9.6591   9.6591
     9.8796   9.8796  11.1338  11.1338

     occupation numbers 
     1.0000   1.0000   1.0000   1.0000   1.0000   1.0000   1.0000   1.0000
     1.0000   1.0000   1.0000   1.0000   1.0000   1.0000   1.0000   1.0000
     1.0000   1.0000   1.0000   1.0000   1.0000   1.0000   1.0000   1.0000
     1.0000   1.0000   1.0000   1.0000   0.0000   0.0000   0.0000   0.0000
     0.0000   0.0000   0.0000   0.0000

          k =-0.0884-0.1768 0.1768 (  7245 PWs)   bands (ev):

   -14.7676 -14.7676 -14.7634 -14.7634 -14.7380 -14.7380 -14.6751 -14.6751
   -14.6666 -14.6666 -14.4913 -14.4913 -14.4807 -14.4807 -14.4541 -14.4541
   -14.4232 -14.4232 -14.4133 -14.4133  -2.9533  -2.9533   3.2021   3.2021
     5.8027   5.8027   6.4217   6.4217   7.3368   7.3368   9.4250   9.4250
     9.6193   9.6193  10.4958  10.4958

     occupation numbers 
     1.0000   1.0000   1.0000   1.0000   1.0000   1.0000   1.0000   1.0000
     1.0000   1.0000   1.0000   1.0000   1.0000   1.0000   1.0000   1.0000
     1.0000   1.0000   1.0000   1.0000   1.0000   1.0000   1.0000   1.0000
     1.0000   1.0000   1.0000   1.0000   0.0000   0.0000   0.0000   0.0000
     0.0000   0.0000   0.0000   0.0000

          k =-0.0442-0.1326 0.1326 (  7233 PWs)   bands (ev):

   -14.7614 -14.7614 -14.7567 -14.7567 -14.7431 -14.7431 -14.6840 -14.6840
   -14.6774 -14.6774 -14.4812 -14.4812 -14.4722 -14.4722 -14.4471 -14.4471
   -14.4322 -14.4322 -14.4200 -14.4200  -3.1434  -3.1434   3.9780   3.9780
     6.0811   6.0811   6.6243   6.6243   7.3869   7.3869   9.1715   9.1715
     9.2583   9.2583   9.9421   9.9421

     occupation numbers 
     1.0000   1.0000   1.0000   1.0000   1.0000   1.0000   1.0000   1.0000
     1.0000   1.0000   1.0000   1.0000   1.0000   1.0000   1.0000   1.0000
     1.0000   1.0000   1.0000   1.0000   1.0000   1.0000   1.0000   1.0000
     1.0000   1.0000   1.0000   1.0000   0.0000   0.0000   0.0000   0.0000
     0.0000   0.0000   0.0000   0.0000

          k = 0.0000-0.0884 0.0884 (  7257 PWs)   bands (ev):

   -14.7549 -14.7549 -14.7511 -14.7511 -14.7463 -14.7463 -14.6916 -14.6916
   -14.6876 -14.6876 -14.4700 -14.4700 -14.4632 -14.4632 -14.4431 -14.4431
   -14.4409 -14.4409 -14.4283 -14.4283  -3.2693  -3.2693   4.6751   4.6751
     6.4198   6.4198   6.7578   6.7578   7.2544   7.2544   8.9926   8.9926
     9.0164   9.0164   9.4272   9.4272

     occupation numbers 
     1.0000   1.0000   1.0000   1.0000   1.0000   1.0000   1.0000   1.0000
     1.0000   1.0000   1.0000   1.0000   1.0000   1.0000   1.0000   1.0000
     1.0000   1.0000   1.0000   1.0000   1.0000   1.0000   1.0000   1.0000
     1.0000   1.0000   0.1658   0.1658   0.0000   0.0000   0.0000   0.0000
     0.0000   0.0000   0.0000   0.0000

          k = 0.1768 0.0000 0.0000 (  7219 PWs)   bands (ev):

   -14.7543 -14.7543 -14.7543 -14.7543 -14.7526 -14.7526 -14.6885 -14.6885
   -14.6737 -14.6737 -14.4927 -14.4927 -14.4569 -14.4569 -14.4386 -14.4386
   -14.4386 -14.4386 -14.4255 -14.4255  -3.1764  -3.1764   4.2299   4.2299
     6.1938   6.1938   6.1938   6.1938   7.9874   7.9874   8.3941   8.3941
     9.7586   9.7586   9.7586   9.7586

     occupation numbers 
     1.0000   1.0000   1.0000   1.0000   1.0000   1.0000   1.0000   1.0000
     1.0000   1.0000   1.0000   1.0000   1.0000   1.0000   1.0000   1.0000
     1.0000   1.0000   1.0000   1.0000   1.0000   1.0000   1.0000   1.0000
     1.0000   1.0000   1.0000   1.0000   0.0000   0.0000   0.0000   0.0000
     0.0000   0.0000   0.0000   0.0000

          k = 0.2210 0.0442-0.0442 (  7224 PWs)   bands (ev):

   -14.7620 -14.7620 -14.7587 -14.7587 -14.7484 -14.7484 -14.6817 -14.6817
   -14.6624 -14.6624 -14.5056 -14.5056 -14.4647 -14.4647 -14.4391 -14.4391
   -14.4315 -14.4315 -14.4200 -14.4200  -3.0503  -3.0503   3.6903   3.6903
     5.9471   5.9471   5.9659   5.9659   8.1648   8.1648   8.3882   8.3882
    10.1047  10.1047  10.1806  10.1807

     occupation numbers 
     1.0000   1.0000   1.0000   1.0000   1.0000   1.0000   1.0000   1.0000
     1.0000   1.0000   1.0000   1.0000   1.0000   1.0000   1.0000   1.0000
     1.0000   1.0000   1.0000   1.0000   1.0000   1.0000   1.0000   1.0000
     1.0000   1.0000   1.0000   1.0000   0.0000   0.0000   0.0000   0.0000
     0.0000   0.0000   0.0000   0.0000

          k = 0.2652 0.0884-0.0884 (  7236 PWs)   bands (ev):

   -14.7703 -14.7703 -14.7640 -14.7640 -14.7413 -14.7413 -14.6729 -14.6729
   -14.6513 -14.6513 -14.5167 -14.5167 -14.4745 -14.4745 -14.4460 -14.4460
   -14.4235 -14.4235 -14.4116 -14.4116  -2.8601  -2.8601   3.0172   3.0172
     5.6612   5.6612   5.7663   5.7663   8.0861   8.0861   8.6872   8.6872
    10.3925  10.3925  10.5978  10.5978

     occupation numbers 
     1.0000   1.0000   1.0000   1.0000   1.0000   1.0000   1.0000   1.0000
     1.0000   1.0000   1.0000   1.0000   1.0000   1.0000   1.0000   1.0000
     1.0000   1.0000   1.0000   1.0000   1.0000   1.0000   1.0000   1.0000
     1.0000   1.0000   1.0000   1.0000   0.0000   0.0000   0.0000   0.0000
     0.0000   0.0000   0.0000   0.0000

          k = 0.3094 0.1326-0.1326 (  7236 PWs)   bands (ev):

   -14.7777 -14.7777 -14.7691 -14.7691 -14.7325 -14.7325 -14.6637 -14.6637
   -14.6422 -14.6422 -14.5247 -14.5247 -14.4842 -14.4842 -14.4557 -14.4557
   -14.4163 -14.4163 -14.4037 -14.4037  -2.6135  -2.6135   2.3169   2.3169
     5.3738   5.3738   5.6129   5.6129   7.9420   7.9420   9.0752   9.0752
    10.5591  10.5591  10.9007  10.9007

     occupation numbers 
     1.0000   1.0000   1.0000   1.0000   1.0000   1.0000   1.0000   1.0000
     1.0000   1.0000   1.0000   1.0000   1.0000   1.0000   1.0000   1.0000
     1.0000   1.0000   1.0000   1.0000   1.0000   1.0000   1.0000   1.0000
     1.0000   1.0000   1.0000   1.0000   0.0000   0.0000   0.0000   0.0000
     0.0000   0.0000   0.0000   0.0000

          k = 0.3536 0.1768-0.1768 (  7223 PWs)   bands (ev):

   -14.7836 -14.7836 -14.7733 -14.7733 -14.7233 -14.7233 -14.6551 -14.6551
   -14.6365 -14.6365 -14.5285 -14.5285 -14.4931 -14.4931 -14.4665 -14.4665
   -14.4103 -14.4103 -14.3974 -14.3974  -2.3269  -2.3269   1.6563   1.6563
     5.1202   5.1202   5.5149   5.5149   7.7971   7.7971   9.4008   9.4008
    10.5933  10.5933  11.2497  11.2497

     occupation numbers 
     1.0000   1.0000   1.0000   1.0000   1.0000   1.0000   1.0000   1.0000
     1.0000   1.0000   1.0000   1.0000   1.0000   1.0000   1.0000   1.0000
     1.0000   1.0000   1.0000   1.0000   1.0000   1.0000   1.0000   1.0000
     1.0000   1.0000   1.0000   1.0000   0.0000   0.0000   0.0000   0.0000
     0.0000   0.0000   0.0000   0.0000

          k = 0.3977 0.2210-0.2210 (  7214 PWs)   bands (ev):

   -14.7876 -14.7876 -14.7767 -14.7767 -14.7149 -14.7149 -14.6477 -14.6477
   -14.6349 -14.6349 -14.5274 -14.5274 -14.5013 -14.5013 -14.4768 -14.4768
   -14.4055 -14.4055 -14.3931 -14.3931  -2.0359  -2.0359   1.0980   1.0980
     4.9177   4.9177   5.4766   5.4766   7.6795   7.6795   9.5960   9.5960
    10.5357  10.5357  11.7660  11.7660

     occupation numbers 
     1.0000   1.0000   1.0000   1.0000   1.0000   1.0000   1.0000   1.0000
     1.0000   1.0000   1.0000   1.0000   1.0000   1.0000   1.0000   1.0000
     1.0000   1.0000   1.0000   1.0000   1.0000   1.0000   1.0000   1.0000
     1.0000   1.0000   1.0000   1.0000   0.0000   0.0000   0.0000   0.0000
     0.0000   0.0000   0.0000   0.0000

          k =-0.2652-0.4419 0.4419 (  7221 PWs)   bands (ev):

   -14.7895 -14.7895 -14.7791 -14.7791 -14.7087 -14.7087 -14.6415 -14.6415
   -14.6373 -14.6373 -14.5218 -14.5218 -14.5085 -14.5085 -14.4853 -14.4853
   -14.4019 -14.4019 -14.3912 -14.3912  -1.8169  -1.8169   0.7321   0.7321
     4.7751   4.7751   5.4992   5.4992   7.6020   7.6020   9.7106   9.7106
    10.4351  10.4351  12.3314  12.3314

     occupation numbers 
     1.0000   1.0000   1.0000   1.0000   1.0000   1.0000   1.0000   1.0000
     1.0000   1.0000   1.0000   1.0000   1.0000   1.0000   1.0000   1.0000
     1.0000   1.0000   1.0000   1.0000   1.0000   1.0000   1.0000   1.0000
     1.0000   1.0000   1.0000   1.0000   0.0000   0.0000   0.0000   0.0000
     0.0000   0.0000   0.0000   0.0000

          k =-0.2210-0.3977 0.3977 (  7216 PWs)   bands (ev):

   -14.7894 -14.7894 -14.7806 -14.7806 -14.7061 -14.7061 -14.6424 -14.6424
   -14.6373 -14.6373 -14.5141 -14.5141 -14.5125 -14.5125 -14.4909 -14.4909
   -14.3996 -14.3996 -14.3918 -14.3918  -1.7814  -1.7814   0.6768   0.6768
     4.6981   4.6981   5.5807   5.5807   7.5694   7.5694   9.8071   9.8071
    10.3199  10.3199  12.6325  12.6325

     occupation numbers 
     1.0000   1.0000   1.0000   1.0000   1.0000   1.0000   1.0000   1.0000
     1.0000   1.0000   1.0000   1.0000   1.0000   1.0000   1.0000   1.0000
     1.0000   1.0000   1.0000   1.0000   1.0000   1.0000   1.0000   1.0000
     1.0000   1.0000   1.0000   1.0000   0.0000   0.0000   0.0000   0.0000
     0.0000   0.0000   0.0000   0.0000

          k =-0.1768-0.3536 0.3536 (  7215 PWs)   bands (ev):

   -14.7871 -14.7871 -14.7810 -14.7810 -14.7077 -14.7077 -14.6489 -14.6489
   -14.6359 -14.6359 -14.5172 -14.5172 -14.5021 -14.5021 -14.4920 -14.4920
   -14.3988 -14.3988 -14.3949 -14.3949  -1.9539  -1.9539   0.9567   0.9567
     4.6920   4.6920   5.7166   5.7166   7.5807   7.5807   9.9080   9.9080
    10.1928  10.1928  12.3867  12.3867

     occupation numbers 
     1.0000   1.0000   1.0000   1.0000   1.0000   1.0000   1.0000   1.0000
     1.0000   1.0000   1.0000   1.0000   1.0000   1.0000   1.0000   1.0000
     1.0000   1.0000   1.0000   1.0000   1.0000   1.0000   1.0000   1.0000
     1.0000   1.0000   1.0000   1.0000   0.0000   0.0000   0.0000   0.0000
     0.0000   0.0000   0.0000   0.0000

          k =-0.1326-0.3094 0.3094 (  7231 PWs)   bands (ev):

   -14.7829 -14.7829 -14.7800 -14.7800 -14.7132 -14.7132 -14.6558 -14.6558
   -14.6383 -14.6383 -14.5166 -14.5166 -14.4967 -14.4967 -14.4835 -14.4835
   -14.4005 -14.4005 -14.3996 -14.3996  -2.2328  -2.2328   1.4639   1.4639
     4.7634   4.7634   5.8987   5.8987   7.6289   7.6289   9.9901   9.9901
    10.0354  10.0354  11.7371  11.7371

     occupation numbers 
     1.0000   1.0000   1.0000   1.0000   1.0000   1.0000   1.0000   1.0000
     1.0000   1.0000   1.0000   1.0000   1.0000   1.0000   1.0000   1.0000
     1.0000   1.0000   1.0000   1.0000   1.0000   1.0000   1.0000   1.0000
     1.0000   1.0000   1.0000   1.0000   0.0000   0.0000   0.0000   0.0000
     0.0000   0.0000   0.0000   0.0000

          k =-0.0884-0.2652 0.2652 (  7243 PWs)   bands (ev):

   -14.7775 -14.7775 -14.7769 -14.7769 -14.7215 -14.7215 -14.6628 -14.6628
   -14.6448 -14.6448 -14.5119 -14.5119 -14.4930 -14.4930 -14.4702 -14.4702
   -14.4085 -14.4085 -14.4021 -14.4021  -2.5258  -2.5258   2.0919   2.0919
     4.9218   4.9218   6.1132   6.1132   7.6954   7.6954   9.8233   9.8233
     9.9584   9.9584  11.1328  11.1328

     occupation numbers 
     1.0000   1.0000   1.0000   1.0000   1.0000   1.0000   1.0000   1.0000
     1.0000   1.0000   1.0000   1.0000   1.0000   1.0000   1.0000   1.0000
     1.0000   1.0000   1.0000   1.0000   1.0000   1.0000   1.0000   1.0000
     1.0000   1.0000   1.0000   1.0000   0.0000   0.0000   0.0000   0.0000
     0.0000   0.0000   0.0000   0.0000

          k =-0.0442-0.2210 0.2210 (  7238 PWs)   bands (ev):

   -14.7733 -14.7733 -14.7696 -14.7696 -14.7305 -14.7305 -14.6703 -14.6703
   -14.6546 -14.6546 -14.5037 -14.5037 -14.4875 -14.4875 -14.4574 -14.4574
   -14.4183 -14.4183 -14.4064 -14.4064  -2.7873  -2.7873   2.7669   2.7669
     5.1825   5.1825   6.3361   6.3361   7.7360   7.7360   9.5619   9.5619
     9.6942   9.6942  10.7661  10.7661

     occupation numbers 
     1.0000   1.0000   1.0000   1.0000   1.0000   1.0000   1.0000   1.0000
     1.0000   1.0000   1.0000   1.0000   1.0000   1.0000   1.0000   1.0000
     1.0000   1.0000   1.0000   1.0000   1.0000   1.0000   1.0000   1.0000
     1.0000   1.0000   1.0000   1.0000   0.0000   0.0000   0.0000   0.0000
     0.0000   0.0000   0.0000   0.0000

          k = 0.0000-0.1768 0.1768 (  7245 PWs)   bands (ev):

   -14.7677 -14.7677 -14.7620 -14.7620 -14.7384 -14.7384 -14.6778 -14.6778
   -14.6661 -14.6661 -14.4930 -14.4930 -14.4802 -14.4802 -14.4474 -14.4474
   -14.4286 -14.4286 -14.4125 -14.4125  -2.9965  -2.9965   3.4206   3.4206
     5.5666   5.5666   6.5266   6.5266   7.6581   7.6581   9.3122   9.3122
     9.3796   9.3796  10.4417  10.4417

     occupation numbers 
     1.0000   1.0000   1.0000   1.0000   1.0000   1.0000   1.0000   1.0000
     1.0000   1.0000   1.0000   1.0000   1.0000   1.0000   1.0000   1.0000
     1.0000   1.0000   1.0000   1.0000   1.0000   1.0000   1.0000   1.0000
     1.0000   1.0000   1.0000   1.0000   0.0000   0.0000   0.0000   0.0000
     0.0000   0.0000   0.0000   0.0000

          k = 0.2652 0.0000 0.0000 (  7231 PWs)   bands (ev):

   -14.7616 -14.7616 -14.7616 -14.7616 -14.7526 -14.7526 -14.6766 -14.6766
   -14.6501 -14.6501 -14.5213 -14.5213 -14.4682 -14.4682 -14.4284 -14.4284
   -14.4284 -14.4284 -14.4240 -14.4240  -2.9459  -2.9459   3.3794   3.3794
     5.7335   5.7335   5.7335   5.7335   8.0412   8.0412   8.5427   8.5427
    10.5056  10.5056  10.5056  10.5056

     occupation numbers 
     1.0000   1.0000   1.0000   1.0000   1.0000   1.0000   1.0000   1.0000
     1.0000   1.0000   1.0000   1.0000   1.0000   1.0000   1.0000   1.0000
     1.0000   1.0000   1.0000   1.0000   1.0000   1.0000   1.0000   1.0000
     1.0000   1.0000   1.0000   1.0000   0.0000   0.0000   0.0000   0.0000
     0.0000   0.0000   0.0000   0.0000

          k = 0.3094 0.0442-0.0442 (  7237 PWs)   bands (ev):

   -14.7691 -14.7691 -14.7661 -14.7661 -14.7467 -14.7467 -14.6685 -14.6685
   -14.6375 -14.6375 -14.5353 -14.5353 -14.4766 -14.4766 -14.4348 -14.4348
   -14.4218 -14.4218 -14.4150 -14.4150  -2.7760  -2.7760   2.8765   2.8765
     5.4706   5.4706   5.5300   5.5300   8.0251   8.0251   8.6416   8.6416
    10.8219  10.8219  10.8613  10.8613

     occupation numbers 
     1.0000   1.0000   1.0000   1.0000   1.0000   1.0000   1.0000   1.0000
     1.0000   1.0000   1.0000   1.0000   1.0000   1.0000   1.0000   1.0000
     1.0000   1.0000   1.0000   1.0000   1.0000   1.0000   1.0000   1.0000
     1.0000   1.0000   1.0000   1.0000   0.0000   0.0000   0.0000   0.0000
     0.0000   0.0000   0.0000   0.0000

          k = 0.3536 0.0884-0.0884 (  7224 PWs)   bands (ev):

   -14.7780 -14.7780 -14.7709 -14.7709 -14.7362 -14.7362 -14.6591 -14.6591
   -14.6266 -14.6266 -14.5461 -14.5461 -14.4865 -14.4865 -14.4467 -14.4467
   -14.4147 -14.4147 -14.4043 -14.4043  -2.5465  -2.5465   2.2864   2.2864
     5.1453   5.1453   5.3739   5.3739   8.1215   8.1215   8.7860   8.7860
    10.8692  10.8693  11.0947  11.0947

     occupation numbers 
     1.0000   1.0000   1.0000   1.0000   1.0000   1.0000   1.0000   1.0000
     1.0000   1.0000   1.0000   1.0000   1.0000   1.0000   1.0000   1.0000
     1.0000   1.0000   1.0000   1.0000   1.0000   1.0000   1.0000   1.0000
     1.0000   1.0000   1.0000   1.0000   0.0000   0.0000   0.0000   0.0000
     0.0000   0.0000   0.0000   0.0000

          k = 0.3977 0.1326-0.1326 (  7227 PWs)   bands (ev):

   -14.7860 -14.7860 -14.7752 -14.7752 -14.7239 -14.7239 -14.6496 -14.6496
   -14.6192 -14.6192 -14.5525 -14.5525 -14.4967 -14.4967 -14.4605 -14.4605
   -14.4084 -14.4084 -14.3951 -14.3951  -2.2697  -2.2697   1.6852   1.6852
     4.8223   4.8223   5.2754   5.2754   8.0935   8.0935   9.1715   9.1715
    10.8607  10.8607  11.1704  11.1704

     occupation numbers 
     1.0000   1.0000   1.0000   1.0000   1.0000   1.0000   1.0000   1.0000
     1.0000   1.0000   1.0000   1.0000   1.0000   1.0000   1.0000   1.0000
     1.0000   1.0000   1.0000   1.0000   1.0000   1.0000   1.0000   1.0000
     1.0000   1.0000   1.0000   1.0000   0.0000   0.0000   0.0000   0.0000
     0.0000   0.0000   0.0000   0.0000

          k = 0.4419 0.1768-0.1768 (  7220 PWs)   bands (ev):

   -14.7924 -14.7924 -14.7788 -14.7788 -14.7116 -14.7116 -14.6405 -14.6405
   -14.6169 -14.6169 -14.5530 -14.5530 -14.5067 -14.5067 -14.4743 -14.4743
   -14.4030 -14.4030 -14.3880 -14.3880  -1.9723  -1.9723   1.1372   1.1372
     4.5456   4.5456   5.2392   5.2392   8.0168   8.0168   9.5902   9.5902
    11.0314  11.0314  11.1188  11.1188

     occupation numbers 
     1.0000   1.0000   1.0000   1.0000   1.0000   1.0000   1.0000   1.0000
     1.0000   1.0000   1.0000   1.0000   1.0000   1.0000   1.0000   1.0000
     1.0000   1.0000   1.0000   1.0000   1.0000   1.0000   1.0000   1.0000
     1.0000   1.0000   1.0000   1.0000   0.0000   0.0000   0.0000   0.0000
     0.0000   0.0000   0.0000   0.0000

          k =-0.2210-0.4861 0.4861 (  7219 PWs)   bands (ev):

   -14.7964 -14.7964 -14.7816 -14.7816 -14.7013 -14.7013 -14.6325 -14.6325
   -14.6200 -14.6200 -14.5475 -14.5475 -14.5161 -14.5161 -14.4863 -14.4863
   -14.3989 -14.3989 -14.3836 -14.3836  -1.7147  -1.7147   0.7242   0.7242
     4.3356   4.3356   5.2667   5.2667   7.9593   7.9593   9.8416   9.8416
    10.9960  10.9960  11.5147  11.5147

     occupation numbers 
     1.0000   1.0000   1.0000   1.0000   1.0000   1.0000   1.0000   1.0000
     1.0000   1.0000   1.0000   1.0000   1.0000   1.0000   1.0000   1.0000
     1.0000   1.0000   1.0000   1.0000   1.0000   1.0000   1.0000   1.0000
     1.0000   1.0000   1.0000   1.0000   0.0000   0.0000   0.0000   0.0000
     0.0000   0.0000   0.0000   0.0000

          k =-0.1768-0.4419 0.4419 (  7212 PWs)   bands (ev):

   -14.7979 -14.7979 -14.7835 -14.7835 -14.6947 -14.6947 -14.6276 -14.6276
   -14.6262 -14.6262 -14.5369 -14.5369 -14.5240 -14.5240 -14.4948 -14.4948
   -14.3961 -14.3961 -14.3822 -14.3822  -1.6092  -1.6092   0.5692   0.5692
     4.2034   4.2034   5.3561   5.3561   7.9390   7.9390   9.9683   9.9683
    10.8395  10.8395  12.1607  12.1607

     occupation numbers 
     1.0000   1.0000   1.0000   1.0000   1.0000   1.0000   1.0000   1.0000
     1.0000   1.0000   1.0000   1.0000   1.0000   1.0000   1.0000   1.0000
     1.0000   1.0000   1.0000   1.0000   1.0000   1.0000   1.0000   1.0000
     1.0000   1.0000   1.0000   1.0000   0.0000   0.0000   0.0000   0.0000
     0.0000   0.0000   0.0000   0.0000

          k =-0.1326-0.3977 0.3977 (  7214 PWs)   bands (ev):

   -14.7966 -14.7966 -14.7843 -14.7843 -14.6933 -14.6933 -14.6377 -14.6377
   -14.6231 -14.6231 -14.5289 -14.5289 -14.5221 -14.5221 -14.4993 -14.4993
   -14.3947 -14.3947 -14.3841 -14.3841  -1.7289  -1.7289   0.7468   0.7468
     4.1585   4.1585   5.5023   5.5023   7.9552   7.9552  10.0722  10.0722
    10.6576  10.6576  12.2736  12.2736

     occupation numbers 
     1.0000   1.0000   1.0000   1.0000   1.0000   1.0000   1.0000   1.0000
     1.0000   1.0000   1.0000   1.0000   1.0000   1.0000   1.0000   1.0000
     1.0000   1.0000   1.0000   1.0000   1.0000   1.0000   1.0000   1.0000
     1.0000   1.0000   1.0000   1.0000   0.0000   0.0000   0.0000   0.0000
     0.0000   0.0000   0.0000   0.0000

          k =-0.0884-0.3536 0.3536 (  7211 PWs)   bands (ev):

   -14.7926 -14.7926 -14.7838 -14.7838 -14.6977 -14.6977 -14.6480 -14.6480
   -14.6248 -14.6248 -14.5292 -14.5292 -14.5048 -14.5048 -14.5001 -14.5001
   -14.3951 -14.3951 -14.3893 -14.3893  -1.9915  -1.9915   1.1663   1.1663
     4.2134   4.2134   5.6959   5.6959   7.9944   7.9944  10.1799  10.1799
    10.4347  10.4347  11.5971  11.5971

     occupation numbers 
     1.0000   1.0000   1.0000   1.0000   1.0000   1.0000   1.0000   1.0000
     1.0000   1.0000   1.0000   1.0000   1.0000   1.0000   1.0000   1.0000
     1.0000   1.0000   1.0000   1.0000   1.0000   1.0000   1.0000   1.0000
     1.0000   1.0000   1.0000   1.0000   0.0000   0.0000   0.0000   0.0000
     0.0000   0.0000   0.0000   0.0000

          k =-0.0442-0.3094 0.3094 (  7217 PWs)   bands (ev):

   -14.7862 -14.7862 -14.7818 -14.7818 -14.7072 -14.7072 -14.6568 -14.6568
   -14.6316 -14.6316 -14.5243 -14.5243 -14.4981 -14.4981 -14.4866 -14.4866
   -14.3975 -14.3975 -14.3971 -14.3971  -2.2880  -2.2880   1.6985   1.6985
     4.3867   4.3867   5.9208   5.9208   8.0230   8.0230  10.1540  10.1540
    10.2120  10.2120  10.9824  10.9824

     occupation numbers 
     1.0000   1.0000   1.0000   1.0000   1.0000   1.0000   1.0000   1.0000
     1.0000   1.0000   1.0000   1.0000   1.0000   1.0000   1.0000   1.0000
     1.0000   1.0000   1.0000   1.0000   1.0000   1.0000   1.0000   1.0000
     1.0000   1.0000   1.0000   1.0000   0.0000   0.0000   0.0000   0.0000
     0.0000   0.0000   0.0000   0.0000

          k = 0.0000-0.2652 0.2652 (  7225 PWs)   bands (ev):

   -14.7783 -14.7783 -14.7781 -14.7781 -14.7192 -14.7192 -14.6640 -14.6640
   -14.6422 -14.6422 -14.5152 -14.5152 -14.4937 -14.4937 -14.4699 -14.4699
   -14.4079 -14.4079 -14.4009 -14.4009  -2.5616  -2.5616   2.2532   2.2532
     4.7035   4.7035   6.1492   6.1492   7.9694   7.9694   9.8375   9.8375
     9.9548   9.9548  10.8006  10.8006

     occupation numbers 
     1.0000   1.0000   1.0000   1.0000   1.0000   1.0000   1.0000   1.0000
     1.0000   1.0000   1.0000   1.0000   1.0000   1.0000   1.0000   1.0000
     1.0000   1.0000   1.0000   1.0000   1.0000   1.0000   1.0000   1.0000
     1.0000   1.0000   1.0000   1.0000   0.0000   0.0000   0.0000   0.0000
     0.0000   0.0000   0.0000   0.0000

          k = 0.3536 0.0000 0.0000 (  7187 PWs)   bands (ev):

   -14.7698 -14.7698 -14.7698 -14.7698 -14.7478 -14.7478 -14.6607 -14.6607
   -14.6229 -14.6229 -14.5524 -14.5524 -14.4835 -14.4835 -14.4290 -14.4290
   -14.4168 -14.4168 -14.4168 -14.4168  -2.6259  -2.6259   2.5333   2.5333
     5.3198   5.3198   5.3198   5.3198   7.7484   7.7484   8.6992   8.6992
    11.3104  11.3104  11.3104  11.3104

     occupation numbers 
     1.0000   1.0000   1.0000   1.0000   1.0000   1.0000   1.0000   1.0000
     1.0000   1.0000   1.0000   1.0000   1.0000   1.0000   1.0000   1.0000
     1.0000   1.0000   1.0000   1.0000   1.0000   1.0000   1.0000   1.0000
     1.0000   1.0000   1.0000   1.0000   0.0000   0.0000   0.0000   0.0000
     0.0000   0.0000   0.0000   0.0000

          k = 0.3977 0.0442-0.0442 (  7226 PWs)   bands (ev):

   -14.7765 -14.7765 -14.7739 -14.7739 -14.7397 -14.7397 -14.6512 -14.6512
   -14.6096 -14.6096 -14.5667 -14.5667 -14.4930 -14.4930 -14.4393 -14.4393
   -14.4108 -14.4108 -14.4070 -14.4070  -2.4142  -2.4142   2.0680   2.0680
     5.0656   5.0656   5.1560   5.1560   7.7725   7.7725   8.6604   8.6604
    11.4319  11.4319  11.6506  11.6506

     occupation numbers 
     1.0000   1.0000   1.0000   1.0000   1.0000   1.0000   1.0000   1.0000
     1.0000   1.0000   1.0000   1.0000   1.0000   1.0000   1.0000   1.0000
     1.0000   1.0000   1.0000   1.0000   1.0000   1.0000   1.0000   1.0000
     1.0000   1.0000   1.0000   1.0000   0.0000   0.0000   0.0000   0.0000
     0.0000   0.0000   0.0000   0.0000

          k = 0.4419 0.0884-0.0884 (  7204 PWs)   bands (ev):

   -14.7853 -14.7853 -14.7779 -14.7779 -14.7263 -14.7263 -14.6411 -14.6411
   -14.5997 -14.5997 -14.5765 -14.5765 -14.5036 -14.5036 -14.4546 -14.4546
   -14.4048 -14.4048 -14.3960 -14.3960  -2.1499  -2.1499   1.5560   1.5560
     4.7228   4.7228   5.0499   5.0499   7.9204   7.9204   8.7948   8.7948
    11.2866  11.2866  11.8128  11.8128

     occupation numbers 
     1.0000   1.0000   1.0000   1.0000   1.0000   1.0000   1.0000   1.0000
     1.0000   1.0000   1.0000   1.0000   1.0000   1.0000   1.0000   1.0000
     1.0000   1.0000   1.0000   1.0000   1.0000   1.0000   1.0000   1.0000
     1.0000   1.0000   1.0000   1.0000   0.0000   0.0000   0.0000   0.0000
     0.0000   0.0000   0.0000   0.0000

          k = 0.4861 0.1326-0.1326 (  7211 PWs)   bands (ev):

   -14.7935 -14.7935 -14.7813 -14.7813 -14.7112 -14.7112 -14.6309 -14.6309
   -14.5962 -14.5962 -14.5791 -14.5791 -14.5147 -14.5147 -14.4712 -14.4712
   -14.3997 -14.3997 -14.3866 -14.3866  -1.8524  -1.8524   1.0559   1.0559
     4.3797   4.3797   5.0074   5.0074   7.9635   7.9635   9.2593   9.2593
    11.1514  11.1514  11.8017  11.8017

     occupation numbers 
     1.0000   1.0000   1.0000   1.0000   1.0000   1.0000   1.0000   1.0000
     1.0000   1.0000   1.0000   1.0000   1.0000   1.0000   1.0000   1.0000
     1.0000   1.0000   1.0000   1.0000   1.0000   1.0000   1.0000   1.0000
     1.0000   1.0000   1.0000   1.0000   0.0000   0.0000   0.0000   0.0000
     0.0000   0.0000   0.0000   0.0000

          k =-0.1768-0.5303 0.5303 (  7203 PWs)   bands (ev):

   -14.7997 -14.7997 -14.7841 -14.7841 -14.6974 -14.6974 -14.6214 -14.6214
   -14.5985 -14.5985 -14.5753 -14.5753 -14.5255 -14.5255 -14.4861 -14.4861
   -14.3956 -14.3956 -14.3797 -14.3797  -1.5677  -1.5677   0.6361   0.6361
     4.0938   4.0938   5.0302   5.0302   7.9607   7.9607   9.8862   9.8862
    11.1254  11.1254  11.6766  11.6766

     occupation numbers 
     1.0000   1.0000   1.0000   1.0000   1.0000   1.0000   1.0000   1.0000
     1.0000   1.0000   1.0000   1.0000   1.0000   1.0000   1.0000   1.0000
[...]

     occupation numbers 
     1.0000   1.0000   1.0000   1.0000   1.0000   1.0000   1.0000   1.0000
     1.0000   1.0000   1.0000   1.0000   1.0000   1.0000   1.0000   1.0000
     1.0000   1.0000   1.0000   1.0000   1.0000   1.0000   1.0000   1.0000
     1.0000   1.0000   1.0000   1.0000   0.0000   0.0000   0.0000   0.0000
     0.0000   0.0000   0.0000   0.0000

          k =-0.1326-0.3977 0.5745 (  7218 PWs)   bands (ev):

   -14.8036 -14.8036 -14.7908 -14.7908 -14.6768 -14.6768 -14.6157 -14.6157
   -14.5954 -14.5954 -14.5726 -14.5726 -14.5378 -14.5378 -14.5066 -14.5066
   -14.3879 -14.3879 -14.3754 -14.3754  -1.3104  -1.3104   0.3389   0.3389
     3.8578   3.8578   4.8321   4.8321   8.6507   8.6507   9.8876   9.8876
    11.1629  11.1629  11.8668  11.8668

     occupation numbers 
     1.0000   1.0000   1.0000   1.0000   1.0000   1.0000   1.0000   1.0000
     1.0000   1.0000   1.0000   1.0000   1.0000   1.0000   1.0000   1.0000
     1.0000   1.0000   1.0000   1.0000   1.0000   1.0000   1.0000   1.0000
     1.0000   1.0000   1.0000   1.0000   0.0000   0.0000   0.0000   0.0000
     0.0000   0.0000   0.0000   0.0000

          k =-0.0884-0.3536 0.5303 (  7222 PWs)   bands (ev):

   -14.8035 -14.8035 -14.7908 -14.7908 -14.6763 -14.6763 -14.6187 -14.6187
   -14.5967 -14.5967 -14.5684 -14.5684 -14.5372 -14.5372 -14.5076 -14.5076
   -14.3878 -14.3878 -14.3757 -14.3757  -1.3650  -1.3650   0.4082   0.4082
     3.8244   3.8244   4.9016   4.9016   8.6990   8.6990   9.8755   9.8755
    11.2307  11.2307  11.8273  11.8274

     occupation numbers 
     1.0000   1.0000   1.0000   1.0000   1.0000   1.0000   1.0000   1.0000
     1.0000   1.0000   1.0000   1.0000   1.0000   1.0000   1.0000   1.0000
     1.0000   1.0000   1.0000   1.0000   1.0000   1.0000   1.0000   1.0000
     1.0000   1.0000   1.0000   1.0000   0.0000   0.0000   0.0000   0.0000
     0.0000   0.0000   0.0000   0.0000

          k =-0.0442-0.3094 0.4861 (  7219 PWs)   bands (ev):

   -14.8001 -14.8001 -14.7898 -14.7898 -14.6833 -14.6833 -14.6292 -14.6292
   -14.5991 -14.5991 -14.5660 -14.5660 -14.5240 -14.5240 -14.5033 -14.5033
   -14.3890 -14.3890 -14.3799 -14.3799  -1.6093  -1.6093   0.7278   0.7278
     3.8963   3.8963   5.0450   5.0450   8.7547   8.7547   9.7653   9.7653
    10.6372  10.6372  12.0634  12.0634

     occupation numbers 
     1.0000   1.0000   1.0000   1.0000   1.0000   1.0000   1.0000   1.0000
     1.0000   1.0000   1.0000   1.0000   1.0000   1.0000   1.0000   1.0000
     1.0000   1.0000   1.0000   1.0000   1.0000   1.0000   1.0000   1.0000
     1.0000   1.0000   1.0000   1.0000   0.0000   0.0000   0.0000   0.0000
     0.0000   0.0000   0.0000   0.0000

          k = 0.0000-0.2652 0.4419 (  7224 PWs)   bands (ev):

   -14.7940 -14.7940 -14.7874 -14.7874 -14.6962 -14.6962 -14.6400 -14.6400
   -14.6066 -14.6066 -14.5599 -14.5599 -14.5090 -14.5090 -14.4927 -14.4927
   -14.3917 -14.3917 -14.3874 -14.3874  -1.9080  -1.9080   1.1468   1.1468
     4.0926   4.0926   5.2369   5.2369   8.7580   8.7580   9.4134   9.4134
    10.4544  10.4544  11.8360  11.8360

     occupation numbers 
     1.0000   1.0000   1.0000   1.0000   1.0000   1.0000   1.0000   1.0000
     1.0000   1.0000   1.0000   1.0000   1.0000   1.0000   1.0000   1.0000
     1.0000   1.0000   1.0000   1.0000   1.0000   1.0000   1.0000   1.0000
     1.0000   1.0000   1.0000   1.0000   0.0000   0.0000   0.0000   0.0000
     0.0000   0.0000   0.0000   0.0000

          k =-0.1768-0.5303 0.7071 (  7209 PWs)   bands (ev):

   -14.7922 -14.7922 -14.7903 -14.7903 -14.6997 -14.6997 -14.6203 -14.6203
   -14.6017 -14.6017 -14.5750 -14.5750 -14.5254 -14.5254 -14.4820 -14.4820
   -14.3889 -14.3889 -14.3877 -14.3877  -1.6164  -1.6164   0.7659   0.7659
     4.2677   4.2677   4.7047   4.7047   8.3809   8.3809   8.7399   8.7399
    11.1603  11.1603  12.8015  12.8015

     occupation numbers 
     1.0000   1.0000   1.0000   1.0000   1.0000   1.0000   1.0000   1.0000
     1.0000   1.0000   1.0000   1.0000   1.0000   1.0000   1.0000   1.0000
     1.0000   1.0000   1.0000   1.0000   1.0000   1.0000   1.0000   1.0000
     1.0000   1.0000   1.0000   1.0000   0.0000   0.0000   0.0000   0.0000
     0.0000   0.0000   0.0000   0.0000

          k =-0.1326-0.4861 0.6629 (  7205 PWs)   bands (ev):

   -14.7990 -14.7990 -14.7927 -14.7927 -14.6823 -14.6823 -14.6101 -14.6101
   -14.6063 -14.6063 -14.5688 -14.5688 -14.5378 -14.5378 -14.4994 -14.4994
   -14.3860 -14.3860 -14.3799 -14.3799  -1.3120  -1.3120   0.3821   0.3821
     4.0350   4.0350   4.5815   4.5815   8.5486   8.5486   9.2188   9.2188
    10.9814  10.9814  12.7499  12.7499

     occupation numbers 
     1.0000   1.0000   1.0000   1.0000   1.0000   1.0000   1.0000   1.0000
     1.0000   1.0000   1.0000   1.0000   1.0000   1.0000   1.0000   1.0000
     1.0000   1.0000   1.0000   1.0000   1.0000   1.0000   1.0000   1.0000
     1.0000   1.0000   1.0000   1.0000   0.0000   0.0000   0.0000   0.0000
     0.0000   0.0000   0.0000   0.0000

          k =-0.0884-0.4419 0.6187 (  7214 PWs)   bands (ev):

   -14.8040 -14.8040 -14.7937 -14.7937 -14.6696 -14.6696 -14.6060 -14.6060
   -14.5984 -14.5984 -14.5708 -14.5708 -14.5490 -14.5490 -14.5113 -14.5113
   -14.3846 -14.3846 -14.3744 -14.3744  -1.0735  -1.0735   0.1064   0.1064
     3.8347   3.8347   4.5717   4.5717   8.6059   8.6059   9.9530   9.9530
    10.8730  10.8730  12.1575  12.1575

     occupation numbers 
     1.0000   1.0000   1.0000   1.0000   1.0000   1.0000   1.0000   1.0000
     1.0000   1.0000   1.0000   1.0000   1.0000   1.0000   1.0000   1.0000
     1.0000   1.0000   1.0000   1.0000   1.0000   1.0000   1.0000   1.0000
     1.0000   1.0000   1.0000   1.0000   0.0000   0.0000   0.0000   0.0000
     0.0000   0.0000   0.0000   0.0000

          k =-0.0442-0.3977 0.5745 (  7217 PWs)   bands (ev):

   -14.8060 -14.8060 -14.7937 -14.7937 -14.6663 -14.6663 -14.6024 -14.6024
   -14.5904 -14.5904 -14.5785 -14.5785 -14.5535 -14.5535 -14.5141 -14.5141
   -14.3845 -14.3845 -14.3725 -14.3725  -1.0754  -1.0754   0.1111   0.1111
     3.7206   3.7206   4.6612   4.6612   8.6863   8.6863  10.4230  10.4230
    11.0944  11.0944  11.4164  11.4164

     occupation numbers 
     1.0000   1.0000   1.0000   1.0000   1.0000   1.0000   1.0000   1.0000
     1.0000   1.0000   1.0000   1.0000   1.0000   1.0000   1.0000   1.0000
     1.0000   1.0000   1.0000   1.0000   1.0000   1.0000   1.0000   1.0000
     1.0000   1.0000   1.0000   1.0000   0.0000   0.0000   0.0000   0.0000
     0.0000   0.0000   0.0000   0.0000

          k = 0.0000-0.3536 0.5303 (  7218 PWs)   bands (ev):

   -14.8045 -14.8045 -14.7925 -14.7925 -14.6716 -14.6716 -14.6144 -14.6144
   -14.5874 -14.5874 -14.5780 -14.5780 -14.5429 -14.5429 -14.5107 -14.5107
   -14.3858 -14.3858 -14.3745 -14.3745  -1.3112  -1.3112   0.3802   0.3802
     3.7328   3.7328   4.8280   4.8280   8.7699   8.7699  10.2807  10.2807
    10.7089  10.7089  11.9165  11.9165

     occupation numbers 
     1.0000   1.0000   1.0000   1.0000   1.0000   1.0000   1.0000   1.0000
     1.0000   1.0000   1.0000   1.0000   1.0000   1.0000   1.0000   1.0000
     1.0000   1.0000   1.0000   1.0000   1.0000   1.0000   1.0000   1.0000
     1.0000   1.0000   1.0000   1.0000   0.0000   0.0000   0.0000   0.0000
     0.0000   0.0000   0.0000   0.0000

          k =-0.0884-0.5303 0.7071 (  7204 PWs)   bands (ev):

   -14.7956 -14.7956 -14.7944 -14.7944 -14.6804 -14.6804 -14.6304 -14.6304
   -14.5972 -14.5972 -14.5485 -14.5485 -14.5483 -14.5483 -14.5004 -14.5004
   -14.3838 -14.3838 -14.3827 -14.3827  -1.0895  -1.0895   0.1148   0.1148
     4.1948   4.1948   4.4122   4.4122   8.3472   8.3472   8.5560   8.5560
    11.8380  11.8380  13.0814  13.0814

     occupation numbers 
     1.0000   1.0000   1.0000   1.0000   1.0000   1.0000   1.0000   1.0000
     1.0000   1.0000   1.0000   1.0000   1.0000   1.0000   1.0000   1.0000
     1.0000   1.0000   1.0000   1.0000   1.0000   1.0000   1.0000   1.0000
     1.0000   1.0000   1.0000   1.0000   0.0000   0.0000   0.0000   0.0000
     0.0000   0.0000   0.0000   0.0000

          k =-0.0442-0.4861 0.6629 (  7211 PWs)   bands (ev):

   -14.8013 -14.8013 -14.7955 -14.7955 -14.6635 -14.6635 -14.6312 -14.6312
   -14.5868 -14.5868 -14.5610 -14.5610 -14.5464 -14.5464 -14.5164 -14.5164
   -14.3824 -14.3824 -14.3767 -14.3767  -0.8053  -0.8053  -0.1852  -0.1852
     3.9815   3.9815   4.3698   4.3698   8.4939   8.4939   9.1627   9.1627
    11.6531  11.6532  12.3710  12.3710

     occupation numbers 
     1.0000   1.0000   1.0000   1.0000   1.0000   1.0000   1.0000   1.0000
     1.0000   1.0000   1.0000   1.0000   1.0000   1.0000   1.0000   1.0000
     1.0000   1.0000   1.0000   1.0000   1.0000   1.0000   1.0000   1.0000
     1.0000   1.0000   1.0000   1.0000   0.0000   0.0000   0.0000   0.0000
     0.0000   0.0000   0.0000   0.0000

          k = 0.0000-0.4419 0.6187 (  7217 PWs)   bands (ev):

   -14.8052 -14.8052 -14.7952 -14.7952 -14.6606 -14.6606 -14.6151 -14.6151
   -14.5860 -14.5860 -14.5652 -14.5652 -14.5597 -14.5597 -14.5188 -14.5188
   -14.3828 -14.3828 -14.3729 -14.3729  -0.8072  -0.8072  -0.1740  -0.1740
     3.7858   3.7858   4.4751   4.4751   8.5840   8.5840   9.9878   9.9878
    11.4910  11.4910  11.5069  11.5069

     occupation numbers 
     1.0000   1.0000   1.0000   1.0000   1.0000   1.0000   1.0000   1.0000
     1.0000   1.0000   1.0000   1.0000   1.0000   1.0000   1.0000   1.0000
     1.0000   1.0000   1.0000   1.0000   1.0000   1.0000   1.0000   1.0000
     1.0000   1.0000   1.0000   1.0000   0.0000   0.0000   0.0000   0.0000
     0.0000   0.0000   0.0000   0.0000

          k =-0.7071 0.1768 0.0000 (  7202 PWs)   bands (ev):

   -14.7964 -14.7964 -14.7963 -14.7963 -14.6575 -14.6575 -14.6565 -14.6565
   -14.5754 -14.5754 -14.5701 -14.5701 -14.5235 -14.5235 -14.5224 -14.5224
   -14.3815 -14.3815 -14.3814 -14.3814  -0.5089  -0.5089  -0.5074  -0.5074
     4.2418   4.2418   4.2419   4.2419   8.4095   8.4095   8.4097   8.4097
    12.5651  12.5651  12.5651  12.5651

     occupation numbers 
     1.0000   1.0000   1.0000   1.0000   1.0000   1.0000   1.0000   1.0000
     1.0000   1.0000   1.0000   1.0000   1.0000   1.0000   1.0000   1.0000
     1.0000   1.0000   1.0000   1.0000   1.0000   1.0000   1.0000   1.0000
     1.0000   1.0000   1.0000   1.0000   0.0000   0.0000   0.0000   0.0000
     0.0000   0.0000   0.0000   0.0000

          k =-0.1768-0.4419 0.7071 (  7218 PWs)   bands (ev):

   -14.7991 -14.7991 -14.7928 -14.7928 -14.6817 -14.6817 -14.6207 -14.6207
   -14.5888 -14.5888 -14.5822 -14.5822 -14.5294 -14.5294 -14.5019 -14.5019
   -14.3860 -14.3860 -14.3804 -14.3804  -1.4823  -1.4823   0.5931   0.5931
     3.9545   3.9545   4.7395   4.7395   9.1547   9.1547   9.2733   9.2733
    10.4090  10.4090  12.5290  12.5290

     occupation numbers 
     1.0000   1.0000   1.0000   1.0000   1.0000   1.0000   1.0000   1.0000
     1.0000   1.0000   1.0000   1.0000   1.0000   1.0000   1.0000   1.0000
     1.0000   1.0000   1.0000   1.0000   1.0000   1.0000   1.0000   1.0000
     1.0000   1.0000   1.0000   1.0000   0.0000   0.0000   0.0000   0.0000
     0.0000   0.0000   0.0000   0.0000

          k =-0.1326-0.3977 0.6629 (  7217 PWs)   bands (ev):

   -14.8034 -14.8034 -14.7949 -14.7949 -14.6679 -14.6679 -14.6102 -14.6102
   -14.5931 -14.5931 -14.5767 -14.5767 -14.5437 -14.5437 -14.5134 -14.5134
   -14.3835 -14.3835 -14.3753 -14.3753  -1.1983  -1.1983   0.2543   0.2543
     3.8260   3.8260   4.5825   4.5825   9.1782   9.1782   9.7686   9.7686
    10.5227  10.5227  12.0430  12.0430

     occupation numbers 
     1.0000   1.0000   1.0000   1.0000   1.0000   1.0000   1.0000   1.0000
     1.0000   1.0000   1.0000   1.0000   1.0000   1.0000   1.0000   1.0000
     1.0000   1.0000   1.0000   1.0000   1.0000   1.0000   1.0000   1.0000
     1.0000   1.0000   1.0000   1.0000   0.0000   0.0000   0.0000   0.0000
     0.0000   0.0000   0.0000   0.0000

          k =-0.0884-0.3536 0.6187 (  7222 PWs)   bands (ev):

   -14.8050 -14.8050 -14.7955 -14.7955 -14.6626 -14.6626 -14.6063 -14.6063
   -14.5910 -14.5910 -14.5773 -14.5773 -14.5503 -14.5503 -14.5176 -14.5176
   -14.3828 -14.3828 -14.3734 -14.3734  -1.0600  -1.0600   0.0967   0.0967
     3.7851   3.7851   4.5251   4.5251   9.1781   9.1781   9.8855   9.8855
    11.0609  11.0609  11.3493  11.3493

     occupation numbers 
     1.0000   1.0000   1.0000   1.0000   1.0000   1.0000   1.0000   1.0000
     1.0000   1.0000   1.0000   1.0000   1.0000   1.0000   1.0000   1.0000
     1.0000   1.0000   1.0000   1.0000   1.0000   1.0000   1.0000   1.0000
     1.0000   1.0000   1.0000   1.0000   0.0000   0.0000   0.0000   0.0000
     0.0000   0.0000   0.0000   0.0000

          k =-0.0884-0.4419 0.7071 (  7218 PWs)   bands (ev):

   -14.8014 -14.8014 -14.7976 -14.7976 -14.6630 -14.6630 -14.6150 -14.6150
   -14.5988 -14.5988 -14.5595 -14.5595 -14.5518 -14.5518 -14.5170 -14.5170
   -14.3806 -14.3806 -14.3770 -14.3770  -1.0057  -1.0057   0.0447   0.0447
     3.9456   3.9456   4.3419   4.3419   9.2128   9.2128   9.2606   9.2606
    10.7988  10.7988  12.2083  12.2083

     occupation numbers 
     1.0000   1.0000   1.0000   1.0000   1.0000   1.0000   1.0000   1.0000
     1.0000   1.0000   1.0000   1.0000   1.0000   1.0000   1.0000   1.0000
     1.0000   1.0000   1.0000   1.0000   1.0000   1.0000   1.0000   1.0000
     1.0000   1.0000   1.0000   1.0000   0.0000   0.0000   0.0000   0.0000
     0.0000   0.0000   0.0000   0.0000

          k =-0.0442-0.3977 0.6629 (  7213 PWs)   bands (ev):

   -14.8041 -14.8041 -14.7989 -14.7989 -14.6505 -14.6505 -14.6166 -14.6166
   -14.5898 -14.5898 -14.5650 -14.5650 -14.5559 -14.5559 -14.5274 -14.5274
   -14.3792 -14.3792 -14.3740 -14.3740  -0.7855  -0.7855  -0.1846  -0.1846
     3.8630   3.8630   4.2605   4.2605   9.2983   9.2983   9.9753   9.9753
    10.7136  10.7136  11.3398  11.3398

     occupation numbers 
     1.0000   1.0000   1.0000   1.0000   1.0000   1.0000   1.0000   1.0000
     1.0000   1.0000   1.0000   1.0000   1.0000   1.0000   1.0000   1.0000
     1.0000   1.0000   1.0000   1.0000   1.0000   1.0000   1.0000   1.0000
     1.0000   1.0000   1.0000   1.0000   0.0000   0.0000   0.0000   0.0000
     0.0000   0.0000   0.0000   0.0000

          k =-0.0000-0.3536 0.6187 (  7212 PWs)   bands (ev):

   -14.8050 -14.8050 -14.7979 -14.7979 -14.6543 -14.6543 -14.6064 -14.6064
   -14.5960 -14.5960 -14.5646 -14.5646 -14.5598 -14.5598 -14.5240 -14.5240
   -14.3802 -14.3802 -14.3733 -14.3733  -0.9074  -0.9074  -0.0547  -0.0547
     3.7968   3.7968   4.3655   4.3655   9.3542   9.3542  10.1567  10.1567
    10.6013  10.6013  11.2418  11.2418

     occupation numbers 
     1.0000   1.0000   1.0000   1.0000   1.0000   1.0000   1.0000   1.0000
     1.0000   1.0000   1.0000   1.0000   1.0000   1.0000   1.0000   1.0000
     1.0000   1.0000   1.0000   1.0000   1.0000   1.0000   1.0000   1.0000
     1.0000   1.0000   1.0000   1.0000   0.0000   0.0000   0.0000   0.0000
     0.0000   0.0000   0.0000   0.0000

          k =-0.7071 0.2652 0.0000 (  7204 PWs)   bands (ev):

   -14.8008 -14.8008 -14.8007 -14.8007 -14.6412 -14.6412 -14.6398 -14.6398
   -14.5780 -14.5780 -14.5727 -14.5727 -14.5375 -14.5375 -14.5361 -14.5361
   -14.3772 -14.3772 -14.3771 -14.3771  -0.4928  -0.4928  -0.4913  -0.4913
     4.0741   4.0741   4.0742   4.0742   9.2240   9.2240   9.2243   9.2243
    11.4753  11.4753  11.4754  11.4754

     occupation numbers 
     1.0000   1.0000   1.0000   1.0000   1.0000   1.0000   1.0000   1.0000
     1.0000   1.0000   1.0000   1.0000   1.0000   1.0000   1.0000   1.0000
     1.0000   1.0000   1.0000   1.0000   1.0000   1.0000   1.0000   1.0000
     1.0000   1.0000   1.0000   1.0000   0.0000   0.0000   0.0000   0.0000
     0.0000   0.0000   0.0000   0.0000

          k =-0.7071 0.3536 0.0000 (  7228 PWs)   bands (ev):

   -14.8025 -14.8025 -14.8024 -14.8024 -14.6330 -14.6330 -14.6312 -14.6312
   -14.5804 -14.5804 -14.5751 -14.5751 -14.5437 -14.5437 -14.5419 -14.5419
   -14.3755 -14.3755 -14.3755 -14.3755  -0.4860  -0.4860  -0.4845  -0.4845
     4.0105   4.0105   4.0107   4.0107   9.9045   9.9045   9.9051   9.9051
    10.6980  10.6980  10.6983  10.6983

     occupation numbers 
     1.0000   1.0000   1.0000   1.0000   1.0000   1.0000   1.0000   1.0000
     1.0000   1.0000   1.0000   1.0000   1.0000   1.0000   1.0000   1.0000
     1.0000   1.0000   1.0000   1.0000   1.0000   1.0000   1.0000   1.0000
     1.0000   1.0000   1.0000   1.0000   0.0000   0.0000   0.0000   0.0000
     0.0000   0.0000   0.0000   0.0000

     the Fermi energy is     6.7569 ev

!    total energy              =    -873.10654318 Ry
     Harris-Foulkes estimate   =    -873.10654325 Ry
     estimated scf accuracy    <       0.00000041 Ry

     total all-electron energy =    -24698.428852 Ry

     The total energy is the sum of the following terms:

     one-electron contribution =    -154.01971583 Ry
     hartree contribution      =      95.49556198 Ry
     xc contribution           =     -95.18453730 Ry
     ewald contribution        =    -167.52979533 Ry
     one-center paw contrib.   =    -551.86805660 Ry
     smearing contrib. (-TS)   =      -0.00000010 Ry

     convergence has been achieved in   5 iterations

     Writing output data file Sn.save
 
     init_run     :     12.33s CPU     13.58s WALL (       1 calls)
     electrons    :    245.82s CPU    268.92s WALL (       1 calls)

     Called by init_run:
     wfcinit      :     11.88s CPU     13.02s WALL (       1 calls)
     potinit      :      0.17s CPU      0.19s WALL (       1 calls)

     Called by electrons:
     c_bands      :    206.40s CPU    226.16s WALL (       6 calls)
     sum_band     :     38.54s CPU     41.68s WALL (       6 calls)
     v_of_rho     :      0.09s CPU      0.10s WALL (       6 calls)
     v_h          :      0.00s CPU      0.01s WALL (       6 calls)
     v_xc         :      0.08s CPU      0.09s WALL (       6 calls)
     newd         :      0.12s CPU      0.15s WALL (       6 calls)
     PAW_pot      :      0.78s CPU      0.87s WALL (       6 calls)
     mix_rho      :      0.03s CPU      0.05s WALL (       6 calls)

     Called by c_bands:
     init_us_2    :      0.52s CPU      0.62s WALL (    1885 calls)
     cegterg      :    201.69s CPU    221.22s WALL (     870 calls)

     Called by sum_band:
     sum_band:bec :      0.14s CPU      0.14s WALL (     870 calls)
     addusdens    :      0.17s CPU      0.21s WALL (       6 calls)

     Called by *egterg:
     h_psi        :    169.39s CPU    184.54s WALL (    3138 calls)
     s_psi        :      3.08s CPU      3.11s WALL (    3138 calls)
     g_psi        :      0.64s CPU      0.65s WALL (    2123 calls)
     cdiaghg      :     12.20s CPU     12.40s WALL (    2848 calls)
     cegterg:over :     10.63s CPU     10.67s WALL (    2123 calls)
     cegterg:upda :      5.85s CPU      5.88s WALL (    2123 calls)
     cegterg:last :      3.12s CPU      3.13s WALL (     870 calls)

     Called by h_psi:
     h_psi:vloc   :    160.78s CPU    175.72s WALL (    3138 calls)
     h_psi:vnl    :      7.78s CPU      7.96s WALL (    3138 calls)
     add_vuspsi   :      3.19s CPU      3.22s WALL (    3138 calls)

     General routines
     calbec       :      6.22s CPU      6.40s WALL (    4008 calls)
     fft          :      0.10s CPU      0.11s WALL (     116 calls)
     fftw         :    172.15s CPU    188.40s WALL (  395936 calls)
     davcio       :      0.08s CPU      0.74s WALL (     145 calls)
 
     Parallel routines
     fft_scatter  :     91.56s CPU    100.13s WALL (  396052 calls)

     PAW routines
     PAW_pot      :      0.78s CPU      0.87s WALL (       6 calls)
     PAW_symme    :      0.01s CPU      0.01s WALL (      12 calls)
 
     PWSCF        :  4m19.15s CPU     4m44.34s WALL

 
   This run was terminated on:  23: 3:26  16Mar2020            

=------------------------------------------------------------------------------=
   JOB DONE.
=------------------------------------------------------------------------------=
