
     Program PWSCF v.5.4.0 starts on 17Mar2020 at 13:59:51 

     This program is part of the open-source Quantum ESPRESSO suite
     for quantum simulation of materials; please cite
         "P. Giannozzi et al., J. Phys.:Condens. Matter 21 395502 (2009);
          URL http://www.quantum-espresso.org", 
     in publications or presentations arising from this work. More details at
     http://www.quantum-espresso.org/quote

     Parallel version (MPI & OpenMP), running on      16 processor cores
     Number of MPI processes:                16
     Threads/MPI process:                     1
     R & G space division:  proc/nbgrp/npool/nimage =      16
     Waiting for input...
     Reading input from standard input
Warning: card &IONS ignored
Warning: card / ignored
Warning: card &CELL ignored
Warning: card / ignored

     Current dimensions of program PWSCF are:
     Max number of different atomic species (ntypx) = 10
     Max number of k-points (npk) =  40000
     Max angular momentum in pseudopotentials (lmaxx) =  3
               file Sn.rel-pbesol-dn-kjpaw_psl.1.0.0.UPF: wavefunction(s)  5S 5P 5P 4D 4D renormalized

     Subspace diagonalization in iterative solution of the eigenvalue problem:
     a serial algorithm will be used

 
     Parallelization info
     --------------------
     sticks:   dense  smooth     PW     G-vecs:    dense   smooth      PW
     Min         157     157     43                 5226     5226     773
     Max         158     158     44                 5229     5229     775
     Sum        2527    2527    703                83659    83659   12387
 

     Title: 
     Sn                                                                         


     bravais-lattice index     =            0
     lattice parameter (alat)  =       8.9127  a.u.
     unit-cell volume          =     500.6268 (a.u.)^3
     number of atoms/cell      =            2
     number of atomic types    =            1
     number of electrons       =        28.00
     number of Kohn-Sham states=           36
     kinetic-energy cutoff     =     115.0000  Ry
     charge density cutoff     =     460.0000  Ry
     convergence threshold     =      1.0E-06
     mixing beta               =       0.7000
     number of iterations used =            8  plain     mixing
     Exchange-correlation      =  SLA  PW   PSX  PSC ( 1  4 10  8 0 0)
     Non magnetic calculation with spin-orbit


     celldm(1)=   8.912709  celldm(2)=   0.000000  celldm(3)=   0.000000
     celldm(4)=   0.000000  celldm(5)=   0.000000  celldm(6)=   0.000000

     crystal axes: (cart. coord. in units of alat)
               a(1) = (   0.000000   0.707107   0.707107 )  
               a(2) = (   0.707107   0.000000   0.707107 )  
               a(3) = (   0.707107   0.707107   0.000000 )  

     reciprocal axes: (cart. coord. in units 2 pi/alat)
               b(1) = ( -0.707107  0.707107  0.707107 )  
               b(2) = (  0.707107 -0.707107  0.707107 )  
               b(3) = (  0.707107  0.707107 -0.707107 )  


     PseudoPot. # 1 for Sn read from file:
     ../PseudopotentialDatabase/Sn.rel-pbesol-dn-kjpaw_psl.1.0.0.UPF
     MD5 check sum: e69eff64f15ae39ad43ef58bacbfdf88
     Pseudo is Projector augmented-wave + core cor, Zval = 14.0
     Generated using "atomic" code by A. Dal Corso  v.6.3
     Shape of augmentation charge: PSQ
     Using radial grid of 1243 points, 10 beta functions with: 
                l(1) =   0
                l(2) =   0
                l(3) =   1
                l(4) =   1
                l(5) =   1
                l(6) =   1
                l(7) =   2
                l(8) =   2
                l(9) =   2
               l(10) =   2
     Q(r) pseudized with 0 coefficients 


     atomic species   valence    mass     pseudopotential
        Sn            14.00   118.71000     Sn( 1.00)

     48 Sym. Ops., with inversion, found (24 have fractional translation)


                                    s                        frac. trans.

      isym =  1     identity                                     

 cryst.   s( 1) = (     1          0          0      )
                  (     0          1          0      )
                  (     0          0          1      )

 cart.    s( 1) = (  1.0000000  0.0000000  0.0000000 )
                  (  0.0000000  1.0000000  0.0000000 )
                  (  0.0000000  0.0000000  1.0000000 )


      isym =  2     180 deg rotation - cart. axis [0,0,1]        

 cryst.   s( 2) = (     0          1         -1      )
                  (     1          0         -1      )
                  (     0          0         -1      )

 cart.    s( 2) = ( -1.0000000  0.0000000  0.0000000 )
                  (  0.0000000 -1.0000000  0.0000000 )
                  (  0.0000000  0.0000000  1.0000000 )


      isym =  3     180 deg rotation - cart. axis [0,1,0]        

 cryst.   s( 3) = (     0         -1          1      )
                  (     0         -1          0      )
                  (     1         -1          0      )

 cart.    s( 3) = ( -1.0000000  0.0000000  0.0000000 )
                  (  0.0000000  1.0000000  0.0000000 )
                  (  0.0000000  0.0000000 -1.0000000 )


      isym =  4     180 deg rotation - cart. axis [1,0,0]        

 cryst.   s( 4) = (    -1          0          0      )
                  (    -1          0          1      )
                  (    -1          1          0      )

 cart.    s( 4) = (  1.0000000  0.0000000  0.0000000 )
                  (  0.0000000 -1.0000000  0.0000000 )
                  (  0.0000000  0.0000000 -1.0000000 )


      isym =  5     180 deg rotation - cart. axis [1,1,0]        

 cryst.   s( 5) = (    -1          0          1      )    f =( -0.2500000 )
                  (     0         -1          1      )       ( -0.2500000 )
                  (     0          0          1      )       ( -0.2500000 )

 cart.    s( 5) = (  0.0000000  1.0000000  0.0000000 )    f =( -0.3535534 )
                  (  1.0000000  0.0000000  0.0000000 )       ( -0.3535534 )
                  (  0.0000000  0.0000000 -1.0000000 )       ( -0.3535534 )


      isym =  6     180 deg rotation - cart. axis [1,-1,0]       

 cryst.   s( 6) = (     0         -1          0      )    f =( -0.2500000 )
                  (    -1          0          0      )       ( -0.2500000 )
                  (     0          0         -1      )       ( -0.2500000 )

 cart.    s( 6) = (  0.0000000 -1.0000000  0.0000000 )    f =( -0.3535534 )
                  ( -1.0000000  0.0000000  0.0000000 )       ( -0.3535534 )
                  (  0.0000000  0.0000000 -1.0000000 )       ( -0.3535534 )


      isym =  7      90 deg rotation - cart. axis [0,0,-1]       

 cryst.   s( 7) = (     0          1          0      )    f =( -0.2500000 )
                  (     0          1         -1      )       ( -0.2500000 )
                  (    -1          1          0      )       ( -0.2500000 )

 cart.    s( 7) = (  0.0000000  1.0000000  0.0000000 )    f =( -0.3535534 )
                  ( -1.0000000  0.0000000  0.0000000 )       ( -0.3535534 )
                  (  0.0000000  0.0000000  1.0000000 )       ( -0.3535534 )


      isym =  8      90 deg rotation - cart. axis [0,0,1]        

 cryst.   s( 8) = (     1          0         -1      )    f =( -0.2500000 )
                  (     1          0          0      )       ( -0.2500000 )
                  (     1         -1          0      )       ( -0.2500000 )

 cart.    s( 8) = (  0.0000000 -1.0000000  0.0000000 )    f =( -0.3535534 )
                  (  1.0000000  0.0000000  0.0000000 )       ( -0.3535534 )
                  (  0.0000000  0.0000000  1.0000000 )       ( -0.3535534 )


      isym =  9     180 deg rotation - cart. axis [1,0,1]        

 cryst.   s( 9) = (    -1          1          0      )    f =( -0.2500000 )
                  (     0          1          0      )       ( -0.2500000 )
                  (     0          1         -1      )       ( -0.2500000 )

 cart.    s( 9) = (  0.0000000  0.0000000  1.0000000 )    f =( -0.3535534 )
                  (  0.0000000 -1.0000000  0.0000000 )       ( -0.3535534 )
                  (  1.0000000  0.0000000  0.0000000 )       ( -0.3535534 )


      isym = 10     180 deg rotation - cart. axis [-1,0,1]       

 cryst.   s(10) = (     0          0         -1      )    f =( -0.2500000 )
                  (     0         -1          0      )       ( -0.2500000 )
                  (    -1          0          0      )       ( -0.2500000 )

 cart.    s(10) = (  0.0000000  0.0000000 -1.0000000 )    f =( -0.3535534 )
                  (  0.0000000 -1.0000000  0.0000000 )       ( -0.3535534 )
                  ( -1.0000000  0.0000000  0.0000000 )       ( -0.3535534 )


      isym = 11      90 deg rotation - cart. axis [0,1,0]        

 cryst.   s(11) = (     0          0          1      )    f =( -0.2500000 )
                  (    -1          0          1      )       ( -0.2500000 )
                  (     0         -1          1      )       ( -0.2500000 )

 cart.    s(11) = (  0.0000000  0.0000000  1.0000000 )    f =( -0.3535534 )
                  (  0.0000000  1.0000000  0.0000000 )       ( -0.3535534 )
                  ( -1.0000000  0.0000000  0.0000000 )       ( -0.3535534 )


      isym = 12      90 deg rotation - cart. axis [0,-1,0]       

 cryst.   s(12) = (     1         -1          0      )    f =( -0.2500000 )
                  (     1          0         -1      )       ( -0.2500000 )
                  (     1          0          0      )       ( -0.2500000 )

 cart.    s(12) = (  0.0000000  0.0000000 -1.0000000 )    f =( -0.3535534 )
                  (  0.0000000  1.0000000  0.0000000 )       ( -0.3535534 )
                  (  1.0000000  0.0000000  0.0000000 )       ( -0.3535534 )


      isym = 13     180 deg rotation - cart. axis [0,1,1]        

 cryst.   s(13) = (     1          0          0      )    f =( -0.2500000 )
                  (     1         -1          0      )       ( -0.2500000 )
                  (     1          0         -1      )       ( -0.2500000 )

 cart.    s(13) = ( -1.0000000  0.0000000  0.0000000 )    f =( -0.3535534 )
                  (  0.0000000  0.0000000  1.0000000 )       ( -0.3535534 )
                  (  0.0000000  1.0000000  0.0000000 )       ( -0.3535534 )


      isym = 14     180 deg rotation - cart. axis [0,1,-1]       

 cryst.   s(14) = (    -1          0          0      )    f =( -0.2500000 )
                  (     0          0         -1      )       ( -0.2500000 )
                  (     0         -1          0      )       ( -0.2500000 )

 cart.    s(14) = ( -1.0000000  0.0000000  0.0000000 )    f =( -0.3535534 )
                  (  0.0000000  0.0000000 -1.0000000 )       ( -0.3535534 )
                  (  0.0000000 -1.0000000  0.0000000 )       ( -0.3535534 )


      isym = 15      90 deg rotation - cart. axis [-1,0,0]       

 cryst.   s(15) = (     0         -1          1      )    f =( -0.2500000 )
                  (     0          0          1      )       ( -0.2500000 )
                  (    -1          0          1      )       ( -0.2500000 )

 cart.    s(15) = (  1.0000000  0.0000000  0.0000000 )    f =( -0.3535534 )
                  (  0.0000000  0.0000000  1.0000000 )       ( -0.3535534 )
                  (  0.0000000 -1.0000000  0.0000000 )       ( -0.3535534 )


      isym = 16      90 deg rotation - cart. axis [1,0,0]        

 cryst.   s(16) = (     0          1         -1      )    f =( -0.2500000 )
                  (    -1          1          0      )       ( -0.2500000 )
                  (     0          1          0      )       ( -0.2500000 )

 cart.    s(16) = (  1.0000000  0.0000000  0.0000000 )    f =( -0.3535534 )
                  (  0.0000000  0.0000000 -1.0000000 )       ( -0.3535534 )
                  (  0.0000000  1.0000000  0.0000000 )       ( -0.3535534 )


      isym = 17     120 deg rotation - cart. axis [-1,-1,-1]     

 cryst.   s(17) = (     0          0          1      )
                  (     1          0          0      )
                  (     0          1          0      )

 cart.    s(17) = (  0.0000000  1.0000000  0.0000000 )
                  (  0.0000000  0.0000000  1.0000000 )
                  (  1.0000000  0.0000000  0.0000000 )


      isym = 18     120 deg rotation - cart. axis [-1,1,1]       

 cryst.   s(18) = (     1         -1          0      )
                  (     0         -1          1      )
                  (     0         -1          0      )

 cart.    s(18) = (  0.0000000 -1.0000000  0.0000000 )
                  (  0.0000000  0.0000000  1.0000000 )
                  ( -1.0000000  0.0000000  0.0000000 )


      isym = 19     120 deg rotation - cart. axis [1,1,-1]       

 cryst.   s(19) = (    -1          1          0      )
                  (    -1          0          0      )
                  (    -1          0          1      )

 cart.    s(19) = (  0.0000000  1.0000000  0.0000000 )
                  (  0.0000000  0.0000000 -1.0000000 )
                  ( -1.0000000  0.0000000  0.0000000 )


      isym = 20     120 deg rotation - cart. axis [1,-1,1]       

 cryst.   s(20) = (     0          0         -1      )
                  (     0          1         -1      )
                  (     1          0         -1      )

 cart.    s(20) = (  0.0000000 -1.0000000  0.0000000 )
                  (  0.0000000  0.0000000 -1.0000000 )
                  (  1.0000000  0.0000000  0.0000000 )


      isym = 21     120 deg rotation - cart. axis [1,1,1]        

 cryst.   s(21) = (     0          1          0      )
                  (     0          0          1      )
                  (     1          0          0      )

 cart.    s(21) = (  0.0000000  0.0000000  1.0000000 )
                  (  1.0000000  0.0000000  0.0000000 )
                  (  0.0000000  1.0000000  0.0000000 )


      isym = 22     120 deg rotation - cart. axis [-1,1,-1]      

 cryst.   s(22) = (    -1          0          1      )
                  (    -1          1          0      )
                  (    -1          0          0      )

 cart.    s(22) = (  0.0000000  0.0000000  1.0000000 )
                  ( -1.0000000  0.0000000  0.0000000 )
                  (  0.0000000 -1.0000000  0.0000000 )


      isym = 23     120 deg rotation - cart. axis [1,-1,-1]      

 cryst.   s(23) = (     1          0         -1      )
                  (     0          0         -1      )
                  (     0          1         -1      )

 cart.    s(23) = (  0.0000000  0.0000000 -1.0000000 )
                  ( -1.0000000  0.0000000  0.0000000 )
                  (  0.0000000  1.0000000  0.0000000 )


      isym = 24     120 deg rotation - cart. axis [-1,-1,1]      

 cryst.   s(24) = (     0         -1          0      )
                  (     1         -1          0      )
                  (     0         -1          1      )

 cart.    s(24) = (  0.0000000  0.0000000 -1.0000000 )
                  (  1.0000000  0.0000000  0.0000000 )
                  (  0.0000000 -1.0000000  0.0000000 )


      isym = 25     inversion                                    

 cryst.   s(25) = (    -1          0          0      )    f =( -0.2500000 )
                  (     0         -1          0      )       ( -0.2500000 )
                  (     0          0         -1      )       ( -0.2500000 )

 cart.    s(25) = ( -1.0000000  0.0000000  0.0000000 )    f =( -0.3535534 )
                  (  0.0000000 -1.0000000  0.0000000 )       ( -0.3535534 )
                  (  0.0000000  0.0000000 -1.0000000 )       ( -0.3535534 )


      isym = 26     inv. 180 deg rotation - cart. axis [0,0,1]   

 cryst.   s(26) = (     0         -1          1      )    f =( -0.2500000 )
                  (    -1          0          1      )       ( -0.2500000 )
                  (     0          0          1      )       ( -0.2500000 )

 cart.    s(26) = (  1.0000000  0.0000000  0.0000000 )    f =( -0.3535534 )
                  (  0.0000000  1.0000000  0.0000000 )       ( -0.3535534 )
                  (  0.0000000  0.0000000 -1.0000000 )       ( -0.3535534 )


      isym = 27     inv. 180 deg rotation - cart. axis [0,1,0]   

 cryst.   s(27) = (     0          1         -1      )    f =( -0.2500000 )
                  (     0          1          0      )       ( -0.2500000 )
                  (    -1          1          0      )       ( -0.2500000 )

 cart.    s(27) = (  1.0000000  0.0000000  0.0000000 )    f =( -0.3535534 )
                  (  0.0000000 -1.0000000  0.0000000 )       ( -0.3535534 )
                  (  0.0000000  0.0000000  1.0000000 )       ( -0.3535534 )


      isym = 28     inv. 180 deg rotation - cart. axis [1,0,0]   

 cryst.   s(28) = (     1          0          0      )    f =( -0.2500000 )
                  (     1          0         -1      )       ( -0.2500000 )
                  (     1         -1          0      )       ( -0.2500000 )

 cart.    s(28) = ( -1.0000000  0.0000000  0.0000000 )    f =( -0.3535534 )
                  (  0.0000000  1.0000000  0.0000000 )       ( -0.3535534 )
                  (  0.0000000  0.0000000  1.0000000 )       ( -0.3535534 )


      isym = 29     inv. 180 deg rotation - cart. axis [1,1,0]   

 cryst.   s(29) = (     1          0         -1      )
                  (     0          1         -1      )
                  (     0          0         -1      )

 cart.    s(29) = (  0.0000000 -1.0000000  0.0000000 )
                  ( -1.0000000  0.0000000  0.0000000 )
                  (  0.0000000  0.0000000  1.0000000 )


      isym = 30     inv. 180 deg rotation - cart. axis [1,-1,0]  

 cryst.   s(30) = (     0          1          0      )
                  (     1          0          0      )
                  (     0          0          1      )

 cart.    s(30) = (  0.0000000  1.0000000  0.0000000 )
                  (  1.0000000  0.0000000  0.0000000 )
                  (  0.0000000  0.0000000  1.0000000 )


      isym = 31     inv.  90 deg rotation - cart. axis [0,0,-1]  

 cryst.   s(31) = (     0         -1          0      )
                  (     0         -1          1      )
                  (     1         -1          0      )

 cart.    s(31) = (  0.0000000 -1.0000000  0.0000000 )
                  (  1.0000000  0.0000000  0.0000000 )
                  (  0.0000000  0.0000000 -1.0000000 )


      isym = 32     inv.  90 deg rotation - cart. axis [0,0,1]   

 cryst.   s(32) = (    -1          0          1      )
                  (    -1          0          0      )
                  (    -1          1          0      )

 cart.    s(32) = (  0.0000000  1.0000000  0.0000000 )
                  ( -1.0000000  0.0000000  0.0000000 )
                  (  0.0000000  0.0000000 -1.0000000 )


      isym = 33     inv. 180 deg rotation - cart. axis [1,0,1]   

 cryst.   s(33) = (     1         -1          0      )
                  (     0         -1          0      )
                  (     0         -1          1      )

 cart.    s(33) = (  0.0000000  0.0000000 -1.0000000 )
                  (  0.0000000  1.0000000  0.0000000 )
                  ( -1.0000000  0.0000000  0.0000000 )


      isym = 34     inv. 180 deg rotation - cart. axis [-1,0,1]  

 cryst.   s(34) = (     0          0          1      )
                  (     0          1          0      )
                  (     1          0          0      )

 cart.    s(34) = (  0.0000000  0.0000000  1.0000000 )
                  (  0.0000000  1.0000000  0.0000000 )
                  (  1.0000000  0.0000000  0.0000000 )


      isym = 35     inv.  90 deg rotation - cart. axis [0,1,0]   

 cryst.   s(35) = (     0          0         -1      )
                  (     1          0         -1      )
                  (     0          1         -1      )

 cart.    s(35) = (  0.0000000  0.0000000 -1.0000000 )
                  (  0.0000000 -1.0000000  0.0000000 )
                  (  1.0000000  0.0000000  0.0000000 )


      isym = 36     inv.  90 deg rotation - cart. axis [0,-1,0]  

 cryst.   s(36) = (    -1          1          0      )
                  (    -1          0          1      )
                  (    -1          0          0      )

 cart.    s(36) = (  0.0000000  0.0000000  1.0000000 )
                  (  0.0000000 -1.0000000  0.0000000 )
                  ( -1.0000000  0.0000000  0.0000000 )


      isym = 37     inv. 180 deg rotation - cart. axis [0,1,1]   

 cryst.   s(37) = (    -1          0          0      )
                  (    -1          1          0      )
                  (    -1          0          1      )

 cart.    s(37) = (  1.0000000  0.0000000  0.0000000 )
                  (  0.0000000  0.0000000 -1.0000000 )
                  (  0.0000000 -1.0000000  0.0000000 )


      isym = 38     inv. 180 deg rotation - cart. axis [0,1,-1]  

 cryst.   s(38) = (     1          0          0      )
                  (     0          0          1      )
                  (     0          1          0      )

 cart.    s(38) = (  1.0000000  0.0000000  0.0000000 )
                  (  0.0000000  0.0000000  1.0000000 )
                  (  0.0000000  1.0000000  0.0000000 )


      isym = 39     inv.  90 deg rotation - cart. axis [-1,0,0]  

 cryst.   s(39) = (     0          1         -1      )
                  (     0          0         -1      )
                  (     1          0         -1      )

 cart.    s(39) = ( -1.0000000  0.0000000  0.0000000 )
                  (  0.0000000  0.0000000 -1.0000000 )
                  (  0.0000000  1.0000000  0.0000000 )


      isym = 40     inv.  90 deg rotation - cart. axis [1,0,0]   

 cryst.   s(40) = (     0         -1          1      )
                  (     1         -1          0      )
                  (     0         -1          0      )

 cart.    s(40) = ( -1.0000000  0.0000000  0.0000000 )
                  (  0.0000000  0.0000000  1.0000000 )
                  (  0.0000000 -1.0000000  0.0000000 )


      isym = 41     inv. 120 deg rotation - cart. axis [-1,-1,-1]

 cryst.   s(41) = (     0          0         -1      )    f =( -0.2500000 )
                  (    -1          0          0      )       ( -0.2500000 )
                  (     0         -1          0      )       ( -0.2500000 )

 cart.    s(41) = (  0.0000000 -1.0000000  0.0000000 )    f =( -0.3535534 )
                  (  0.0000000  0.0000000 -1.0000000 )       ( -0.3535534 )
                  ( -1.0000000  0.0000000  0.0000000 )       ( -0.3535534 )


      isym = 42     inv. 120 deg rotation - cart. axis [-1,1,1]  

 cryst.   s(42) = (    -1          1          0      )    f =( -0.2500000 )
                  (     0          1         -1      )       ( -0.2500000 )
                  (     0          1          0      )       ( -0.2500000 )

 cart.    s(42) = (  0.0000000  1.0000000  0.0000000 )    f =( -0.3535534 )
                  (  0.0000000  0.0000000 -1.0000000 )       ( -0.3535534 )
                  (  1.0000000  0.0000000  0.0000000 )       ( -0.3535534 )


      isym = 43     inv. 120 deg rotation - cart. axis [1,1,-1]  

 cryst.   s(43) = (     1         -1          0      )    f =( -0.2500000 )
                  (     1          0          0      )       ( -0.2500000 )
                  (     1          0         -1      )       ( -0.2500000 )

 cart.    s(43) = (  0.0000000 -1.0000000  0.0000000 )    f =( -0.3535534 )
                  (  0.0000000  0.0000000  1.0000000 )       ( -0.3535534 )
                  (  1.0000000  0.0000000  0.0000000 )       ( -0.3535534 )


      isym = 44     inv. 120 deg rotation - cart. axis [1,-1,1]  

 cryst.   s(44) = (     0          0          1      )    f =( -0.2500000 )
                  (     0         -1          1      )       ( -0.2500000 )
                  (    -1          0          1      )       ( -0.2500000 )

 cart.    s(44) = (  0.0000000  1.0000000  0.0000000 )    f =( -0.3535534 )
                  (  0.0000000  0.0000000  1.0000000 )       ( -0.3535534 )
                  ( -1.0000000  0.0000000  0.0000000 )       ( -0.3535534 )


      isym = 45     inv. 120 deg rotation - cart. axis [1,1,1]   

 cryst.   s(45) = (     0         -1          0      )    f =( -0.2500000 )
                  (     0          0         -1      )       ( -0.2500000 )
                  (    -1          0          0      )       ( -0.2500000 )

 cart.    s(45) = (  0.0000000  0.0000000 -1.0000000 )    f =( -0.3535534 )
                  ( -1.0000000  0.0000000  0.0000000 )       ( -0.3535534 )
                  (  0.0000000 -1.0000000  0.0000000 )       ( -0.3535534 )


      isym = 46     inv. 120 deg rotation - cart. axis [-1,1,-1] 

 cryst.   s(46) = (     1          0         -1      )    f =( -0.2500000 )
                  (     1         -1          0      )       ( -0.2500000 )
                  (     1          0          0      )       ( -0.2500000 )

 cart.    s(46) = (  0.0000000  0.0000000 -1.0000000 )    f =( -0.3535534 )
                  (  1.0000000  0.0000000  0.0000000 )       ( -0.3535534 )
                  (  0.0000000  1.0000000  0.0000000 )       ( -0.3535534 )


      isym = 47     inv. 120 deg rotation - cart. axis [1,-1,-1] 

 cryst.   s(47) = (    -1          0          1      )    f =( -0.2500000 )
                  (     0          0          1      )       ( -0.2500000 )
                  (     0         -1          1      )       ( -0.2500000 )

 cart.    s(47) = (  0.0000000  0.0000000  1.0000000 )    f =( -0.3535534 )
                  (  1.0000000  0.0000000  0.0000000 )       ( -0.3535534 )
                  (  0.0000000 -1.0000000  0.0000000 )       ( -0.3535534 )


      isym = 48     inv. 120 deg rotation - cart. axis [-1,-1,1] 

 cryst.   s(48) = (     0          1          0      )    f =( -0.2500000 )
                  (    -1          1          0      )       ( -0.2500000 )
                  (     0          1         -1      )       ( -0.2500000 )

 cart.    s(48) = (  0.0000000  0.0000000  1.0000000 )    f =( -0.3535534 )
                  ( -1.0000000  0.0000000  0.0000000 )       ( -0.3535534 )
                  (  0.0000000  1.0000000  0.0000000 )       ( -0.3535534 )


   Cartesian axes

     site n.     atom                  positions (alat units)
         1           Sn  tau(   1) = (   0.0000000   0.0000000   0.0000000  )
         2           Sn  tau(   2) = (   0.3535534   0.3535534   0.3535534  )

   Crystallographic axes

     site n.     atom                  positions (cryst. coord.)
         1           Sn  tau(   1) = (  0.0000000  0.0000000  0.0000000  )
         2           Sn  tau(   2) = (  0.2500000  0.2500000  0.2500000  )

     number of k points=   145  gaussian smearing, width (Ry)=  0.0001
                       cart. coord. in units 2pi/alat
        k(    1) = (   0.0000000   0.0000000   0.0000000), wk =   0.0002441
        k(    2) = (   0.0441942   0.0441942  -0.0441942), wk =   0.0019531
        k(    3) = (   0.0883883   0.0883883  -0.0883883), wk =   0.0019531
        k(    4) = (   0.1325825   0.1325825  -0.1325825), wk =   0.0019531
        k(    5) = (   0.1767767   0.1767767  -0.1767767), wk =   0.0019531
        k(    6) = (   0.2209709   0.2209709  -0.2209709), wk =   0.0019531
        k(    7) = (   0.2651650   0.2651650  -0.2651650), wk =   0.0019531
        k(    8) = (   0.3093592   0.3093592  -0.3093592), wk =   0.0019531
        k(    9) = (  -0.3535534  -0.3535534   0.3535534), wk =   0.0009766
        k(   10) = (   0.0883883   0.0000000   0.0000000), wk =   0.0014648
        k(   11) = (   0.1325825   0.0441942  -0.0441942), wk =   0.0058594
        k(   12) = (   0.1767767   0.0883883  -0.0883883), wk =   0.0058594
        k(   13) = (   0.2209709   0.1325825  -0.1325825), wk =   0.0058594
        k(   14) = (   0.2651650   0.1767767  -0.1767767), wk =   0.0058594
        k(   15) = (   0.3093592   0.2209709  -0.2209709), wk =   0.0058594
        k(   16) = (   0.3535534   0.2651650  -0.2651650), wk =   0.0058594
        k(   17) = (  -0.3093592  -0.3977476   0.3977476), wk =   0.0058594
        k(   18) = (  -0.2651650  -0.3535534   0.3535534), wk =   0.0058594
        k(   19) = (  -0.2209709  -0.3093592   0.3093592), wk =   0.0058594
        k(   20) = (  -0.1767767  -0.2651650   0.2651650), wk =   0.0058594
        k(   21) = (  -0.1325825  -0.2209709   0.2209709), wk =   0.0058594
        k(   22) = (  -0.0883883  -0.1767767   0.1767767), wk =   0.0058594
        k(   23) = (  -0.0441942  -0.1325825   0.1325825), wk =   0.0058594
        k(   24) = (   0.0000000  -0.0883883   0.0883883), wk =   0.0029297
        k(   25) = (   0.1767767   0.0000000   0.0000000), wk =   0.0014648
        k(   26) = (   0.2209709   0.0441942  -0.0441942), wk =   0.0058594
        k(   27) = (   0.2651650   0.0883883  -0.0883883), wk =   0.0058594
        k(   28) = (   0.3093592   0.1325825  -0.1325825), wk =   0.0058594
        k(   29) = (   0.3535534   0.1767767  -0.1767767), wk =   0.0058594
        k(   30) = (   0.3977476   0.2209709  -0.2209709), wk =   0.0058594
        k(   31) = (  -0.2651650  -0.4419417   0.4419417), wk =   0.0058594
        k(   32) = (  -0.2209709  -0.3977476   0.3977476), wk =   0.0058594
        k(   33) = (  -0.1767767  -0.3535534   0.3535534), wk =   0.0058594
        k(   34) = (  -0.1325825  -0.3093592   0.3093592), wk =   0.0058594
        k(   35) = (  -0.0883883  -0.2651650   0.2651650), wk =   0.0058594
        k(   36) = (  -0.0441942  -0.2209709   0.2209709), wk =   0.0058594
        k(   37) = (   0.0000000  -0.1767767   0.1767767), wk =   0.0029297
        k(   38) = (   0.2651650   0.0000000   0.0000000), wk =   0.0014648
        k(   39) = (   0.3093592   0.0441942  -0.0441942), wk =   0.0058594
        k(   40) = (   0.3535534   0.0883883  -0.0883883), wk =   0.0058594
        k(   41) = (   0.3977476   0.1325825  -0.1325825), wk =   0.0058594
        k(   42) = (   0.4419417   0.1767767  -0.1767767), wk =   0.0058594
        k(   43) = (  -0.2209709  -0.4861359   0.4861359), wk =   0.0058594
        k(   44) = (  -0.1767767  -0.4419417   0.4419417), wk =   0.0058594
        k(   45) = (  -0.1325825  -0.3977476   0.3977476), wk =   0.0058594
        k(   46) = (  -0.0883883  -0.3535534   0.3535534), wk =   0.0058594
        k(   47) = (  -0.0441942  -0.3093592   0.3093592), wk =   0.0058594
        k(   48) = (   0.0000000  -0.2651650   0.2651650), wk =   0.0029297
        k(   49) = (   0.3535534   0.0000000   0.0000000), wk =   0.0014648
        k(   50) = (   0.3977476   0.0441942  -0.0441942), wk =   0.0058594
        k(   51) = (   0.4419417   0.0883883  -0.0883883), wk =   0.0058594
        k(   52) = (   0.4861359   0.1325825  -0.1325825), wk =   0.0058594
        k(   53) = (  -0.1767767  -0.5303301   0.5303301), wk =   0.0058594
        k(   54) = (  -0.1325825  -0.4861359   0.4861359), wk =   0.0058594
        k(   55) = (  -0.0883883  -0.4419417   0.4419417), wk =   0.0058594
        k(   56) = (  -0.0441942  -0.3977476   0.3977476), wk =   0.0058594
        k(   57) = (   0.0000000  -0.3535534   0.3535534), wk =   0.0029297
        k(   58) = (   0.4419417   0.0000000   0.0000000), wk =   0.0014648
        k(   59) = (   0.4861359   0.0441942  -0.0441942), wk =   0.0058594
        k(   60) = (   0.5303301   0.0883883  -0.0883883), wk =   0.0058594
        k(   61) = (  -0.1325825  -0.5745243   0.5745243), wk =   0.0058594
        k(   62) = (  -0.0883883  -0.5303301   0.5303301), wk =   0.0058594
        k(   63) = (  -0.0441942  -0.4861359   0.4861359), wk =   0.0058594
        k(   64) = (   0.0000000  -0.4419417   0.4419417), wk =   0.0029297
        k(   65) = (   0.5303301   0.0000000   0.0000000), wk =   0.0014648
        k(   66) = (   0.5745243   0.0441942  -0.0441942), wk =   0.0058594
        k(   67) = (  -0.0883883  -0.6187184   0.6187184), wk =   0.0058594
        k(   68) = (  -0.0441942  -0.5745243   0.5745243), wk =   0.0058594
        k(   69) = (   0.0000000  -0.5303301   0.5303301), wk =   0.0029297
        k(   70) = (   0.6187184   0.0000000   0.0000000), wk =   0.0014648
        k(   71) = (  -0.0441942  -0.6629126   0.6629126), wk =   0.0058594
        k(   72) = (   0.0000000  -0.6187184   0.6187184), wk =   0.0029297
        k(   73) = (  -0.7071068   0.0000000   0.0000000), wk =   0.0007324
        k(   74) = (   0.1767767   0.0883883   0.0000000), wk =   0.0058594
        k(   75) = (   0.2209709   0.1325825  -0.0441942), wk =   0.0117188
        k(   76) = (   0.2651650   0.1767767  -0.0883883), wk =   0.0117188
        k(   77) = (   0.3093592   0.2209709  -0.1325825), wk =   0.0117188
        k(   78) = (   0.3535534   0.2651650  -0.1767767), wk =   0.0117188
        k(   79) = (  -0.3093592  -0.3977476   0.4861359), wk =   0.0117188
        k(   80) = (  -0.2651650  -0.3535534   0.4419417), wk =   0.0058594
        k(   81) = (   0.2651650   0.0883883   0.0000000), wk =   0.0058594
        k(   82) = (   0.3093592   0.1325825  -0.0441942), wk =   0.0117188
        k(   83) = (   0.3535534   0.1767767  -0.0883883), wk =   0.0117188
        k(   84) = (   0.3977476   0.2209709  -0.1325825), wk =   0.0117188
        k(   85) = (  -0.2651650  -0.4419417   0.5303301), wk =   0.0117188
        k(   86) = (  -0.2209709  -0.3977476   0.4861359), wk =   0.0117188
        k(   87) = (  -0.1767767  -0.3535534   0.4419417), wk =   0.0117188
        k(   88) = (  -0.1325825  -0.3093592   0.3977476), wk =   0.0117188
        k(   89) = (  -0.0883883  -0.2651650   0.3535534), wk =   0.0117188
        k(   90) = (  -0.0441942  -0.2209709   0.3093592), wk =   0.0117188
        k(   91) = (   0.0000000  -0.1767767   0.2651650), wk =   0.0058594
        k(   92) = (   0.3535534   0.0883883   0.0000000), wk =   0.0058594
        k(   93) = (   0.3977476   0.1325825  -0.0441942), wk =   0.0117188
        k(   94) = (   0.4419417   0.1767767  -0.0883883), wk =   0.0117188
        k(   95) = (  -0.2209709  -0.4861359   0.5745243), wk =   0.0117188
        k(   96) = (  -0.1767767  -0.4419417   0.5303301), wk =   0.0117188
        k(   97) = (  -0.1325825  -0.3977476   0.4861359), wk =   0.0117188
        k(   98) = (  -0.0883883  -0.3535534   0.4419417), wk =   0.0117188
        k(   99) = (  -0.0441942  -0.3093592   0.3977476), wk =   0.0117188
        k(  100) = (   0.0000000  -0.2651650   0.3535534), wk =   0.0058594
        k(  101) = (   0.4419417   0.0883883   0.0000000), wk =   0.0058594
        k(  102) = (   0.4861359   0.1325825  -0.0441942), wk =   0.0117188
        k(  103) = (  -0.1767767  -0.5303301   0.6187184), wk =   0.0117188
        k(  104) = (  -0.1325825  -0.4861359   0.5745243), wk =   0.0117188
        k(  105) = (  -0.0883883  -0.4419417   0.5303301), wk =   0.0117188
        k(  106) = (  -0.0441942  -0.3977476   0.4861359), wk =   0.0117188
        k(  107) = (   0.0000000  -0.3535534   0.4419417), wk =   0.0058594
        k(  108) = (   0.5303301   0.0883883   0.0000000), wk =   0.0058594
        k(  109) = (  -0.1325825  -0.5745243   0.6629126), wk =   0.0117188
        k(  110) = (  -0.0883883  -0.5303301   0.6187184), wk =   0.0117188
        k(  111) = (  -0.0441942  -0.4861359   0.5745243), wk =   0.0117188
        k(  112) = (   0.0000000  -0.4419417   0.5303301), wk =   0.0058594
        k(  113) = (  -0.0883883  -0.6187184   0.7071068), wk =   0.0058594
        k(  114) = (  -0.0441942  -0.5745243   0.6629126), wk =   0.0117188
        k(  115) = (  -0.0000000  -0.5303301   0.6187184), wk =   0.0058594
        k(  116) = (  -0.7071068   0.0883883   0.0000000), wk =   0.0029297
        k(  117) = (   0.3535534   0.1767767   0.0000000), wk =   0.0058594
        k(  118) = (   0.3977476   0.2209709  -0.0441942), wk =   0.0117188
        k(  119) = (  -0.2651650  -0.4419417   0.6187184), wk =   0.0117188
        k(  120) = (  -0.2209709  -0.3977476   0.5745243), wk =   0.0117188
        k(  121) = (  -0.1767767  -0.3535534   0.5303301), wk =   0.0058594
        k(  122) = (   0.4419417   0.1767767   0.0000000), wk =   0.0058594
        k(  123) = (  -0.2209709  -0.4861359   0.6629126), wk =   0.0117188
        k(  124) = (  -0.1767767  -0.4419417   0.6187184), wk =   0.0117188
        k(  125) = (  -0.1325825  -0.3977476   0.5745243), wk =   0.0117188
        k(  126) = (  -0.0883883  -0.3535534   0.5303301), wk =   0.0117188
        k(  127) = (  -0.0441942  -0.3093592   0.4861359), wk =   0.0117188
        k(  128) = (   0.0000000  -0.2651650   0.4419417), wk =   0.0058594
        k(  129) = (  -0.1767767  -0.5303301   0.7071068), wk =   0.0058594
        k(  130) = (  -0.1325825  -0.4861359   0.6629126), wk =   0.0117188
        k(  131) = (  -0.0883883  -0.4419417   0.6187184), wk =   0.0117188
        k(  132) = (  -0.0441942  -0.3977476   0.5745243), wk =   0.0117188
        k(  133) = (   0.0000000  -0.3535534   0.5303301), wk =   0.0058594
        k(  134) = (  -0.0883883  -0.5303301   0.7071068), wk =   0.0058594
        k(  135) = (  -0.0441942  -0.4861359   0.6629126), wk =   0.0117188
        k(  136) = (   0.0000000  -0.4419417   0.6187184), wk =   0.0058594
        k(  137) = (  -0.7071068   0.1767767   0.0000000), wk =   0.0029297
        k(  138) = (  -0.1767767  -0.4419417   0.7071068), wk =   0.0058594
        k(  139) = (  -0.1325825  -0.3977476   0.6629126), wk =   0.0117188
        k(  140) = (  -0.0883883  -0.3535534   0.6187184), wk =   0.0058594
        k(  141) = (  -0.0883883  -0.4419417   0.7071068), wk =   0.0058594
        k(  142) = (  -0.0441942  -0.3977476   0.6629126), wk =   0.0117188
        k(  143) = (  -0.0000000  -0.3535534   0.6187184), wk =   0.0058594
        k(  144) = (  -0.7071068   0.2651650   0.0000000), wk =   0.0029297
        k(  145) = (  -0.7071068   0.3535534   0.0000000), wk =   0.0014648

                       cryst. coord.
        k(    1) = (   0.0000000   0.0000000   0.0000000), wk =   0.0002441
        k(    2) = (   0.0000000   0.0000000   0.0625000), wk =   0.0019531
        k(    3) = (   0.0000000   0.0000000   0.1250000), wk =   0.0019531
        k(    4) = (   0.0000000   0.0000000   0.1875000), wk =   0.0019531
        k(    5) = (   0.0000000   0.0000000   0.2500000), wk =   0.0019531
        k(    6) = (   0.0000000   0.0000000   0.3125000), wk =   0.0019531
        k(    7) = (   0.0000000   0.0000000   0.3750000), wk =   0.0019531
        k(    8) = (   0.0000000   0.0000000   0.4375000), wk =   0.0019531
        k(    9) = (   0.0000000   0.0000000  -0.5000000), wk =   0.0009766
        k(   10) = (   0.0000000   0.0625000   0.0625000), wk =   0.0014648
        k(   11) = (   0.0000000   0.0625000   0.1250000), wk =   0.0058594
        k(   12) = (   0.0000000   0.0625000   0.1875000), wk =   0.0058594
        k(   13) = (   0.0000000   0.0625000   0.2500000), wk =   0.0058594
        k(   14) = (   0.0000000   0.0625000   0.3125000), wk =   0.0058594
        k(   15) = (   0.0000000   0.0625000   0.3750000), wk =   0.0058594
        k(   16) = (   0.0000000   0.0625000   0.4375000), wk =   0.0058594
        k(   17) = (   0.0000000   0.0625000  -0.5000000), wk =   0.0058594
        k(   18) = (   0.0000000   0.0625000  -0.4375000), wk =   0.0058594
        k(   19) = (   0.0000000   0.0625000  -0.3750000), wk =   0.0058594
        k(   20) = (   0.0000000   0.0625000  -0.3125000), wk =   0.0058594
        k(   21) = (   0.0000000   0.0625000  -0.2500000), wk =   0.0058594
        k(   22) = (   0.0000000   0.0625000  -0.1875000), wk =   0.0058594
        k(   23) = (   0.0000000   0.0625000  -0.1250000), wk =   0.0058594
        k(   24) = (   0.0000000   0.0625000  -0.0625000), wk =   0.0029297
        k(   25) = (   0.0000000   0.1250000   0.1250000), wk =   0.0014648
        k(   26) = (   0.0000000   0.1250000   0.1875000), wk =   0.0058594
        k(   27) = (   0.0000000   0.1250000   0.2500000), wk =   0.0058594
        k(   28) = (   0.0000000   0.1250000   0.3125000), wk =   0.0058594
        k(   29) = (   0.0000000   0.1250000   0.3750000), wk =   0.0058594
        k(   30) = (   0.0000000   0.1250000   0.4375000), wk =   0.0058594
        k(   31) = (   0.0000000   0.1250000  -0.5000000), wk =   0.0058594
        k(   32) = (   0.0000000   0.1250000  -0.4375000), wk =   0.0058594
        k(   33) = (   0.0000000   0.1250000  -0.3750000), wk =   0.0058594
        k(   34) = (   0.0000000   0.1250000  -0.3125000), wk =   0.0058594
        k(   35) = (   0.0000000   0.1250000  -0.2500000), wk =   0.0058594
        k(   36) = (   0.0000000   0.1250000  -0.1875000), wk =   0.0058594
        k(   37) = (   0.0000000   0.1250000  -0.1250000), wk =   0.0029297
        k(   38) = (   0.0000000   0.1875000   0.1875000), wk =   0.0014648
        k(   39) = (   0.0000000   0.1875000   0.2500000), wk =   0.0058594
        k(   40) = (   0.0000000   0.1875000   0.3125000), wk =   0.0058594
        k(   41) = (   0.0000000   0.1875000   0.3750000), wk =   0.0058594
        k(   42) = (   0.0000000   0.1875000   0.4375000), wk =   0.0058594
        k(   43) = (   0.0000000   0.1875000  -0.5000000), wk =   0.0058594
        k(   44) = (   0.0000000   0.1875000  -0.4375000), wk =   0.0058594
        k(   45) = (   0.0000000   0.1875000  -0.3750000), wk =   0.0058594
        k(   46) = (   0.0000000   0.1875000  -0.3125000), wk =   0.0058594
        k(   47) = (   0.0000000   0.1875000  -0.2500000), wk =   0.0058594
        k(   48) = (   0.0000000   0.1875000  -0.1875000), wk =   0.0029297
        k(   49) = (   0.0000000   0.2500000   0.2500000), wk =   0.0014648
        k(   50) = (   0.0000000   0.2500000   0.3125000), wk =   0.0058594
        k(   51) = (   0.0000000   0.2500000   0.3750000), wk =   0.0058594
        k(   52) = (   0.0000000   0.2500000   0.4375000), wk =   0.0058594
        k(   53) = (   0.0000000   0.2500000  -0.5000000), wk =   0.0058594
        k(   54) = (   0.0000000   0.2500000  -0.4375000), wk =   0.0058594
        k(   55) = (   0.0000000   0.2500000  -0.3750000), wk =   0.0058594
        k(   56) = (   0.0000000   0.2500000  -0.3125000), wk =   0.0058594
        k(   57) = (   0.0000000   0.2500000  -0.2500000), wk =   0.0029297
        k(   58) = (   0.0000000   0.3125000   0.3125000), wk =   0.0014648
        k(   59) = (   0.0000000   0.3125000   0.3750000), wk =   0.0058594
        k(   60) = (   0.0000000   0.3125000   0.4375000), wk =   0.0058594
        k(   61) = (   0.0000000   0.3125000  -0.5000000), wk =   0.0058594
        k(   62) = (   0.0000000   0.3125000  -0.4375000), wk =   0.0058594
        k(   63) = (   0.0000000   0.3125000  -0.3750000), wk =   0.0058594
        k(   64) = (   0.0000000   0.3125000  -0.3125000), wk =   0.0029297
        k(   65) = (   0.0000000   0.3750000   0.3750000), wk =   0.0014648
        k(   66) = (   0.0000000   0.3750000   0.4375000), wk =   0.0058594
        k(   67) = (   0.0000000   0.3750000  -0.5000000), wk =   0.0058594
        k(   68) = (   0.0000000   0.3750000  -0.4375000), wk =   0.0058594
        k(   69) = (   0.0000000   0.3750000  -0.3750000), wk =   0.0029297
        k(   70) = (   0.0000000   0.4375000   0.4375000), wk =   0.0014648
        k(   71) = (   0.0000000   0.4375000  -0.5000000), wk =   0.0058594
        k(   72) = (   0.0000000   0.4375000  -0.4375000), wk =   0.0029297
        k(   73) = (   0.0000000  -0.5000000  -0.5000000), wk =   0.0007324
        k(   74) = (   0.0625000   0.1250000   0.1875000), wk =   0.0058594
        k(   75) = (   0.0625000   0.1250000   0.2500000), wk =   0.0117188
        k(   76) = (   0.0625000   0.1250000   0.3125000), wk =   0.0117188
        k(   77) = (   0.0625000   0.1250000   0.3750000), wk =   0.0117188
        k(   78) = (   0.0625000   0.1250000   0.4375000), wk =   0.0117188
        k(   79) = (   0.0625000   0.1250000  -0.5000000), wk =   0.0117188
        k(   80) = (   0.0625000   0.1250000  -0.4375000), wk =   0.0058594
        k(   81) = (   0.0625000   0.1875000   0.2500000), wk =   0.0058594
        k(   82) = (   0.0625000   0.1875000   0.3125000), wk =   0.0117188
        k(   83) = (   0.0625000   0.1875000   0.3750000), wk =   0.0117188
        k(   84) = (   0.0625000   0.1875000   0.4375000), wk =   0.0117188
        k(   85) = (   0.0625000   0.1875000  -0.5000000), wk =   0.0117188
        k(   86) = (   0.0625000   0.1875000  -0.4375000), wk =   0.0117188
        k(   87) = (   0.0625000   0.1875000  -0.3750000), wk =   0.0117188
        k(   88) = (   0.0625000   0.1875000  -0.3125000), wk =   0.0117188
        k(   89) = (   0.0625000   0.1875000  -0.2500000), wk =   0.0117188
        k(   90) = (   0.0625000   0.1875000  -0.1875000), wk =   0.0117188
        k(   91) = (   0.0625000   0.1875000  -0.1250000), wk =   0.0058594
        k(   92) = (   0.0625000   0.2500000   0.3125000), wk =   0.0058594
        k(   93) = (   0.0625000   0.2500000   0.3750000), wk =   0.0117188
        k(   94) = (   0.0625000   0.2500000   0.4375000), wk =   0.0117188
        k(   95) = (   0.0625000   0.2500000  -0.5000000), wk =   0.0117188
        k(   96) = (   0.0625000   0.2500000  -0.4375000), wk =   0.0117188
        k(   97) = (   0.0625000   0.2500000  -0.3750000), wk =   0.0117188
        k(   98) = (   0.0625000   0.2500000  -0.3125000), wk =   0.0117188
        k(   99) = (   0.0625000   0.2500000  -0.2500000), wk =   0.0117188
        k(  100) = (   0.0625000   0.2500000  -0.1875000), wk =   0.0058594
        k(  101) = (   0.0625000   0.3125000   0.3750000), wk =   0.0058594
        k(  102) = (   0.0625000   0.3125000   0.4375000), wk =   0.0117188
        k(  103) = (   0.0625000   0.3125000  -0.5000000), wk =   0.0117188
        k(  104) = (   0.0625000   0.3125000  -0.4375000), wk =   0.0117188
        k(  105) = (   0.0625000   0.3125000  -0.3750000), wk =   0.0117188
        k(  106) = (   0.0625000   0.3125000  -0.3125000), wk =   0.0117188
        k(  107) = (   0.0625000   0.3125000  -0.2500000), wk =   0.0058594
        k(  108) = (   0.0625000   0.3750000   0.4375000), wk =   0.0058594
        k(  109) = (   0.0625000   0.3750000  -0.5000000), wk =   0.0117188
        k(  110) = (   0.0625000   0.3750000  -0.4375000), wk =   0.0117188
        k(  111) = (   0.0625000   0.3750000  -0.3750000), wk =   0.0117188
        k(  112) = (   0.0625000   0.3750000  -0.3125000), wk =   0.0058594
        k(  113) = (   0.0625000   0.4375000  -0.5000000), wk =   0.0058594
        k(  114) = (   0.0625000   0.4375000  -0.4375000), wk =   0.0117188
        k(  115) = (   0.0625000   0.4375000  -0.3750000), wk =   0.0058594
        k(  116) = (   0.0625000  -0.5000000  -0.4375000), wk =   0.0029297
        k(  117) = (   0.1250000   0.2500000   0.3750000), wk =   0.0058594
        k(  118) = (   0.1250000   0.2500000   0.4375000), wk =   0.0117188
        k(  119) = (   0.1250000   0.2500000  -0.5000000), wk =   0.0117188
        k(  120) = (   0.1250000   0.2500000  -0.4375000), wk =   0.0117188
        k(  121) = (   0.1250000   0.2500000  -0.3750000), wk =   0.0058594
        k(  122) = (   0.1250000   0.3125000   0.4375000), wk =   0.0058594
        k(  123) = (   0.1250000   0.3125000  -0.5000000), wk =   0.0117188
        k(  124) = (   0.1250000   0.3125000  -0.4375000), wk =   0.0117188
        k(  125) = (   0.1250000   0.3125000  -0.3750000), wk =   0.0117188
        k(  126) = (   0.1250000   0.3125000  -0.3125000), wk =   0.0117188
        k(  127) = (   0.1250000   0.3125000  -0.2500000), wk =   0.0117188
        k(  128) = (   0.1250000   0.3125000  -0.1875000), wk =   0.0058594
        k(  129) = (   0.1250000   0.3750000  -0.5000000), wk =   0.0058594
        k(  130) = (   0.1250000   0.3750000  -0.4375000), wk =   0.0117188
        k(  131) = (   0.1250000   0.3750000  -0.3750000), wk =   0.0117188
        k(  132) = (   0.1250000   0.3750000  -0.3125000), wk =   0.0117188
        k(  133) = (   0.1250000   0.3750000  -0.2500000), wk =   0.0058594
        k(  134) = (   0.1250000   0.4375000  -0.4375000), wk =   0.0058594
        k(  135) = (   0.1250000   0.4375000  -0.3750000), wk =   0.0117188
        k(  136) = (   0.1250000   0.4375000  -0.3125000), wk =   0.0058594
        k(  137) = (   0.1250000  -0.5000000  -0.3750000), wk =   0.0029297
        k(  138) = (   0.1875000   0.3750000  -0.4375000), wk =   0.0058594
        k(  139) = (   0.1875000   0.3750000  -0.3750000), wk =   0.0117188
        k(  140) = (   0.1875000   0.3750000  -0.3125000), wk =   0.0058594
        k(  141) = (   0.1875000   0.4375000  -0.3750000), wk =   0.0058594
        k(  142) = (   0.1875000   0.4375000  -0.3125000), wk =   0.0117188
        k(  143) = (   0.1875000   0.4375000  -0.2500000), wk =   0.0058594
        k(  144) = (   0.1875000  -0.5000000  -0.3125000), wk =   0.0029297
        k(  145) = (   0.2500000  -0.5000000  -0.2500000), wk =   0.0014648

     Dense  grid:    83659 G-vectors     FFT dimensions: (  64,  64,  64)

     Largest allocated arrays     est. size (Mb)     dimensions
        Kohn-Sham Wavefunctions         0.73 Mb     (    1334,   36)
        NL pseudopotentials             0.69 Mb     (     667,   68)
        Each V/rho on FFT grid          0.25 Mb     (   16384)
        Each G-vector array             0.04 Mb     (    5229)
        G-vector shells                 0.00 Mb     (     598)
     Largest temporary arrays     est. size (Mb)     dimensions
        Auxiliary wavefunctions         2.93 Mb     (    1334,  144)
        Each subspace H/S matrix        0.32 Mb     (     144,  144)
        Each <psi_i|beta_j> matrix      0.07 Mb     (      68,   2,   36)
        Arrays for rho mixing           2.00 Mb     (   16384,    8)

     Initial potential from superposition of free atoms

     starting charge   27.99801, renormalised to   28.00000
     Starting wfc are   36 randomized atomic wfcs
     Checking if some PAW data can be deallocated... 

     total cpu time spent up to now is       22.9 secs

     Self-consistent Calculation

     iteration #  1     ecut=   115.00 Ry     beta=0.70
     Davidson diagonalization with overlap
     ethr =  1.00E-02,  avg # of iterations =  3.5

     Threshold (ethr) on eigenvalues was too large:
     Diagonalizing with lowered threshold

     Davidson diagonalization with overlap
     ethr =  5.57E-05,  avg # of iterations =  3.5

     total cpu time spent up to now is      167.2 secs

     total energy              =    -874.81415262 Ry
     Harris-Foulkes estimate   =    -874.81820239 Ry
     estimated scf accuracy    <       0.01833266 Ry

     iteration #  2     ecut=   115.00 Ry     beta=0.70
     Davidson diagonalization with overlap
     ethr =  6.55E-05,  avg # of iterations =  1.0

     total cpu time spent up to now is      223.5 secs

     total energy              =    -874.81503380 Ry
     Harris-Foulkes estimate   =    -874.81533421 Ry
     estimated scf accuracy    <       0.00152366 Ry

     iteration #  3     ecut=   115.00 Ry     beta=0.70
     Davidson diagonalization with overlap
     ethr =  5.44E-06,  avg # of iterations =  2.2

     total cpu time spent up to now is      298.4 secs

     total energy              =    -874.81533597 Ry
     Harris-Foulkes estimate   =    -874.81538312 Ry
     estimated scf accuracy    <       0.00007638 Ry

     iteration #  4     ecut=   115.00 Ry     beta=0.70
     Davidson diagonalization with overlap
     ethr =  2.73E-07,  avg # of iterations =  2.0

     total cpu time spent up to now is      373.1 secs

     total energy              =    -874.81536169 Ry
     Harris-Foulkes estimate   =    -874.81536138 Ry
     estimated scf accuracy    <       0.00000387 Ry

     iteration #  5     ecut=   115.00 Ry     beta=0.70
     Davidson diagonalization with overlap
     ethr =  1.38E-08,  avg # of iterations =  2.0

     total cpu time spent up to now is      435.1 secs

     End of self-consistent calculation

          k = 0.0000 0.0000 0.0000 ( 10417 PWs)   bands (ev):

   -15.2380 -15.2380 -15.2380 -15.2380 -15.1575 -15.1575 -15.1575 -15.1575
   -14.3085 -14.3085 -14.1386 -14.1386 -14.1386 -14.1386 -14.1011 -14.1011
   -14.1011 -14.1011 -13.9974 -13.9974  -3.3495  -3.3495   5.5160   5.5160
     6.3933   6.3933   7.0480   7.0480   7.0480   7.0480   8.5644   8.5644
     9.0386   9.0386   9.0386   9.0386

     occupation numbers 
     1.0000   1.0000   1.0000   1.0000   1.0000   1.0000   1.0000   1.0000
     1.0000   1.0000   1.0000   1.0000   1.0000   1.0000   1.0000   1.0000
     1.0000   1.0000   1.0000   1.0000   1.0000   1.0000   1.0000   1.0000
     1.0000   1.0000   0.0000   0.0000   0.0000   0.0000   0.0000   0.0000
     0.0000   0.0000   0.0000   0.0000

          k = 0.0442 0.0442-0.0442 ( 10423 PWs)   bands (ev):

   -15.2384 -15.2384 -15.2372 -15.2372 -15.1583 -15.1583 -15.1570 -15.1570
   -14.3067 -14.3067 -14.1436 -14.1436 -14.1417 -14.1417 -14.0978 -14.0978
   -14.0968 -14.0968 -13.9984 -13.9984  -3.3147  -3.3147   5.1200   5.1200
     6.4363   6.4363   6.9728   6.9728   7.0969   7.0969   8.7216   8.7216
     9.1150   9.1150   9.1360   9.1360

     occupation numbers 
     1.0000   1.0000   1.0000   1.0000   1.0000   1.0000   1.0000   1.0000
     1.0000   1.0000   1.0000   1.0000   1.0000   1.0000   1.0000   1.0000
     1.0000   1.0000   1.0000   1.0000   1.0000   1.0000   1.0000   1.0000
     1.0000   1.0000   0.0000   0.0000   0.0000   0.0000   0.0000   0.0000
     0.0000   0.0000   0.0000   0.0000

          k = 0.0884 0.0884-0.0884 ( 10423 PWs)   bands (ev):

   -15.2394 -15.2394 -15.2349 -15.2349 -15.1605 -15.1605 -15.1556 -15.1556
   -14.3015 -14.3015 -14.1547 -14.1547 -14.1488 -14.1488 -14.0901 -14.0901
   -14.0878 -14.0878 -14.0012 -14.0012  -3.2111  -3.2111   4.3664   4.3664
     6.3319   6.3319   6.7902   6.7902   7.1266   7.1266   9.0501   9.0501
     9.3737   9.3737   9.4542   9.4542

     occupation numbers 
     1.0000   1.0000   1.0000   1.0000   1.0000   1.0000   1.0000   1.0000
     1.0000   1.0000   1.0000   1.0000   1.0000   1.0000   1.0000   1.0000
     1.0000   1.0000   1.0000   1.0000   1.0000   1.0000   1.0000   1.0000
     1.0000   1.0000   0.5013   0.5013   0.0000   0.0000   0.0000   0.0000
     0.0000   0.0000   0.0000   0.0000

          k = 0.1326 0.1326-0.1326 ( 10444 PWs)   bands (ev):

   -15.2409 -15.2409 -15.2313 -15.2313 -15.1641 -15.1641 -15.1535 -15.1535
   -14.2934 -14.2934 -14.1678 -14.1678 -14.1568 -14.1568 -14.0813 -14.0813
   -14.0779 -14.0779 -14.0055 -14.0055  -3.0416  -3.0416   3.5426   3.5426
     6.1372   6.1372   6.5714   6.5714   7.0366   7.0366   9.3356   9.3356
     9.6475   9.6475  10.1098  10.1098

     occupation numbers 
     1.0000   1.0000   1.0000   1.0000   1.0000   1.0000   1.0000   1.0000
     1.0000   1.0000   1.0000   1.0000   1.0000   1.0000   1.0000   1.0000
     1.0000   1.0000   1.0000   1.0000   1.0000   1.0000   1.0000   1.0000
     1.0000   1.0000   1.0000   1.0000   0.0000   0.0000   0.0000   0.0000
     0.0000   0.0000   0.0000   0.0000

          k = 0.1768 0.1768-0.1768 ( 10429 PWs)   bands (ev):

   -15.2426 -15.2426 -15.2264 -15.2264 -15.1687 -15.1687 -15.1512 -15.1512
   -14.2830 -14.2830 -14.1813 -14.1813 -14.1643 -14.1643 -14.0728 -14.0728
   -14.0686 -14.0686 -14.0112 -14.0112  -2.8126  -2.8126   2.7342   2.7342
     5.9372   5.9372   6.3621   6.3621   6.8905   6.8905   9.5655   9.5655
     9.8678   9.8678  10.9090  10.9090

     occupation numbers 
     1.0000   1.0000   1.0000   1.0000   1.0000   1.0000   1.0000   1.0000
     1.0000   1.0000   1.0000   1.0000   1.0000   1.0000   1.0000   1.0000
     1.0000   1.0000   1.0000   1.0000   1.0000   1.0000   1.0000   1.0000
     1.0000   1.0000   1.0000   1.0000   0.0000   0.0000   0.0000   0.0000
     0.0000   0.0000   0.0000   0.0000

          k = 0.2210 0.2210-0.2210 ( 10426 PWs)   bands (ev):

   -15.2441 -15.2441 -15.2208 -15.2208 -15.1742 -15.1742 -15.1490 -15.1490
   -14.2712 -14.2712 -14.1946 -14.1946 -14.1706 -14.1706 -14.0655 -14.0655
   -14.0601 -14.0601 -14.0176 -14.0176  -2.5370  -2.5370   1.9876   1.9876
     5.7652   5.7652   6.1860   6.1860   6.7469   6.7469   9.7129   9.7129
     9.9902   9.9902  11.7644  11.7644

     occupation numbers 
     1.0000   1.0000   1.0000   1.0000   1.0000   1.0000   1.0000   1.0000
     1.0000   1.0000   1.0000   1.0000   1.0000   1.0000   1.0000   1.0000
     1.0000   1.0000   1.0000   1.0000   1.0000   1.0000   1.0000   1.0000
     1.0000   1.0000   1.0000   1.0000   1.0000   1.0000   0.0000   0.0000
     0.0000   0.0000   0.0000   0.0000

          k = 0.2652 0.2652-0.2652 ( 10438 PWs)   bands (ev):

   -15.2452 -15.2452 -15.2147 -15.2147 -15.1801 -15.1801 -15.1472 -15.1472
   -14.2587 -14.2587 -14.2073 -14.2073 -14.1753 -14.1753 -14.0600 -14.0600
   -14.0524 -14.0524 -14.0245 -14.0245  -2.2429  -2.2429   1.3479   1.3479
     5.6360   5.6360   6.0546   6.0546   6.6334   6.6334   9.7805   9.7805
    10.0300  10.0300  12.3860  12.3861

     occupation numbers 
     1.0000   1.0000   1.0000   1.0000   1.0000   1.0000   1.0000   1.0000
     1.0000   1.0000   1.0000   1.0000   1.0000   1.0000   1.0000   1.0000
     1.0000   1.0000   1.0000   1.0000   1.0000   1.0000   1.0000   1.0000
     1.0000   1.0000   1.0000   1.0000   1.0000   1.0000   0.0000   0.0000
     0.0000   0.0000   0.0000   0.0000

          k = 0.3094 0.3094-0.3094 ( 10437 PWs)   bands (ev):

   -15.2460 -15.2460 -15.2092 -15.2092 -15.1855 -15.1855 -15.1461 -15.1461
   -14.2465 -14.2465 -14.2194 -14.2194 -14.1782 -14.1782 -14.0565 -14.0565
   -14.0454 -14.0454 -14.0313 -14.0313  -1.9904  -1.9904   0.8848   0.8848
     5.5563   5.5563   5.9740   5.9740   6.5622   6.5622   9.8009   9.8009
    10.0309  10.0309  12.3784  12.3784

     occupation numbers 
     1.0000   1.0000   1.0000   1.0000   1.0000   1.0000   1.0000   1.0000
     1.0000   1.0000   1.0000   1.0000   1.0000   1.0000   1.0000   1.0000
     1.0000   1.0000   1.0000   1.0000   1.0000   1.0000   1.0000   1.0000
     1.0000   1.0000   1.0000   1.0000   1.0000   1.0000   0.0000   0.0000
     0.0000   0.0000   0.0000   0.0000

          k =-0.3536-0.3536 0.3536 ( 10452 PWs)   bands (ev):

   -15.2462 -15.2462 -15.2065 -15.2065 -15.1882 -15.1882 -15.1457 -15.1457
   -14.2381 -14.2381 -14.2277 -14.2277 -14.1792 -14.1792 -14.0553 -14.0553
   -14.0401 -14.0401 -14.0366 -14.0366  -1.8836  -1.8836   0.7073   0.7073
     5.5294   5.5294   5.9468   5.9468   6.5381   6.5381   9.8039   9.8039
    10.0273  10.0273  12.3496  12.3496

     occupation numbers 
     1.0000   1.0000   1.0000   1.0000   1.0000   1.0000   1.0000   1.0000
     1.0000   1.0000   1.0000   1.0000   1.0000   1.0000   1.0000   1.0000
     1.0000   1.0000   1.0000   1.0000   1.0000   1.0000   1.0000   1.0000
     1.0000   1.0000   1.0000   1.0000   1.0000   1.0000   0.0000   0.0000
     0.0000   0.0000   0.0000   0.0000

          k = 0.0884 0.0000 0.0000 ( 10441 PWs)   bands (ev):

   -15.2381 -15.2381 -15.2374 -15.2374 -15.1582 -15.1582 -15.1572 -15.1572
   -14.3061 -14.3061 -14.1460 -14.1460 -14.1416 -14.1416 -14.0971 -14.0971
   -14.0954 -14.0954 -13.9987 -13.9987  -3.3031  -3.3031   5.0402   5.0402
     6.3700   6.3700   6.7902   6.7902   7.3540   7.3540   8.6334   8.6334
     9.1324   9.1324   9.2700   9.2700

     occupation numbers 
     1.0000   1.0000   1.0000   1.0000   1.0000   1.0000   1.0000   1.0000
     1.0000   1.0000   1.0000   1.0000   1.0000   1.0000   1.0000   1.0000
     1.0000   1.0000   1.0000   1.0000   1.0000   1.0000   1.0000   1.0000
     1.0000   1.0000   0.4983   0.4983   0.0000   0.0000   0.0000   0.0000
     0.0000   0.0000   0.0000   0.0000

          k = 0.1326 0.0442-0.0442 ( 10437 PWs)   bands (ev):

   -15.2389 -15.2389 -15.2357 -15.2357 -15.1599 -15.1599 -15.1561 -15.1561
   -14.3020 -14.3020 -14.1550 -14.1550 -14.1466 -14.1466 -14.0918 -14.0918
   -14.0881 -14.0881 -14.0007 -14.0007  -3.2222  -3.2222   4.4817   4.4817
     6.2309   6.2309   6.5765   6.5765   7.5486   7.5486   8.6945   8.6945
     9.4173   9.4173   9.5687   9.5687

     occupation numbers 
     1.0000   1.0000   1.0000   1.0000   1.0000   1.0000   1.0000   1.0000
     1.0000   1.0000   1.0000   1.0000   1.0000   1.0000   1.0000   1.0000
     1.0000   1.0000   1.0000   1.0000   1.0000   1.0000   1.0000   1.0000
     1.0000   1.0000   1.0000   1.0000   0.0000   0.0000   0.0000   0.0000
     0.0000   0.0000   0.0000   0.0000

          k = 0.1768 0.0884-0.0884 ( 10454 PWs)   bands (ev):

   -15.2403 -15.2403 -15.2325 -15.2325 -15.1630 -15.1630 -15.1541 -15.1541
   -14.2949 -14.2949 -14.1668 -14.1668 -14.1537 -14.1537 -14.0852 -14.0852
   -14.0780 -14.0780 -14.0044 -14.0044  -3.0742  -3.0742   3.7343   3.7343
     6.0254   6.0254   6.3547   6.3547   7.5367   7.5367   8.9384   8.9384
     9.7517   9.7517  10.0664  10.0664

     occupation numbers 
     1.0000   1.0000   1.0000   1.0000   1.0000   1.0000   1.0000   1.0000
     1.0000   1.0000   1.0000   1.0000   1.0000   1.0000   1.0000   1.0000
     1.0000   1.0000   1.0000   1.0000   1.0000   1.0000   1.0000   1.0000
     1.0000   1.0000   1.0000   1.0000   0.0000   0.0000   0.0000   0.0000
     0.0000   0.0000   0.0000   0.0000

          k = 0.2210 0.1326-0.1326 ( 10434 PWs)   bands (ev):

   -15.2419 -15.2419 -15.2280 -15.2280 -15.1674 -15.1674 -15.1518 -15.1518
   -14.2853 -14.2853 -14.1794 -14.1794 -14.1610 -14.1610 -14.0786 -14.0786
   -14.0678 -14.0678 -14.0093 -14.0093  -2.8641  -2.8641   2.9500   2.9500
     5.8082   5.8082   6.1355   6.1355   7.4139   7.4139   9.2465   9.2465
    10.0063  10.0063  10.6872  10.6872

     occupation numbers 
     1.0000   1.0000   1.0000   1.0000   1.0000   1.0000   1.0000   1.0000
     1.0000   1.0000   1.0000   1.0000   1.0000   1.0000   1.0000   1.0000
     1.0000   1.0000   1.0000   1.0000   1.0000   1.0000   1.0000   1.0000
     1.0000   1.0000   1.0000   1.0000   0.0000   0.0000   0.0000   0.0000
     0.0000   0.0000   0.0000   0.0000

          k = 0.2652 0.1768-0.1768 ( 10434 PWs)   bands (ev):

   -15.2435 -15.2435 -15.2226 -15.2226 -15.1726 -15.1726 -15.1495 -15.1495
   -14.2740 -14.2740 -14.1920 -14.1920 -14.1676 -14.1676 -14.0728 -14.0728
   -14.0586 -14.0586 -14.0149 -14.0149  -2.6019  -2.6019   2.1982   2.1982
     5.6117   5.6117   5.9494   5.9494   7.2664   7.2664   9.5009   9.5009
    10.1441  10.1441  11.3507  11.3508

     occupation numbers 
     1.0000   1.0000   1.0000   1.0000   1.0000   1.0000   1.0000   1.0000
     1.0000   1.0000   1.0000   1.0000   1.0000   1.0000   1.0000   1.0000
     1.0000   1.0000   1.0000   1.0000   1.0000   1.0000   1.0000   1.0000
     1.0000   1.0000   1.0000   1.0000   0.0000   0.0000   0.0000   0.0000
     0.0000   0.0000   0.0000   0.0000

          k = 0.3094 0.2210-0.2210 ( 10429 PWs)   bands (ev):

   -15.2448 -15.2448 -15.2166 -15.2166 -15.1785 -15.1785 -15.1475 -15.1475
   -14.2620 -14.2620 -14.2041 -14.2041 -14.1730 -14.1730 -14.0680 -14.0680
   -14.0509 -14.0509 -14.0206 -14.0206  -2.3091  -2.3091   1.5284   1.5284
     5.4497   5.4497   5.8159   5.8159   7.1358   7.1358   9.6552   9.6552
    10.1732  10.1732  12.0052  12.0052

     occupation numbers 
     1.0000   1.0000   1.0000   1.0000   1.0000   1.0000   1.0000   1.0000
     1.0000   1.0000   1.0000   1.0000   1.0000   1.0000   1.0000   1.0000
     1.0000   1.0000   1.0000   1.0000   1.0000   1.0000   1.0000   1.0000
     1.0000   1.0000   1.0000   1.0000   0.0000   0.0000   0.0000   0.0000
     0.0000   0.0000   0.0000   0.0000

          k = 0.3536 0.2652-0.2652 ( 10422 PWs)   bands (ev):

   -15.2457 -15.2457 -15.2108 -15.2108 -15.1842 -15.1842 -15.1461 -15.1461
   -14.2501 -14.2501 -14.2154 -14.2154 -14.1766 -14.1766 -14.0648 -14.0648
   -14.0450 -14.0450 -14.0256 -14.0256  -2.0325  -2.0325   1.0021   1.0021
     5.3301   5.3301   5.7429   5.7429   7.0407   7.0407   9.7367   9.7367
    10.1402  10.1402  12.4028  12.4029

     occupation numbers 
     1.0000   1.0000   1.0000   1.0000   1.0000   1.0000   1.0000   1.0000
     1.0000   1.0000   1.0000   1.0000   1.0000   1.0000   1.0000   1.0000
     1.0000   1.0000   1.0000   1.0000   1.0000   1.0000   1.0000   1.0000
     1.0000   1.0000   1.0000   1.0000   0.0000   0.0000   0.0000   0.0000
     0.0000   0.0000   0.0000   0.0000

          k =-0.3094-0.3977 0.3977 ( 10422 PWs)   bands (ev):

   -15.2462 -15.2462 -15.2067 -15.2067 -15.1882 -15.1882 -15.1454 -15.1454
   -14.2403 -14.2403 -14.2248 -14.2248 -14.1783 -14.1783 -14.0633 -14.0633
   -14.0415 -14.0415 -14.0288 -14.0288  -1.8639  -1.8639   0.7188   0.7188
     5.2587   5.2587   5.7319   5.7319   6.9893   6.9893   9.7875   9.7875
    10.0901  10.0901  12.4779  12.4779

     occupation numbers 
     1.0000   1.0000   1.0000   1.0000   1.0000   1.0000   1.0000   1.0000
     1.0000   1.0000   1.0000   1.0000   1.0000   1.0000   1.0000   1.0000
     1.0000   1.0000   1.0000   1.0000   1.0000   1.0000   1.0000   1.0000
     1.0000   1.0000   1.0000   1.0000   0.0000   0.0000   0.0000   0.0000
     0.0000   0.0000   0.0000   0.0000

          k =-0.2652-0.3536 0.3536 ( 10420 PWs)   bands (ev):

   -15.2461 -15.2461 -15.2076 -15.2076 -15.1874 -15.1874 -15.1455 -15.1455
   -14.2430 -14.2430 -14.2222 -14.2222 -14.1779 -14.1779 -14.0638 -14.0638
   -14.0420 -14.0420 -14.0282 -14.0282  -1.9011  -1.9011   0.7792   0.7792
     5.2403   5.2403   5.7808   5.7808   6.9847   6.9847   9.8229   9.8229
    10.0522  10.0522  12.4920  12.4920

     occupation numbers 
     1.0000   1.0000   1.0000   1.0000   1.0000   1.0000   1.0000   1.0000
     1.0000   1.0000   1.0000   1.0000   1.0000   1.0000   1.0000   1.0000
     1.0000   1.0000   1.0000   1.0000   1.0000   1.0000   1.0000   1.0000
     1.0000   1.0000   1.0000   1.0000   0.0000   0.0000   0.0000   0.0000
     0.0000   0.0000   0.0000   0.0000

          k =-0.2210-0.3094 0.3094 ( 10425 PWs)   bands (ev):

   -15.2455 -15.2455 -15.2125 -15.2125 -15.1825 -15.1825 -15.1464 -15.1464
   -14.2540 -14.2540 -14.2118 -14.2118 -14.1755 -14.1755 -14.0662 -14.0662
   -14.0461 -14.0461 -14.0242 -14.0242  -2.1188  -2.1188   1.1575   1.1575
     5.2783   5.2783   5.8854   5.8854   7.0264   7.0264   9.8210   9.8210
    10.0420  10.0420  12.4043  12.4043

     occupation numbers 
     1.0000   1.0000   1.0000   1.0000   1.0000   1.0000   1.0000   1.0000
     1.0000   1.0000   1.0000   1.0000   1.0000   1.0000   1.0000   1.0000
     1.0000   1.0000   1.0000   1.0000   1.0000   1.0000   1.0000   1.0000
     1.0000   1.0000   1.0000   1.0000   0.0000   0.0000   0.0000   0.0000
     0.0000   0.0000   0.0000   0.0000

          k =-0.1768-0.2652 0.2652 ( 10404 PWs)   bands (ev):

   -15.2445 -15.2445 -15.2185 -15.2185 -15.1767 -15.1767 -15.1480 -15.1480
   -14.2661 -14.2661 -14.2001 -14.2001 -14.1712 -14.1712 -14.0703 -14.0703
   -14.0524 -14.0524 -14.0188 -14.0188  -2.4085  -2.4085   1.7404   1.7404
     5.3747   5.3747   6.0392   6.0392   7.1099   7.1099   9.7498   9.7498
    10.0331  10.0331  11.8647  11.8647

     occupation numbers 
     1.0000   1.0000   1.0000   1.0000   1.0000   1.0000   1.0000   1.0000
     1.0000   1.0000   1.0000   1.0000   1.0000   1.0000   1.0000   1.0000
     1.0000   1.0000   1.0000   1.0000   1.0000   1.0000   1.0000   1.0000
     1.0000   1.0000   1.0000   1.0000   0.0000   0.0000   0.0000   0.0000
     0.0000   0.0000   0.0000   0.0000

          k =-0.1326-0.2210 0.2210 ( 10418 PWs)   bands (ev):

   -15.2431 -15.2431 -15.2243 -15.2243 -15.1710 -15.1710 -15.1501 -15.1501
   -14.2779 -14.2779 -14.1879 -14.1879 -14.1653 -14.1653 -14.0756 -14.0756
   -14.0605 -14.0605 -14.0131 -14.0131  -2.6946  -2.6946   2.4422   2.4422
     5.5302   5.5302   6.2321   6.2321   7.2237   7.2237   9.5949   9.5949
     9.9396   9.9396  11.1485  11.1486

     occupation numbers 
     1.0000   1.0000   1.0000   1.0000   1.0000   1.0000   1.0000   1.0000
     1.0000   1.0000   1.0000   1.0000   1.0000   1.0000   1.0000   1.0000
     1.0000   1.0000   1.0000   1.0000   1.0000   1.0000   1.0000   1.0000
     1.0000   1.0000   1.0000   1.0000   0.0000   0.0000   0.0000   0.0000
     0.0000   0.0000   0.0000   0.0000

          k =-0.0884-0.1768 0.1768 ( 10429 PWs)   bands (ev):

   -15.2415 -15.2415 -15.2294 -15.2294 -15.1660 -15.1660 -15.1524 -15.1524
   -14.2887 -14.2887 -14.1752 -14.1752 -14.1584 -14.1584 -14.0818 -14.0818
   -14.0701 -14.0701 -14.0076 -14.0076  -2.9410  -2.9410   3.2075   3.2075
     5.7436   5.7436   6.4466   6.4466   7.3400   7.3400   9.3632   9.3632
     9.6829   9.6829  10.5131  10.5131

     occupation numbers 
     1.0000   1.0000   1.0000   1.0000   1.0000   1.0000   1.0000   1.0000
     1.0000   1.0000   1.0000   1.0000   1.0000   1.0000   1.0000   1.0000
     1.0000   1.0000   1.0000   1.0000   1.0000   1.0000   1.0000   1.0000
     1.0000   1.0000   1.0000   1.0000   0.0000   0.0000   0.0000   0.0000
     0.0000   0.0000   0.0000   0.0000

          k =-0.0442-0.1326 0.1326 ( 10436 PWs)   bands (ev):

   -15.2400 -15.2400 -15.2334 -15.2334 -15.1621 -15.1621 -15.1546 -15.1546
   -14.2976 -14.2976 -14.1626 -14.1626 -14.1513 -14.1513 -14.0884 -14.0884
   -14.0805 -14.0805 -14.0031 -14.0031  -3.1311  -3.1311   3.9821   3.9821
     6.0081   6.0081   6.6528   6.6528   7.3967   7.3967   9.0955   9.0955
     9.3356   9.3356   9.9657   9.9657

     occupation numbers 
     1.0000   1.0000   1.0000   1.0000   1.0000   1.0000   1.0000   1.0000
     1.0000   1.0000   1.0000   1.0000   1.0000   1.0000   1.0000   1.0000
     1.0000   1.0000   1.0000   1.0000   1.0000   1.0000   1.0000   1.0000
     1.0000   1.0000   1.0000   1.0000   0.0000   0.0000   0.0000   0.0000
     0.0000   0.0000   0.0000   0.0000

          k = 0.0000-0.0884 0.0884 ( 10423 PWs)   bands (ev):

   -15.2388 -15.2388 -15.2361 -15.2361 -15.1594 -15.1594 -15.1563 -15.1563
   -14.3038 -14.3038 -14.1511 -14.1511 -14.1450 -14.1450 -14.0943 -14.0943
   -14.0904 -14.0904 -13.9999 -13.9999  -3.2569  -3.2569   4.6787   4.6787
     6.2915   6.2915   6.8154   6.8154   7.2990   7.2990   8.8528   8.8528
     9.1284   9.1284   9.4726   9.4726

     occupation numbers 
     1.0000   1.0000   1.0000   1.0000   1.0000   1.0000   1.0000   1.0000
     1.0000   1.0000   1.0000   1.0000   1.0000   1.0000   1.0000   1.0000
     1.0000   1.0000   1.0000   1.0000   1.0000   1.0000   1.0000   1.0000
     1.0000   1.0000   0.0000   0.0000   0.0000   0.0000   0.0000   0.0000
     0.0000   0.0000   0.0000   0.0000

          k = 0.1768 0.0000 0.0000 ( 10425 PWs)   bands (ev):

   -15.2383 -15.2383 -15.2357 -15.2357 -15.1601 -15.1601 -15.1562 -15.1562
   -14.2992 -14.2992 -14.1610 -14.1610 -14.1483 -14.1483 -14.0875 -14.0875
   -14.0858 -14.0858 -14.0019 -14.0019  -3.1640  -3.1640   4.2339   4.2339
     6.0409   6.0409   6.2984   6.2984   8.0105   8.0105   8.3773   8.3773
     9.7224   9.7224   9.8264   9.8264

     occupation numbers 
     1.0000   1.0000   1.0000   1.0000   1.0000   1.0000   1.0000   1.0000
     1.0000   1.0000   1.0000   1.0000   1.0000   1.0000   1.0000   1.0000
     1.0000   1.0000   1.0000   1.0000   1.0000   1.0000   1.0000   1.0000
     1.0000   1.0000   1.0000   1.0000   0.0000   0.0000   0.0000   0.0000
     0.0000   0.0000   0.0000   0.0000

          k = 0.2210 0.0442-0.0442 ( 10414 PWs)   bands (ev):

   -15.2392 -15.2392 -15.2334 -15.2334 -15.1623 -15.1623 -15.1548 -15.1548
   -14.2931 -14.2931 -14.1705 -14.1705 -14.1530 -14.1530 -14.0840 -14.0840
   -14.0775 -14.0775 -14.0045 -14.0045  -3.0379  -3.0379   3.6954   3.6954
     5.8199   5.8199   6.0545   6.0545   8.1492   8.1492   8.4071   8.4071
    10.0914  10.0914  10.2166  10.2166

     occupation numbers 
     1.0000   1.0000   1.0000   1.0000   1.0000   1.0000   1.0000   1.0000
     1.0000   1.0000   1.0000   1.0000   1.0000   1.0000   1.0000   1.0000
     1.0000   1.0000   1.0000   1.0000   1.0000   1.0000   1.0000   1.0000
     1.0000   1.0000   1.0000   1.0000   0.0000   0.0000   0.0000   0.0000
     0.0000   0.0000   0.0000   0.0000

          k = 0.2652 0.0884-0.0884 ( 10423 PWs)   bands (ev):

   -15.2408 -15.2408 -15.2294 -15.2294 -15.1662 -15.1662 -15.1526 -15.1526
   -14.2846 -14.2846 -14.1815 -14.1815 -14.1586 -14.1586 -14.0814 -14.0814
   -14.0671 -14.0671 -14.0081 -14.0081  -2.8477  -2.8477   3.0235   3.0235
     5.5660   5.5660   5.8306   5.8306   8.0722   8.0722   8.6991   8.6991
    10.3859  10.3859  10.6217  10.6217

     occupation numbers 
     1.0000   1.0000   1.0000   1.0000   1.0000   1.0000   1.0000   1.0000
     1.0000   1.0000   1.0000   1.0000   1.0000   1.0000   1.0000   1.0000
     1.0000   1.0000   1.0000   1.0000   1.0000   1.0000   1.0000   1.0000
     1.0000   1.0000   1.0000   1.0000   0.0000   0.0000   0.0000   0.0000
     0.0000   0.0000   0.0000   0.0000

          k = 0.3094 0.1326-0.1326 ( 10416 PWs)   bands (ev):

   -15.2425 -15.2425 -15.2244 -15.2244 -15.1712 -15.1712 -15.1501 -15.1501
   -14.2742 -14.2742 -14.1925 -14.1925 -14.1643 -14.1643 -14.0793 -14.0793
   -14.0574 -14.0574 -14.0120 -14.0120  -2.6012  -2.6012   2.3241   2.3241
     5.3065   5.3065   5.6539   5.6539   7.9354   7.9354   9.0749   9.0749
    10.5552  10.5552  10.9195  10.9195

     occupation numbers 
     1.0000   1.0000   1.0000   1.0000   1.0000   1.0000   1.0000   1.0000
     1.0000   1.0000   1.0000   1.0000   1.0000   1.0000   1.0000   1.0000
     1.0000   1.0000   1.0000   1.0000   1.0000   1.0000   1.0000   1.0000
     1.0000   1.0000   1.0000   1.0000   0.0000   0.0000   0.0000   0.0000
     0.0000   0.0000   0.0000   0.0000

          k = 0.3536 0.1768-0.1768 ( 10424 PWs)   bands (ev):

   -15.2440 -15.2440 -15.2187 -15.2187 -15.1769 -15.1769 -15.1478 -15.1478
   -14.2631 -14.2631 -14.2029 -14.2029 -14.1694 -14.1694 -14.0778 -14.0778
   -14.0497 -14.0497 -14.0155 -14.0155  -2.3145  -2.3145   1.6641   1.6641
     5.0705   5.0705   5.5409   5.5409   7.7946   7.7946   9.3941   9.3941
    10.5909  10.5909  11.2653  11.2653

     occupation numbers 
     1.0000   1.0000   1.0000   1.0000   1.0000   1.0000   1.0000   1.0000
     1.0000   1.0000   1.0000   1.0000   1.0000   1.0000   1.0000   1.0000
     1.0000   1.0000   1.0000   1.0000   1.0000   1.0000   1.0000   1.0000
     1.0000   1.0000   1.0000   1.0000   0.0000   0.0000   0.0000   0.0000
     0.0000   0.0000   0.0000   0.0000

          k = 0.3977 0.2210-0.2210 ( 10424 PWs)   bands (ev):

   -15.2451 -15.2451 -15.2129 -15.2129 -15.1828 -15.1828 -15.1459 -15.1459
   -14.2523 -14.2523 -14.2123 -14.2123 -14.1734 -14.1734 -14.0770 -14.0770
   -14.0446 -14.0446 -14.0178 -14.0178  -2.0234  -2.0234   1.1060   1.1060
     4.8786   4.8786   5.4935   5.4935   7.6794   7.6794   9.5877   9.5877
    10.5347  10.5347  11.7761  11.7761

     occupation numbers 
     1.0000   1.0000   1.0000   1.0000   1.0000   1.0000   1.0000   1.0000
     1.0000   1.0000   1.0000   1.0000   1.0000   1.0000   1.0000   1.0000
     1.0000   1.0000   1.0000   1.0000   1.0000   1.0000   1.0000   1.0000
     1.0000   1.0000   1.0000   1.0000   0.0000   0.0000   0.0000   0.0000
     0.0000   0.0000   0.0000   0.0000

          k =-0.2652-0.4419 0.4419 ( 10429 PWs)   bands (ev):

   -15.2459 -15.2459 -15.2079 -15.2079 -15.1878 -15.1878 -15.1448 -15.1448
   -14.2436 -14.2436 -14.2197 -14.2197 -14.1757 -14.1757 -14.0770 -14.0770
   -14.0420 -14.0420 -14.0187 -14.0187  -1.8042  -1.8042   0.7402   0.7402
     4.7424   4.7424   5.5100   5.5100   7.6032   7.6032   9.7016   9.7016
    10.4361  10.4361  12.3351  12.3351

     occupation numbers 
     1.0000   1.0000   1.0000   1.0000   1.0000   1.0000   1.0000   1.0000
     1.0000   1.0000   1.0000   1.0000   1.0000   1.0000   1.0000   1.0000
     1.0000   1.0000   1.0000   1.0000   1.0000   1.0000   1.0000   1.0000
     1.0000   1.0000   1.0000   1.0000   0.0000   0.0000   0.0000   0.0000
     0.0000   0.0000   0.0000   0.0000

          k =-0.2210-0.3977 0.3977 ( 10425 PWs)   bands (ev):

   -15.2460 -15.2460 -15.2065 -15.2065 -15.1892 -15.1892 -15.1445 -15.1445
   -14.2421 -14.2421 -14.2211 -14.2211 -14.1759 -14.1759 -14.0775 -14.0775
   -14.0412 -14.0412 -14.0189 -14.0189  -1.7686  -1.7686   0.6848   0.6848
     4.6694   4.6694   5.5872   5.5872   7.5712   7.5712   9.7953   9.7953
    10.3244  10.3244  12.6321  12.6321

     occupation numbers 
     1.0000   1.0000   1.0000   1.0000   1.0000   1.0000   1.0000   1.0000
     1.0000   1.0000   1.0000   1.0000   1.0000   1.0000   1.0000   1.0000
     1.0000   1.0000   1.0000   1.0000   1.0000   1.0000   1.0000   1.0000
     1.0000   1.0000   1.0000   1.0000   0.0000   0.0000   0.0000   0.0000
     0.0000   0.0000   0.0000   0.0000

          k =-0.1768-0.3536 0.3536 ( 10410 PWs)   bands (ev):

   -15.2457 -15.2457 -15.2100 -15.2100 -15.1857 -15.1857 -15.1450 -15.1450
   -14.2493 -14.2493 -14.2150 -14.2150 -14.1737 -14.1737 -14.0785 -14.0785
   -14.0420 -14.0420 -14.0186 -14.0186  -1.9413  -1.9413   0.9647   0.9647
     4.6656   4.6656   5.7200   5.7200   7.5823   7.5823   9.8859   9.8859
    10.2078  10.2078  12.3889  12.3889

     occupation numbers 
     1.0000   1.0000   1.0000   1.0000   1.0000   1.0000   1.0000   1.0000
     1.0000   1.0000   1.0000   1.0000   1.0000   1.0000   1.0000   1.0000
     1.0000   1.0000   1.0000   1.0000   1.0000   1.0000   1.0000   1.0000
     1.0000   1.0000   1.0000   1.0000   0.0000   0.0000   0.0000   0.0000
     0.0000   0.0000   0.0000   0.0000

          k =-0.1326-0.3094 0.3094 ( 10416 PWs)   bands (ev):

   -15.2449 -15.2449 -15.2156 -15.2156 -15.1802 -15.1802 -15.1464 -15.1464
   -14.2597 -14.2597 -14.2063 -14.2063 -14.1699 -14.1699 -14.0800 -14.0800
   -14.0452 -14.0452 -14.0171 -14.0171  -2.2203  -2.2203   1.4719   1.4719
     4.7378   4.7378   5.8997   5.8997   7.6293   7.6293   9.9189   9.9189
    10.0999  10.1000  11.7466  11.7466

     occupation numbers 
     1.0000   1.0000   1.0000   1.0000   1.0000   1.0000   1.0000   1.0000
     1.0000   1.0000   1.0000   1.0000   1.0000   1.0000   1.0000   1.0000
     1.0000   1.0000   1.0000   1.0000   1.0000   1.0000   1.0000   1.0000
     1.0000   1.0000   1.0000   1.0000   0.0000   0.0000   0.0000   0.0000
     0.0000   0.0000   0.0000   0.0000

          k =-0.0884-0.2652 0.2652 ( 10415 PWs)   bands (ev):

   -15.2437 -15.2437 -15.2213 -15.2213 -15.1745 -15.1745 -15.1483 -15.1483
   -14.2708 -14.2708 -14.1964 -14.1964 -14.1649 -14.1649 -14.0819 -14.0819
   -14.0513 -14.0513 -14.0141 -14.0141  -2.5135  -2.5135   2.0994   2.0994
     4.8955   4.8955   6.1124   6.1124   7.6937   7.6937   9.7730   9.7730
    10.0053  10.0053  11.1474  11.1474

     occupation numbers 
     1.0000   1.0000   1.0000   1.0000   1.0000   1.0000   1.0000   1.0000
     1.0000   1.0000   1.0000   1.0000   1.0000   1.0000   1.0000   1.0000
     1.0000   1.0000   1.0000   1.0000   1.0000   1.0000   1.0000   1.0000
     1.0000   1.0000   1.0000   1.0000   0.0000   0.0000   0.0000   0.0000
     0.0000   0.0000   0.0000   0.0000

          k =-0.0442-0.2210 0.2210 ( 10429 PWs)   bands (ev):

   -15.2423 -15.2423 -15.2264 -15.2264 -15.1693 -15.1693 -15.1506 -15.1506
   -14.2815 -14.2815 -14.1854 -14.1854 -14.1597 -14.1597 -14.0841 -14.0841
   -14.0600 -14.0600 -14.0102 -14.0102  -2.7750  -2.7750   2.7736   2.7736
     5.1531   5.1531   6.3348   6.3348   7.7315   7.7315   9.5248   9.5248
     9.7354   9.7354  10.7823  10.7823

     occupation numbers 
     1.0000   1.0000   1.0000   1.0000   1.0000   1.0000   1.0000   1.0000
     1.0000   1.0000   1.0000   1.0000   1.0000   1.0000   1.0000   1.0000
     1.0000   1.0000   1.0000   1.0000   1.0000   1.0000   1.0000   1.0000
     1.0000   1.0000   1.0000   1.0000   0.0000   0.0000   0.0000   0.0000
     0.0000   0.0000   0.0000   0.0000

          k = 0.0000-0.1768 0.1768 ( 10433 PWs)   bands (ev):

   -15.2410 -15.2410 -15.2306 -15.2306 -15.1651 -15.1651 -15.1529 -15.1529
   -14.2907 -14.2907 -14.1738 -14.1738 -14.1549 -14.1549 -14.0865 -14.0865
   -14.0702 -14.0702 -14.0063 -14.0063  -2.9841  -2.9841   3.4261   3.4261
     5.5283   5.5283   6.5283   6.5283   7.6558   7.6558   9.2663   9.2663
     9.4344   9.4344  10.4595  10.4595

[...]

     occupation numbers 
     1.0000   1.0000   1.0000   1.0000   1.0000   1.0000   1.0000   1.0000
     1.0000   1.0000   1.0000   1.0000   1.0000   1.0000   1.0000   1.0000
     1.0000   1.0000   1.0000   1.0000   1.0000   1.0000   1.0000   1.0000
     1.0000   1.0000   1.0000   1.0000   0.0000   0.0000   0.0000   0.0000
     0.0000   0.0000   0.0000   0.0000

          k =-0.1326-0.3977 0.5745 ( 10422 PWs)   bands (ev):

   -15.2446 -15.2446 -15.2099 -15.2099 -15.1875 -15.1875 -15.1432 -15.1432
   -14.2455 -14.2455 -14.2103 -14.2103 -14.1654 -14.1654 -14.1113 -14.1113
   -14.0411 -14.0411 -14.0019 -14.0019  -1.2980  -1.2980   0.3496   0.3496
     3.8405   3.8405   4.8313   4.8313   8.6373   8.6373   9.8888   9.8888
    11.1494  11.1494  11.8812  11.8812

     occupation numbers 
     1.0000   1.0000   1.0000   1.0000   1.0000   1.0000   1.0000   1.0000
     1.0000   1.0000   1.0000   1.0000   1.0000   1.0000   1.0000   1.0000
     1.0000   1.0000   1.0000   1.0000   1.0000   1.0000   1.0000   1.0000
     1.0000   1.0000   1.0000   1.0000   0.0000   0.0000   0.0000   0.0000
     0.0000   0.0000   0.0000   0.0000

          k =-0.0884-0.3536 0.5303 ( 10423 PWs)   bands (ev):

   -15.2449 -15.2449 -15.2093 -15.2093 -15.1881 -15.1881 -15.1430 -15.1430
   -14.2459 -14.2459 -14.2103 -14.2103 -14.1651 -14.1651 -14.1108 -14.1108
   -14.0412 -14.0412 -14.0021 -14.0021  -1.3527  -1.3527   0.4189   0.4189
     3.8077   3.8077   4.9001   4.9001   8.6842   8.6842   9.8789   9.8789
    11.2111  11.2111  11.8467  11.8467

     occupation numbers 
     1.0000   1.0000   1.0000   1.0000   1.0000   1.0000   1.0000   1.0000
     1.0000   1.0000   1.0000   1.0000   1.0000   1.0000   1.0000   1.0000
     1.0000   1.0000   1.0000   1.0000   1.0000   1.0000   1.0000   1.0000
     1.0000   1.0000   1.0000   1.0000   0.0000   0.0000   0.0000   0.0000
     0.0000   0.0000   0.0000   0.0000

          k =-0.0442-0.3094 0.4861 ( 10424 PWs)   bands (ev):

   -15.2447 -15.2447 -15.2114 -15.2114 -15.1858 -15.1858 -15.1437 -15.1437
   -14.2480 -14.2480 -14.2110 -14.2110 -14.1648 -14.1648 -14.1063 -14.1063
   -14.0415 -14.0415 -14.0043 -14.0043  -1.5970  -1.5970   0.7383   0.7383
     3.8795   3.8795   5.0428   5.0428   8.7352   8.7352   9.7728   9.7728
    10.6372  10.6372  12.0627  12.0628

     occupation numbers 
     1.0000   1.0000   1.0000   1.0000   1.0000   1.0000   1.0000   1.0000
     1.0000   1.0000   1.0000   1.0000   1.0000   1.0000   1.0000   1.0000
     1.0000   1.0000   1.0000   1.0000   1.0000   1.0000   1.0000   1.0000
     1.0000   1.0000   1.0000   1.0000   0.0000   0.0000   0.0000   0.0000
     0.0000   0.0000   0.0000   0.0000

          k = 0.0000-0.2652 0.4419 ( 10416 PWs)   bands (ev):

   -15.2442 -15.2442 -15.2150 -15.2150 -15.1819 -15.1819 -15.1451 -15.1451
   -14.2527 -14.2527 -14.2099 -14.2099 -14.1648 -14.1648 -14.0990 -14.0990
   -14.0426 -14.0426 -14.0077 -14.0077  -1.8957  -1.8957   1.1569   1.1569
     4.0749   4.0749   5.2344   5.2344   8.7289   8.7289   9.4328   9.4328
    10.4572  10.4572  11.8343  11.8343

     occupation numbers 
     1.0000   1.0000   1.0000   1.0000   1.0000   1.0000   1.0000   1.0000
     1.0000   1.0000   1.0000   1.0000   1.0000   1.0000   1.0000   1.0000
     1.0000   1.0000   1.0000   1.0000   1.0000   1.0000   1.0000   1.0000
     1.0000   1.0000   1.0000   1.0000   0.0000   0.0000   0.0000   0.0000
     0.0000   0.0000   0.0000   0.0000

          k =-0.1768-0.5303 0.7071 ( 10432 PWs)   bands (ev):

   -15.2413 -15.2413 -15.2196 -15.2196 -15.1768 -15.1768 -15.1481 -15.1481
   -14.2472 -14.2472 -14.2126 -14.2126 -14.1633 -14.1633 -14.1070 -14.1070
   -14.0398 -14.0398 -14.0057 -14.0057  -1.6043  -1.6043   0.7766   0.7766
     4.2443   4.2443   4.7077   4.7077   8.3602   8.3602   8.7571   8.7571
    11.1588  11.1588  12.7885  12.7886

     occupation numbers 
     1.0000   1.0000   1.0000   1.0000   1.0000   1.0000   1.0000   1.0000
     1.0000   1.0000   1.0000   1.0000   1.0000   1.0000   1.0000   1.0000
     1.0000   1.0000   1.0000   1.0000   1.0000   1.0000   1.0000   1.0000
     1.0000   1.0000   1.0000   1.0000   0.0000   0.0000   0.0000   0.0000
     0.0000   0.0000   0.0000   0.0000

          k =-0.1326-0.4861 0.6629 ( 10426 PWs)   bands (ev):

   -15.2424 -15.2424 -15.2164 -15.2164 -15.1806 -15.1806 -15.1459 -15.1459
   -14.2455 -14.2455 -14.2111 -14.2111 -14.1610 -14.1610 -14.1159 -14.1159
   -14.0394 -14.0394 -14.0022 -14.0022  -1.2999  -1.2999   0.3932   0.3932
     4.0138   4.0138   4.5839   4.5839   8.5335   8.5335   9.2253   9.2253
    10.9826  10.9826  12.7397  12.7397

     occupation numbers 
     1.0000   1.0000   1.0000   1.0000   1.0000   1.0000   1.0000   1.0000
     1.0000   1.0000   1.0000   1.0000   1.0000   1.0000   1.0000   1.0000
     1.0000   1.0000   1.0000   1.0000   1.0000   1.0000   1.0000   1.0000
     1.0000   1.0000   1.0000   1.0000   0.0000   0.0000   0.0000   0.0000
     0.0000   0.0000   0.0000   0.0000

          k =-0.0884-0.4419 0.6187 ( 10433 PWs)   bands (ev):

   -15.2434 -15.2434 -15.2132 -15.2132 -15.1842 -15.1842 -15.1441 -15.1441
   -14.2456 -14.2456 -14.2084 -14.2084 -14.1592 -14.1592 -14.1221 -14.1221
   -14.0401 -14.0401 -13.9995 -13.9995  -1.0615  -1.0615   0.1179   0.1179
     3.8162   3.8162   4.5722   4.5722   8.5948   8.5948   9.9455   9.9455
    10.8791  10.8791  12.1569  12.1569

     occupation numbers 
     1.0000   1.0000   1.0000   1.0000   1.0000   1.0000   1.0000   1.0000
     1.0000   1.0000   1.0000   1.0000   1.0000   1.0000   1.0000   1.0000
     1.0000   1.0000   1.0000   1.0000   1.0000   1.0000   1.0000   1.0000
     1.0000   1.0000   1.0000   1.0000   0.0000   0.0000   0.0000   0.0000
     0.0000   0.0000   0.0000   0.0000

          k =-0.0442-0.3977 0.5745 ( 10439 PWs)   bands (ev):

   -15.2442 -15.2442 -15.2108 -15.2108 -15.1868 -15.1868 -15.1431 -15.1431
   -14.2462 -14.2462 -14.2074 -14.2074 -14.1595 -14.1595 -14.1225 -14.1225
   -14.0408 -14.0408 -13.9988 -13.9988  -1.0633  -1.0633   0.1227   0.1227
     3.7039   3.7039   4.6602   4.6602   8.6749   8.6749  10.4055  10.4055
    11.0927  11.0927  11.4361  11.4361

     occupation numbers 
     1.0000   1.0000   1.0000   1.0000   1.0000   1.0000   1.0000   1.0000
     1.0000   1.0000   1.0000   1.0000   1.0000   1.0000   1.0000   1.0000
     1.0000   1.0000   1.0000   1.0000   1.0000   1.0000   1.0000   1.0000
     1.0000   1.0000   1.0000   1.0000   0.0000   0.0000   0.0000   0.0000
     0.0000   0.0000   0.0000   0.0000

          k = 0.0000-0.3536 0.5303 ( 10423 PWs)   bands (ev):

   -15.2446 -15.2446 -15.2101 -15.2101 -15.1875 -15.1875 -15.1429 -15.1429
   -14.2467 -14.2467 -14.2089 -14.2089 -14.1618 -14.1618 -14.1164 -14.1164
   -14.0411 -14.0411 -14.0005 -14.0005  -1.2990  -1.2990   0.3914   0.3914
     3.7166   3.7166   4.8260   4.8260   8.7552   8.7552  10.2715  10.2715
    10.7154  10.7154  11.9207  11.9207

     occupation numbers 
     1.0000   1.0000   1.0000   1.0000   1.0000   1.0000   1.0000   1.0000
     1.0000   1.0000   1.0000   1.0000   1.0000   1.0000   1.0000   1.0000
     1.0000   1.0000   1.0000   1.0000   1.0000   1.0000   1.0000   1.0000
     1.0000   1.0000   1.0000   1.0000   0.0000   0.0000   0.0000   0.0000
     0.0000   0.0000   0.0000   0.0000

          k =-0.0884-0.5303 0.7071 ( 10428 PWs)   bands (ev):

   -15.2405 -15.2405 -15.2196 -15.2196 -15.1768 -15.1768 -15.1482 -15.1482
   -14.2433 -14.2433 -14.2134 -14.2134 -14.1558 -14.1558 -14.1232 -14.1232
   -14.0360 -14.0360 -14.0031 -14.0031  -1.0776  -1.0776   0.1262   0.1262
     4.1636   4.1636   4.4236   4.4236   8.3228   8.3228   8.5782   8.5782
    11.8294  11.8294  13.0704  13.0705

     occupation numbers 
     1.0000   1.0000   1.0000   1.0000   1.0000   1.0000   1.0000   1.0000
     1.0000   1.0000   1.0000   1.0000   1.0000   1.0000   1.0000   1.0000
     1.0000   1.0000   1.0000   1.0000   1.0000   1.0000   1.0000   1.0000
     1.0000   1.0000   1.0000   1.0000   0.0000   0.0000   0.0000   0.0000
     0.0000   0.0000   0.0000   0.0000

          k =-0.0442-0.4861 0.6629 ( 10442 PWs)   bands (ev):

   -15.2418 -15.2418 -15.2167 -15.2167 -15.1804 -15.1804 -15.1460 -15.1460
   -14.2446 -14.2446 -14.2096 -14.2096 -14.1521 -14.1521 -14.1308 -14.1308
   -14.0378 -14.0378 -13.9998 -13.9998  -0.7938  -0.7938  -0.1731  -0.1731
     3.9574   3.9574   4.3755   4.3755   8.4816   8.4816   9.1675   9.1675
    11.6453  11.6453  12.3716  12.3716

     occupation numbers 
     1.0000   1.0000   1.0000   1.0000   1.0000   1.0000   1.0000   1.0000
     1.0000   1.0000   1.0000   1.0000   1.0000   1.0000   1.0000   1.0000
     1.0000   1.0000   1.0000   1.0000   1.0000   1.0000   1.0000   1.0000
     1.0000   1.0000   1.0000   1.0000   0.0000   0.0000   0.0000   0.0000
     0.0000   0.0000   0.0000   0.0000

          k = 0.0000-0.4419 0.6187 ( 10458 PWs)   bands (ev):

   -15.2431 -15.2431 -15.2136 -15.2136 -15.1840 -15.1840 -15.1441 -15.1441
   -14.2458 -14.2458 -14.2070 -14.2070 -14.1537 -14.1537 -14.1306 -14.1306
   -14.0396 -14.0396 -13.9980 -13.9980  -0.7956  -0.7956  -0.1618  -0.1618
     3.7672   3.7672   4.4759   4.4759   8.5742   8.5742   9.9796   9.9796
    11.4507  11.4507  11.5538  11.5538

     occupation numbers 
     1.0000   1.0000   1.0000   1.0000   1.0000   1.0000   1.0000   1.0000
     1.0000   1.0000   1.0000   1.0000   1.0000   1.0000   1.0000   1.0000
     1.0000   1.0000   1.0000   1.0000   1.0000   1.0000   1.0000   1.0000
     1.0000   1.0000   1.0000   1.0000   0.0000   0.0000   0.0000   0.0000
     0.0000   0.0000   0.0000   0.0000

          k =-0.7071 0.1768 0.0000 ( 10426 PWs)   bands (ev):

   -15.2401 -15.2401 -15.2198 -15.2198 -15.1766 -15.1766 -15.1484 -15.1484
   -14.2426 -14.2426 -14.2131 -14.2131 -14.1465 -14.1465 -14.1355 -14.1355
   -14.0346 -14.0346 -14.0021 -14.0021  -0.5119  -0.5119  -0.4810  -0.4810
     4.1626   4.1626   4.3016   4.3016   8.3387   8.3387   8.4789   8.4789
    12.4733  12.4733  12.6394  12.6394

     occupation numbers 
     1.0000   1.0000   1.0000   1.0000   1.0000   1.0000   1.0000   1.0000
     1.0000   1.0000   1.0000   1.0000   1.0000   1.0000   1.0000   1.0000
     1.0000   1.0000   1.0000   1.0000   1.0000   1.0000   1.0000   1.0000
     1.0000   1.0000   1.0000   1.0000   0.0000   0.0000   0.0000   0.0000
     0.0000   0.0000   0.0000   0.0000

          k =-0.1768-0.4419 0.7071 ( 10415 PWs)   bands (ev):

   -15.2436 -15.2436 -15.2140 -15.2140 -15.1832 -15.1832 -15.1446 -15.1446
   -14.2472 -14.2472 -14.2103 -14.2103 -14.1631 -14.1631 -14.1112 -14.1112
   -14.0412 -14.0412 -14.0025 -14.0025  -1.4701  -1.4701   0.6041   0.6041
     3.9355   3.9355   4.7400   4.7400   9.0708   9.0708   9.3442   9.3442
    10.4148  10.4148  12.5194  12.5194

     occupation numbers 
     1.0000   1.0000   1.0000   1.0000   1.0000   1.0000   1.0000   1.0000
     1.0000   1.0000   1.0000   1.0000   1.0000   1.0000   1.0000   1.0000
     1.0000   1.0000   1.0000   1.0000   1.0000   1.0000   1.0000   1.0000
     1.0000   1.0000   1.0000   1.0000   0.0000   0.0000   0.0000   0.0000
     0.0000   0.0000   0.0000   0.0000

          k =-0.1326-0.3977 0.6629 ( 10430 PWs)   bands (ev):

   -15.2440 -15.2440 -15.2119 -15.2119 -15.1857 -15.1857 -15.1435 -15.1435
   -14.2464 -14.2464 -14.2080 -14.2080 -14.1609 -14.1609 -14.1192 -14.1192
   -14.0412 -14.0412 -13.9995 -13.9995  -1.1862  -1.1862   0.2657   0.2657
     3.8070   3.8070   4.5838   4.5838   9.1437   9.1437   9.7861   9.7861
    10.5271  10.5271  12.0433  12.0433

     occupation numbers 
     1.0000   1.0000   1.0000   1.0000   1.0000   1.0000   1.0000   1.0000
     1.0000   1.0000   1.0000   1.0000   1.0000   1.0000   1.0000   1.0000
     1.0000   1.0000   1.0000   1.0000   1.0000   1.0000   1.0000   1.0000
     1.0000   1.0000   1.0000   1.0000   0.0000   0.0000   0.0000   0.0000
     0.0000   0.0000   0.0000   0.0000

          k =-0.0884-0.3536 0.6187 ( 10422 PWs)   bands (ev):

   -15.2441 -15.2441 -15.2110 -15.2110 -15.1867 -15.1867 -15.1430 -15.1430
   -14.2464 -14.2464 -14.2067 -14.2067 -14.1600 -14.1600 -14.1224 -14.1224
   -14.0413 -14.0413 -13.9983 -13.9983  -1.0480  -1.0480   0.1082   0.1082
     3.7661   3.7661   4.5268   4.5268   9.1491   9.1491   9.8977   9.8977
    11.0418  11.0418  11.3751  11.3751

     occupation numbers 
     1.0000   1.0000   1.0000   1.0000   1.0000   1.0000   1.0000   1.0000
     1.0000   1.0000   1.0000   1.0000   1.0000   1.0000   1.0000   1.0000
     1.0000   1.0000   1.0000   1.0000   1.0000   1.0000   1.0000   1.0000
     1.0000   1.0000   1.0000   1.0000   0.0000   0.0000   0.0000   0.0000
     0.0000   0.0000   0.0000   0.0000

          k =-0.0884-0.4419 0.7071 ( 10432 PWs)   bands (ev):

   -15.2429 -15.2429 -15.2145 -15.2145 -15.1830 -15.1830 -15.1445 -15.1445
   -14.2459 -14.2459 -14.2077 -14.2077 -14.1567 -14.1567 -14.1258 -14.1258
   -14.0400 -14.0400 -13.9987 -13.9987  -0.9939  -0.9939   0.0565   0.0565
     3.9198   3.9198   4.3502   4.3502   9.1216   9.1216   9.3373   9.3373
    10.8027  10.8027  12.2064  12.2064

     occupation numbers 
     1.0000   1.0000   1.0000   1.0000   1.0000   1.0000   1.0000   1.0000
     1.0000   1.0000   1.0000   1.0000   1.0000   1.0000   1.0000   1.0000
     1.0000   1.0000   1.0000   1.0000   1.0000   1.0000   1.0000   1.0000
     1.0000   1.0000   1.0000   1.0000   0.0000   0.0000   0.0000   0.0000
     0.0000   0.0000   0.0000   0.0000

          k =-0.0442-0.3977 0.6629 ( 10431 PWs)   bands (ev):

   -15.2434 -15.2434 -15.2129 -15.2129 -15.1849 -15.1849 -15.1435 -15.1435
   -14.2466 -14.2466 -14.2051 -14.2051 -14.1537 -14.1537 -14.1317 -14.1317
   -14.0408 -14.0408 -13.9968 -13.9968  -0.7740  -0.7740  -0.1722  -0.1722
     3.8367   3.8367   4.2697   4.2697   9.2670   9.2670   9.9805   9.9805
    10.7229  10.7229  11.3470  11.3470

     occupation numbers 
     1.0000   1.0000   1.0000   1.0000   1.0000   1.0000   1.0000   1.0000
     1.0000   1.0000   1.0000   1.0000   1.0000   1.0000   1.0000   1.0000
     1.0000   1.0000   1.0000   1.0000   1.0000   1.0000   1.0000   1.0000
     1.0000   1.0000   1.0000   1.0000   0.0000   0.0000   0.0000   0.0000
     0.0000   0.0000   0.0000   0.0000

          k =-0.0000-0.3536 0.6187 ( 10432 PWs)   bands (ev):

   -15.2438 -15.2438 -15.2119 -15.2119 -15.1860 -15.1860 -15.1431 -15.1431
   -14.2467 -14.2467 -14.2052 -14.2052 -14.1560 -14.1560 -14.1286 -14.1286
   -14.0412 -14.0412 -13.9970 -13.9970  -0.8957  -0.8957  -0.0426  -0.0426
     3.7752   3.7752   4.3700   4.3700   9.3208   9.3208  10.1626  10.1626
    10.6089  10.6089  11.2524  11.2524

     occupation numbers 
     1.0000   1.0000   1.0000   1.0000   1.0000   1.0000   1.0000   1.0000
     1.0000   1.0000   1.0000   1.0000   1.0000   1.0000   1.0000   1.0000
     1.0000   1.0000   1.0000   1.0000   1.0000   1.0000   1.0000   1.0000
     1.0000   1.0000   1.0000   1.0000   0.0000   0.0000   0.0000   0.0000
     0.0000   0.0000   0.0000   0.0000

          k =-0.7071 0.2652 0.0000 ( 10444 PWs)   bands (ev):

   -15.2426 -15.2426 -15.2149 -15.2149 -15.1826 -15.1826 -15.1446 -15.1446
   -14.2459 -14.2459 -14.2064 -14.2064 -14.1492 -14.1492 -14.1361 -14.1361
   -14.0395 -14.0395 -13.9974 -13.9974  -0.5007  -0.5007  -0.4595  -0.4595
     3.9829   3.9829   4.1480   4.1480   9.1191   9.1191   9.3152   9.3152
    11.4222  11.4222  11.5318  11.5318

     occupation numbers 
     1.0000   1.0000   1.0000   1.0000   1.0000   1.0000   1.0000   1.0000
     1.0000   1.0000   1.0000   1.0000   1.0000   1.0000   1.0000   1.0000
     1.0000   1.0000   1.0000   1.0000   1.0000   1.0000   1.0000   1.0000
     1.0000   1.0000   1.0000   1.0000   0.0000   0.0000   0.0000   0.0000
     0.0000   0.0000   0.0000   0.0000

          k =-0.7071 0.3536 0.0000 ( 10412 PWs)   bands (ev):

   -15.2434 -15.2434 -15.2128 -15.2128 -15.1852 -15.1852 -15.1433 -15.1433
   -14.2470 -14.2470 -14.2038 -14.2038 -14.1502 -14.1502 -14.1367 -14.1367
   -14.0412 -14.0412 -13.9957 -13.9957  -0.4957  -0.4957  -0.4508  -0.4508
     3.9158   3.9158   4.0887   4.0887   9.7275   9.7275  10.0529  10.0529
    10.6976  10.6976  10.7196  10.7196

     occupation numbers 
     1.0000   1.0000   1.0000   1.0000   1.0000   1.0000   1.0000   1.0000
     1.0000   1.0000   1.0000   1.0000   1.0000   1.0000   1.0000   1.0000
     1.0000   1.0000   1.0000   1.0000   1.0000   1.0000   1.0000   1.0000
     1.0000   1.0000   1.0000   1.0000   0.0000   0.0000   0.0000   0.0000
     0.0000   0.0000   0.0000   0.0000

     the Fermi energy is     6.7902 ev

!    total energy              =    -874.81536219 Ry
     Harris-Foulkes estimate   =    -874.81536212 Ry
     estimated scf accuracy    <       0.00000008 Ry

     total all-electron energy =    -24705.625245 Ry

     The total energy is the sum of the following terms:

     one-electron contribution =    -153.90667763 Ry
     hartree contribution      =      95.46608587 Ry
     xc contribution           =     -95.07243860 Ry
     ewald contribution        =    -167.52979533 Ry
     one-center paw contrib.   =    -553.77253630 Ry
     smearing contrib. (-TS)   =      -0.00000019 Ry

     convergence has been achieved in   5 iterations

     Writing output data file Sn.save
 
     init_run     :     20.35s CPU     21.74s WALL (       1 calls)
     electrons    :    389.81s CPU    412.33s WALL (       1 calls)

     Called by init_run:
     wfcinit      :     19.63s CPU     20.88s WALL (       1 calls)
     potinit      :      0.23s CPU      0.26s WALL (       1 calls)

     Called by electrons:
     c_bands      :    326.86s CPU    345.86s WALL (       6 calls)
     sum_band     :     61.17s CPU     64.47s WALL (       6 calls)
     v_of_rho     :      0.12s CPU      0.13s WALL (       6 calls)
     v_h          :      0.01s CPU      0.01s WALL (       6 calls)
     v_xc         :      0.11s CPU      0.12s WALL (       6 calls)
     newd         :      0.71s CPU      0.80s WALL (       6 calls)
     PAW_pot      :      1.16s CPU      1.24s WALL (       6 calls)
     mix_rho      :      0.05s CPU      0.07s WALL (       6 calls)

     Called by c_bands:
     init_us_2    :      1.18s CPU      1.46s WALL (    1885 calls)
     cegterg      :    307.42s CPU    326.01s WALL (     870 calls)

     Called by sum_band:
     sum_band:bec :      2.81s CPU      2.91s WALL (     870 calls)
     addusdens    :      0.70s CPU      0.85s WALL (       6 calls)

     Called by *egterg:
     h_psi        :    269.59s CPU    284.11s WALL (    3084 calls)
     s_psi        :      8.04s CPU      8.08s WALL (    3084 calls)
     g_psi        :      0.89s CPU      0.90s WALL (    2069 calls)
     cdiaghg      :     11.67s CPU     11.88s WALL (    2794 calls)
     cegterg:over :     13.96s CPU     14.01s WALL (    2069 calls)
     cegterg:upda :      7.34s CPU      7.37s WALL (    2069 calls)
     cegterg:last :      4.00s CPU      4.01s WALL (     870 calls)

     Called by h_psi:
     h_psi:vloc   :    250.94s CPU    265.27s WALL (    3084 calls)
     h_psi:vnl    :     17.86s CPU     18.00s WALL (    3084 calls)
     add_vuspsi   :      8.23s CPU      8.27s WALL (    3084 calls)

     General routines
     calbec       :     13.06s CPU     13.20s WALL (    3954 calls)
     fft          :      0.16s CPU      0.18s WALL (     116 calls)
     fftw         :    278.77s CPU    294.69s WALL (  397188 calls)
     davcio       :      0.05s CPU      1.56s WALL (     145 calls)
 
     Parallel routines
     fft_scatter  :    168.79s CPU    178.52s WALL (  397304 calls)

     PAW routines
     PAW_pot      :      1.16s CPU      1.24s WALL (       6 calls)
     PAW_symme    :      0.04s CPU      0.04s WALL (      12 calls)
 
     PWSCF        :  6m51.58s CPU     7m17.21s WALL

 
   This run was terminated on:  14: 7: 8  17Mar2020            

=------------------------------------------------------------------------------=
   JOB DONE.
=------------------------------------------------------------------------------=
