
     Program PWSCF v.5.4.0 starts on 16Mar2020 at 22:54:38 

     This program is part of the open-source Quantum ESPRESSO suite
     for quantum simulation of materials; please cite
         "P. Giannozzi et al., J. Phys.:Condens. Matter 21 395502 (2009);
          URL http://www.quantum-espresso.org", 
     in publications or presentations arising from this work. More details at
     http://www.quantum-espresso.org/quote

     Parallel version (MPI & OpenMP), running on      16 processor cores
     Number of MPI processes:                16
     Threads/MPI process:                     1
     R & G space division:  proc/nbgrp/npool/nimage =      16
     Waiting for input...
     Reading input from standard input
Warning: card &IONS ignored
Warning: card / ignored
Warning: card &CELL ignored
Warning: card / ignored

     Current dimensions of program PWSCF are:
     Max number of different atomic species (ntypx) = 10
     Max number of k-points (npk) =  40000
     Max angular momentum in pseudopotentials (lmaxx) =  3
               file Sn.rel-pbe-dn-kjpaw_psl.0.2.UPF: wavefunction(s)  5P 5P 4D 4D renormalized

     Subspace diagonalization in iterative solution of the eigenvalue problem:
     a serial algorithm will be used

 
     Parallelization info
     --------------------
     sticks:   dense  smooth     PW     G-vecs:    dense   smooth      PW
     Min         117     117     33                 3318     3318     505
     Max         119     119     34                 3319     3319     507
     Sum        1879    1879    535                53089    53089    8099
 

     Title: 
     Sn                                                                         


     bravais-lattice index     =            0
     lattice parameter (alat)  =       8.9127  a.u.
     unit-cell volume          =     500.6268 (a.u.)^3
     number of atoms/cell      =            2
     number of atomic types    =            1
     number of electrons       =        28.00
     number of Kohn-Sham states=           36
     kinetic-energy cutoff     =      85.0000  Ry
     charge density cutoff     =     340.0000  Ry
     convergence threshold     =      1.0E-06
     mixing beta               =       0.7000
     number of iterations used =            8  plain     mixing
     Exchange-correlation      =  SLA  PW   PBX  PBC ( 1  4  3  4 0 0)
     Non magnetic calculation with spin-orbit


     celldm(1)=   8.912709  celldm(2)=   0.000000  celldm(3)=   0.000000
     celldm(4)=   0.000000  celldm(5)=   0.000000  celldm(6)=   0.000000

     crystal axes: (cart. coord. in units of alat)
               a(1) = (   0.000000   0.707107   0.707107 )  
               a(2) = (   0.707107   0.000000   0.707107 )  
               a(3) = (   0.707107   0.707107   0.000000 )  

     reciprocal axes: (cart. coord. in units 2 pi/alat)
               b(1) = ( -0.707107  0.707107  0.707107 )  
               b(2) = (  0.707107 -0.707107  0.707107 )  
               b(3) = (  0.707107  0.707107 -0.707107 )  


     PseudoPot. # 1 for Sn read from file:
     ../PseudopotentialDatabase/Sn.rel-pbe-dn-kjpaw_psl.0.2.UPF
     MD5 check sum: 79f626d90b2bb8cc2658247f48f3d9cb
     Pseudo is Projector augmented-wave + core cor, Zval = 14.0
     Generated using "atomic" code by A. Dal Corso  v.5.0.2 svn rev. 9415
     Shape of augmentation charge: BESSEL
     Using radial grid of 1243 points, 10 beta functions with: 
                l(1) =   0
                l(2) =   0
                l(3) =   1
                l(4) =   1
                l(5) =   1
                l(6) =   1
                l(7) =   2
                l(8) =   2
                l(9) =   2
               l(10) =   2
     Q(r) pseudized with 0 coefficients 


     atomic species   valence    mass     pseudopotential
        Sn            14.00   118.71000     Sn( 1.00)

     24 Sym. Ops. (no inversion) found
          (note: 24 additional sym.ops. were found but ignored
           their fractional translations are incommensurate with FFT grid)

                                    s                        frac. trans.

      isym =  1     identity                                     

 cryst.   s( 1) = (     1          0          0      )
                  (     0          1          0      )
                  (     0          0          1      )

 cart.    s( 1) = (  1.0000000  0.0000000  0.0000000 )
                  (  0.0000000  1.0000000  0.0000000 )
                  (  0.0000000  0.0000000  1.0000000 )


      isym =  2     180 deg rotation - cart. axis [0,0,1]        

 cryst.   s( 2) = (     0          1         -1      )
                  (     1          0         -1      )
                  (     0          0         -1      )

 cart.    s( 2) = ( -1.0000000  0.0000000  0.0000000 )
                  (  0.0000000 -1.0000000  0.0000000 )
                  (  0.0000000  0.0000000  1.0000000 )


      isym =  3     180 deg rotation - cart. axis [0,1,0]        

 cryst.   s( 3) = (     0         -1          1      )
                  (     0         -1          0      )
                  (     1         -1          0      )

 cart.    s( 3) = ( -1.0000000  0.0000000  0.0000000 )
                  (  0.0000000  1.0000000  0.0000000 )
                  (  0.0000000  0.0000000 -1.0000000 )


      isym =  4     180 deg rotation - cart. axis [1,0,0]        

 cryst.   s( 4) = (    -1          0          0      )
                  (    -1          0          1      )
                  (    -1          1          0      )

 cart.    s( 4) = (  1.0000000  0.0000000  0.0000000 )
                  (  0.0000000 -1.0000000  0.0000000 )
                  (  0.0000000  0.0000000 -1.0000000 )


      isym =  5     120 deg rotation - cart. axis [-1,-1,-1]     

 cryst.   s( 5) = (     0          0          1      )
                  (     1          0          0      )
                  (     0          1          0      )

 cart.    s( 5) = (  0.0000000  1.0000000  0.0000000 )
                  (  0.0000000  0.0000000  1.0000000 )
                  (  1.0000000  0.0000000  0.0000000 )


      isym =  6     120 deg rotation - cart. axis [-1,1,1]       

 cryst.   s( 6) = (     1         -1          0      )
                  (     0         -1          1      )
                  (     0         -1          0      )

 cart.    s( 6) = (  0.0000000 -1.0000000  0.0000000 )
                  (  0.0000000  0.0000000  1.0000000 )
                  ( -1.0000000  0.0000000  0.0000000 )


      isym =  7     120 deg rotation - cart. axis [1,1,-1]       

 cryst.   s( 7) = (    -1          1          0      )
                  (    -1          0          0      )
                  (    -1          0          1      )

 cart.    s( 7) = (  0.0000000  1.0000000  0.0000000 )
                  (  0.0000000  0.0000000 -1.0000000 )
                  ( -1.0000000  0.0000000  0.0000000 )


      isym =  8     120 deg rotation - cart. axis [1,-1,1]       

 cryst.   s( 8) = (     0          0         -1      )
                  (     0          1         -1      )
                  (     1          0         -1      )

 cart.    s( 8) = (  0.0000000 -1.0000000  0.0000000 )
                  (  0.0000000  0.0000000 -1.0000000 )
                  (  1.0000000  0.0000000  0.0000000 )


      isym =  9     120 deg rotation - cart. axis [1,1,1]        

 cryst.   s( 9) = (     0          1          0      )
                  (     0          0          1      )
                  (     1          0          0      )

 cart.    s( 9) = (  0.0000000  0.0000000  1.0000000 )
                  (  1.0000000  0.0000000  0.0000000 )
                  (  0.0000000  1.0000000  0.0000000 )


      isym = 10     120 deg rotation - cart. axis [-1,1,-1]      

 cryst.   s(10) = (    -1          0          1      )
                  (    -1          1          0      )
                  (    -1          0          0      )

 cart.    s(10) = (  0.0000000  0.0000000  1.0000000 )
                  ( -1.0000000  0.0000000  0.0000000 )
                  (  0.0000000 -1.0000000  0.0000000 )


      isym = 11     120 deg rotation - cart. axis [1,-1,-1]      

 cryst.   s(11) = (     1          0         -1      )
                  (     0          0         -1      )
                  (     0          1         -1      )

 cart.    s(11) = (  0.0000000  0.0000000 -1.0000000 )
                  ( -1.0000000  0.0000000  0.0000000 )
                  (  0.0000000  1.0000000  0.0000000 )


      isym = 12     120 deg rotation - cart. axis [-1,-1,1]      

 cryst.   s(12) = (     0         -1          0      )
                  (     1         -1          0      )
                  (     0         -1          1      )

 cart.    s(12) = (  0.0000000  0.0000000 -1.0000000 )
                  (  1.0000000  0.0000000  0.0000000 )
                  (  0.0000000 -1.0000000  0.0000000 )


      isym = 13     inv. 180 deg rotation - cart. axis [1,1,0]   

 cryst.   s(13) = (     1          0         -1      )
                  (     0          1         -1      )
                  (     0          0         -1      )

 cart.    s(13) = (  0.0000000 -1.0000000  0.0000000 )
                  ( -1.0000000  0.0000000  0.0000000 )
                  (  0.0000000  0.0000000  1.0000000 )


      isym = 14     inv. 180 deg rotation - cart. axis [1,-1,0]  

 cryst.   s(14) = (     0          1          0      )
                  (     1          0          0      )
                  (     0          0          1      )

 cart.    s(14) = (  0.0000000  1.0000000  0.0000000 )
                  (  1.0000000  0.0000000  0.0000000 )
                  (  0.0000000  0.0000000  1.0000000 )


      isym = 15     inv.  90 deg rotation - cart. axis [0,0,-1]  

 cryst.   s(15) = (     0         -1          0      )
                  (     0         -1          1      )
                  (     1         -1          0      )

 cart.    s(15) = (  0.0000000 -1.0000000  0.0000000 )
                  (  1.0000000  0.0000000  0.0000000 )
                  (  0.0000000  0.0000000 -1.0000000 )


      isym = 16     inv.  90 deg rotation - cart. axis [0,0,1]   

 cryst.   s(16) = (    -1          0          1      )
                  (    -1          0          0      )
                  (    -1          1          0      )

 cart.    s(16) = (  0.0000000  1.0000000  0.0000000 )
                  ( -1.0000000  0.0000000  0.0000000 )
                  (  0.0000000  0.0000000 -1.0000000 )


      isym = 17     inv. 180 deg rotation - cart. axis [1,0,1]   

 cryst.   s(17) = (     1         -1          0      )
                  (     0         -1          0      )
                  (     0         -1          1      )

 cart.    s(17) = (  0.0000000  0.0000000 -1.0000000 )
                  (  0.0000000  1.0000000  0.0000000 )
                  ( -1.0000000  0.0000000  0.0000000 )


      isym = 18     inv. 180 deg rotation - cart. axis [-1,0,1]  

 cryst.   s(18) = (     0          0          1      )
                  (     0          1          0      )
                  (     1          0          0      )

 cart.    s(18) = (  0.0000000  0.0000000  1.0000000 )
                  (  0.0000000  1.0000000  0.0000000 )
                  (  1.0000000  0.0000000  0.0000000 )


      isym = 19     inv.  90 deg rotation - cart. axis [0,1,0]   

 cryst.   s(19) = (     0          0         -1      )
                  (     1          0         -1      )
                  (     0          1         -1      )

 cart.    s(19) = (  0.0000000  0.0000000 -1.0000000 )
                  (  0.0000000 -1.0000000  0.0000000 )
                  (  1.0000000  0.0000000  0.0000000 )


      isym = 20     inv.  90 deg rotation - cart. axis [0,-1,0]  

 cryst.   s(20) = (    -1          1          0      )
                  (    -1          0          1      )
                  (    -1          0          0      )

 cart.    s(20) = (  0.0000000  0.0000000  1.0000000 )
                  (  0.0000000 -1.0000000  0.0000000 )
                  ( -1.0000000  0.0000000  0.0000000 )


      isym = 21     inv. 180 deg rotation - cart. axis [0,1,1]   

 cryst.   s(21) = (    -1          0          0      )
                  (    -1          1          0      )
                  (    -1          0          1      )

 cart.    s(21) = (  1.0000000  0.0000000  0.0000000 )
                  (  0.0000000  0.0000000 -1.0000000 )
                  (  0.0000000 -1.0000000  0.0000000 )


      isym = 22     inv. 180 deg rotation - cart. axis [0,1,-1]  

 cryst.   s(22) = (     1          0          0      )
                  (     0          0          1      )
                  (     0          1          0      )

 cart.    s(22) = (  1.0000000  0.0000000  0.0000000 )
                  (  0.0000000  0.0000000  1.0000000 )
                  (  0.0000000  1.0000000  0.0000000 )


      isym = 23     inv.  90 deg rotation - cart. axis [-1,0,0]  

 cryst.   s(23) = (     0          1         -1      )
                  (     0          0         -1      )
                  (     1          0         -1      )

 cart.    s(23) = ( -1.0000000  0.0000000  0.0000000 )
                  (  0.0000000  0.0000000 -1.0000000 )
                  (  0.0000000  1.0000000  0.0000000 )


      isym = 24     inv.  90 deg rotation - cart. axis [1,0,0]   

 cryst.   s(24) = (     0         -1          1      )
                  (     1         -1          0      )
                  (     0         -1          0      )

 cart.    s(24) = ( -1.0000000  0.0000000  0.0000000 )
                  (  0.0000000  0.0000000  1.0000000 )
                  (  0.0000000 -1.0000000  0.0000000 )


   Cartesian axes

     site n.     atom                  positions (alat units)
         1           Sn  tau(   1) = (   0.0000000   0.0000000   0.0000000  )
         2           Sn  tau(   2) = (   0.3535534   0.3535534   0.3535534  )

   Crystallographic axes

     site n.     atom                  positions (cryst. coord.)
         1           Sn  tau(   1) = (  0.0000000  0.0000000  0.0000000  )
         2           Sn  tau(   2) = (  0.2500000  0.2500000  0.2500000  )

     number of k points=   145  gaussian smearing, width (Ry)=  0.0001
                       cart. coord. in units 2pi/alat
        k(    1) = (   0.0000000   0.0000000   0.0000000), wk =   0.0002441
        k(    2) = (   0.0441942   0.0441942  -0.0441942), wk =   0.0019531
        k(    3) = (   0.0883883   0.0883883  -0.0883883), wk =   0.0019531
        k(    4) = (   0.1325825   0.1325825  -0.1325825), wk =   0.0019531
        k(    5) = (   0.1767767   0.1767767  -0.1767767), wk =   0.0019531
        k(    6) = (   0.2209709   0.2209709  -0.2209709), wk =   0.0019531
        k(    7) = (   0.2651650   0.2651650  -0.2651650), wk =   0.0019531
        k(    8) = (   0.3093592   0.3093592  -0.3093592), wk =   0.0019531
        k(    9) = (  -0.3535534  -0.3535534   0.3535534), wk =   0.0009766
        k(   10) = (   0.0883883   0.0000000   0.0000000), wk =   0.0014648
        k(   11) = (   0.1325825   0.0441942  -0.0441942), wk =   0.0058594
        k(   12) = (   0.1767767   0.0883883  -0.0883883), wk =   0.0058594
        k(   13) = (   0.2209709   0.1325825  -0.1325825), wk =   0.0058594
        k(   14) = (   0.2651650   0.1767767  -0.1767767), wk =   0.0058594
        k(   15) = (   0.3093592   0.2209709  -0.2209709), wk =   0.0058594
        k(   16) = (   0.3535534   0.2651650  -0.2651650), wk =   0.0058594
        k(   17) = (  -0.3093592  -0.3977476   0.3977476), wk =   0.0058594
        k(   18) = (  -0.2651650  -0.3535534   0.3535534), wk =   0.0058594
        k(   19) = (  -0.2209709  -0.3093592   0.3093592), wk =   0.0058594
        k(   20) = (  -0.1767767  -0.2651650   0.2651650), wk =   0.0058594
        k(   21) = (  -0.1325825  -0.2209709   0.2209709), wk =   0.0058594
        k(   22) = (  -0.0883883  -0.1767767   0.1767767), wk =   0.0058594
        k(   23) = (  -0.0441942  -0.1325825   0.1325825), wk =   0.0058594
        k(   24) = (   0.0000000  -0.0883883   0.0883883), wk =   0.0029297
        k(   25) = (   0.1767767   0.0000000   0.0000000), wk =   0.0014648
        k(   26) = (   0.2209709   0.0441942  -0.0441942), wk =   0.0058594
        k(   27) = (   0.2651650   0.0883883  -0.0883883), wk =   0.0058594
        k(   28) = (   0.3093592   0.1325825  -0.1325825), wk =   0.0058594
        k(   29) = (   0.3535534   0.1767767  -0.1767767), wk =   0.0058594
        k(   30) = (   0.3977476   0.2209709  -0.2209709), wk =   0.0058594
        k(   31) = (  -0.2651650  -0.4419417   0.4419417), wk =   0.0058594
        k(   32) = (  -0.2209709  -0.3977476   0.3977476), wk =   0.0058594
        k(   33) = (  -0.1767767  -0.3535534   0.3535534), wk =   0.0058594
        k(   34) = (  -0.1325825  -0.3093592   0.3093592), wk =   0.0058594
        k(   35) = (  -0.0883883  -0.2651650   0.2651650), wk =   0.0058594
        k(   36) = (  -0.0441942  -0.2209709   0.2209709), wk =   0.0058594
        k(   37) = (   0.0000000  -0.1767767   0.1767767), wk =   0.0029297
        k(   38) = (   0.2651650   0.0000000   0.0000000), wk =   0.0014648
        k(   39) = (   0.3093592   0.0441942  -0.0441942), wk =   0.0058594
        k(   40) = (   0.3535534   0.0883883  -0.0883883), wk =   0.0058594
        k(   41) = (   0.3977476   0.1325825  -0.1325825), wk =   0.0058594
        k(   42) = (   0.4419417   0.1767767  -0.1767767), wk =   0.0058594
        k(   43) = (  -0.2209709  -0.4861359   0.4861359), wk =   0.0058594
        k(   44) = (  -0.1767767  -0.4419417   0.4419417), wk =   0.0058594
        k(   45) = (  -0.1325825  -0.3977476   0.3977476), wk =   0.0058594
        k(   46) = (  -0.0883883  -0.3535534   0.3535534), wk =   0.0058594
        k(   47) = (  -0.0441942  -0.3093592   0.3093592), wk =   0.0058594
        k(   48) = (   0.0000000  -0.2651650   0.2651650), wk =   0.0029297
        k(   49) = (   0.3535534   0.0000000   0.0000000), wk =   0.0014648
        k(   50) = (   0.3977476   0.0441942  -0.0441942), wk =   0.0058594
        k(   51) = (   0.4419417   0.0883883  -0.0883883), wk =   0.0058594
        k(   52) = (   0.4861359   0.1325825  -0.1325825), wk =   0.0058594
        k(   53) = (  -0.1767767  -0.5303301   0.5303301), wk =   0.0058594
        k(   54) = (  -0.1325825  -0.4861359   0.4861359), wk =   0.0058594
        k(   55) = (  -0.0883883  -0.4419417   0.4419417), wk =   0.0058594
        k(   56) = (  -0.0441942  -0.3977476   0.3977476), wk =   0.0058594
        k(   57) = (   0.0000000  -0.3535534   0.3535534), wk =   0.0029297
        k(   58) = (   0.4419417   0.0000000   0.0000000), wk =   0.0014648
        k(   59) = (   0.4861359   0.0441942  -0.0441942), wk =   0.0058594
        k(   60) = (   0.5303301   0.0883883  -0.0883883), wk =   0.0058594
        k(   61) = (  -0.1325825  -0.5745243   0.5745243), wk =   0.0058594
        k(   62) = (  -0.0883883  -0.5303301   0.5303301), wk =   0.0058594
        k(   63) = (  -0.0441942  -0.4861359   0.4861359), wk =   0.0058594
        k(   64) = (   0.0000000  -0.4419417   0.4419417), wk =   0.0029297
        k(   65) = (   0.5303301   0.0000000   0.0000000), wk =   0.0014648
        k(   66) = (   0.5745243   0.0441942  -0.0441942), wk =   0.0058594
        k(   67) = (  -0.0883883  -0.6187184   0.6187184), wk =   0.0058594
        k(   68) = (  -0.0441942  -0.5745243   0.5745243), wk =   0.0058594
        k(   69) = (   0.0000000  -0.5303301   0.5303301), wk =   0.0029297
        k(   70) = (   0.6187184   0.0000000   0.0000000), wk =   0.0014648
        k(   71) = (  -0.0441942  -0.6629126   0.6629126), wk =   0.0058594
        k(   72) = (   0.0000000  -0.6187184   0.6187184), wk =   0.0029297
        k(   73) = (  -0.7071068   0.0000000   0.0000000), wk =   0.0007324
        k(   74) = (   0.1767767   0.0883883   0.0000000), wk =   0.0058594
        k(   75) = (   0.2209709   0.1325825  -0.0441942), wk =   0.0117188
        k(   76) = (   0.2651650   0.1767767  -0.0883883), wk =   0.0117188
        k(   77) = (   0.3093592   0.2209709  -0.1325825), wk =   0.0117188
        k(   78) = (   0.3535534   0.2651650  -0.1767767), wk =   0.0117188
        k(   79) = (  -0.3093592  -0.3977476   0.4861359), wk =   0.0117188
        k(   80) = (  -0.2651650  -0.3535534   0.4419417), wk =   0.0058594
        k(   81) = (   0.2651650   0.0883883   0.0000000), wk =   0.0058594
        k(   82) = (   0.3093592   0.1325825  -0.0441942), wk =   0.0117188
        k(   83) = (   0.3535534   0.1767767  -0.0883883), wk =   0.0117188
        k(   84) = (   0.3977476   0.2209709  -0.1325825), wk =   0.0117188
        k(   85) = (  -0.2651650  -0.4419417   0.5303301), wk =   0.0117188
        k(   86) = (  -0.2209709  -0.3977476   0.4861359), wk =   0.0117188
        k(   87) = (  -0.1767767  -0.3535534   0.4419417), wk =   0.0117188
        k(   88) = (  -0.1325825  -0.3093592   0.3977476), wk =   0.0117188
        k(   89) = (  -0.0883883  -0.2651650   0.3535534), wk =   0.0117188
        k(   90) = (  -0.0441942  -0.2209709   0.3093592), wk =   0.0117188
        k(   91) = (   0.0000000  -0.1767767   0.2651650), wk =   0.0058594
        k(   92) = (   0.3535534   0.0883883   0.0000000), wk =   0.0058594
        k(   93) = (   0.3977476   0.1325825  -0.0441942), wk =   0.0117188
        k(   94) = (   0.4419417   0.1767767  -0.0883883), wk =   0.0117188
        k(   95) = (  -0.2209709  -0.4861359   0.5745243), wk =   0.0117188
        k(   96) = (  -0.1767767  -0.4419417   0.5303301), wk =   0.0117188
        k(   97) = (  -0.1325825  -0.3977476   0.4861359), wk =   0.0117188
        k(   98) = (  -0.0883883  -0.3535534   0.4419417), wk =   0.0117188
        k(   99) = (  -0.0441942  -0.3093592   0.3977476), wk =   0.0117188
        k(  100) = (   0.0000000  -0.2651650   0.3535534), wk =   0.0058594
        k(  101) = (   0.4419417   0.0883883   0.0000000), wk =   0.0058594
        k(  102) = (   0.4861359   0.1325825  -0.0441942), wk =   0.0117188
        k(  103) = (  -0.1767767  -0.5303301   0.6187184), wk =   0.0117188
        k(  104) = (  -0.1325825  -0.4861359   0.5745243), wk =   0.0117188
        k(  105) = (  -0.0883883  -0.4419417   0.5303301), wk =   0.0117188
        k(  106) = (  -0.0441942  -0.3977476   0.4861359), wk =   0.0117188
        k(  107) = (   0.0000000  -0.3535534   0.4419417), wk =   0.0058594
        k(  108) = (   0.5303301   0.0883883   0.0000000), wk =   0.0058594
        k(  109) = (  -0.1325825  -0.5745243   0.6629126), wk =   0.0117188
        k(  110) = (  -0.0883883  -0.5303301   0.6187184), wk =   0.0117188
        k(  111) = (  -0.0441942  -0.4861359   0.5745243), wk =   0.0117188
        k(  112) = (   0.0000000  -0.4419417   0.5303301), wk =   0.0058594
        k(  113) = (  -0.0883883  -0.6187184   0.7071068), wk =   0.0058594
        k(  114) = (  -0.0441942  -0.5745243   0.6629126), wk =   0.0117188
        k(  115) = (  -0.0000000  -0.5303301   0.6187184), wk =   0.0058594
        k(  116) = (  -0.7071068   0.0883883   0.0000000), wk =   0.0029297
        k(  117) = (   0.3535534   0.1767767   0.0000000), wk =   0.0058594
        k(  118) = (   0.3977476   0.2209709  -0.0441942), wk =   0.0117188
        k(  119) = (  -0.2651650  -0.4419417   0.6187184), wk =   0.0117188
        k(  120) = (  -0.2209709  -0.3977476   0.5745243), wk =   0.0117188
        k(  121) = (  -0.1767767  -0.3535534   0.5303301), wk =   0.0058594
        k(  122) = (   0.4419417   0.1767767   0.0000000), wk =   0.0058594
        k(  123) = (  -0.2209709  -0.4861359   0.6629126), wk =   0.0117188
        k(  124) = (  -0.1767767  -0.4419417   0.6187184), wk =   0.0117188
        k(  125) = (  -0.1325825  -0.3977476   0.5745243), wk =   0.0117188
        k(  126) = (  -0.0883883  -0.3535534   0.5303301), wk =   0.0117188
        k(  127) = (  -0.0441942  -0.3093592   0.4861359), wk =   0.0117188
        k(  128) = (   0.0000000  -0.2651650   0.4419417), wk =   0.0058594
        k(  129) = (  -0.1767767  -0.5303301   0.7071068), wk =   0.0058594
        k(  130) = (  -0.1325825  -0.4861359   0.6629126), wk =   0.0117188
        k(  131) = (  -0.0883883  -0.4419417   0.6187184), wk =   0.0117188
        k(  132) = (  -0.0441942  -0.3977476   0.5745243), wk =   0.0117188
        k(  133) = (   0.0000000  -0.3535534   0.5303301), wk =   0.0058594
        k(  134) = (  -0.0883883  -0.5303301   0.7071068), wk =   0.0058594
        k(  135) = (  -0.0441942  -0.4861359   0.6629126), wk =   0.0117188
        k(  136) = (   0.0000000  -0.4419417   0.6187184), wk =   0.0058594
        k(  137) = (  -0.7071068   0.1767767   0.0000000), wk =   0.0029297
        k(  138) = (  -0.1767767  -0.4419417   0.7071068), wk =   0.0058594
        k(  139) = (  -0.1325825  -0.3977476   0.6629126), wk =   0.0117188
        k(  140) = (  -0.0883883  -0.3535534   0.6187184), wk =   0.0058594
        k(  141) = (  -0.0883883  -0.4419417   0.7071068), wk =   0.0058594
        k(  142) = (  -0.0441942  -0.3977476   0.6629126), wk =   0.0117188
        k(  143) = (  -0.0000000  -0.3535534   0.6187184), wk =   0.0058594
        k(  144) = (  -0.7071068   0.2651650   0.0000000), wk =   0.0029297
        k(  145) = (  -0.7071068   0.3535534   0.0000000), wk =   0.0014648

                       cryst. coord.
        k(    1) = (   0.0000000   0.0000000   0.0000000), wk =   0.0002441
        k(    2) = (   0.0000000   0.0000000   0.0625000), wk =   0.0019531
        k(    3) = (   0.0000000   0.0000000   0.1250000), wk =   0.0019531
        k(    4) = (   0.0000000   0.0000000   0.1875000), wk =   0.0019531
        k(    5) = (   0.0000000   0.0000000   0.2500000), wk =   0.0019531
        k(    6) = (   0.0000000   0.0000000   0.3125000), wk =   0.0019531
        k(    7) = (   0.0000000   0.0000000   0.3750000), wk =   0.0019531
        k(    8) = (   0.0000000   0.0000000   0.4375000), wk =   0.0019531
        k(    9) = (   0.0000000   0.0000000  -0.5000000), wk =   0.0009766
        k(   10) = (   0.0000000   0.0625000   0.0625000), wk =   0.0014648
        k(   11) = (   0.0000000   0.0625000   0.1250000), wk =   0.0058594
        k(   12) = (   0.0000000   0.0625000   0.1875000), wk =   0.0058594
        k(   13) = (   0.0000000   0.0625000   0.2500000), wk =   0.0058594
        k(   14) = (   0.0000000   0.0625000   0.3125000), wk =   0.0058594
        k(   15) = (   0.0000000   0.0625000   0.3750000), wk =   0.0058594
        k(   16) = (   0.0000000   0.0625000   0.4375000), wk =   0.0058594
        k(   17) = (   0.0000000   0.0625000  -0.5000000), wk =   0.0058594
        k(   18) = (   0.0000000   0.0625000  -0.4375000), wk =   0.0058594
        k(   19) = (   0.0000000   0.0625000  -0.3750000), wk =   0.0058594
        k(   20) = (   0.0000000   0.0625000  -0.3125000), wk =   0.0058594
        k(   21) = (   0.0000000   0.0625000  -0.2500000), wk =   0.0058594
        k(   22) = (   0.0000000   0.0625000  -0.1875000), wk =   0.0058594
        k(   23) = (   0.0000000   0.0625000  -0.1250000), wk =   0.0058594
        k(   24) = (   0.0000000   0.0625000  -0.0625000), wk =   0.0029297
        k(   25) = (   0.0000000   0.1250000   0.1250000), wk =   0.0014648
        k(   26) = (   0.0000000   0.1250000   0.1875000), wk =   0.0058594
        k(   27) = (   0.0000000   0.1250000   0.2500000), wk =   0.0058594
        k(   28) = (   0.0000000   0.1250000   0.3125000), wk =   0.0058594
        k(   29) = (   0.0000000   0.1250000   0.3750000), wk =   0.0058594
        k(   30) = (   0.0000000   0.1250000   0.4375000), wk =   0.0058594
        k(   31) = (   0.0000000   0.1250000  -0.5000000), wk =   0.0058594
        k(   32) = (   0.0000000   0.1250000  -0.4375000), wk =   0.0058594
        k(   33) = (   0.0000000   0.1250000  -0.3750000), wk =   0.0058594
        k(   34) = (   0.0000000   0.1250000  -0.3125000), wk =   0.0058594
        k(   35) = (   0.0000000   0.1250000  -0.2500000), wk =   0.0058594
        k(   36) = (   0.0000000   0.1250000  -0.1875000), wk =   0.0058594
        k(   37) = (   0.0000000   0.1250000  -0.1250000), wk =   0.0029297
        k(   38) = (   0.0000000   0.1875000   0.1875000), wk =   0.0014648
        k(   39) = (   0.0000000   0.1875000   0.2500000), wk =   0.0058594
        k(   40) = (   0.0000000   0.1875000   0.3125000), wk =   0.0058594
        k(   41) = (   0.0000000   0.1875000   0.3750000), wk =   0.0058594
        k(   42) = (   0.0000000   0.1875000   0.4375000), wk =   0.0058594
        k(   43) = (   0.0000000   0.1875000  -0.5000000), wk =   0.0058594
        k(   44) = (   0.0000000   0.1875000  -0.4375000), wk =   0.0058594
        k(   45) = (   0.0000000   0.1875000  -0.3750000), wk =   0.0058594
        k(   46) = (   0.0000000   0.1875000  -0.3125000), wk =   0.0058594
        k(   47) = (   0.0000000   0.1875000  -0.2500000), wk =   0.0058594
        k(   48) = (   0.0000000   0.1875000  -0.1875000), wk =   0.0029297
        k(   49) = (   0.0000000   0.2500000   0.2500000), wk =   0.0014648
        k(   50) = (   0.0000000   0.2500000   0.3125000), wk =   0.0058594
        k(   51) = (   0.0000000   0.2500000   0.3750000), wk =   0.0058594
        k(   52) = (   0.0000000   0.2500000   0.4375000), wk =   0.0058594
        k(   53) = (   0.0000000   0.2500000  -0.5000000), wk =   0.0058594
        k(   54) = (   0.0000000   0.2500000  -0.4375000), wk =   0.0058594
        k(   55) = (   0.0000000   0.2500000  -0.3750000), wk =   0.0058594
        k(   56) = (   0.0000000   0.2500000  -0.3125000), wk =   0.0058594
        k(   57) = (   0.0000000   0.2500000  -0.2500000), wk =   0.0029297
        k(   58) = (   0.0000000   0.3125000   0.3125000), wk =   0.0014648
        k(   59) = (   0.0000000   0.3125000   0.3750000), wk =   0.0058594
        k(   60) = (   0.0000000   0.3125000   0.4375000), wk =   0.0058594
        k(   61) = (   0.0000000   0.3125000  -0.5000000), wk =   0.0058594
        k(   62) = (   0.0000000   0.3125000  -0.4375000), wk =   0.0058594
        k(   63) = (   0.0000000   0.3125000  -0.3750000), wk =   0.0058594
        k(   64) = (   0.0000000   0.3125000  -0.3125000), wk =   0.0029297
        k(   65) = (   0.0000000   0.3750000   0.3750000), wk =   0.0014648
        k(   66) = (   0.0000000   0.3750000   0.4375000), wk =   0.0058594
        k(   67) = (   0.0000000   0.3750000  -0.5000000), wk =   0.0058594
        k(   68) = (   0.0000000   0.3750000  -0.4375000), wk =   0.0058594
        k(   69) = (   0.0000000   0.3750000  -0.3750000), wk =   0.0029297
        k(   70) = (   0.0000000   0.4375000   0.4375000), wk =   0.0014648
        k(   71) = (   0.0000000   0.4375000  -0.5000000), wk =   0.0058594
        k(   72) = (   0.0000000   0.4375000  -0.4375000), wk =   0.0029297
        k(   73) = (   0.0000000  -0.5000000  -0.5000000), wk =   0.0007324
        k(   74) = (   0.0625000   0.1250000   0.1875000), wk =   0.0058594
        k(   75) = (   0.0625000   0.1250000   0.2500000), wk =   0.0117188
        k(   76) = (   0.0625000   0.1250000   0.3125000), wk =   0.0117188
        k(   77) = (   0.0625000   0.1250000   0.3750000), wk =   0.0117188
        k(   78) = (   0.0625000   0.1250000   0.4375000), wk =   0.0117188
        k(   79) = (   0.0625000   0.1250000  -0.5000000), wk =   0.0117188
        k(   80) = (   0.0625000   0.1250000  -0.4375000), wk =   0.0058594
        k(   81) = (   0.0625000   0.1875000   0.2500000), wk =   0.0058594
        k(   82) = (   0.0625000   0.1875000   0.3125000), wk =   0.0117188
        k(   83) = (   0.0625000   0.1875000   0.3750000), wk =   0.0117188
        k(   84) = (   0.0625000   0.1875000   0.4375000), wk =   0.0117188
        k(   85) = (   0.0625000   0.1875000  -0.5000000), wk =   0.0117188
        k(   86) = (   0.0625000   0.1875000  -0.4375000), wk =   0.0117188
        k(   87) = (   0.0625000   0.1875000  -0.3750000), wk =   0.0117188
        k(   88) = (   0.0625000   0.1875000  -0.3125000), wk =   0.0117188
        k(   89) = (   0.0625000   0.1875000  -0.2500000), wk =   0.0117188
        k(   90) = (   0.0625000   0.1875000  -0.1875000), wk =   0.0117188
        k(   91) = (   0.0625000   0.1875000  -0.1250000), wk =   0.0058594
        k(   92) = (   0.0625000   0.2500000   0.3125000), wk =   0.0058594
        k(   93) = (   0.0625000   0.2500000   0.3750000), wk =   0.0117188
        k(   94) = (   0.0625000   0.2500000   0.4375000), wk =   0.0117188
        k(   95) = (   0.0625000   0.2500000  -0.5000000), wk =   0.0117188
        k(   96) = (   0.0625000   0.2500000  -0.4375000), wk =   0.0117188
        k(   97) = (   0.0625000   0.2500000  -0.3750000), wk =   0.0117188
        k(   98) = (   0.0625000   0.2500000  -0.3125000), wk =   0.0117188
        k(   99) = (   0.0625000   0.2500000  -0.2500000), wk =   0.0117188
        k(  100) = (   0.0625000   0.2500000  -0.1875000), wk =   0.0058594
        k(  101) = (   0.0625000   0.3125000   0.3750000), wk =   0.0058594
        k(  102) = (   0.0625000   0.3125000   0.4375000), wk =   0.0117188
        k(  103) = (   0.0625000   0.3125000  -0.5000000), wk =   0.0117188
        k(  104) = (   0.0625000   0.3125000  -0.4375000), wk =   0.0117188
        k(  105) = (   0.0625000   0.3125000  -0.3750000), wk =   0.0117188
        k(  106) = (   0.0625000   0.3125000  -0.3125000), wk =   0.0117188
        k(  107) = (   0.0625000   0.3125000  -0.2500000), wk =   0.0058594
        k(  108) = (   0.0625000   0.3750000   0.4375000), wk =   0.0058594
        k(  109) = (   0.0625000   0.3750000  -0.5000000), wk =   0.0117188
        k(  110) = (   0.0625000   0.3750000  -0.4375000), wk =   0.0117188
        k(  111) = (   0.0625000   0.3750000  -0.3750000), wk =   0.0117188
        k(  112) = (   0.0625000   0.3750000  -0.3125000), wk =   0.0058594
        k(  113) = (   0.0625000   0.4375000  -0.5000000), wk =   0.0058594
        k(  114) = (   0.0625000   0.4375000  -0.4375000), wk =   0.0117188
        k(  115) = (   0.0625000   0.4375000  -0.3750000), wk =   0.0058594
        k(  116) = (   0.0625000  -0.5000000  -0.4375000), wk =   0.0029297
        k(  117) = (   0.1250000   0.2500000   0.3750000), wk =   0.0058594
        k(  118) = (   0.1250000   0.2500000   0.4375000), wk =   0.0117188
        k(  119) = (   0.1250000   0.2500000  -0.5000000), wk =   0.0117188
        k(  120) = (   0.1250000   0.2500000  -0.4375000), wk =   0.0117188
        k(  121) = (   0.1250000   0.2500000  -0.3750000), wk =   0.0058594
        k(  122) = (   0.1250000   0.3125000   0.4375000), wk =   0.0058594
        k(  123) = (   0.1250000   0.3125000  -0.5000000), wk =   0.0117188
        k(  124) = (   0.1250000   0.3125000  -0.4375000), wk =   0.0117188
        k(  125) = (   0.1250000   0.3125000  -0.3750000), wk =   0.0117188
        k(  126) = (   0.1250000   0.3125000  -0.3125000), wk =   0.0117188
        k(  127) = (   0.1250000   0.3125000  -0.2500000), wk =   0.0117188
        k(  128) = (   0.1250000   0.3125000  -0.1875000), wk =   0.0058594
        k(  129) = (   0.1250000   0.3750000  -0.5000000), wk =   0.0058594
        k(  130) = (   0.1250000   0.3750000  -0.4375000), wk =   0.0117188
        k(  131) = (   0.1250000   0.3750000  -0.3750000), wk =   0.0117188
        k(  132) = (   0.1250000   0.3750000  -0.3125000), wk =   0.0117188
        k(  133) = (   0.1250000   0.3750000  -0.2500000), wk =   0.0058594
        k(  134) = (   0.1250000   0.4375000  -0.4375000), wk =   0.0058594
        k(  135) = (   0.1250000   0.4375000  -0.3750000), wk =   0.0117188
        k(  136) = (   0.1250000   0.4375000  -0.3125000), wk =   0.0058594
        k(  137) = (   0.1250000  -0.5000000  -0.3750000), wk =   0.0029297
        k(  138) = (   0.1875000   0.3750000  -0.4375000), wk =   0.0058594
        k(  139) = (   0.1875000   0.3750000  -0.3750000), wk =   0.0117188
        k(  140) = (   0.1875000   0.3750000  -0.3125000), wk =   0.0058594
        k(  141) = (   0.1875000   0.4375000  -0.3750000), wk =   0.0058594
        k(  142) = (   0.1875000   0.4375000  -0.3125000), wk =   0.0117188
        k(  143) = (   0.1875000   0.4375000  -0.2500000), wk =   0.0058594
        k(  144) = (   0.1875000  -0.5000000  -0.3125000), wk =   0.0029297
        k(  145) = (   0.2500000  -0.5000000  -0.2500000), wk =   0.0014648

     Dense  grid:    53089 G-vectors     FFT dimensions: (  54,  54,  54)

     Largest allocated arrays     est. size (Mb)     dimensions
        Kohn-Sham Wavefunctions         0.47 Mb     (     858,   36)
        NL pseudopotentials             0.45 Mb     (     429,   68)
        Each V/rho on FFT grid          0.18 Mb     (   11664)
        Each G-vector array             0.03 Mb     (    3319)
        G-vector shells                 0.00 Mb     (     445)
     Largest temporary arrays     est. size (Mb)     dimensions
        Auxiliary wavefunctions         1.89 Mb     (     858,  144)
        Each subspace H/S matrix        0.32 Mb     (     144,  144)
        Each <psi_i|beta_j> matrix      0.07 Mb     (      68,   2,   36)
        Arrays for rho mixing           1.42 Mb     (   11664,    8)

     Check: negative/imaginary core charge=   -0.000019    0.000000

     Initial potential from superposition of free atoms

     starting charge   27.99781, renormalised to   28.00000
     Starting wfc are   36 randomized atomic wfcs
     Checking if some PAW data can be deallocated... 

     total cpu time spent up to now is       17.7 secs

     Self-consistent Calculation

     iteration #  1     ecut=    85.00 Ry     beta=0.70
     Davidson diagonalization with overlap
     ethr =  1.00E-02,  avg # of iterations =  4.0

     Threshold (ethr) on eigenvalues was too large:
     Diagonalizing with lowered threshold

     Davidson diagonalization with overlap
     ethr =  4.54E-05,  avg # of iterations =  4.2

     total cpu time spent up to now is      159.7 secs

     total energy              =    -885.88546664 Ry
     Harris-Foulkes estimate   =    -885.88834998 Ry
     estimated scf accuracy    <       0.01971095 Ry

     iteration #  2     ecut=    85.00 Ry     beta=0.70
     Davidson diagonalization with overlap
     ethr =  7.04E-05,  avg # of iterations =  1.0

     total cpu time spent up to now is      202.8 secs

     total energy              =    -885.88565582 Ry
     Harris-Foulkes estimate   =    -885.88593640 Ry
     estimated scf accuracy    <       0.00145404 Ry

     iteration #  3     ecut=    85.00 Ry     beta=0.70
     Davidson diagonalization with overlap
     ethr =  5.19E-06,  avg # of iterations =  2.6

     total cpu time spent up to now is      257.5 secs

     total energy              =    -885.88586602 Ry
     Harris-Foulkes estimate   =    -885.88593793 Ry
     estimated scf accuracy    <       0.00009436 Ry

     iteration #  4     ecut=    85.00 Ry     beta=0.70
     Davidson diagonalization with overlap
     ethr =  3.37E-07,  avg # of iterations =  3.0

     total cpu time spent up to now is      322.1 secs

     total energy              =    -885.88591341 Ry
     Harris-Foulkes estimate   =    -885.88591290 Ry
     estimated scf accuracy    <       0.00000478 Ry

     iteration #  5     ecut=    85.00 Ry     beta=0.70
     Davidson diagonalization with overlap
     ethr =  1.71E-08,  avg # of iterations =  2.1

     total cpu time spent up to now is      370.7 secs

     End of self-consistent calculation

          k = 0.0000 0.0000 0.0000 (  6615 PWs)   bands (ev):

   -14.5163 -14.5163 -14.5163 -14.5163 -14.4365 -14.4365 -14.4365 -14.4365
   -13.5886 -13.5886 -13.4200 -13.4200 -13.4200 -13.4200 -13.3823 -13.3823
   -13.3823 -13.3823 -13.2806 -13.2806  -2.5359  -2.5359   6.3547   6.3547
     7.1841   7.1841   7.8353   7.8353   7.8353   7.8353   9.3652   9.3652
     9.8400   9.8400   9.8400   9.8400

     occupation numbers 
     1.0000   1.0000   1.0000   1.0000   1.0000   1.0000   1.0000   1.0000
     1.0000   1.0000   1.0000   1.0000   1.0000   1.0000   1.0000   1.0000
     1.0000   1.0000   1.0000   1.0000   1.0000   1.0000   1.0000   1.0000
     1.0000   1.0000   0.0000   0.0000   0.0000   0.0000   0.0000   0.0000
     0.0000   0.0000   0.0000   0.0000

          k = 0.0442 0.0442-0.0442 (  6615 PWs)   bands (ev):

   -14.5167 -14.5167 -14.5156 -14.5156 -14.4372 -14.4372 -14.4360 -14.4359
   -13.5869 -13.5869 -13.4249 -13.4249 -13.4231 -13.4230 -13.3791 -13.3790
   -13.3781 -13.3781 -13.2816 -13.2816  -2.5012  -2.5012   5.9460   5.9460
     7.2306   7.2306   7.7604   7.7604   7.8960   7.8960   9.5231   9.5231
     9.9243   9.9243   9.9373   9.9373

     occupation numbers 
     1.0000   1.0000   1.0000   1.0000   1.0000   1.0000   1.0000   1.0000
     1.0000   1.0000   1.0000   1.0000   1.0000   1.0000   1.0000   1.0000
     1.0000   1.0000   1.0000   1.0000   1.0000   1.0000   1.0000   1.0000
     1.0000   1.0000   0.0000   0.0000   0.0000   0.0000   0.0000   0.0000
     0.0000   0.0000   0.0000   0.0000

          k = 0.0884 0.0884-0.0884 (  6630 PWs)   bands (ev):

   -14.5178 -14.5177 -14.5133 -14.5133 -14.4394 -14.4394 -14.4345 -14.4345
   -13.5817 -13.5817 -13.4358 -13.4358 -13.4300 -13.4299 -13.3717 -13.3715
   -13.3692 -13.3692 -13.2843 -13.2843  -2.3980  -2.3980   5.1830   5.1830
     7.1243   7.1243   7.5786   7.5786   7.9435   7.9435   9.8501   9.8501
    10.1751  10.1751  10.2826  10.2827

     occupation numbers 
     1.0000   1.0000   1.0000   1.0000   1.0000   1.0000   1.0000   1.0000
     1.0000   1.0000   1.0000   1.0000   1.0000   1.0000   1.0000   1.0000
     1.0000   1.0000   1.0000   1.0000   1.0000   1.0000   1.0000   1.0000
     1.0000   1.0000   1.0000   1.0000   0.0000   0.0000   0.0000   0.0000
     0.0000   0.0000   0.0000   0.0000

          k = 0.1326 0.1326-0.1326 (  6600 PWs)   bands (ev):

   -14.5193 -14.5192 -14.5096 -14.5096 -14.4429 -14.4429 -14.4325 -14.4324
   -13.5736 -13.5736 -13.4488 -13.4488 -13.4378 -13.4377 -13.3630 -13.3628
   -13.3595 -13.3595 -13.2886 -13.2886  -2.2291  -2.2291   4.3550   4.3550
     6.9289   6.9289   7.3603   7.3603   7.8662   7.8662  10.1365  10.1365
    10.4504  10.4504  10.9538  10.9538

     occupation numbers 
     1.0000   1.0000   1.0000   1.0000   1.0000   1.0000   1.0000   1.0000
     1.0000   1.0000   1.0000   1.0000   1.0000   1.0000   1.0000   1.0000
     1.0000   1.0000   1.0000   1.0000   1.0000   1.0000   1.0000   1.0000
     1.0000   1.0000   1.0000   1.0000   0.0000   0.0000   0.0000   0.0000
     0.0000   0.0000   0.0000   0.0000

          k = 0.1768 0.1768-0.1768 (  6609 PWs)   bands (ev):

   -14.5209 -14.5208 -14.5048 -14.5048 -14.4475 -14.4475 -14.4302 -14.4301
   -13.5633 -13.5633 -13.4621 -13.4621 -13.4452 -13.4450 -13.3546 -13.3545
   -13.3503 -13.3503 -13.2941 -13.2941  -2.0008  -2.0008   3.5452   3.5452
     6.7288   6.7288   7.1514   7.1514   7.7285   7.7285  10.3679  10.3679
    10.6738  10.6738  11.7645  11.7645

     occupation numbers 
     1.0000   1.0000   1.0000   1.0000   1.0000   1.0000   1.0000   1.0000
     1.0000   1.0000   1.0000   1.0000   1.0000   1.0000   1.0000   1.0000
     1.0000   1.0000   1.0000   1.0000   1.0000   1.0000   1.0000   1.0000
     1.0000   1.0000   1.0000   1.0000   0.0000   0.0000   0.0000   0.0000
     0.0000   0.0000   0.0000   0.0000

          k = 0.2210 0.2210-0.2210 (  6603 PWs)   bands (ev):

   -14.5224 -14.5223 -14.4992 -14.4992 -14.4530 -14.4530 -14.4280 -14.4279
   -13.5515 -13.5515 -13.4753 -13.4753 -13.4513 -13.4512 -13.3474 -13.3473
   -13.3419 -13.3419 -13.3005 -13.3005  -1.7263  -1.7263   2.7985   2.7985
     6.5569   6.5569   6.9754   6.9754   7.5900   7.5900  10.5171  10.5171
    10.8004  10.8004  12.6274  12.6274

     occupation numbers 
     1.0000   1.0000   1.0000   1.0000   1.0000   1.0000   1.0000   1.0000
     1.0000   1.0000   1.0000   1.0000   1.0000   1.0000   1.0000   1.0000
     1.0000   1.0000   1.0000   1.0000   1.0000   1.0000   1.0000   1.0000
     1.0000   1.0000   1.0000   1.0000   0.1250   0.1250   0.0000   0.0000
     0.0000   0.0000   0.0000   0.0000

          k = 0.2652 0.2652-0.2652 (  6604 PWs)   bands (ev):

   -14.5236 -14.5235 -14.4932 -14.4932 -14.4588 -14.4588 -14.4263 -14.4262
   -13.5391 -13.5391 -13.4880 -13.4880 -13.4560 -13.4559 -13.3419 -13.3419
   -13.3344 -13.3344 -13.3072 -13.3072  -1.4335  -1.4335   2.1596   2.1596
     6.4277   6.4277   6.8441   6.8441   7.4796   7.4796  10.5867  10.5867
    10.8440  10.8440  13.2985  13.2985

     occupation numbers 
     1.0000   1.0000   1.0000   1.0000   1.0000   1.0000   1.0000   1.0000
     1.0000   1.0000   1.0000   1.0000   1.0000   1.0000   1.0000   1.0000
     1.0000   1.0000   1.0000   1.0000   1.0000   1.0000   1.0000   1.0000
     1.0000   1.0000   1.0000   1.0000   1.0000   1.0000   0.0000   0.0000
     0.0000   0.0000   0.0000   0.0000

          k = 0.3094 0.3094-0.3094 (  6616 PWs)   bands (ev):

   -14.5243 -14.5243 -14.4877 -14.4877 -14.4642 -14.4642 -14.4251 -14.4251
   -13.5268 -13.5268 -13.5001 -13.5001 -13.4588 -13.4587 -13.3385 -13.3385
   -13.3275 -13.3275 -13.3139 -13.3139  -1.1824  -1.1824   1.6977   1.6977
     6.3480   6.3480   6.7634   6.7634   7.4099   7.4099  10.6084  10.6084
    10.8473  10.8473  13.3377  13.3377

     occupation numbers 
     1.0000   1.0000   1.0000   1.0000   1.0000   1.0000   1.0000   1.0000
     1.0000   1.0000   1.0000   1.0000   1.0000   1.0000   1.0000   1.0000
     1.0000   1.0000   1.0000   1.0000   1.0000   1.0000   1.0000   1.0000
     1.0000   1.0000   1.0000   1.0000   1.0000   1.0000   0.0000   0.0000
     0.0000   0.0000   0.0000   0.0000

          k =-0.3536-0.3536 0.3536 (  6586 PWs)   bands (ev):

   -14.5245 -14.5245 -14.4850 -14.4850 -14.4668 -14.4668 -14.4247 -14.4247
   -13.5182 -13.5182 -13.5086 -13.5086 -13.4597 -13.4597 -13.3373 -13.3373
   -13.3220 -13.3220 -13.3194 -13.3194  -1.0763  -1.0763   1.5208   1.5208
     6.3211   6.3211   6.7363   6.7363   7.3862   7.3862  10.6119  10.6119
    10.8445  10.8445  13.3142  13.3142

     occupation numbers 
     1.0000   1.0000   1.0000   1.0000   1.0000   1.0000   1.0000   1.0000
     1.0000   1.0000   1.0000   1.0000   1.0000   1.0000   1.0000   1.0000
     1.0000   1.0000   1.0000   1.0000   1.0000   1.0000   1.0000   1.0000
     1.0000   1.0000   1.0000   1.0000   1.0000   1.0000   0.0000   0.0000
     0.0000   0.0000   0.0000   0.0000

          k = 0.0884 0.0000 0.0000 (  6611 PWs)   bands (ev):

   -14.5164 -14.5164 -14.5157 -14.5157 -14.4371 -14.4371 -14.4361 -14.4361
   -13.5863 -13.5863 -13.4273 -13.4273 -13.4229 -13.4229 -13.3784 -13.3784
   -13.3767 -13.3767 -13.2819 -13.2819  -2.4896  -2.4896   5.8652   5.8652
     7.1635   7.1635   7.5797   7.5797   8.1531   8.1531   9.4429   9.4429
     9.9360   9.9360  10.0713  10.0713

     occupation numbers 
     1.0000   1.0000   1.0000   1.0000   1.0000   1.0000   1.0000   1.0000
     1.0000   1.0000   1.0000   1.0000   1.0000   1.0000   1.0000   1.0000
     1.0000   1.0000   1.0000   1.0000   1.0000   1.0000   1.0000   1.0000
     1.0000   1.0000   1.0000   1.0000   0.0000   0.0000   0.0000   0.0000
     0.0000   0.0000   0.0000   0.0000

          k = 0.1326 0.0442-0.0442 (  6618 PWs)   bands (ev):

   -14.5172 -14.5172 -14.5141 -14.5140 -14.4388 -14.4387 -14.4350 -14.4350
   -13.5822 -13.5822 -13.4360 -13.4360 -13.4278 -13.4277 -13.3733 -13.3732
   -13.3695 -13.3695 -13.2839 -13.2839  -2.4090  -2.4090   5.2996   5.2996
     7.0245   7.0246   7.3691   7.3691   8.3561   8.3561   9.5125   9.5125
    10.2219  10.2219  10.3739  10.3739

     occupation numbers 
     1.0000   1.0000   1.0000   1.0000   1.0000   1.0000   1.0000   1.0000
     1.0000   1.0000   1.0000   1.0000   1.0000   1.0000   1.0000   1.0000
     1.0000   1.0000   1.0000   1.0000   1.0000   1.0000   1.0000   1.0000
     1.0000   1.0000   1.0000   1.0000   0.0000   0.0000   0.0000   0.0000
     0.0000   0.0000   0.0000   0.0000

          k = 0.1768 0.0884-0.0884 (  6599 PWs)   bands (ev):

   -14.5186 -14.5185 -14.5108 -14.5108 -14.4419 -14.4419 -14.4331 -14.4330
   -13.5751 -13.5751 -13.4477 -13.4477 -13.4348 -13.4347 -13.3668 -13.3667
   -13.3596 -13.3596 -13.2875 -13.2875  -2.2615  -2.2615   4.5474   4.5474
     6.8201   6.8201   7.1511   7.1511   8.3522   8.3523   9.7557   9.7558
    10.5558  10.5558  10.8896  10.8896

     occupation numbers 
     1.0000   1.0000   1.0000   1.0000   1.0000   1.0000   1.0000   1.0000
     1.0000   1.0000   1.0000   1.0000   1.0000   1.0000   1.0000   1.0000
     1.0000   1.0000   1.0000   1.0000   1.0000   1.0000   1.0000   1.0000
     1.0000   1.0000   1.0000   1.0000   0.0000   0.0000   0.0000   0.0000
     0.0000   0.0000   0.0000   0.0000

          k = 0.2210 0.1326-0.1326 (  6609 PWs)   bands (ev):

   -14.5203 -14.5202 -14.5064 -14.5064 -14.4462 -14.4462 -14.4308 -14.4307
   -13.5656 -13.5656 -13.4602 -13.4602 -13.4420 -13.4419 -13.3603 -13.3602
   -13.3496 -13.3495 -13.2923 -13.2922  -2.0521  -2.0521   3.7609   3.7609
     6.6046   6.6046   6.9336   6.9337   8.2361   8.2362  10.0597  10.0597
    10.8113  10.8113  11.5310  11.5310

     occupation numbers 
     1.0000   1.0000   1.0000   1.0000   1.0000   1.0000   1.0000   1.0000
     1.0000   1.0000   1.0000   1.0000   1.0000   1.0000   1.0000   1.0000
     1.0000   1.0000   1.0000   1.0000   1.0000   1.0000   1.0000   1.0000
     1.0000   1.0000   1.0000   1.0000   0.0000   0.0000   0.0000   0.0000
     0.0000   0.0000   0.0000   0.0000

          k = 0.2652 0.1768-0.1768 (  6617 PWs)   bands (ev):

   -14.5218 -14.5217 -14.5010 -14.5010 -14.4514 -14.4514 -14.4285 -14.4284
   -13.5544 -13.5543 -13.4727 -13.4727 -13.4485 -13.4484 -13.3545 -13.3545
   -13.3405 -13.3405 -13.2977 -13.2977  -1.7909  -1.7909   3.0086   3.0086
     6.4101   6.4101   6.7475   6.7475   8.0933   8.0934  10.3124  10.3124
    10.9522  10.9522  12.2099  12.2099

     occupation numbers 
     1.0000   1.0000   1.0000   1.0000   1.0000   1.0000   1.0000   1.0000
     1.0000   1.0000   1.0000   1.0000   1.0000   1.0000   1.0000   1.0000
     1.0000   1.0000   1.0000   1.0000   1.0000   1.0000   1.0000   1.0000
     1.0000   1.0000   1.0000   1.0000   0.0000   0.0000   0.0000   0.0000
     0.0000   0.0000   0.0000   0.0000

          k = 0.3094 0.2210-0.2210 (  6611 PWs)   bands (ev):

   -14.5231 -14.5231 -14.4951 -14.4951 -14.4572 -14.4571 -14.4265 -14.4264
   -13.5423 -13.5423 -13.4847 -13.4847 -13.4537 -13.4536 -13.3498 -13.3498
   -13.3330 -13.3329 -13.3033 -13.3033  -1.4994  -1.4994   2.3394   2.3394
     6.2500   6.2500   6.6130   6.6130   7.9660   7.9660  10.4687  10.4687
    10.9849  10.9849  12.8780  12.8780

     occupation numbers 
     1.0000   1.0000   1.0000   1.0000   1.0000   1.0000   1.0000   1.0000
     1.0000   1.0000   1.0000   1.0000   1.0000   1.0000   1.0000   1.0000
     1.0000   1.0000   1.0000   1.0000   1.0000   1.0000   1.0000   1.0000
     1.0000   1.0000   1.0000   1.0000   0.0000   0.0000   0.0000   0.0000
     0.0000   0.0000   0.0000   0.0000

          k = 0.3536 0.2652-0.2652 (  6616 PWs)   bands (ev):

   -14.5240 -14.5240 -14.4894 -14.4892 -14.4629 -14.4628 -14.4251 -14.4251
   -13.5304 -13.5304 -13.4961 -13.4961 -13.4572 -13.4572 -13.3466 -13.3466
   -13.3273 -13.3272 -13.3081 -13.3081  -1.2242  -1.2242   1.8142   1.8142
     6.1317   6.1318   6.5387   6.5387   7.8729   7.8729  10.5527  10.5527
    10.9548  10.9548  13.3192  13.3192

     occupation numbers 
     1.0000   1.0000   1.0000   1.0000   1.0000   1.0000   1.0000   1.0000
     1.0000   1.0000   1.0000   1.0000   1.0000   1.0000   1.0000   1.0000
     1.0000   1.0000   1.0000   1.0000   1.0000   1.0000   1.0000   1.0000
     1.0000   1.0000   1.0000   1.0000   0.0000   0.0000   0.0000   0.0000
     0.0000   0.0000   0.0000   0.0000

          k =-0.3094-0.3977 0.3977 (  6610 PWs)   bands (ev):

   -14.5245 -14.5245 -14.4854 -14.4851 -14.4670 -14.4667 -14.4244 -14.4244
   -13.5205 -13.5205 -13.5056 -13.5056 -13.4589 -13.4589 -13.3451 -13.3451
   -13.3239 -13.3239 -13.3112 -13.3111  -1.0566  -1.0566   1.5317   1.5317
     6.0612   6.0612   6.5265   6.5265   7.8227   7.8227  10.6042  10.6042
    10.9070  10.9070  13.4204  13.4204

     occupation numbers 
     1.0000   1.0000   1.0000   1.0000   1.0000   1.0000   1.0000   1.0000
     1.0000   1.0000   1.0000   1.0000   1.0000   1.0000   1.0000   1.0000
     1.0000   1.0000   1.0000   1.0000   1.0000   1.0000   1.0000   1.0000
     1.0000   1.0000   1.0000   1.0000   0.0000   0.0000   0.0000   0.0000
     0.0000   0.0000   0.0000   0.0000

          k =-0.2652-0.3536 0.3536 (  6618 PWs)   bands (ev):

   -14.5244 -14.5244 -14.4862 -14.4860 -14.4661 -14.4659 -14.4245 -14.4245
   -13.5233 -13.5233 -13.5029 -13.5029 -13.4585 -13.4585 -13.3456 -13.3456
   -13.3244 -13.3244 -13.3106 -13.3106  -1.0935  -1.0935   1.5919   1.5919
     6.0432   6.0432   6.5744   6.5744   7.8185   7.8185  10.6373  10.6373
    10.8715  10.8715  13.4324  13.4325

     occupation numbers 
     1.0000   1.0000   1.0000   1.0000   1.0000   1.0000   1.0000   1.0000
     1.0000   1.0000   1.0000   1.0000   1.0000   1.0000   1.0000   1.0000
     1.0000   1.0000   1.0000   1.0000   1.0000   1.0000   1.0000   1.0000
     1.0000   1.0000   1.0000   1.0000   0.0000   0.0000   0.0000   0.0000
     0.0000   0.0000   0.0000   0.0000

          k =-0.2210-0.3094 0.3094 (  6616 PWs)   bands (ev):

   -14.5238 -14.5238 -14.4911 -14.4909 -14.4613 -14.4611 -14.4254 -14.4254
   -13.5344 -13.5343 -13.4924 -13.4924 -13.4561 -13.4561 -13.3481 -13.3480
   -13.3283 -13.3283 -13.3068 -13.3068  -1.3100  -1.3100   1.9692   1.9692
     6.0811   6.0811   6.6781   6.6781   7.8597   7.8597  10.6311  10.6311
    10.8624  10.8624  13.3076  13.3077

     occupation numbers 
     1.0000   1.0000   1.0000   1.0000   1.0000   1.0000   1.0000   1.0000
     1.0000   1.0000   1.0000   1.0000   1.0000   1.0000   1.0000   1.0000
     1.0000   1.0000   1.0000   1.0000   1.0000   1.0000   1.0000   1.0000
     1.0000   1.0000   1.0000   1.0000   0.0000   0.0000   0.0000   0.0000
     0.0000   0.0000   0.0000   0.0000

          k =-0.1768-0.2652 0.2652 (  6623 PWs)   bands (ev):

   -14.5228 -14.5227 -14.4970 -14.4969 -14.4554 -14.4554 -14.4270 -14.4269
   -13.5464 -13.5464 -13.4808 -13.4808 -13.4519 -13.4518 -13.3521 -13.3520
   -13.3345 -13.3344 -13.3016 -13.3016  -1.5984  -1.5984   2.5511   2.5511
     6.1770   6.1770   6.8313   6.8313   7.9415   7.9415  10.5565  10.5565
    10.8514  10.8514  12.7311  12.7312

     occupation numbers 
     1.0000   1.0000   1.0000   1.0000   1.0000   1.0000   1.0000   1.0000
     1.0000   1.0000   1.0000   1.0000   1.0000   1.0000   1.0000   1.0000
     1.0000   1.0000   1.0000   1.0000   1.0000   1.0000   1.0000   1.0000
     1.0000   1.0000   1.0000   1.0000   0.0000   0.0000   0.0000   0.0000
     0.0000   0.0000   0.0000   0.0000

          k =-0.1326-0.2210 0.2210 (  6621 PWs)   bands (ev):

   -14.5214 -14.5213 -14.5027 -14.5027 -14.4498 -14.4498 -14.4291 -14.4290
   -13.5583 -13.5583 -13.4687 -13.4687 -13.4462 -13.4461 -13.3573 -13.3572
   -13.3424 -13.3424 -13.2960 -13.2960  -1.8833  -1.8833   3.2526   3.2526
     6.3315   6.3315   7.0235   7.0235   8.0520   8.0520  10.3996  10.3996
    10.7562  10.7562  12.0027  12.0027

     occupation numbers 
     1.0000   1.0000   1.0000   1.0000   1.0000   1.0000   1.0000   1.0000
     1.0000   1.0000   1.0000   1.0000   1.0000   1.0000   1.0000   1.0000
     1.0000   1.0000   1.0000   1.0000   1.0000   1.0000   1.0000   1.0000
     1.0000   1.0000   1.0000   1.0000   0.0000   0.0000   0.0000   0.0000
     0.0000   0.0000   0.0000   0.0000

          k =-0.0884-0.1768 0.1768 (  6604 PWs)   bands (ev):

   -14.5199 -14.5198 -14.5078 -14.5078 -14.4449 -14.4448 -14.4314 -14.4313
   -13.5690 -13.5690 -13.4561 -13.4561 -13.4394 -13.4393 -13.3634 -13.3634
   -13.3519 -13.3518 -13.2906 -13.2906  -2.1287  -2.1287   4.0188   4.0188
     6.5430   6.5430   7.2375   7.2375   8.1627   8.1627  10.1673  10.1673
    10.5040  10.5040  11.3462  11.3462

     occupation numbers 
     1.0000   1.0000   1.0000   1.0000   1.0000   1.0000   1.0000   1.0000
     1.0000   1.0000   1.0000   1.0000   1.0000   1.0000   1.0000   1.0000
     1.0000   1.0000   1.0000   1.0000   1.0000   1.0000   1.0000   1.0000
     1.0000   1.0000   1.0000   1.0000   0.0000   0.0000   0.0000   0.0000
     0.0000   0.0000   0.0000   0.0000

          k =-0.0442-0.1326 0.1326 (  6606 PWs)   bands (ev):

   -14.5183 -14.5183 -14.5118 -14.5118 -14.4409 -14.4409 -14.4336 -14.4335
   -13.5778 -13.5778 -13.4436 -13.4436 -13.4324 -13.4323 -13.3699 -13.3698
   -13.3621 -13.3620 -13.2862 -13.2862  -2.3182  -2.3182   4.7963   4.7963
     6.8048   6.8048   7.4433   7.4433   8.2116   8.2117   9.9009   9.9009
    10.1600  10.1600  10.7766  10.7766

     occupation numbers 
     1.0000   1.0000   1.0000   1.0000   1.0000   1.0000   1.0000   1.0000
     1.0000   1.0000   1.0000   1.0000   1.0000   1.0000   1.0000   1.0000
     1.0000   1.0000   1.0000   1.0000   1.0000   1.0000   1.0000   1.0000
     1.0000   1.0000   1.0000   1.0000   0.0000   0.0000   0.0000   0.0000
     0.0000   0.0000   0.0000   0.0000

          k = 0.0000-0.0884 0.0884 (  6619 PWs)   bands (ev):

   -14.5172 -14.5172 -14.5145 -14.5144 -14.4383 -14.4383 -14.4352 -14.4352
   -13.5840 -13.5840 -13.4322 -13.4322 -13.4263 -13.4262 -13.3757 -13.3756
   -13.3719 -13.3718 -13.2831 -13.2831  -2.4436  -2.4436   5.4984   5.4984
     7.0855   7.0855   7.6058   7.6058   8.1052   8.1052   9.6584   9.6585
     9.9440   9.9440  10.2747  10.2747

     occupation numbers 
     1.0000   1.0000   1.0000   1.0000   1.0000   1.0000   1.0000   1.0000
     1.0000   1.0000   1.0000   1.0000   1.0000   1.0000   1.0000   1.0000
     1.0000   1.0000   1.0000   1.0000   1.0000   1.0000   1.0000   1.0000
     1.0000   1.0000   0.0000   0.0000   0.0000   0.0000   0.0000   0.0000
     0.0000   0.0000   0.0000   0.0000

          k = 0.1768 0.0000 0.0000 (  6619 PWs)   bands (ev):

   -14.5166 -14.5166 -14.5141 -14.5141 -14.4390 -14.4390 -14.4351 -14.4351
   -13.5794 -13.5794 -13.4420 -13.4420 -13.4294 -13.4294 -13.3689 -13.3689
   -13.3674 -13.3674 -13.2850 -13.2850  -2.3510  -2.3510   5.0502   5.0502
     6.8343   6.8343   7.0906   7.0906   8.8208   8.8208   9.2090   9.2090
    10.5223  10.5223  10.6285  10.6285

     occupation numbers 
     1.0000   1.0000   1.0000   1.0000   1.0000   1.0000   1.0000   1.0000
     1.0000   1.0000   1.0000   1.0000   1.0000   1.0000   1.0000   1.0000
     1.0000   1.0000   1.0000   1.0000   1.0000   1.0000   1.0000   1.0000
     1.0000   1.0000   1.0000   1.0000   0.0000   0.0000   0.0000   0.0000
     0.0000   0.0000   0.0000   0.0000

          k = 0.2210 0.0442-0.0442 (  6605 PWs)   bands (ev):

   -14.5175 -14.5175 -14.5118 -14.5117 -14.4412 -14.4412 -14.4338 -14.4337
   -13.5734 -13.5734 -13.4513 -13.4513 -13.4341 -13.4340 -13.3656 -13.3656
   -13.3591 -13.3591 -13.2876 -13.2876  -2.2253  -2.2253   4.5082   4.5082
     6.6149   6.6149   6.8492   6.8492   8.9682   8.9683   9.2380   9.2382
    10.8943  10.8943  11.0246  11.0246

     occupation numbers 
     1.0000   1.0000   1.0000   1.0000   1.0000   1.0000   1.0000   1.0000
     1.0000   1.0000   1.0000   1.0000   1.0000   1.0000   1.0000   1.0000
     1.0000   1.0000   1.0000   1.0000   1.0000   1.0000   1.0000   1.0000
     1.0000   1.0000   1.0000   1.0000   0.0000   0.0000   0.0000   0.0000
     0.0000   0.0000   0.0000   0.0000

          k = 0.2652 0.0884-0.0884 (  6602 PWs)   bands (ev):

   -14.5191 -14.5190 -14.5078 -14.5078 -14.4451 -14.4450 -14.4316 -14.4315
   -13.5649 -13.5648 -13.4622 -13.4622 -13.4396 -13.4396 -13.3630 -13.3630
   -13.3489 -13.3488 -13.2911 -13.2911  -2.0358  -2.0358   3.8339   3.8339
     6.3652   6.3653   6.6273   6.6273   8.8961   8.8962   9.5254   9.5255
    11.1911  11.1911  11.4516  11.4516

     occupation numbers 
     1.0000   1.0000   1.0000   1.0000   1.0000   1.0000   1.0000   1.0000
     1.0000   1.0000   1.0000   1.0000   1.0000   1.0000   1.0000   1.0000
     1.0000   1.0000   1.0000   1.0000   1.0000   1.0000   1.0000   1.0000
     1.0000   1.0000   1.0000   1.0000   0.0000   0.0000   0.0000   0.0000
     0.0000   0.0000   0.0000   0.0000

          k = 0.3094 0.1326-0.1326 (  6622 PWs)   bands (ev):

   -14.5208 -14.5207 -14.5028 -14.5028 -14.4500 -14.4500 -14.4291 -14.4290
   -13.5545 -13.5545 -13.4732 -13.4732 -13.4452 -13.4451 -13.3609 -13.3609
   -13.3394 -13.3394 -13.2949 -13.2949  -1.7901  -1.7901   3.1335   3.1335
     6.1107   6.1107   6.4503   6.4503   8.7619   8.7619   9.8967   9.8967
    11.3630  11.3630  11.7745  11.7745

     occupation numbers 
     1.0000   1.0000   1.0000   1.0000   1.0000   1.0000   1.0000   1.0000
     1.0000   1.0000   1.0000   1.0000   1.0000   1.0000   1.0000   1.0000
     1.0000   1.0000   1.0000   1.0000   1.0000   1.0000   1.0000   1.0000
     1.0000   1.0000   1.0000   1.0000   0.0000   0.0000   0.0000   0.0000
     0.0000   0.0000   0.0000   0.0000

          k = 0.3536 0.1768-0.1768 (  6618 PWs)   bands (ev):

   -14.5223 -14.5222 -14.4972 -14.4971 -14.4557 -14.4555 -14.4268 -14.4267
   -13.5434 -13.5434 -13.4836 -13.4835 -13.4502 -13.4502 -13.3595 -13.3594
   -13.3319 -13.3318 -13.2982 -13.2982  -1.5045  -1.5045   2.4737   2.4737
     5.8782   5.8782   6.3364   6.3364   8.6231   8.6232  10.2152  10.2153
    11.4012  11.4012  12.1342  12.1343

     occupation numbers 
     1.0000   1.0000   1.0000   1.0000   1.0000   1.0000   1.0000   1.0000
     1.0000   1.0000   1.0000   1.0000   1.0000   1.0000   1.0000   1.0000
     1.0000   1.0000   1.0000   1.0000   1.0000   1.0000   1.0000   1.0000
     1.0000   1.0000   1.0000   1.0000   0.0000   0.0000   0.0000   0.0000
     0.0000   0.0000   0.0000   0.0000

          k = 0.3977 0.2210-0.2210 (  6627 PWs)   bands (ev):

   -14.5235 -14.5234 -14.4914 -14.4912 -14.4616 -14.4613 -14.4249 -14.4249
   -13.5326 -13.5326 -13.4929 -13.4929 -13.4541 -13.4541 -13.3587 -13.3587
   -13.3270 -13.3270 -13.3003 -13.3002  -1.2148  -1.2148   1.9164   1.9164
     5.6882   5.6882   6.2880   6.2880   8.5092   8.5092  10.4139  10.4139
    11.3469  11.3469  12.6496  12.6496

     occupation numbers 
     1.0000   1.0000   1.0000   1.0000   1.0000   1.0000   1.0000   1.0000
     1.0000   1.0000   1.0000   1.0000   1.0000   1.0000   1.0000   1.0000
     1.0000   1.0000   1.0000   1.0000   1.0000   1.0000   1.0000   1.0000
     1.0000   1.0000   1.0000   1.0000   0.0000   0.0000   0.0000   0.0000
     0.0000   0.0000   0.0000   0.0000

          k =-0.2652-0.4419 0.4419 (  6608 PWs)   bands (ev):

   -14.5241 -14.5241 -14.4866 -14.4861 -14.4666 -14.4662 -14.4238 -14.4238
   -13.5239 -13.5238 -13.5005 -13.5004 -13.4564 -13.4564 -13.3587 -13.3586
   -13.3245 -13.3245 -13.3011 -13.3011  -0.9967  -0.9967   1.5517   1.5517
     5.5530   5.5530   6.3037   6.3037   8.4337   8.4337  10.5336  10.5336
    11.2494  11.2494  13.2155  13.2156

     occupation numbers 
     1.0000   1.0000   1.0000   1.0000   1.0000   1.0000   1.0000   1.0000
     1.0000   1.0000   1.0000   1.0000   1.0000   1.0000   1.0000   1.0000
     1.0000   1.0000   1.0000   1.0000   1.0000   1.0000   1.0000   1.0000
     1.0000   1.0000   1.0000   1.0000   0.0000   0.0000   0.0000   0.0000
     0.0000   0.0000   0.0000   0.0000

          k =-0.2210-0.3977 0.3977 (  6620 PWs)   bands (ev):

   -14.5243 -14.5243 -14.4852 -14.4847 -14.4681 -14.4676 -14.4235 -14.4235
   -13.5223 -13.5222 -13.5019 -13.5019 -13.4565 -13.4565 -13.3592 -13.3592
   -13.3237 -13.3237 -13.3013 -13.3012  -0.9614  -0.9614   1.4965   1.4965
     5.4803   5.4803   6.3801   6.3801   8.4015   8.4015  10.6305  10.6305
    11.1380  11.1380  13.5208  13.5208

     occupation numbers 
     1.0000   1.0000   1.0000   1.0000   1.0000   1.0000   1.0000   1.0000
     1.0000   1.0000   1.0000   1.0000   1.0000   1.0000   1.0000   1.0000
     1.0000   1.0000   1.0000   1.0000   1.0000   1.0000   1.0000   1.0000
     1.0000   1.0000   1.0000   1.0000   0.0000   0.0000   0.0000   0.0000
     0.0000   0.0000   0.0000   0.0000

          k =-0.1768-0.3536 0.3536 (  6625 PWs)   bands (ev):

   -14.5240 -14.5240 -14.4887 -14.4883 -14.4646 -14.4642 -14.4240 -14.4240
   -13.5296 -13.5296 -13.4957 -13.4957 -13.4544 -13.4544 -13.3602 -13.3602
   -13.3245 -13.3244 -13.3010 -13.3010  -1.1332  -1.1332   1.7755   1.7755
     5.4764   5.4764   6.5121   6.5121   8.4117   8.4117  10.7195  10.7195
    11.0224  11.0224  13.2623  13.2623

     occupation numbers 
     1.0000   1.0000   1.0000   1.0000   1.0000   1.0000   1.0000   1.0000
     1.0000   1.0000   1.0000   1.0000   1.0000   1.0000   1.0000   1.0000
     1.0000   1.0000   1.0000   1.0000   1.0000   1.0000   1.0000   1.0000
     1.0000   1.0000   1.0000   1.0000   0.0000   0.0000   0.0000   0.0000
     0.0000   0.0000   0.0000   0.0000

          k =-0.1326-0.3094 0.3094 (  6612 PWs)   bands (ev):

   -14.5233 -14.5232 -14.4941 -14.4939 -14.4590 -14.4588 -14.4254 -14.4253
   -13.5400 -13.5400 -13.4870 -13.4869 -13.4506 -13.4506 -13.3616 -13.3616
   -13.3275 -13.3275 -13.2997 -13.2996  -1.4108  -1.4108   2.2816   2.2816
     5.5479   5.5480   6.6910   6.6910   8.4567   8.4567  10.7388  10.7388
    10.9242  10.9242  12.6136  12.6137

     occupation numbers 
     1.0000   1.0000   1.0000   1.0000   1.0000   1.0000   1.0000   1.0000
     1.0000   1.0000   1.0000   1.0000   1.0000   1.0000   1.0000   1.0000
     1.0000   1.0000   1.0000   1.0000   1.0000   1.0000   1.0000   1.0000
     1.0000   1.0000   1.0000   1.0000   0.0000   0.0000   0.0000   0.0000
     0.0000   0.0000   0.0000   0.0000

          k =-0.0884-0.2652 0.2652 (  6627 PWs)   bands (ev):

   -14.5221 -14.5220 -14.4998 -14.4997 -14.4533 -14.4532 -14.4274 -14.4273
   -13.5512 -13.5511 -13.4770 -13.4770 -13.4458 -13.4457 -13.3635 -13.3635
   -13.3335 -13.3334 -13.2969 -13.2968  -1.7028  -1.7028   2.9087   2.9087
     5.7042   5.7043   6.9029   6.9029   8.5177   8.5177  10.5808  10.5808
    10.8381  10.8381  12.0066  12.0067

     occupation numbers 
     1.0000   1.0000   1.0000   1.0000   1.0000   1.0000   1.0000   1.0000
     1.0000   1.0000   1.0000   1.0000   1.0000   1.0000   1.0000   1.0000
     1.0000   1.0000   1.0000   1.0000   1.0000   1.0000   1.0000   1.0000
     1.0000   1.0000   1.0000   1.0000   0.0000   0.0000   0.0000   0.0000
     0.0000   0.0000   0.0000   0.0000

          k =-0.0442-0.2210 0.2210 (  6614 PWs)   bands (ev):

   -14.5207 -14.5206 -14.5049 -14.5048 -14.4481 -14.4481 -14.4296 -14.4295
   -13.5618 -13.5618 -13.4661 -13.4661 -13.4406 -13.4405 -13.3657 -13.3657
   -13.3420 -13.3419 -13.2931 -13.2931  -1.9633  -1.9633   3.5834   3.5834
     5.9593   5.9593   7.1246   7.1246   8.5508   8.5509  10.3310  10.3310
    10.5738  10.5738  11.6202  11.6203

     occupation numbers 
     1.0000   1.0000   1.0000   1.0000   1.0000   1.0000   1.0000   1.0000
     1.0000   1.0000   1.0000   1.0000   1.0000   1.0000   1.0000   1.0000
     1.0000   1.0000   1.0000   1.0000   1.0000   1.0000   1.0000   1.0000
     1.0000   1.0000   1.0000   1.0000   0.0000   0.0000   0.0000   0.0000
     0.0000   0.0000   0.0000   0.0000

          k = 0.0000-0.1768 0.1768 (  6579 PWs)   bands (ev):

   -14.5193 -14.5192 -14.5090 -14.5090 -14.4439 -14.4439 -14.4319 -14.4318
   -13.5710 -13.5710 -13.4546 -13.4546 -13.4359 -13.4358 -13.3680 -13.3679
   -13.3520 -13.3519 -13.2893 -13.2893  -2.1717  -2.1717   4.2376   4.2376
     6.3305   6.3305   7.3180   7.3180   8.4713   8.4713  10.0738  10.0738
    10.2705  10.2705  11.2761  11.2761

     occupation numbers 
     1.0000   1.0000   1.0000   1.0000   1.0000   1.0000   1.0000   1.0000
     1.0000   1.0000   1.0000   1.0000   1.0000   1.0000   1.0000   1.0000
     1.0000   1.0000   1.0000   1.0000   1.0000   1.0000   1.0000   1.0000
     1.0000   1.0000   1.0000   1.0000   0.0000   0.0000   0.0000   0.0000
     0.0000   0.0000   0.0000   0.0000

          k = 0.2652 0.0000 0.0000 (  6587 PWs)   bands (ev):

   -14.5166 -14.5166 -14.5116 -14.5116 -14.4415 -14.4415 -14.4340 -14.4340
   -13.5686 -13.5686 -13.4580 -13.4580 -13.4366 -13.4366 -13.3614 -13.3614
   -13.3568 -13.3568 -13.2888 -13.2888  -2.1212  -2.1212   4.1968   4.1968
     6.4232   6.4232   6.5954   6.5954   8.8843   8.8843   9.3690   9.3690
    11.2978  11.2978  11.3351  11.3351

     occupation numbers 
     1.0000   1.0000   1.0000   1.0000   1.0000   1.0000   1.0000   1.0000
     1.0000   1.0000   1.0000   1.0000   1.0000   1.0000   1.0000   1.0000
     1.0000   1.0000   1.0000   1.0000   1.0000   1.0000   1.0000   1.0000
     1.0000   1.0000   1.0000   1.0000   0.0000   0.0000   0.0000   0.0000
     0.0000   0.0000   0.0000   0.0000

          k = 0.3094 0.0442-0.0442 (  6599 PWs)   bands (ev):

   -14.5175 -14.5174 -14.5090 -14.5090 -14.4440 -14.4440 -14.4327 -14.4326
   -13.5612 -13.5612 -13.4666 -13.4666 -13.4403 -13.4403 -13.3619 -13.3619
   -13.3481 -13.3481 -13.2909 -13.2909  -1.9519  -1.9519   3.6931   3.6931
     6.1916   6.1916   6.3700   6.3700   8.8652   8.8653   9.4744   9.4745
    11.6309  11.6309  11.6833  11.6833

     occupation numbers 
     1.0000   1.0000   1.0000   1.0000   1.0000   1.0000   1.0000   1.0000
     1.0000   1.0000   1.0000   1.0000   1.0000   1.0000   1.0000   1.0000
     1.0000   1.0000   1.0000   1.0000   1.0000   1.0000   1.0000   1.0000
     1.0000   1.0000   1.0000   1.0000   0.0000   0.0000   0.0000   0.0000
     0.0000   0.0000   0.0000   0.0000

          k = 0.3536 0.0884-0.0884 (  6615 PWs)   bands (ev):

   -14.5192 -14.5191 -14.5048 -14.5047 -14.4483 -14.4482 -14.4303 -14.4302
   -13.5520 -13.5520 -13.4759 -13.4758 -13.4440 -13.4440 -13.3640 -13.3640
   -13.3388 -13.3387 -13.2930 -13.2930  -1.7232  -1.7232   3.1026   3.1026
     5.9009   5.9009   6.1909   6.1909   8.9528   8.9529   9.6218   9.6218
    11.7151  11.7151  11.9071  11.9071

     occupation numbers 
     1.0000   1.0000   1.0000   1.0000   1.0000   1.0000   1.0000   1.0000
     1.0000   1.0000   1.0000   1.0000   1.0000   1.0000   1.0000   1.0000
     1.0000   1.0000   1.0000   1.0000   1.0000   1.0000   1.0000   1.0000
     1.0000   1.0000   1.0000   1.0000   0.0000   0.0000   0.0000   0.0000
     0.0000   0.0000   0.0000   0.0000

          k = 0.3977 0.1326-0.1326 (  6630 PWs)   bands (ev):

   -14.5209 -14.5208 -14.4997 -14.4995 -14.4535 -14.4534 -14.4277 -14.4276
   -13.5421 -13.5421 -13.4844 -13.4844 -13.4476 -13.4475 -13.3668 -13.3667
   -13.3313 -13.3312 -13.2943 -13.2942  -1.4474  -1.4474   2.5018   2.5018
     5.5974   5.5975   6.0811   6.0811   8.9257   8.9257   9.9971   9.9971
    11.7226  11.7226  11.9893  11.9893

     occupation numbers 
     1.0000   1.0000   1.0000   1.0000   1.0000   1.0000   1.0000   1.0000
     1.0000   1.0000   1.0000   1.0000   1.0000   1.0000   1.0000   1.0000
     1.0000   1.0000   1.0000   1.0000   1.0000   1.0000   1.0000   1.0000
     1.0000   1.0000   1.0000   1.0000   0.0000   0.0000   0.0000   0.0000
     0.0000   0.0000   0.0000   0.0000

          k = 0.4419 0.1768-0.1768 (  6633 PWs)   bands (ev):

   -14.5223 -14.5223 -14.4942 -14.4940 -14.4593 -14.4590 -14.4254 -14.4253
   -13.5328 -13.5328 -13.4914 -13.4913 -13.4506 -13.4506 -13.3697 -13.3696
   -13.3266 -13.3266 -13.2942 -13.2942  -1.1511  -1.1511   1.9546   1.9546
     5.3315   5.3315   6.0389   6.0389   8.8510   8.8510  10.4084  10.4084
    11.8461  11.8462  11.9975  11.9975

     occupation numbers 
     1.0000   1.0000   1.0000   1.0000   1.0000   1.0000   1.0000   1.0000
     1.0000   1.0000   1.0000   1.0000   1.0000   1.0000   1.0000   1.0000
     1.0000   1.0000   1.0000   1.0000   1.0000   1.0000   1.0000   1.0000
     1.0000   1.0000   1.0000   1.0000   0.0000   0.0000   0.0000   0.0000
     0.0000   0.0000   0.0000   0.0000

          k =-0.2210-0.4861 0.4861 (  6630 PWs)   bands (ev):

   -14.5234 -14.5233 -14.4891 -14.4887 -14.4648 -14.4643 -14.4236 -14.4236
   -13.5259 -13.5258 -13.4961 -13.4960 -13.4527 -13.4526 -13.3722 -13.3721
   -13.3245 -13.3244 -13.2933 -13.2933  -0.8946  -0.8946   1.5427   1.5427
     5.1277   5.1277   6.0624   6.0624   8.7937   8.7937  10.6671  10.6671
    11.7921  11.7921  12.4064  12.4064

     occupation numbers 
     1.0000   1.0000   1.0000   1.0000   1.0000   1.0000   1.0000   1.0000
     1.0000   1.0000   1.0000   1.0000   1.0000   1.0000   1.0000   1.0000
     1.0000   1.0000   1.0000   1.0000   1.0000   1.0000   1.0000   1.0000
     1.0000   1.0000   1.0000   1.0000   0.0000   0.0000   0.0000   0.0000
     0.0000   0.0000   0.0000   0.0000

          k =-0.1768-0.4419 0.4419 (  6636 PWs)   bands (ev):

   -14.5239 -14.5239 -14.4859 -14.4851 -14.4685 -14.4677 -14.4227 -14.4227
   -13.5235 -13.5235 -13.4977 -13.4976 -13.4530 -13.4530 -13.3738 -13.3737
   -13.3236 -13.3236 -13.2928 -13.2927  -0.7897  -0.7897   1.3882   1.3883
     4.9988   4.9988   6.1487   6.1487   8.7718   8.7718  10.8043  10.8043
    11.6424  11.6424  13.0302  13.0302

     occupation numbers 
     1.0000   1.0000   1.0000   1.0000   1.0000   1.0000   1.0000   1.0000
     1.0000   1.0000   1.0000   1.0000   1.0000   1.0000   1.0000   1.0000
     1.0000   1.0000   1.0000   1.0000   1.0000   1.0000   1.0000   1.0000
     1.0000   1.0000   1.0000   1.0000   0.0000   0.0000   0.0000   0.0000
     0.0000   0.0000   0.0000   0.0000

          k =-0.1326-0.3977 0.3977 (  6629 PWs)   bands (ev):

   -14.5240 -14.5240 -14.4867 -14.4861 -14.4677 -14.4670 -14.4227 -14.4226
   -13.5266 -13.5265 -13.4959 -13.4959 -13.4514 -13.4513 -13.3742 -13.3741
   -13.3234 -13.3234 -13.2933 -13.2933  -0.9089  -0.9089   1.5653   1.5653
     4.9554   4.9554   6.2923   6.2923   8.7846   8.7847  10.9131  10.9131
    11.4626  11.4626  13.1333  13.1334

     occupation numbers 
     1.0000   1.0000   1.0000   1.0000   1.0000   1.0000   1.0000   1.0000
     1.0000   1.0000   1.0000   1.0000   1.0000   1.0000   1.0000   1.0000
     1.0000   1.0000   1.0000   1.0000   1.0000   1.0000   1.0000   1.0000
     1.0000   1.0000   1.0000   1.0000   0.0000   0.0000   0.0000   0.0000
     0.0000   0.0000   0.0000   0.0000

          k =-0.0884-0.3536 0.3536 (  6616 PWs)   bands (ev):

   -14.5236 -14.5236 -14.4909 -14.4905 -14.4632 -14.4628 -14.4236 -14.4235
   -13.5337 -13.5336 -13.4914 -13.4914 -13.4484 -13.4483 -13.3731 -13.3731
   -13.3242 -13.3241 -13.2947 -13.2947  -1.1704  -1.1704   1.9838   1.9838
     5.0101   5.0101   6.4836   6.4836   8.8184   8.8184  11.0137  11.0137
    11.2471  11.2471  12.4720  12.4721

     occupation numbers 
     1.0000   1.0000   1.0000   1.0000   1.0000   1.0000   1.0000   1.0000
     1.0000   1.0000   1.0000   1.0000   1.0000   1.0000   1.0000   1.0000
     1.0000   1.0000   1.0000   1.0000   1.0000   1.0000   1.0000   1.0000
     1.0000   1.0000   1.0000   1.0000   0.0000   0.0000   0.0000   0.0000
     0.0000   0.0000   0.0000   0.0000

          k =-0.0442-0.3094 0.3094 (  6612 PWs)   bands (ev):

   -14.5228 -14.5227 -14.4960 -14.4957 -14.4579 -14.4576 -14.4253 -14.4252
   -13.5430 -13.5429 -13.4846 -13.4846 -13.4452 -13.4451 -13.3711 -13.3710
   -13.3271 -13.3270 -13.2957 -13.2956  -1.4657  -1.4657   2.5152   2.5152
     5.1810   5.1811   6.7065   6.7065   8.8397   8.8397  10.9307  10.9307
    11.0784  11.0784  11.8663  11.8664

     occupation numbers 
     1.0000   1.0000   1.0000   1.0000   1.0000   1.0000   1.0000   1.0000
     1.0000   1.0000   1.0000   1.0000   1.0000   1.0000   1.0000   1.0000
     1.0000   1.0000   1.0000   1.0000   1.0000   1.0000   1.0000   1.0000
     1.0000   1.0000   1.0000   1.0000   0.0000   0.0000   0.0000   0.0000
     0.0000   0.0000   0.0000   0.0000

          k = 0.0000-0.2652 0.2652 (  6603 PWs)   bands (ev):

   -14.5218 -14.5217 -14.5008 -14.5007 -14.4526 -14.4525 -14.4274 -14.4273
   -13.5528 -13.5527 -13.4760 -13.4760 -13.4425 -13.4424 -13.3684 -13.3684
   -13.3332 -13.3331 -13.2951 -13.2951  -1.7384  -1.7384   3.0696   3.0696
     5.4922   5.4923   6.9342   6.9342   8.7802   8.7802  10.6256  10.6256
    10.8190  10.8190  11.6721  11.6721

     occupation numbers 
     1.0000   1.0000   1.0000   1.0000   1.0000   1.0000   1.0000   1.0000
     1.0000   1.0000   1.0000   1.0000   1.0000   1.0000   1.0000   1.0000
     1.0000   1.0000   1.0000   1.0000   1.0000   1.0000   1.0000   1.0000
     1.0000   1.0000   1.0000   1.0000   0.0000   0.0000   0.0000   0.0000
     0.0000   0.0000   0.0000   0.0000

          k = 0.3536 0.0000 0.0000 (  6606 PWs)   bands (ev):

   -14.5163 -14.5163 -14.5091 -14.5091 -14.4439 -14.4439 -14.4333 -14.4333
   -13.5550 -13.5550 -13.4729 -13.4729 -13.4426 -13.4426 -13.3623 -13.3623
   -13.3437 -13.3437 -13.2915 -13.2915  -1.8023  -1.8023   3.3495   3.3495
     6.0400   6.0400   6.1591   6.1591   8.6047   8.6047   9.5366   9.5366
    12.0979  12.0979  12.1295  12.1295

     occupation numbers 
     1.0000   1.0000   1.0000   1.0000   1.0000   1.0000   1.0000   1.0000
     1.0000   1.0000   1.0000   1.0000   1.0000   1.0000   1.0000   1.0000
     1.0000   1.0000   1.0000   1.0000   1.0000   1.0000   1.0000   1.0000
     1.0000   1.0000   1.0000   1.0000   0.0000   0.0000   0.0000   0.0000
     0.0000   0.0000   0.0000   0.0000

          k = 0.3977 0.0442-0.0442 (  6613 PWs)   bands (ev):

   -14.5170 -14.5170 -14.5066 -14.5066 -14.4463 -14.4462 -14.4321 -14.4321
   -13.5471 -13.5471 -13.4802 -13.4802 -13.4448 -13.4448 -13.3663 -13.3663
   -13.3361 -13.3361 -13.2923 -13.2923  -1.5913  -1.5913   2.8841   2.8841
     5.8176   5.8176   5.9710   5.9710   8.6260   8.6260   9.5046   9.5046
    12.2517  12.2517  12.4574  12.4574

     occupation numbers 
     1.0000   1.0000   1.0000   1.0000   1.0000   1.0000   1.0000   1.0000
     1.0000   1.0000   1.0000   1.0000   1.0000   1.0000   1.0000   1.0000
     1.0000   1.0000   1.0000   1.0000   1.0000   1.0000   1.0000   1.0000
     1.0000   1.0000   1.0000   1.0000   0.0000   0.0000   0.0000   0.0000
     0.0000   0.0000   0.0000   0.0000

          k = 0.4419 0.0884-0.0884 (  6614 PWs)   bands (ev):

   -14.5187 -14.5186 -14.5025 -14.5024 -14.4506 -14.4505 -14.4297 -14.4296
   -13.5385 -13.5385 -13.4871 -13.4870 -13.4464 -13.4464 -13.3722 -13.3722
   -13.3292 -13.3291 -13.2923 -13.2923  -1.3279  -1.3279   2.3721   2.3721
     5.4992   5.4992   5.8509   5.8510   8.7674   8.7674   9.6392   9.6392
    12.1295  12.1295  12.6209  12.6209

     occupation numbers 
     1.0000   1.0000   1.0000   1.0000   1.0000   1.0000   1.0000   1.0000
     1.0000   1.0000   1.0000   1.0000   1.0000   1.0000   1.0000   1.0000
     1.0000   1.0000   1.0000   1.0000   1.0000   1.0000   1.0000   1.0000
     1.0000   1.0000   1.0000   1.0000   0.0000   0.0000   0.0000   0.0000
     0.0000   0.0000   0.0000   0.0000

          k = 0.4861 0.1326-0.1326 (  6637 PWs)   bands (ev):

   -14.5204 -14.5204 -14.4977 -14.4974 -14.4559 -14.4556 -14.4269 -14.4269
   -13.5309 -13.5309 -13.4919 -13.4918 -13.4475 -13.4475 -13.3786 -13.3785
   -13.3249 -13.3248 -13.2910 -13.2909  -1.0314  -1.0314   1.8726   1.8726
     5.1686   5.1687   5.8036   5.8036   8.8098   8.8098  10.0934  10.0935
    12.0084  12.0084  12.6140  12.6140

     occupation numbers 
     1.0000   1.0000   1.0000   1.0000   1.0000   1.0000   1.0000   1.0000
     1.0000   1.0000   1.0000   1.0000   1.0000   1.0000   1.0000   1.0000
     1.0000   1.0000   1.0000   1.0000   1.0000   1.0000   1.0000   1.0000
     1.0000   1.0000   1.0000   1.0000   0.0000   0.0000   0.0000   0.0000
     0.0000   0.0000   0.0000   0.0000

          k =-0.1768-0.5303 0.5303 (  6630 PWs)   bands (ev):

   -14.5219 -14.5219 -14.4928 -14.4924 -14.4613 -14.4609 -14.4244 -14.4244
   -13.5261 -13.5261 -13.4938 -13.4937 -13.4482 -13.4481 -13.3842 -13.3840
   -13.3232 -13.3232 -13.2887 -13.2886  -0.7478  -0.7478   1.4536   1.4536
     4.8900   4.8900   5.8237   5.8237   8.8065   8.8065  10.7047  10.7047
    11.9931  11.9931  12.4962  12.4962

     occupation numbers 
     1.0000   1.0000   1.0000   1.0000   1.0000   1.0000   1.0000   1.0000
[...]

     occupation numbers 
     1.0000   1.0000   1.0000   1.0000   1.0000   1.0000   1.0000   1.0000
     1.0000   1.0000   1.0000   1.0000   1.0000   1.0000   1.0000   1.0000
     1.0000   1.0000   1.0000   1.0000   1.0000   1.0000   1.0000   1.0000
     1.0000   1.0000   1.0000   1.0000   0.0000   0.0000   0.0000   0.0000
     0.0000   0.0000   0.0000   0.0000

          k =-0.1326-0.3977 0.5745 (  6631 PWs)   bands (ev):

   -14.5230 -14.5229 -14.4888 -14.4879 -14.4666 -14.4657 -14.4223 -14.4222
   -13.5256 -13.5255 -13.4911 -13.4910 -13.4463 -13.4461 -13.3928 -13.3926
   -13.3238 -13.3236 -13.2844 -13.2843  -0.4915  -0.4915   1.1568   1.1569
     4.6566   4.6567   5.6333   5.6333   9.4709   9.4710  10.7319  10.7319
    11.9980  11.9980  12.7073  12.7073

     occupation numbers 
     1.0000   1.0000   1.0000   1.0000   1.0000   1.0000   1.0000   1.0000
     1.0000   1.0000   1.0000   1.0000   1.0000   1.0000   1.0000   1.0000
     1.0000   1.0000   1.0000   1.0000   1.0000   1.0000   1.0000   1.0000
     1.0000   1.0000   1.0000   1.0000   0.0000   0.0000   0.0000   0.0000
     0.0000   0.0000   0.0000   0.0000

          k =-0.0884-0.3536 0.5303 (  6626 PWs)   bands (ev):

   -14.5232 -14.5231 -14.4882 -14.4873 -14.4672 -14.4663 -14.4221 -14.4220
   -13.5260 -13.5260 -13.4912 -13.4910 -13.4460 -13.4458 -13.3923 -13.3921
   -13.3239 -13.3237 -13.2846 -13.2846  -0.5460  -0.5460   1.2260   1.2260
     4.6243   4.6243   5.7016   5.7016   9.5139   9.5140  10.7269  10.7269
    12.0545  12.0545  12.6738  12.6739

     occupation numbers 
     1.0000   1.0000   1.0000   1.0000   1.0000   1.0000   1.0000   1.0000
     1.0000   1.0000   1.0000   1.0000   1.0000   1.0000   1.0000   1.0000
     1.0000   1.0000   1.0000   1.0000   1.0000   1.0000   1.0000   1.0000
     1.0000   1.0000   1.0000   1.0000   0.0000   0.0000   0.0000   0.0000
     0.0000   0.0000   0.0000   0.0000

          k =-0.0442-0.3094 0.4861 (  6627 PWs)   bands (ev):

   -14.5230 -14.5229 -14.4902 -14.4896 -14.4648 -14.4641 -14.4228 -14.4227
   -13.5282 -13.5282 -13.4918 -13.4917 -13.4457 -13.4455 -13.3878 -13.3877
   -13.3241 -13.3240 -13.2868 -13.2868  -0.7893  -0.7893   1.5449   1.5449
     4.6955   4.6956   5.8433   5.8433   9.5604   9.5604  10.6136  10.6137
    11.5000  11.5001  12.8774  12.8774

     occupation numbers 
     1.0000   1.0000   1.0000   1.0000   1.0000   1.0000   1.0000   1.0000
     1.0000   1.0000   1.0000   1.0000   1.0000   1.0000   1.0000   1.0000
     1.0000   1.0000   1.0000   1.0000   1.0000   1.0000   1.0000   1.0000
     1.0000   1.0000   1.0000   1.0000   0.0000   0.0000   0.0000   0.0000
     0.0000   0.0000   0.0000   0.0000

          k = 0.0000-0.2652 0.4419 (  6629 PWs)   bands (ev):

   -14.5225 -14.5224 -14.4937 -14.4933 -14.4608 -14.4603 -14.4242 -14.4241
   -13.5330 -13.5329 -13.4905 -13.4904 -13.4457 -13.4456 -13.3805 -13.3804
   -13.3252 -13.3250 -13.2902 -13.2902  -1.0869  -1.0869   1.9635   1.9635
     4.8892   4.8893   6.0333   6.0333   9.5498   9.5499  10.2695  10.2696
    11.3281  11.3281  12.6504  12.6504

     occupation numbers 
     1.0000   1.0000   1.0000   1.0000   1.0000   1.0000   1.0000   1.0000
     1.0000   1.0000   1.0000   1.0000   1.0000   1.0000   1.0000   1.0000
     1.0000   1.0000   1.0000   1.0000   1.0000   1.0000   1.0000   1.0000
     1.0000   1.0000   1.0000   1.0000   0.0000   0.0000   0.0000   0.0000
     0.0000   0.0000   0.0000   0.0000

          k =-0.1768-0.5303 0.7071 (  6646 PWs)   bands (ev):

   -14.5196 -14.5195 -14.4982 -14.4979 -14.4557 -14.4553 -14.4271 -14.4270
   -13.5275 -13.5274 -13.4932 -13.4931 -13.4443 -13.4442 -13.3885 -13.3884
   -13.3222 -13.3221 -13.2883 -13.2883  -0.7960  -0.7960   1.5824   1.5824
     5.0534   5.0535   5.5101   5.5101   9.2090   9.2091   9.6012   9.6013
    12.0077  12.0078  13.5984  13.5984

     occupation numbers 
     1.0000   1.0000   1.0000   1.0000   1.0000   1.0000   1.0000   1.0000
     1.0000   1.0000   1.0000   1.0000   1.0000   1.0000   1.0000   1.0000
     1.0000   1.0000   1.0000   1.0000   1.0000   1.0000   1.0000   1.0000
     1.0000   1.0000   1.0000   1.0000   0.0000   0.0000   0.0000   0.0000
     0.0000   0.0000   0.0000   0.0000

          k =-0.1326-0.4861 0.6629 (  6645 PWs)   bands (ev):

   -14.5207 -14.5206 -14.4951 -14.4945 -14.4596 -14.4590 -14.4250 -14.4249
   -13.5256 -13.5256 -13.4918 -13.4917 -13.4421 -13.4419 -13.3974 -13.3972
   -13.3219 -13.3218 -13.2847 -13.2847  -0.4926  -0.4926   1.1991   1.1991
     4.8263   4.8263   5.3882   5.3882   9.3798   9.3799  10.0657  10.0657
    11.8365  11.8365  13.5555  13.5555

     occupation numbers 
     1.0000   1.0000   1.0000   1.0000   1.0000   1.0000   1.0000   1.0000
     1.0000   1.0000   1.0000   1.0000   1.0000   1.0000   1.0000   1.0000
     1.0000   1.0000   1.0000   1.0000   1.0000   1.0000   1.0000   1.0000
     1.0000   1.0000   1.0000   1.0000   0.0000   0.0000   0.0000   0.0000
     0.0000   0.0000   0.0000   0.0000

          k =-0.0884-0.4419 0.6187 (  6640 PWs)   bands (ev):

   -14.5218 -14.5217 -14.4920 -14.4913 -14.4633 -14.4625 -14.4232 -14.4231
   -13.5257 -13.5257 -13.4891 -13.4890 -13.4405 -13.4401 -13.4035 -13.4032
   -13.3227 -13.3225 -13.2820 -13.2820  -0.2551  -0.2551   0.9241   0.9241
     4.6315   4.6316   5.3768   5.3768   9.4384   9.4385  10.7782  10.7782
    11.7393  11.7393  12.9895  12.9895

     occupation numbers 
     1.0000   1.0000   1.0000   1.0000   1.0000   1.0000   1.0000   1.0000
     1.0000   1.0000   1.0000   1.0000   1.0000   1.0000   1.0000   1.0000
     1.0000   1.0000   1.0000   1.0000   1.0000   1.0000   1.0000   1.0000
     1.0000   1.0000   1.0000   1.0000   0.0000   0.0000   0.0000   0.0000
     0.0000   0.0000   0.0000   0.0000

          k =-0.0442-0.3977 0.5745 (  6643 PWs)   bands (ev):

   -14.5225 -14.5224 -14.4897 -14.4888 -14.4660 -14.4650 -14.4221 -14.4220
   -13.5263 -13.5262 -13.4882 -13.4880 -13.4407 -13.4403 -13.4039 -13.4035
   -13.3234 -13.3233 -13.2813 -13.2812  -0.2572  -0.2572   0.9290   0.9290
     4.5208   4.5208   5.4641   5.4641   9.5141   9.5141  11.2375  11.2375
    11.9458  11.9458  12.2841  12.2842

     occupation numbers 
     1.0000   1.0000   1.0000   1.0000   1.0000   1.0000   1.0000   1.0000
     1.0000   1.0000   1.0000   1.0000   1.0000   1.0000   1.0000   1.0000
     1.0000   1.0000   1.0000   1.0000   1.0000   1.0000   1.0000   1.0000
     1.0000   1.0000   1.0000   1.0000   0.0000   0.0000   0.0000   0.0000
     0.0000   0.0000   0.0000   0.0000

          k = 0.0000-0.3536 0.5303 (  6634 PWs)   bands (ev):

   -14.5229 -14.5229 -14.4890 -14.4881 -14.4666 -14.4657 -14.4220 -14.4219
   -13.5268 -13.5267 -13.4897 -13.4896 -13.4428 -13.4426 -13.3978 -13.3976
   -13.3238 -13.3236 -13.2830 -13.2829  -0.4922  -0.4922   1.1976   1.1976
     4.5338   4.5339   5.6286   5.6286   9.5877   9.5877  11.1046  11.1047
    11.5785  11.5785  12.7502  12.7503

     occupation numbers 
     1.0000   1.0000   1.0000   1.0000   1.0000   1.0000   1.0000   1.0000
     1.0000   1.0000   1.0000   1.0000   1.0000   1.0000   1.0000   1.0000
     1.0000   1.0000   1.0000   1.0000   1.0000   1.0000   1.0000   1.0000
     1.0000   1.0000   1.0000   1.0000   0.0000   0.0000   0.0000   0.0000
     0.0000   0.0000   0.0000   0.0000

          k =-0.0884-0.5303 0.7071 (  6627 PWs)   bands (ev):

   -14.5188 -14.5187 -14.4983 -14.4978 -14.4558 -14.4553 -14.4273 -14.4271
   -13.5234 -13.5234 -13.4939 -13.4938 -13.4371 -13.4368 -13.4047 -13.4044
   -13.3185 -13.3184 -13.2856 -13.2856  -0.2705  -0.2705   0.9320   0.9320
     4.9721   4.9721   5.2289   5.2289   9.1740   9.1741   9.4286   9.4287
    12.6736  12.6736  13.8905  13.8906

     occupation numbers 
     1.0000   1.0000   1.0000   1.0000   1.0000   1.0000   1.0000   1.0000
     1.0000   1.0000   1.0000   1.0000   1.0000   1.0000   1.0000   1.0000
     1.0000   1.0000   1.0000   1.0000   1.0000   1.0000   1.0000   1.0000
     1.0000   1.0000   1.0000   1.0000   0.0000   0.0000   0.0000   0.0000
     0.0000   0.0000   0.0000   0.0000

          k =-0.0442-0.4861 0.6629 (  6643 PWs)   bands (ev):

   -14.5202 -14.5200 -14.4954 -14.4948 -14.4594 -14.4588 -14.4250 -14.4249
   -13.5247 -13.5246 -13.4902 -13.4901 -13.4336 -13.4330 -13.4122 -13.4117
   -13.3203 -13.3202 -13.2823 -13.2822   0.0125   0.0125   0.6328   0.6328
     4.7696   4.7696   5.1819   5.1819   9.3307   9.3307  10.0127  10.0127
    12.4924  12.4924  13.2084  13.2084

     occupation numbers 
     1.0000   1.0000   1.0000   1.0000   1.0000   1.0000   1.0000   1.0000
     1.0000   1.0000   1.0000   1.0000   1.0000   1.0000   1.0000   1.0000
     1.0000   1.0000   1.0000   1.0000   1.0000   1.0000   1.0000   1.0000
     1.0000   1.0000   1.0000   1.0000   0.0000   0.0000   0.0000   0.0000
     0.0000   0.0000   0.0000   0.0000

          k = 0.0000-0.4419 0.6187 (  6651 PWs)   bands (ev):

   -14.5215 -14.5214 -14.4924 -14.4916 -14.4631 -14.4622 -14.4232 -14.4230
   -13.5259 -13.5258 -13.4877 -13.4876 -13.4352 -13.4345 -13.4120 -13.4114
   -13.3222 -13.3221 -13.2806 -13.2805   0.0102   0.0102   0.6444   0.6444
     4.5827   4.5827   5.2814   5.2814   9.4198   9.4199  10.8170  10.8170
    12.3029  12.3029  12.3983  12.3984

     occupation numbers 
     1.0000   1.0000   1.0000   1.0000   1.0000   1.0000   1.0000   1.0000
     1.0000   1.0000   1.0000   1.0000   1.0000   1.0000   1.0000   1.0000
     1.0000   1.0000   1.0000   1.0000   1.0000   1.0000   1.0000   1.0000
     1.0000   1.0000   1.0000   1.0000   0.0000   0.0000   0.0000   0.0000
     0.0000   0.0000   0.0000   0.0000

          k =-0.7071 0.1768 0.0000 (  6638 PWs)   bands (ev):

   -14.5185 -14.5183 -14.4985 -14.4980 -14.4556 -14.4551 -14.4274 -14.4273
   -13.5227 -13.5226 -13.4936 -13.4935 -13.4284 -13.4273 -13.4171 -13.4161
   -13.3171 -13.3170 -13.2847 -13.2846   0.2940   0.2944   0.3252   0.3257
     4.9700   4.9701   5.1086   5.1086   9.1907   9.1908   9.3310   9.3311
    13.3145  13.3146  13.4736  13.4736

     occupation numbers 
     1.0000   1.0000   1.0000   1.0000   1.0000   1.0000   1.0000   1.0000
     1.0000   1.0000   1.0000   1.0000   1.0000   1.0000   1.0000   1.0000
     1.0000   1.0000   1.0000   1.0000   1.0000   1.0000   1.0000   1.0000
     1.0000   1.0000   1.0000   1.0000   0.0000   0.0000   0.0000   0.0000
     0.0000   0.0000   0.0000   0.0000

          k =-0.1768-0.4419 0.7071 (  6639 PWs)   bands (ev):

   -14.5219 -14.5219 -14.4928 -14.4922 -14.4622 -14.4615 -14.4237 -14.4236
   -13.5274 -13.5273 -13.4911 -13.4909 -13.4441 -13.4440 -13.3927 -13.3926
   -13.3237 -13.3236 -13.2851 -13.2850  -0.6625  -0.6625   1.4100   1.4101
     4.7499   4.7499   5.5440   5.5440   9.8992   9.8994  10.1813  10.1814
    11.2843  11.2843  13.3319  13.3319

     occupation numbers 
     1.0000   1.0000   1.0000   1.0000   1.0000   1.0000   1.0000   1.0000
     1.0000   1.0000   1.0000   1.0000   1.0000   1.0000   1.0000   1.0000
     1.0000   1.0000   1.0000   1.0000   1.0000   1.0000   1.0000   1.0000
     1.0000   1.0000   1.0000   1.0000   0.0000   0.0000   0.0000   0.0000
     0.0000   0.0000   0.0000   0.0000

          k =-0.1326-0.3977 0.6629 (  6637 PWs)   bands (ev):

   -14.5223 -14.5222 -14.4907 -14.4899 -14.4648 -14.4640 -14.4225 -14.4224
   -13.5265 -13.5264 -13.4887 -13.4886 -13.4421 -13.4418 -13.4006 -13.4004
   -13.3238 -13.3236 -13.2820 -13.2819  -0.3795  -0.3795   1.0717   1.0717
     4.6228   4.6228   5.3896   5.3896   9.9708   9.9709  10.6249  10.6250
    11.3936  11.3936  12.8770  12.8770

     occupation numbers 
     1.0000   1.0000   1.0000   1.0000   1.0000   1.0000   1.0000   1.0000
     1.0000   1.0000   1.0000   1.0000   1.0000   1.0000   1.0000   1.0000
     1.0000   1.0000   1.0000   1.0000   1.0000   1.0000   1.0000   1.0000
     1.0000   1.0000   1.0000   1.0000   0.0000   0.0000   0.0000   0.0000
     0.0000   0.0000   0.0000   0.0000

          k =-0.0884-0.3536 0.6187 (  6652 PWs)   bands (ev):

   -14.5225 -14.5224 -14.4899 -14.4890 -14.4659 -14.4649 -14.4221 -14.4220
   -13.5264 -13.5264 -13.4875 -13.4874 -13.4411 -13.4408 -13.4038 -13.4035
   -13.3239 -13.3238 -13.2808 -13.2808  -0.2418  -0.2418   0.9145   0.9145
     4.5823   4.5823   5.3332   5.3332   9.9758   9.9759  10.7462  10.7462
    11.8891  11.8892  12.2257  12.2257

     occupation numbers 
     1.0000   1.0000   1.0000   1.0000   1.0000   1.0000   1.0000   1.0000
     1.0000   1.0000   1.0000   1.0000   1.0000   1.0000   1.0000   1.0000
     1.0000   1.0000   1.0000   1.0000   1.0000   1.0000   1.0000   1.0000
     1.0000   1.0000   1.0000   1.0000   0.0000   0.0000   0.0000   0.0000
     0.0000   0.0000   0.0000   0.0000

          k =-0.0884-0.4419 0.7071 (  6650 PWs)   bands (ev):

   -14.5213 -14.5211 -14.4933 -14.4926 -14.4620 -14.4612 -14.4236 -14.4235
   -13.5260 -13.5259 -13.4884 -13.4883 -13.4380 -13.4376 -13.4072 -13.4069
   -13.3226 -13.3225 -13.2813 -13.2812  -0.1873  -0.1873   0.8622   0.8622
     4.7331   4.7331   5.1585   5.1586   9.9610   9.9611  10.1772  10.1773
    11.6606  11.6606  13.0439  13.0439

     occupation numbers 
     1.0000   1.0000   1.0000   1.0000   1.0000   1.0000   1.0000   1.0000
     1.0000   1.0000   1.0000   1.0000   1.0000   1.0000   1.0000   1.0000
     1.0000   1.0000   1.0000   1.0000   1.0000   1.0000   1.0000   1.0000
     1.0000   1.0000   1.0000   1.0000   0.0000   0.0000   0.0000   0.0000
     0.0000   0.0000   0.0000   0.0000

          k =-0.0442-0.3977 0.6629 (  6651 PWs)   bands (ev):

   -14.5218 -14.5216 -14.4918 -14.4909 -14.4641 -14.4631 -14.4226 -14.4224
   -13.5267 -13.5266 -13.4859 -13.4857 -13.4353 -13.4346 -13.4131 -13.4124
   -13.3234 -13.3233 -13.2793 -13.2792   0.0319   0.0319   0.6337   0.6337
     4.6513   4.6513   5.0794   5.0794  10.1022  10.1023  10.8114  10.8114
    11.5865  11.5865  12.1977  12.1977

     occupation numbers 
     1.0000   1.0000   1.0000   1.0000   1.0000   1.0000   1.0000   1.0000
     1.0000   1.0000   1.0000   1.0000   1.0000   1.0000   1.0000   1.0000
     1.0000   1.0000   1.0000   1.0000   1.0000   1.0000   1.0000   1.0000
     1.0000   1.0000   1.0000   1.0000   0.0000   0.0000   0.0000   0.0000
     0.0000   0.0000   0.0000   0.0000

          k =-0.0000-0.3536 0.6187 (  6657 PWs)   bands (ev):

   -14.5222 -14.5220 -14.4908 -14.4898 -14.4652 -14.4641 -14.4222 -14.4221
   -13.5268 -13.5267 -13.4860 -13.4859 -13.4374 -13.4369 -13.4100 -13.4095
   -13.3238 -13.3237 -13.2795 -13.2795  -0.0896  -0.0896   0.7632   0.7632
     4.5908   4.5909   5.1785   5.1785  10.1496  10.1497  10.9937  10.9937
    11.4737  11.4737  12.1063  12.1064

     occupation numbers 
     1.0000   1.0000   1.0000   1.0000   1.0000   1.0000   1.0000   1.0000
     1.0000   1.0000   1.0000   1.0000   1.0000   1.0000   1.0000   1.0000
     1.0000   1.0000   1.0000   1.0000   1.0000   1.0000   1.0000   1.0000
     1.0000   1.0000   1.0000   1.0000   0.0000   0.0000   0.0000   0.0000
     0.0000   0.0000   0.0000   0.0000

          k =-0.7071 0.2652 0.0000 (  6650 PWs)   bands (ev):

   -14.5209 -14.5208 -14.4937 -14.4930 -14.4618 -14.4609 -14.4237 -14.4235
   -13.5260 -13.5259 -13.4871 -13.4869 -13.4311 -13.4301 -13.4176 -13.4166
   -13.3221 -13.3220 -13.2799 -13.2799   0.3048   0.3053   0.3463   0.3468
     4.7943   4.7944   4.9594   4.9595   9.9605   9.9606  10.1584  10.1585
    12.2741  12.2742  12.3773  12.3773

     occupation numbers 
     1.0000   1.0000   1.0000   1.0000   1.0000   1.0000   1.0000   1.0000
     1.0000   1.0000   1.0000   1.0000   1.0000   1.0000   1.0000   1.0000
     1.0000   1.0000   1.0000   1.0000   1.0000   1.0000   1.0000   1.0000
     1.0000   1.0000   1.0000   1.0000   0.0000   0.0000   0.0000   0.0000
     0.0000   0.0000   0.0000   0.0000

          k =-0.7071 0.3536 0.0000 (  6652 PWs)   bands (ev):

   -14.5218 -14.5216 -14.4917 -14.4907 -14.4644 -14.4633 -14.4224 -14.4222
   -13.5271 -13.5270 -13.4845 -13.4843 -13.4322 -13.4311 -13.4181 -13.4171
   -13.3238 -13.3237 -13.2783 -13.2782   0.3096   0.3101   0.3549   0.3554
     4.7285   4.7286   4.9016   4.9017  10.5520  10.5523  10.8769  10.8771
    11.5626  11.5627  11.5879  11.5879

     occupation numbers 
     1.0000   1.0000   1.0000   1.0000   1.0000   1.0000   1.0000   1.0000
     1.0000   1.0000   1.0000   1.0000   1.0000   1.0000   1.0000   1.0000
     1.0000   1.0000   1.0000   1.0000   1.0000   1.0000   1.0000   1.0000
     1.0000   1.0000   1.0000   1.0000   0.0000   0.0000   0.0000   0.0000
     0.0000   0.0000   0.0000   0.0000

     the Fermi energy is     7.5889 ev

!    total energy              =    -885.88591434 Ry
     Harris-Foulkes estimate   =    -885.88591407 Ry
     estimated scf accuracy    <       0.00000027 Ry

     total all-electron energy =    -24716.585729 Ry

     The total energy is the sum of the following terms:

     one-electron contribution =    -155.28767726 Ry
     hartree contribution      =      78.93648970 Ry
     xc contribution           =     -54.74485370 Ry
     ewald contribution        =    -167.52979533 Ry
     one-center paw contrib.   =    -587.26007769 Ry
     smearing contrib. (-TS)   =      -0.00000006 Ry

     convergence has been achieved in   5 iterations

     Writing output data file Sn.save
 
     init_run     :     15.16s CPU     16.56s WALL (       1 calls)
     electrons    :    332.98s CPU    353.05s WALL (       1 calls)

     Called by init_run:
     wfcinit      :     14.44s CPU     15.40s WALL (       1 calls)
     potinit      :      0.24s CPU      0.32s WALL (       1 calls)

     Called by electrons:
     c_bands      :    284.64s CPU    301.99s WALL (       6 calls)
     sum_band     :     46.79s CPU     49.32s WALL (       6 calls)
     v_of_rho     :      0.08s CPU      0.11s WALL (       6 calls)
     v_h          :      0.01s CPU      0.01s WALL (       6 calls)
     v_xc         :      0.07s CPU      0.09s WALL (       6 calls)
     newd         :      0.53s CPU      0.59s WALL (       6 calls)
     PAW_pot      :      1.17s CPU      1.29s WALL (       6 calls)
     mix_rho      :      0.03s CPU      0.05s WALL (       6 calls)

     Called by c_bands:
     init_us_2    :      0.76s CPU      0.86s WALL (    1885 calls)
     cegterg      :    272.10s CPU    289.11s WALL (     870 calls)

     Called by sum_band:
     sum_band:bec :      2.82s CPU      2.90s WALL (     870 calls)
     addusdens    :      0.43s CPU      0.51s WALL (       6 calls)

     Called by *egterg:
     h_psi        :    235.40s CPU    249.54s WALL (    3458 calls)
     s_psi        :      6.14s CPU      6.17s WALL (    3458 calls)
     g_psi        :      0.67s CPU      0.68s WALL (    2443 calls)
     cdiaghg      :     14.77s CPU     14.99s WALL (    3168 calls)
     cegterg:over :     11.50s CPU     11.57s WALL (    2443 calls)
     cegterg:upda :      5.97s CPU      6.00s WALL (    2443 calls)
     cegterg:last :      4.36s CPU      4.38s WALL (    1014 calls)

     Called by h_psi:
     h_psi:vloc   :    220.65s CPU    234.55s WALL (    3458 calls)
     h_psi:vnl    :     14.22s CPU     14.42s WALL (    3458 calls)
     add_vuspsi   :      6.49s CPU      6.57s WALL (    3458 calls)

     General routines
     calbec       :     10.10s CPU     10.25s WALL (    4328 calls)
     fft          :      0.18s CPU      0.40s WALL (     116 calls)
     fftw         :    244.99s CPU    260.29s WALL (  430000 calls)
     davcio       :      0.06s CPU      0.56s WALL (     145 calls)
 
     Parallel routines
     fft_scatter  :    164.11s CPU    174.80s WALL (  430116 calls)

     PAW routines
     PAW_pot      :      1.17s CPU      1.29s WALL (       6 calls)
     PAW_symme    :      0.02s CPU      0.03s WALL (      12 calls)
 
     PWSCF        :  5m49.91s CPU     6m12.13s WALL

 
   This run was terminated on:  23: 0:50  16Mar2020            

=------------------------------------------------------------------------------=
   JOB DONE.
=------------------------------------------------------------------------------=
