
     Program PWSCF v.5.4.0 starts on 17Mar2020 at 11:39:10 

     This program is part of the open-source Quantum ESPRESSO suite
     for quantum simulation of materials; please cite
         "P. Giannozzi et al., J. Phys.:Condens. Matter 21 395502 (2009);
          URL http://www.quantum-espresso.org", 
     in publications or presentations arising from this work. More details at
     http://www.quantum-espresso.org/quote

     Parallel version (MPI & OpenMP), running on      16 processor cores
     Number of MPI processes:                16
     Threads/MPI process:                     1
     R & G space division:  proc/nbgrp/npool/nimage =      16
     Waiting for input...
     Reading input from standard input
Warning: card &IONS ignored
Warning: card / ignored
Warning: card &CELL ignored
Warning: card / ignored

     Current dimensions of program PWSCF are:
     Max number of different atomic species (ntypx) = 10
     Max number of k-points (npk) =  40000
     Max angular momentum in pseudopotentials (lmaxx) =  3
               file Sn.pbe-dn-rrkjus_psl.1.0.0.UPF: wavefunction(s)  5S 4D renormalized
     Message from routine setup:
     At least one non s.o. pseudo

     Subspace diagonalization in iterative solution of the eigenvalue problem:
     a serial algorithm will be used

 
     Parallelization info
     --------------------
     sticks:   dense  smooth     PW     G-vecs:    dense   smooth      PW
     Min         140     140     40                 4418     4418     673
     Max         141     141     41                 4421     4421     674
     Sum        2245    2245    649                70721    70721   10777
 

     Title: 
     Sn                                                                         


     bravais-lattice index     =            0
     lattice parameter (alat)  =       8.9127  a.u.
     unit-cell volume          =     500.6268 (a.u.)^3
     number of atoms/cell      =            2
     number of atomic types    =            1
     number of electrons       =        28.00
     number of Kohn-Sham states=           36
     kinetic-energy cutoff     =     103.0000  Ry
     charge density cutoff     =     412.0000  Ry
     convergence threshold     =      1.0E-06
     mixing beta               =       0.7000
     number of iterations used =            8  plain     mixing
     Exchange-correlation      = PBE ( 1  4  3  4 0 0)
     Non magnetic calculation with spin-orbit


     celldm(1)=   8.912709  celldm(2)=   0.000000  celldm(3)=   0.000000
     celldm(4)=   0.000000  celldm(5)=   0.000000  celldm(6)=   0.000000

     crystal axes: (cart. coord. in units of alat)
               a(1) = (   0.000000   0.707107   0.707107 )  
               a(2) = (   0.707107   0.000000   0.707107 )  
               a(3) = (   0.707107   0.707107   0.000000 )  

     reciprocal axes: (cart. coord. in units 2 pi/alat)
               b(1) = ( -0.707107  0.707107  0.707107 )  
               b(2) = (  0.707107 -0.707107  0.707107 )  
               b(3) = (  0.707107  0.707107 -0.707107 )  


     PseudoPot. # 1 for Sn read from file:
     ../PseudopotentialDatabase/Sn.pbe-dn-rrkjus_psl.1.0.0.UPF
     MD5 check sum: 72e22d5a9e1ec4fde6a02e1f963898e9
     Pseudo is Ultrasoft + core correction, Zval = 14.0
     Generated using "atomic" code by A. Dal Corso  v.6.3
     Using radial grid of 1243 points,  6 beta functions with: 
                l(1) =   0
                l(2) =   0
                l(3) =   1
                l(4) =   1
                l(5) =   2
                l(6) =   2
     Q(r) pseudized with 0 coefficients 


     atomic species   valence    mass     pseudopotential
        Sn            14.00   118.71000     Sn( 1.00)

     48 Sym. Ops., with inversion, found (24 have fractional translation)


                                    s                        frac. trans.

      isym =  1     identity                                     

 cryst.   s( 1) = (     1          0          0      )
                  (     0          1          0      )
                  (     0          0          1      )

 cart.    s( 1) = (  1.0000000  0.0000000  0.0000000 )
                  (  0.0000000  1.0000000  0.0000000 )
                  (  0.0000000  0.0000000  1.0000000 )


      isym =  2     180 deg rotation - cart. axis [0,0,1]        

 cryst.   s( 2) = (     0          1         -1      )
                  (     1          0         -1      )
                  (     0          0         -1      )

 cart.    s( 2) = ( -1.0000000  0.0000000  0.0000000 )
                  (  0.0000000 -1.0000000  0.0000000 )
                  (  0.0000000  0.0000000  1.0000000 )


      isym =  3     180 deg rotation - cart. axis [0,1,0]        

 cryst.   s( 3) = (     0         -1          1      )
                  (     0         -1          0      )
                  (     1         -1          0      )

 cart.    s( 3) = ( -1.0000000  0.0000000  0.0000000 )
                  (  0.0000000  1.0000000  0.0000000 )
                  (  0.0000000  0.0000000 -1.0000000 )


      isym =  4     180 deg rotation - cart. axis [1,0,0]        

 cryst.   s( 4) = (    -1          0          0      )
                  (    -1          0          1      )
                  (    -1          1          0      )

 cart.    s( 4) = (  1.0000000  0.0000000  0.0000000 )
                  (  0.0000000 -1.0000000  0.0000000 )
                  (  0.0000000  0.0000000 -1.0000000 )


      isym =  5     180 deg rotation - cart. axis [1,1,0]        

 cryst.   s( 5) = (    -1          0          1      )    f =( -0.2500000 )
                  (     0         -1          1      )       ( -0.2500000 )
                  (     0          0          1      )       ( -0.2500000 )

 cart.    s( 5) = (  0.0000000  1.0000000  0.0000000 )    f =( -0.3535534 )
                  (  1.0000000  0.0000000  0.0000000 )       ( -0.3535534 )
                  (  0.0000000  0.0000000 -1.0000000 )       ( -0.3535534 )


      isym =  6     180 deg rotation - cart. axis [1,-1,0]       

 cryst.   s( 6) = (     0         -1          0      )    f =( -0.2500000 )
                  (    -1          0          0      )       ( -0.2500000 )
                  (     0          0         -1      )       ( -0.2500000 )

 cart.    s( 6) = (  0.0000000 -1.0000000  0.0000000 )    f =( -0.3535534 )
                  ( -1.0000000  0.0000000  0.0000000 )       ( -0.3535534 )
                  (  0.0000000  0.0000000 -1.0000000 )       ( -0.3535534 )


      isym =  7      90 deg rotation - cart. axis [0,0,-1]       

 cryst.   s( 7) = (     0          1          0      )    f =( -0.2500000 )
                  (     0          1         -1      )       ( -0.2500000 )
                  (    -1          1          0      )       ( -0.2500000 )

 cart.    s( 7) = (  0.0000000  1.0000000  0.0000000 )    f =( -0.3535534 )
                  ( -1.0000000  0.0000000  0.0000000 )       ( -0.3535534 )
                  (  0.0000000  0.0000000  1.0000000 )       ( -0.3535534 )


      isym =  8      90 deg rotation - cart. axis [0,0,1]        

 cryst.   s( 8) = (     1          0         -1      )    f =( -0.2500000 )
                  (     1          0          0      )       ( -0.2500000 )
                  (     1         -1          0      )       ( -0.2500000 )

 cart.    s( 8) = (  0.0000000 -1.0000000  0.0000000 )    f =( -0.3535534 )
                  (  1.0000000  0.0000000  0.0000000 )       ( -0.3535534 )
                  (  0.0000000  0.0000000  1.0000000 )       ( -0.3535534 )


      isym =  9     180 deg rotation - cart. axis [1,0,1]        

 cryst.   s( 9) = (    -1          1          0      )    f =( -0.2500000 )
                  (     0          1          0      )       ( -0.2500000 )
                  (     0          1         -1      )       ( -0.2500000 )

 cart.    s( 9) = (  0.0000000  0.0000000  1.0000000 )    f =( -0.3535534 )
                  (  0.0000000 -1.0000000  0.0000000 )       ( -0.3535534 )
                  (  1.0000000  0.0000000  0.0000000 )       ( -0.3535534 )


      isym = 10     180 deg rotation - cart. axis [-1,0,1]       

 cryst.   s(10) = (     0          0         -1      )    f =( -0.2500000 )
                  (     0         -1          0      )       ( -0.2500000 )
                  (    -1          0          0      )       ( -0.2500000 )

 cart.    s(10) = (  0.0000000  0.0000000 -1.0000000 )    f =( -0.3535534 )
                  (  0.0000000 -1.0000000  0.0000000 )       ( -0.3535534 )
                  ( -1.0000000  0.0000000  0.0000000 )       ( -0.3535534 )


      isym = 11      90 deg rotation - cart. axis [0,1,0]        

 cryst.   s(11) = (     0          0          1      )    f =( -0.2500000 )
                  (    -1          0          1      )       ( -0.2500000 )
                  (     0         -1          1      )       ( -0.2500000 )

 cart.    s(11) = (  0.0000000  0.0000000  1.0000000 )    f =( -0.3535534 )
                  (  0.0000000  1.0000000  0.0000000 )       ( -0.3535534 )
                  ( -1.0000000  0.0000000  0.0000000 )       ( -0.3535534 )


      isym = 12      90 deg rotation - cart. axis [0,-1,0]       

 cryst.   s(12) = (     1         -1          0      )    f =( -0.2500000 )
                  (     1          0         -1      )       ( -0.2500000 )
                  (     1          0          0      )       ( -0.2500000 )

 cart.    s(12) = (  0.0000000  0.0000000 -1.0000000 )    f =( -0.3535534 )
                  (  0.0000000  1.0000000  0.0000000 )       ( -0.3535534 )
                  (  1.0000000  0.0000000  0.0000000 )       ( -0.3535534 )


      isym = 13     180 deg rotation - cart. axis [0,1,1]        

 cryst.   s(13) = (     1          0          0      )    f =( -0.2500000 )
                  (     1         -1          0      )       ( -0.2500000 )
                  (     1          0         -1      )       ( -0.2500000 )

 cart.    s(13) = ( -1.0000000  0.0000000  0.0000000 )    f =( -0.3535534 )
                  (  0.0000000  0.0000000  1.0000000 )       ( -0.3535534 )
                  (  0.0000000  1.0000000  0.0000000 )       ( -0.3535534 )


      isym = 14     180 deg rotation - cart. axis [0,1,-1]       

 cryst.   s(14) = (    -1          0          0      )    f =( -0.2500000 )
                  (     0          0         -1      )       ( -0.2500000 )
                  (     0         -1          0      )       ( -0.2500000 )

 cart.    s(14) = ( -1.0000000  0.0000000  0.0000000 )    f =( -0.3535534 )
                  (  0.0000000  0.0000000 -1.0000000 )       ( -0.3535534 )
                  (  0.0000000 -1.0000000  0.0000000 )       ( -0.3535534 )


      isym = 15      90 deg rotation - cart. axis [-1,0,0]       

 cryst.   s(15) = (     0         -1          1      )    f =( -0.2500000 )
                  (     0          0          1      )       ( -0.2500000 )
                  (    -1          0          1      )       ( -0.2500000 )

 cart.    s(15) = (  1.0000000  0.0000000  0.0000000 )    f =( -0.3535534 )
                  (  0.0000000  0.0000000  1.0000000 )       ( -0.3535534 )
                  (  0.0000000 -1.0000000  0.0000000 )       ( -0.3535534 )


      isym = 16      90 deg rotation - cart. axis [1,0,0]        

 cryst.   s(16) = (     0          1         -1      )    f =( -0.2500000 )
                  (    -1          1          0      )       ( -0.2500000 )
                  (     0          1          0      )       ( -0.2500000 )

 cart.    s(16) = (  1.0000000  0.0000000  0.0000000 )    f =( -0.3535534 )
                  (  0.0000000  0.0000000 -1.0000000 )       ( -0.3535534 )
                  (  0.0000000  1.0000000  0.0000000 )       ( -0.3535534 )


      isym = 17     120 deg rotation - cart. axis [-1,-1,-1]     

 cryst.   s(17) = (     0          0          1      )
                  (     1          0          0      )
                  (     0          1          0      )

 cart.    s(17) = (  0.0000000  1.0000000  0.0000000 )
                  (  0.0000000  0.0000000  1.0000000 )
                  (  1.0000000  0.0000000  0.0000000 )


      isym = 18     120 deg rotation - cart. axis [-1,1,1]       

 cryst.   s(18) = (     1         -1          0      )
                  (     0         -1          1      )
                  (     0         -1          0      )

 cart.    s(18) = (  0.0000000 -1.0000000  0.0000000 )
                  (  0.0000000  0.0000000  1.0000000 )
                  ( -1.0000000  0.0000000  0.0000000 )


      isym = 19     120 deg rotation - cart. axis [1,1,-1]       

 cryst.   s(19) = (    -1          1          0      )
                  (    -1          0          0      )
                  (    -1          0          1      )

 cart.    s(19) = (  0.0000000  1.0000000  0.0000000 )
                  (  0.0000000  0.0000000 -1.0000000 )
                  ( -1.0000000  0.0000000  0.0000000 )


      isym = 20     120 deg rotation - cart. axis [1,-1,1]       

 cryst.   s(20) = (     0          0         -1      )
                  (     0          1         -1      )
                  (     1          0         -1      )

 cart.    s(20) = (  0.0000000 -1.0000000  0.0000000 )
                  (  0.0000000  0.0000000 -1.0000000 )
                  (  1.0000000  0.0000000  0.0000000 )


      isym = 21     120 deg rotation - cart. axis [1,1,1]        

 cryst.   s(21) = (     0          1          0      )
                  (     0          0          1      )
                  (     1          0          0      )

 cart.    s(21) = (  0.0000000  0.0000000  1.0000000 )
                  (  1.0000000  0.0000000  0.0000000 )
                  (  0.0000000  1.0000000  0.0000000 )


      isym = 22     120 deg rotation - cart. axis [-1,1,-1]      

 cryst.   s(22) = (    -1          0          1      )
                  (    -1          1          0      )
                  (    -1          0          0      )

 cart.    s(22) = (  0.0000000  0.0000000  1.0000000 )
                  ( -1.0000000  0.0000000  0.0000000 )
                  (  0.0000000 -1.0000000  0.0000000 )


      isym = 23     120 deg rotation - cart. axis [1,-1,-1]      

 cryst.   s(23) = (     1          0         -1      )
                  (     0          0         -1      )
                  (     0          1         -1      )

 cart.    s(23) = (  0.0000000  0.0000000 -1.0000000 )
                  ( -1.0000000  0.0000000  0.0000000 )
                  (  0.0000000  1.0000000  0.0000000 )


      isym = 24     120 deg rotation - cart. axis [-1,-1,1]      

 cryst.   s(24) = (     0         -1          0      )
                  (     1         -1          0      )
                  (     0         -1          1      )

 cart.    s(24) = (  0.0000000  0.0000000 -1.0000000 )
                  (  1.0000000  0.0000000  0.0000000 )
                  (  0.0000000 -1.0000000  0.0000000 )


      isym = 25     inversion                                    

 cryst.   s(25) = (    -1          0          0      )    f =( -0.2500000 )
                  (     0         -1          0      )       ( -0.2500000 )
                  (     0          0         -1      )       ( -0.2500000 )

 cart.    s(25) = ( -1.0000000  0.0000000  0.0000000 )    f =( -0.3535534 )
                  (  0.0000000 -1.0000000  0.0000000 )       ( -0.3535534 )
                  (  0.0000000  0.0000000 -1.0000000 )       ( -0.3535534 )


      isym = 26     inv. 180 deg rotation - cart. axis [0,0,1]   

 cryst.   s(26) = (     0         -1          1      )    f =( -0.2500000 )
                  (    -1          0          1      )       ( -0.2500000 )
                  (     0          0          1      )       ( -0.2500000 )

 cart.    s(26) = (  1.0000000  0.0000000  0.0000000 )    f =( -0.3535534 )
                  (  0.0000000  1.0000000  0.0000000 )       ( -0.3535534 )
                  (  0.0000000  0.0000000 -1.0000000 )       ( -0.3535534 )


      isym = 27     inv. 180 deg rotation - cart. axis [0,1,0]   

 cryst.   s(27) = (     0          1         -1      )    f =( -0.2500000 )
                  (     0          1          0      )       ( -0.2500000 )
                  (    -1          1          0      )       ( -0.2500000 )

 cart.    s(27) = (  1.0000000  0.0000000  0.0000000 )    f =( -0.3535534 )
                  (  0.0000000 -1.0000000  0.0000000 )       ( -0.3535534 )
                  (  0.0000000  0.0000000  1.0000000 )       ( -0.3535534 )


      isym = 28     inv. 180 deg rotation - cart. axis [1,0,0]   

 cryst.   s(28) = (     1          0          0      )    f =( -0.2500000 )
                  (     1          0         -1      )       ( -0.2500000 )
                  (     1         -1          0      )       ( -0.2500000 )

 cart.    s(28) = ( -1.0000000  0.0000000  0.0000000 )    f =( -0.3535534 )
                  (  0.0000000  1.0000000  0.0000000 )       ( -0.3535534 )
                  (  0.0000000  0.0000000  1.0000000 )       ( -0.3535534 )


      isym = 29     inv. 180 deg rotation - cart. axis [1,1,0]   

 cryst.   s(29) = (     1          0         -1      )
                  (     0          1         -1      )
                  (     0          0         -1      )

 cart.    s(29) = (  0.0000000 -1.0000000  0.0000000 )
                  ( -1.0000000  0.0000000  0.0000000 )
                  (  0.0000000  0.0000000  1.0000000 )


      isym = 30     inv. 180 deg rotation - cart. axis [1,-1,0]  

 cryst.   s(30) = (     0          1          0      )
                  (     1          0          0      )
                  (     0          0          1      )

 cart.    s(30) = (  0.0000000  1.0000000  0.0000000 )
                  (  1.0000000  0.0000000  0.0000000 )
                  (  0.0000000  0.0000000  1.0000000 )


      isym = 31     inv.  90 deg rotation - cart. axis [0,0,-1]  

 cryst.   s(31) = (     0         -1          0      )
                  (     0         -1          1      )
                  (     1         -1          0      )

 cart.    s(31) = (  0.0000000 -1.0000000  0.0000000 )
                  (  1.0000000  0.0000000  0.0000000 )
                  (  0.0000000  0.0000000 -1.0000000 )


      isym = 32     inv.  90 deg rotation - cart. axis [0,0,1]   

 cryst.   s(32) = (    -1          0          1      )
                  (    -1          0          0      )
                  (    -1          1          0      )

 cart.    s(32) = (  0.0000000  1.0000000  0.0000000 )
                  ( -1.0000000  0.0000000  0.0000000 )
                  (  0.0000000  0.0000000 -1.0000000 )


      isym = 33     inv. 180 deg rotation - cart. axis [1,0,1]   

 cryst.   s(33) = (     1         -1          0      )
                  (     0         -1          0      )
                  (     0         -1          1      )

 cart.    s(33) = (  0.0000000  0.0000000 -1.0000000 )
                  (  0.0000000  1.0000000  0.0000000 )
                  ( -1.0000000  0.0000000  0.0000000 )


      isym = 34     inv. 180 deg rotation - cart. axis [-1,0,1]  

 cryst.   s(34) = (     0          0          1      )
                  (     0          1          0      )
                  (     1          0          0      )

 cart.    s(34) = (  0.0000000  0.0000000  1.0000000 )
                  (  0.0000000  1.0000000  0.0000000 )
                  (  1.0000000  0.0000000  0.0000000 )


      isym = 35     inv.  90 deg rotation - cart. axis [0,1,0]   

 cryst.   s(35) = (     0          0         -1      )
                  (     1          0         -1      )
                  (     0          1         -1      )

 cart.    s(35) = (  0.0000000  0.0000000 -1.0000000 )
                  (  0.0000000 -1.0000000  0.0000000 )
                  (  1.0000000  0.0000000  0.0000000 )


      isym = 36     inv.  90 deg rotation - cart. axis [0,-1,0]  

 cryst.   s(36) = (    -1          1          0      )
                  (    -1          0          1      )
                  (    -1          0          0      )

 cart.    s(36) = (  0.0000000  0.0000000  1.0000000 )
                  (  0.0000000 -1.0000000  0.0000000 )
                  ( -1.0000000  0.0000000  0.0000000 )


      isym = 37     inv. 180 deg rotation - cart. axis [0,1,1]   

 cryst.   s(37) = (    -1          0          0      )
                  (    -1          1          0      )
                  (    -1          0          1      )

 cart.    s(37) = (  1.0000000  0.0000000  0.0000000 )
                  (  0.0000000  0.0000000 -1.0000000 )
                  (  0.0000000 -1.0000000  0.0000000 )


      isym = 38     inv. 180 deg rotation - cart. axis [0,1,-1]  

 cryst.   s(38) = (     1          0          0      )
                  (     0          0          1      )
                  (     0          1          0      )

 cart.    s(38) = (  1.0000000  0.0000000  0.0000000 )
                  (  0.0000000  0.0000000  1.0000000 )
                  (  0.0000000  1.0000000  0.0000000 )


      isym = 39     inv.  90 deg rotation - cart. axis [-1,0,0]  

 cryst.   s(39) = (     0          1         -1      )
                  (     0          0         -1      )
                  (     1          0         -1      )

 cart.    s(39) = ( -1.0000000  0.0000000  0.0000000 )
                  (  0.0000000  0.0000000 -1.0000000 )
                  (  0.0000000  1.0000000  0.0000000 )


      isym = 40     inv.  90 deg rotation - cart. axis [1,0,0]   

 cryst.   s(40) = (     0         -1          1      )
                  (     1         -1          0      )
                  (     0         -1          0      )

 cart.    s(40) = ( -1.0000000  0.0000000  0.0000000 )
                  (  0.0000000  0.0000000  1.0000000 )
                  (  0.0000000 -1.0000000  0.0000000 )


      isym = 41     inv. 120 deg rotation - cart. axis [-1,-1,-1]

 cryst.   s(41) = (     0          0         -1      )    f =( -0.2500000 )
                  (    -1          0          0      )       ( -0.2500000 )
                  (     0         -1          0      )       ( -0.2500000 )

 cart.    s(41) = (  0.0000000 -1.0000000  0.0000000 )    f =( -0.3535534 )
                  (  0.0000000  0.0000000 -1.0000000 )       ( -0.3535534 )
                  ( -1.0000000  0.0000000  0.0000000 )       ( -0.3535534 )


      isym = 42     inv. 120 deg rotation - cart. axis [-1,1,1]  

 cryst.   s(42) = (    -1          1          0      )    f =( -0.2500000 )
                  (     0          1         -1      )       ( -0.2500000 )
                  (     0          1          0      )       ( -0.2500000 )

 cart.    s(42) = (  0.0000000  1.0000000  0.0000000 )    f =( -0.3535534 )
                  (  0.0000000  0.0000000 -1.0000000 )       ( -0.3535534 )
                  (  1.0000000  0.0000000  0.0000000 )       ( -0.3535534 )


      isym = 43     inv. 120 deg rotation - cart. axis [1,1,-1]  

 cryst.   s(43) = (     1         -1          0      )    f =( -0.2500000 )
                  (     1          0          0      )       ( -0.2500000 )
                  (     1          0         -1      )       ( -0.2500000 )

 cart.    s(43) = (  0.0000000 -1.0000000  0.0000000 )    f =( -0.3535534 )
                  (  0.0000000  0.0000000  1.0000000 )       ( -0.3535534 )
                  (  1.0000000  0.0000000  0.0000000 )       ( -0.3535534 )


      isym = 44     inv. 120 deg rotation - cart. axis [1,-1,1]  

 cryst.   s(44) = (     0          0          1      )    f =( -0.2500000 )
                  (     0         -1          1      )       ( -0.2500000 )
                  (    -1          0          1      )       ( -0.2500000 )

 cart.    s(44) = (  0.0000000  1.0000000  0.0000000 )    f =( -0.3535534 )
                  (  0.0000000  0.0000000  1.0000000 )       ( -0.3535534 )
                  ( -1.0000000  0.0000000  0.0000000 )       ( -0.3535534 )


      isym = 45     inv. 120 deg rotation - cart. axis [1,1,1]   

 cryst.   s(45) = (     0         -1          0      )    f =( -0.2500000 )
                  (     0          0         -1      )       ( -0.2500000 )
                  (    -1          0          0      )       ( -0.2500000 )

 cart.    s(45) = (  0.0000000  0.0000000 -1.0000000 )    f =( -0.3535534 )
                  ( -1.0000000  0.0000000  0.0000000 )       ( -0.3535534 )
                  (  0.0000000 -1.0000000  0.0000000 )       ( -0.3535534 )


      isym = 46     inv. 120 deg rotation - cart. axis [-1,1,-1] 

 cryst.   s(46) = (     1          0         -1      )    f =( -0.2500000 )
                  (     1         -1          0      )       ( -0.2500000 )
                  (     1          0          0      )       ( -0.2500000 )

 cart.    s(46) = (  0.0000000  0.0000000 -1.0000000 )    f =( -0.3535534 )
                  (  1.0000000  0.0000000  0.0000000 )       ( -0.3535534 )
                  (  0.0000000  1.0000000  0.0000000 )       ( -0.3535534 )


      isym = 47     inv. 120 deg rotation - cart. axis [1,-1,-1] 

 cryst.   s(47) = (    -1          0          1      )    f =( -0.2500000 )
                  (     0          0          1      )       ( -0.2500000 )
                  (     0         -1          1      )       ( -0.2500000 )

 cart.    s(47) = (  0.0000000  0.0000000  1.0000000 )    f =( -0.3535534 )
                  (  1.0000000  0.0000000  0.0000000 )       ( -0.3535534 )
                  (  0.0000000 -1.0000000  0.0000000 )       ( -0.3535534 )


      isym = 48     inv. 120 deg rotation - cart. axis [-1,-1,1] 

 cryst.   s(48) = (     0          1          0      )    f =( -0.2500000 )
                  (    -1          1          0      )       ( -0.2500000 )
                  (     0          1         -1      )       ( -0.2500000 )

 cart.    s(48) = (  0.0000000  0.0000000  1.0000000 )    f =( -0.3535534 )
                  ( -1.0000000  0.0000000  0.0000000 )       ( -0.3535534 )
                  (  0.0000000  1.0000000  0.0000000 )       ( -0.3535534 )


   Cartesian axes

     site n.     atom                  positions (alat units)
         1           Sn  tau(   1) = (   0.0000000   0.0000000   0.0000000  )
         2           Sn  tau(   2) = (   0.3535534   0.3535534   0.3535534  )

   Crystallographic axes

     site n.     atom                  positions (cryst. coord.)
         1           Sn  tau(   1) = (  0.0000000  0.0000000  0.0000000  )
         2           Sn  tau(   2) = (  0.2500000  0.2500000  0.2500000  )

     number of k points=   145  gaussian smearing, width (Ry)=  0.0001
                       cart. coord. in units 2pi/alat
        k(    1) = (   0.0000000   0.0000000   0.0000000), wk =   0.0002441
        k(    2) = (   0.0441942   0.0441942  -0.0441942), wk =   0.0019531
        k(    3) = (   0.0883883   0.0883883  -0.0883883), wk =   0.0019531
        k(    4) = (   0.1325825   0.1325825  -0.1325825), wk =   0.0019531
        k(    5) = (   0.1767767   0.1767767  -0.1767767), wk =   0.0019531
        k(    6) = (   0.2209709   0.2209709  -0.2209709), wk =   0.0019531
        k(    7) = (   0.2651650   0.2651650  -0.2651650), wk =   0.0019531
        k(    8) = (   0.3093592   0.3093592  -0.3093592), wk =   0.0019531
        k(    9) = (  -0.3535534  -0.3535534   0.3535534), wk =   0.0009766
        k(   10) = (   0.0883883   0.0000000   0.0000000), wk =   0.0014648
        k(   11) = (   0.1325825   0.0441942  -0.0441942), wk =   0.0058594
        k(   12) = (   0.1767767   0.0883883  -0.0883883), wk =   0.0058594
        k(   13) = (   0.2209709   0.1325825  -0.1325825), wk =   0.0058594
        k(   14) = (   0.2651650   0.1767767  -0.1767767), wk =   0.0058594
        k(   15) = (   0.3093592   0.2209709  -0.2209709), wk =   0.0058594
        k(   16) = (   0.3535534   0.2651650  -0.2651650), wk =   0.0058594
        k(   17) = (  -0.3093592  -0.3977476   0.3977476), wk =   0.0058594
        k(   18) = (  -0.2651650  -0.3535534   0.3535534), wk =   0.0058594
        k(   19) = (  -0.2209709  -0.3093592   0.3093592), wk =   0.0058594
        k(   20) = (  -0.1767767  -0.2651650   0.2651650), wk =   0.0058594
        k(   21) = (  -0.1325825  -0.2209709   0.2209709), wk =   0.0058594
        k(   22) = (  -0.0883883  -0.1767767   0.1767767), wk =   0.0058594
        k(   23) = (  -0.0441942  -0.1325825   0.1325825), wk =   0.0058594
        k(   24) = (   0.0000000  -0.0883883   0.0883883), wk =   0.0029297
        k(   25) = (   0.1767767   0.0000000   0.0000000), wk =   0.0014648
        k(   26) = (   0.2209709   0.0441942  -0.0441942), wk =   0.0058594
        k(   27) = (   0.2651650   0.0883883  -0.0883883), wk =   0.0058594
        k(   28) = (   0.3093592   0.1325825  -0.1325825), wk =   0.0058594
        k(   29) = (   0.3535534   0.1767767  -0.1767767), wk =   0.0058594
        k(   30) = (   0.3977476   0.2209709  -0.2209709), wk =   0.0058594
        k(   31) = (  -0.2651650  -0.4419417   0.4419417), wk =   0.0058594
        k(   32) = (  -0.2209709  -0.3977476   0.3977476), wk =   0.0058594
        k(   33) = (  -0.1767767  -0.3535534   0.3535534), wk =   0.0058594
        k(   34) = (  -0.1325825  -0.3093592   0.3093592), wk =   0.0058594
        k(   35) = (  -0.0883883  -0.2651650   0.2651650), wk =   0.0058594
        k(   36) = (  -0.0441942  -0.2209709   0.2209709), wk =   0.0058594
        k(   37) = (   0.0000000  -0.1767767   0.1767767), wk =   0.0029297
        k(   38) = (   0.2651650   0.0000000   0.0000000), wk =   0.0014648
        k(   39) = (   0.3093592   0.0441942  -0.0441942), wk =   0.0058594
        k(   40) = (   0.3535534   0.0883883  -0.0883883), wk =   0.0058594
        k(   41) = (   0.3977476   0.1325825  -0.1325825), wk =   0.0058594
        k(   42) = (   0.4419417   0.1767767  -0.1767767), wk =   0.0058594
        k(   43) = (  -0.2209709  -0.4861359   0.4861359), wk =   0.0058594
        k(   44) = (  -0.1767767  -0.4419417   0.4419417), wk =   0.0058594
        k(   45) = (  -0.1325825  -0.3977476   0.3977476), wk =   0.0058594
        k(   46) = (  -0.0883883  -0.3535534   0.3535534), wk =   0.0058594
        k(   47) = (  -0.0441942  -0.3093592   0.3093592), wk =   0.0058594
        k(   48) = (   0.0000000  -0.2651650   0.2651650), wk =   0.0029297
        k(   49) = (   0.3535534   0.0000000   0.0000000), wk =   0.0014648
        k(   50) = (   0.3977476   0.0441942  -0.0441942), wk =   0.0058594
        k(   51) = (   0.4419417   0.0883883  -0.0883883), wk =   0.0058594
        k(   52) = (   0.4861359   0.1325825  -0.1325825), wk =   0.0058594
        k(   53) = (  -0.1767767  -0.5303301   0.5303301), wk =   0.0058594
        k(   54) = (  -0.1325825  -0.4861359   0.4861359), wk =   0.0058594
        k(   55) = (  -0.0883883  -0.4419417   0.4419417), wk =   0.0058594
        k(   56) = (  -0.0441942  -0.3977476   0.3977476), wk =   0.0058594
        k(   57) = (   0.0000000  -0.3535534   0.3535534), wk =   0.0029297
        k(   58) = (   0.4419417   0.0000000   0.0000000), wk =   0.0014648
        k(   59) = (   0.4861359   0.0441942  -0.0441942), wk =   0.0058594
        k(   60) = (   0.5303301   0.0883883  -0.0883883), wk =   0.0058594
        k(   61) = (  -0.1325825  -0.5745243   0.5745243), wk =   0.0058594
        k(   62) = (  -0.0883883  -0.5303301   0.5303301), wk =   0.0058594
        k(   63) = (  -0.0441942  -0.4861359   0.4861359), wk =   0.0058594
        k(   64) = (   0.0000000  -0.4419417   0.4419417), wk =   0.0029297
        k(   65) = (   0.5303301   0.0000000   0.0000000), wk =   0.0014648
        k(   66) = (   0.5745243   0.0441942  -0.0441942), wk =   0.0058594
        k(   67) = (  -0.0883883  -0.6187184   0.6187184), wk =   0.0058594
        k(   68) = (  -0.0441942  -0.5745243   0.5745243), wk =   0.0058594
        k(   69) = (   0.0000000  -0.5303301   0.5303301), wk =   0.0029297
        k(   70) = (   0.6187184   0.0000000   0.0000000), wk =   0.0014648
        k(   71) = (  -0.0441942  -0.6629126   0.6629126), wk =   0.0058594
        k(   72) = (   0.0000000  -0.6187184   0.6187184), wk =   0.0029297
        k(   73) = (  -0.7071068   0.0000000   0.0000000), wk =   0.0007324
        k(   74) = (   0.1767767   0.0883883   0.0000000), wk =   0.0058594
        k(   75) = (   0.2209709   0.1325825  -0.0441942), wk =   0.0117188
        k(   76) = (   0.2651650   0.1767767  -0.0883883), wk =   0.0117188
        k(   77) = (   0.3093592   0.2209709  -0.1325825), wk =   0.0117188
        k(   78) = (   0.3535534   0.2651650  -0.1767767), wk =   0.0117188
        k(   79) = (  -0.3093592  -0.3977476   0.4861359), wk =   0.0117188
        k(   80) = (  -0.2651650  -0.3535534   0.4419417), wk =   0.0058594
        k(   81) = (   0.2651650   0.0883883   0.0000000), wk =   0.0058594
        k(   82) = (   0.3093592   0.1325825  -0.0441942), wk =   0.0117188
        k(   83) = (   0.3535534   0.1767767  -0.0883883), wk =   0.0117188
        k(   84) = (   0.3977476   0.2209709  -0.1325825), wk =   0.0117188
        k(   85) = (  -0.2651650  -0.4419417   0.5303301), wk =   0.0117188
        k(   86) = (  -0.2209709  -0.3977476   0.4861359), wk =   0.0117188
        k(   87) = (  -0.1767767  -0.3535534   0.4419417), wk =   0.0117188
        k(   88) = (  -0.1325825  -0.3093592   0.3977476), wk =   0.0117188
        k(   89) = (  -0.0883883  -0.2651650   0.3535534), wk =   0.0117188
        k(   90) = (  -0.0441942  -0.2209709   0.3093592), wk =   0.0117188
        k(   91) = (   0.0000000  -0.1767767   0.2651650), wk =   0.0058594
        k(   92) = (   0.3535534   0.0883883   0.0000000), wk =   0.0058594
        k(   93) = (   0.3977476   0.1325825  -0.0441942), wk =   0.0117188
        k(   94) = (   0.4419417   0.1767767  -0.0883883), wk =   0.0117188
        k(   95) = (  -0.2209709  -0.4861359   0.5745243), wk =   0.0117188
        k(   96) = (  -0.1767767  -0.4419417   0.5303301), wk =   0.0117188
        k(   97) = (  -0.1325825  -0.3977476   0.4861359), wk =   0.0117188
        k(   98) = (  -0.0883883  -0.3535534   0.4419417), wk =   0.0117188
        k(   99) = (  -0.0441942  -0.3093592   0.3977476), wk =   0.0117188
        k(  100) = (   0.0000000  -0.2651650   0.3535534), wk =   0.0058594
        k(  101) = (   0.4419417   0.0883883   0.0000000), wk =   0.0058594
        k(  102) = (   0.4861359   0.1325825  -0.0441942), wk =   0.0117188
        k(  103) = (  -0.1767767  -0.5303301   0.6187184), wk =   0.0117188
        k(  104) = (  -0.1325825  -0.4861359   0.5745243), wk =   0.0117188
        k(  105) = (  -0.0883883  -0.4419417   0.5303301), wk =   0.0117188
        k(  106) = (  -0.0441942  -0.3977476   0.4861359), wk =   0.0117188
        k(  107) = (   0.0000000  -0.3535534   0.4419417), wk =   0.0058594
        k(  108) = (   0.5303301   0.0883883   0.0000000), wk =   0.0058594
        k(  109) = (  -0.1325825  -0.5745243   0.6629126), wk =   0.0117188
        k(  110) = (  -0.0883883  -0.5303301   0.6187184), wk =   0.0117188
        k(  111) = (  -0.0441942  -0.4861359   0.5745243), wk =   0.0117188
        k(  112) = (   0.0000000  -0.4419417   0.5303301), wk =   0.0058594
        k(  113) = (  -0.0883883  -0.6187184   0.7071068), wk =   0.0058594
        k(  114) = (  -0.0441942  -0.5745243   0.6629126), wk =   0.0117188
        k(  115) = (  -0.0000000  -0.5303301   0.6187184), wk =   0.0058594
        k(  116) = (  -0.7071068   0.0883883   0.0000000), wk =   0.0029297
        k(  117) = (   0.3535534   0.1767767   0.0000000), wk =   0.0058594
        k(  118) = (   0.3977476   0.2209709  -0.0441942), wk =   0.0117188
        k(  119) = (  -0.2651650  -0.4419417   0.6187184), wk =   0.0117188
        k(  120) = (  -0.2209709  -0.3977476   0.5745243), wk =   0.0117188
        k(  121) = (  -0.1767767  -0.3535534   0.5303301), wk =   0.0058594
        k(  122) = (   0.4419417   0.1767767   0.0000000), wk =   0.0058594
        k(  123) = (  -0.2209709  -0.4861359   0.6629126), wk =   0.0117188
        k(  124) = (  -0.1767767  -0.4419417   0.6187184), wk =   0.0117188
        k(  125) = (  -0.1325825  -0.3977476   0.5745243), wk =   0.0117188
        k(  126) = (  -0.0883883  -0.3535534   0.5303301), wk =   0.0117188
        k(  127) = (  -0.0441942  -0.3093592   0.4861359), wk =   0.0117188
        k(  128) = (   0.0000000  -0.2651650   0.4419417), wk =   0.0058594
        k(  129) = (  -0.1767767  -0.5303301   0.7071068), wk =   0.0058594
        k(  130) = (  -0.1325825  -0.4861359   0.6629126), wk =   0.0117188
        k(  131) = (  -0.0883883  -0.4419417   0.6187184), wk =   0.0117188
        k(  132) = (  -0.0441942  -0.3977476   0.5745243), wk =   0.0117188
        k(  133) = (   0.0000000  -0.3535534   0.5303301), wk =   0.0058594
        k(  134) = (  -0.0883883  -0.5303301   0.7071068), wk =   0.0058594
        k(  135) = (  -0.0441942  -0.4861359   0.6629126), wk =   0.0117188
        k(  136) = (   0.0000000  -0.4419417   0.6187184), wk =   0.0058594
        k(  137) = (  -0.7071068   0.1767767   0.0000000), wk =   0.0029297
        k(  138) = (  -0.1767767  -0.4419417   0.7071068), wk =   0.0058594
        k(  139) = (  -0.1325825  -0.3977476   0.6629126), wk =   0.0117188
        k(  140) = (  -0.0883883  -0.3535534   0.6187184), wk =   0.0058594
        k(  141) = (  -0.0883883  -0.4419417   0.7071068), wk =   0.0058594
        k(  142) = (  -0.0441942  -0.3977476   0.6629126), wk =   0.0117188
        k(  143) = (  -0.0000000  -0.3535534   0.6187184), wk =   0.0058594
        k(  144) = (  -0.7071068   0.2651650   0.0000000), wk =   0.0029297
        k(  145) = (  -0.7071068   0.3535534   0.0000000), wk =   0.0014648

                       cryst. coord.
        k(    1) = (   0.0000000   0.0000000   0.0000000), wk =   0.0002441
        k(    2) = (   0.0000000   0.0000000   0.0625000), wk =   0.0019531
        k(    3) = (   0.0000000   0.0000000   0.1250000), wk =   0.0019531
        k(    4) = (   0.0000000   0.0000000   0.1875000), wk =   0.0019531
        k(    5) = (   0.0000000   0.0000000   0.2500000), wk =   0.0019531
        k(    6) = (   0.0000000   0.0000000   0.3125000), wk =   0.0019531
        k(    7) = (   0.0000000   0.0000000   0.3750000), wk =   0.0019531
        k(    8) = (   0.0000000   0.0000000   0.4375000), wk =   0.0019531
        k(    9) = (   0.0000000   0.0000000  -0.5000000), wk =   0.0009766
        k(   10) = (   0.0000000   0.0625000   0.0625000), wk =   0.0014648
        k(   11) = (   0.0000000   0.0625000   0.1250000), wk =   0.0058594
        k(   12) = (   0.0000000   0.0625000   0.1875000), wk =   0.0058594
        k(   13) = (   0.0000000   0.0625000   0.2500000), wk =   0.0058594
        k(   14) = (   0.0000000   0.0625000   0.3125000), wk =   0.0058594
        k(   15) = (   0.0000000   0.0625000   0.3750000), wk =   0.0058594
        k(   16) = (   0.0000000   0.0625000   0.4375000), wk =   0.0058594
        k(   17) = (   0.0000000   0.0625000  -0.5000000), wk =   0.0058594
        k(   18) = (   0.0000000   0.0625000  -0.4375000), wk =   0.0058594
        k(   19) = (   0.0000000   0.0625000  -0.3750000), wk =   0.0058594
        k(   20) = (   0.0000000   0.0625000  -0.3125000), wk =   0.0058594
        k(   21) = (   0.0000000   0.0625000  -0.2500000), wk =   0.0058594
        k(   22) = (   0.0000000   0.0625000  -0.1875000), wk =   0.0058594
        k(   23) = (   0.0000000   0.0625000  -0.1250000), wk =   0.0058594
        k(   24) = (   0.0000000   0.0625000  -0.0625000), wk =   0.0029297
        k(   25) = (   0.0000000   0.1250000   0.1250000), wk =   0.0014648
        k(   26) = (   0.0000000   0.1250000   0.1875000), wk =   0.0058594
        k(   27) = (   0.0000000   0.1250000   0.2500000), wk =   0.0058594
        k(   28) = (   0.0000000   0.1250000   0.3125000), wk =   0.0058594
        k(   29) = (   0.0000000   0.1250000   0.3750000), wk =   0.0058594
        k(   30) = (   0.0000000   0.1250000   0.4375000), wk =   0.0058594
        k(   31) = (   0.0000000   0.1250000  -0.5000000), wk =   0.0058594
        k(   32) = (   0.0000000   0.1250000  -0.4375000), wk =   0.0058594
        k(   33) = (   0.0000000   0.1250000  -0.3750000), wk =   0.0058594
        k(   34) = (   0.0000000   0.1250000  -0.3125000), wk =   0.0058594
        k(   35) = (   0.0000000   0.1250000  -0.2500000), wk =   0.0058594
        k(   36) = (   0.0000000   0.1250000  -0.1875000), wk =   0.0058594
        k(   37) = (   0.0000000   0.1250000  -0.1250000), wk =   0.0029297
        k(   38) = (   0.0000000   0.1875000   0.1875000), wk =   0.0014648
        k(   39) = (   0.0000000   0.1875000   0.2500000), wk =   0.0058594
        k(   40) = (   0.0000000   0.1875000   0.3125000), wk =   0.0058594
        k(   41) = (   0.0000000   0.1875000   0.3750000), wk =   0.0058594
        k(   42) = (   0.0000000   0.1875000   0.4375000), wk =   0.0058594
        k(   43) = (   0.0000000   0.1875000  -0.5000000), wk =   0.0058594
        k(   44) = (   0.0000000   0.1875000  -0.4375000), wk =   0.0058594
        k(   45) = (   0.0000000   0.1875000  -0.3750000), wk =   0.0058594
        k(   46) = (   0.0000000   0.1875000  -0.3125000), wk =   0.0058594
        k(   47) = (   0.0000000   0.1875000  -0.2500000), wk =   0.0058594
        k(   48) = (   0.0000000   0.1875000  -0.1875000), wk =   0.0029297
        k(   49) = (   0.0000000   0.2500000   0.2500000), wk =   0.0014648
        k(   50) = (   0.0000000   0.2500000   0.3125000), wk =   0.0058594
        k(   51) = (   0.0000000   0.2500000   0.3750000), wk =   0.0058594
        k(   52) = (   0.0000000   0.2500000   0.4375000), wk =   0.0058594
        k(   53) = (   0.0000000   0.2500000  -0.5000000), wk =   0.0058594
        k(   54) = (   0.0000000   0.2500000  -0.4375000), wk =   0.0058594
        k(   55) = (   0.0000000   0.2500000  -0.3750000), wk =   0.0058594
        k(   56) = (   0.0000000   0.2500000  -0.3125000), wk =   0.0058594
        k(   57) = (   0.0000000   0.2500000  -0.2500000), wk =   0.0029297
        k(   58) = (   0.0000000   0.3125000   0.3125000), wk =   0.0014648
        k(   59) = (   0.0000000   0.3125000   0.3750000), wk =   0.0058594
        k(   60) = (   0.0000000   0.3125000   0.4375000), wk =   0.0058594
        k(   61) = (   0.0000000   0.3125000  -0.5000000), wk =   0.0058594
        k(   62) = (   0.0000000   0.3125000  -0.4375000), wk =   0.0058594
        k(   63) = (   0.0000000   0.3125000  -0.3750000), wk =   0.0058594
        k(   64) = (   0.0000000   0.3125000  -0.3125000), wk =   0.0029297
        k(   65) = (   0.0000000   0.3750000   0.3750000), wk =   0.0014648
        k(   66) = (   0.0000000   0.3750000   0.4375000), wk =   0.0058594
        k(   67) = (   0.0000000   0.3750000  -0.5000000), wk =   0.0058594
        k(   68) = (   0.0000000   0.3750000  -0.4375000), wk =   0.0058594
        k(   69) = (   0.0000000   0.3750000  -0.3750000), wk =   0.0029297
        k(   70) = (   0.0000000   0.4375000   0.4375000), wk =   0.0014648
        k(   71) = (   0.0000000   0.4375000  -0.5000000), wk =   0.0058594
        k(   72) = (   0.0000000   0.4375000  -0.4375000), wk =   0.0029297
        k(   73) = (   0.0000000  -0.5000000  -0.5000000), wk =   0.0007324
        k(   74) = (   0.0625000   0.1250000   0.1875000), wk =   0.0058594
        k(   75) = (   0.0625000   0.1250000   0.2500000), wk =   0.0117188
        k(   76) = (   0.0625000   0.1250000   0.3125000), wk =   0.0117188
        k(   77) = (   0.0625000   0.1250000   0.3750000), wk =   0.0117188
        k(   78) = (   0.0625000   0.1250000   0.4375000), wk =   0.0117188
        k(   79) = (   0.0625000   0.1250000  -0.5000000), wk =   0.0117188
        k(   80) = (   0.0625000   0.1250000  -0.4375000), wk =   0.0058594
        k(   81) = (   0.0625000   0.1875000   0.2500000), wk =   0.0058594
        k(   82) = (   0.0625000   0.1875000   0.3125000), wk =   0.0117188
        k(   83) = (   0.0625000   0.1875000   0.3750000), wk =   0.0117188
        k(   84) = (   0.0625000   0.1875000   0.4375000), wk =   0.0117188
        k(   85) = (   0.0625000   0.1875000  -0.5000000), wk =   0.0117188
        k(   86) = (   0.0625000   0.1875000  -0.4375000), wk =   0.0117188
        k(   87) = (   0.0625000   0.1875000  -0.3750000), wk =   0.0117188
        k(   88) = (   0.0625000   0.1875000  -0.3125000), wk =   0.0117188
        k(   89) = (   0.0625000   0.1875000  -0.2500000), wk =   0.0117188
        k(   90) = (   0.0625000   0.1875000  -0.1875000), wk =   0.0117188
        k(   91) = (   0.0625000   0.1875000  -0.1250000), wk =   0.0058594
        k(   92) = (   0.0625000   0.2500000   0.3125000), wk =   0.0058594
        k(   93) = (   0.0625000   0.2500000   0.3750000), wk =   0.0117188
        k(   94) = (   0.0625000   0.2500000   0.4375000), wk =   0.0117188
        k(   95) = (   0.0625000   0.2500000  -0.5000000), wk =   0.0117188
        k(   96) = (   0.0625000   0.2500000  -0.4375000), wk =   0.0117188
        k(   97) = (   0.0625000   0.2500000  -0.3750000), wk =   0.0117188
        k(   98) = (   0.0625000   0.2500000  -0.3125000), wk =   0.0117188
        k(   99) = (   0.0625000   0.2500000  -0.2500000), wk =   0.0117188
        k(  100) = (   0.0625000   0.2500000  -0.1875000), wk =   0.0058594
        k(  101) = (   0.0625000   0.3125000   0.3750000), wk =   0.0058594
        k(  102) = (   0.0625000   0.3125000   0.4375000), wk =   0.0117188
        k(  103) = (   0.0625000   0.3125000  -0.5000000), wk =   0.0117188
        k(  104) = (   0.0625000   0.3125000  -0.4375000), wk =   0.0117188
        k(  105) = (   0.0625000   0.3125000  -0.3750000), wk =   0.0117188
        k(  106) = (   0.0625000   0.3125000  -0.3125000), wk =   0.0117188
        k(  107) = (   0.0625000   0.3125000  -0.2500000), wk =   0.0058594
        k(  108) = (   0.0625000   0.3750000   0.4375000), wk =   0.0058594
        k(  109) = (   0.0625000   0.3750000  -0.5000000), wk =   0.0117188
        k(  110) = (   0.0625000   0.3750000  -0.4375000), wk =   0.0117188
        k(  111) = (   0.0625000   0.3750000  -0.3750000), wk =   0.0117188
        k(  112) = (   0.0625000   0.3750000  -0.3125000), wk =   0.0058594
        k(  113) = (   0.0625000   0.4375000  -0.5000000), wk =   0.0058594
        k(  114) = (   0.0625000   0.4375000  -0.4375000), wk =   0.0117188
        k(  115) = (   0.0625000   0.4375000  -0.3750000), wk =   0.0058594
        k(  116) = (   0.0625000  -0.5000000  -0.4375000), wk =   0.0029297
        k(  117) = (   0.1250000   0.2500000   0.3750000), wk =   0.0058594
        k(  118) = (   0.1250000   0.2500000   0.4375000), wk =   0.0117188
        k(  119) = (   0.1250000   0.2500000  -0.5000000), wk =   0.0117188
        k(  120) = (   0.1250000   0.2500000  -0.4375000), wk =   0.0117188
        k(  121) = (   0.1250000   0.2500000  -0.3750000), wk =   0.0058594
        k(  122) = (   0.1250000   0.3125000   0.4375000), wk =   0.0058594
        k(  123) = (   0.1250000   0.3125000  -0.5000000), wk =   0.0117188
        k(  124) = (   0.1250000   0.3125000  -0.4375000), wk =   0.0117188
        k(  125) = (   0.1250000   0.3125000  -0.3750000), wk =   0.0117188
        k(  126) = (   0.1250000   0.3125000  -0.3125000), wk =   0.0117188
        k(  127) = (   0.1250000   0.3125000  -0.2500000), wk =   0.0117188
        k(  128) = (   0.1250000   0.3125000  -0.1875000), wk =   0.0058594
        k(  129) = (   0.1250000   0.3750000  -0.5000000), wk =   0.0058594
        k(  130) = (   0.1250000   0.3750000  -0.4375000), wk =   0.0117188
        k(  131) = (   0.1250000   0.3750000  -0.3750000), wk =   0.0117188
        k(  132) = (   0.1250000   0.3750000  -0.3125000), wk =   0.0117188
        k(  133) = (   0.1250000   0.3750000  -0.2500000), wk =   0.0058594
        k(  134) = (   0.1250000   0.4375000  -0.4375000), wk =   0.0058594
        k(  135) = (   0.1250000   0.4375000  -0.3750000), wk =   0.0117188
        k(  136) = (   0.1250000   0.4375000  -0.3125000), wk =   0.0058594
        k(  137) = (   0.1250000  -0.5000000  -0.3750000), wk =   0.0029297
        k(  138) = (   0.1875000   0.3750000  -0.4375000), wk =   0.0058594
        k(  139) = (   0.1875000   0.3750000  -0.3750000), wk =   0.0117188
        k(  140) = (   0.1875000   0.3750000  -0.3125000), wk =   0.0058594
        k(  141) = (   0.1875000   0.4375000  -0.3750000), wk =   0.0058594
        k(  142) = (   0.1875000   0.4375000  -0.3125000), wk =   0.0117188
        k(  143) = (   0.1875000   0.4375000  -0.2500000), wk =   0.0058594
        k(  144) = (   0.1875000  -0.5000000  -0.3125000), wk =   0.0029297
        k(  145) = (   0.2500000  -0.5000000  -0.2500000), wk =   0.0014648

     Dense  grid:    70721 G-vectors     FFT dimensions: (  60,  60,  60)

     Largest allocated arrays     est. size (Mb)     dimensions
        Kohn-Sham Wavefunctions         0.62 Mb     (    1134,   36)
        NL pseudopotentials             0.31 Mb     (     567,   36)
        Each V/rho on FFT grid          0.22 Mb     (   14400)
        Each G-vector array             0.03 Mb     (    4421)
        G-vector shells                 0.00 Mb     (     531)
     Largest temporary arrays     est. size (Mb)     dimensions
        Auxiliary wavefunctions         2.49 Mb     (    1134,  144)
        Each subspace H/S matrix        0.32 Mb     (     144,  144)
        Each <psi_i|beta_j> matrix      0.04 Mb     (      36,   2,   36)
        Arrays for rho mixing           1.76 Mb     (   14400,    8)

     Initial potential from superposition of free atoms

     starting charge   27.99723, renormalised to   28.00000
     Starting wfc are   36 randomized atomic wfcs

     total cpu time spent up to now is       11.0 secs

     Self-consistent Calculation

     iteration #  1     ecut=   103.00 Ry     beta=0.70
     Davidson diagonalization with overlap
     ethr =  1.00E-02,  avg # of iterations =  3.5

     Threshold (ethr) on eigenvalues was too large:
     Diagonalizing with lowered threshold

     Davidson diagonalization with overlap
     ethr =  6.56E-05,  avg # of iterations =  3.3

     total cpu time spent up to now is       80.8 secs

     total energy              =    -326.06359068 Ry
     Harris-Foulkes estimate   =    -326.06668980 Ry
     estimated scf accuracy    <       0.02221991 Ry

     iteration #  2     ecut=   103.00 Ry     beta=0.70
     Davidson diagonalization with overlap
     ethr =  7.94E-05,  avg # of iterations =  1.0

     total cpu time spent up to now is      108.3 secs

     total energy              =    -326.06427324 Ry
     Harris-Foulkes estimate   =    -326.06432345 Ry
     estimated scf accuracy    <       0.00146389 Ry

     iteration #  3     ecut=   103.00 Ry     beta=0.70
     Davidson diagonalization with overlap
     ethr =  5.23E-06,  avg # of iterations =  2.6

     total cpu time spent up to now is      146.1 secs

     total energy              =    -326.06446149 Ry
     Harris-Foulkes estimate   =    -326.06447996 Ry
     estimated scf accuracy    <       0.00004896 Ry

     iteration #  4     ecut=   103.00 Ry     beta=0.70
     Davidson diagonalization with overlap
     ethr =  1.75E-07,  avg # of iterations =  2.0

     total cpu time spent up to now is      182.0 secs

     total energy              =    -326.06447494 Ry
     Harris-Foulkes estimate   =    -326.06447329 Ry
     estimated scf accuracy    <       0.00000301 Ry

     iteration #  5     ecut=   103.00 Ry     beta=0.70
     Davidson diagonalization with overlap
     ethr =  1.07E-08,  avg # of iterations =  2.0

     total cpu time spent up to now is      212.3 secs

     End of self-consistent calculation

          k = 0.0000 0.0000 0.0000 (  8801 PWs)   bands (ev):

   -14.6454 -14.6454 -14.6454 -14.6454 -14.6454 -14.6454 -14.5976 -14.5976
   -14.5976 -14.5976 -14.3484 -14.3484 -14.3484 -14.3484 -14.3483 -14.3483
   -14.3483 -14.3483 -14.3483 -14.3483  -3.1841  -3.1841   5.7040   5.7040
     6.9850   6.9850   6.9850   6.9850   6.9850   6.9850   9.0499   9.0499
     9.0499   9.0499   9.0499   9.0499

     occupation numbers 
     1.0000   1.0000   1.0000   1.0000   1.0000   1.0000   1.0000   1.0000
     1.0000   1.0000   1.0000   1.0000   1.0000   1.0000   1.0000   1.0000
     1.0000   1.0000   1.0000   1.0000   1.0000   1.0000   1.0000   1.0000
     0.0000   0.0000   0.0000   0.0000   0.0000   0.0000   0.0000   0.0000
     0.0000   0.0000   0.0000   0.0000

          k = 0.0442 0.0442-0.0442 (  8813 PWs)   bands (ev):

   -14.6481 -14.6481 -14.6481 -14.6481 -14.6446 -14.6446 -14.5941 -14.5941
   -14.5941 -14.5941 -14.3591 -14.3591 -14.3591 -14.3591 -14.3493 -14.3493
   -14.3382 -14.3382 -14.3382 -14.3382  -3.1493  -3.1493   5.3093   5.3093
     6.9125   6.9125   6.9125   6.9125   7.1669   7.1669   9.1447   9.1447
     9.1447   9.1447   9.1789   9.1789

     occupation numbers 
     1.0000   1.0000   1.0000   1.0000   1.0000   1.0000   1.0000   1.0000
     1.0000   1.0000   1.0000   1.0000   1.0000   1.0000   1.0000   1.0000
     1.0000   1.0000   1.0000   1.0000   1.0000   1.0000   1.0000   1.0000
     0.0243   0.0243   0.0243   0.0243   0.0000   0.0000   0.0000   0.0000
     0.0000   0.0000   0.0000   0.0000

          k = 0.0884 0.0884-0.0884 (  8855 PWs)   bands (ev):

   -14.6540 -14.6540 -14.6540 -14.6540 -14.6423 -14.6423 -14.5857 -14.5857
   -14.5857 -14.5857 -14.3697 -14.3697 -14.3697 -14.3697 -14.3521 -14.3521
   -14.3291 -14.3291 -14.3291 -14.3291  -3.0459  -3.0459   4.5488   4.5488
     6.7351   6.7351   6.7351   6.7351   7.2967   7.2967   9.3787   9.3787
     9.3787   9.3787   9.6110   9.6110

     occupation numbers 
     1.0000   1.0000   1.0000   1.0000   1.0000   1.0000   1.0000   1.0000
     1.0000   1.0000   1.0000   1.0000   1.0000   1.0000   1.0000   1.0000
     1.0000   1.0000   1.0000   1.0000   1.0000   1.0000   1.0000   1.0000
     1.0000   1.0000   1.0000   1.0000   0.0000   0.0000   0.0000   0.0000
     0.0000   0.0000   0.0000   0.0000

          k = 0.1326 0.1326-0.1326 (  8852 PWs)   bands (ev):

   -14.6603 -14.6603 -14.6603 -14.6603 -14.6387 -14.6387 -14.5758 -14.5758
   -14.5758 -14.5758 -14.3797 -14.3797 -14.3797 -14.3797 -14.3564 -14.3564
   -14.3214 -14.3214 -14.3214 -14.3214  -2.8766  -2.8766   3.7194   3.7194
     6.5204   6.5204   6.5204   6.5204   7.2334   7.2334   9.6541   9.6541
     9.6541   9.6541  10.2910  10.2910

     occupation numbers 
     1.0000   1.0000   1.0000   1.0000   1.0000   1.0000   1.0000   1.0000
     1.0000   1.0000   1.0000   1.0000   1.0000   1.0000   1.0000   1.0000
     1.0000   1.0000   1.0000   1.0000   1.0000   1.0000   1.0000   1.0000
     1.0000   1.0000   1.0000   1.0000   0.0000   0.0000   0.0000   0.0000
     0.0000   0.0000   0.0000   0.0000

          k = 0.1768 0.1768-0.1768 (  8841 PWs)   bands (ev):

   -14.6658 -14.6658 -14.6658 -14.6658 -14.6344 -14.6344 -14.5663 -14.5663
   -14.5663 -14.5663 -14.3881 -14.3881 -14.3881 -14.3881 -14.3615 -14.3615
   -14.3153 -14.3153 -14.3153 -14.3153  -2.6480  -2.6480   2.9080   2.9080
     6.3138   6.3138   6.3138   6.3138   7.0937   7.0937   9.8848   9.8848
     9.8848   9.8848  11.0996  11.0996

     occupation numbers 
     1.0000   1.0000   1.0000   1.0000   1.0000   1.0000   1.0000   1.0000
     1.0000   1.0000   1.0000   1.0000   1.0000   1.0000   1.0000   1.0000
     1.0000   1.0000   1.0000   1.0000   1.0000   1.0000   1.0000   1.0000
     1.0000   1.0000   1.0000   1.0000   0.0000   0.0000   0.0000   0.0000
     0.0000   0.0000   0.0000   0.0000

          k = 0.2210 0.2210-0.2210 (  8832 PWs)   bands (ev):

   -14.6699 -14.6699 -14.6699 -14.6699 -14.6299 -14.6299 -14.5587 -14.5587
   -14.5587 -14.5587 -14.3947 -14.3947 -14.3947 -14.3947 -14.3667 -14.3667
   -14.3108 -14.3108 -14.3108 -14.3108  -2.3729  -2.3729   2.1600   2.1600
     6.1390   6.1390   6.1390   6.1390   6.9520   6.9520  10.0247  10.0247
    10.0247  10.0247  11.9640  11.9640

     occupation numbers 
     1.0000   1.0000   1.0000   1.0000   1.0000   1.0000   1.0000   1.0000
     1.0000   1.0000   1.0000   1.0000   1.0000   1.0000   1.0000   1.0000
     1.0000   1.0000   1.0000   1.0000   1.0000   1.0000   1.0000   1.0000
     1.0000   1.0000   1.0000   1.0000   0.0000   0.0000   0.0000   0.0000
     0.0000   0.0000   0.0000   0.0000

          k = 0.2652 0.2652-0.2652 (  8826 PWs)   bands (ev):

   -14.6727 -14.6727 -14.6727 -14.6727 -14.6261 -14.6261 -14.5533 -14.5533
   -14.5533 -14.5533 -14.3990 -14.3990 -14.3990 -14.3990 -14.3713 -14.3713
   -14.3077 -14.3077 -14.3077 -14.3077  -2.0796  -2.0796   1.5201   1.5201
     6.0083   6.0083   6.0083   6.0083   6.8393   6.8393  10.0819  10.0819
    10.0819  10.0819  12.6254  12.6254

     occupation numbers 
     1.0000   1.0000   1.0000   1.0000   1.0000   1.0000   1.0000   1.0000
     1.0000   1.0000   1.0000   1.0000   1.0000   1.0000   1.0000   1.0000
     1.0000   1.0000   1.0000   1.0000   1.0000   1.0000   1.0000   1.0000
     1.0000   1.0000   1.0000   1.0000   1.0000   1.0000   0.0000   0.0000
     0.0000   0.0000   0.0000   0.0000

          k = 0.3094 0.3094-0.3094 (  8829 PWs)   bands (ev):

   -14.6742 -14.6742 -14.6742 -14.6742 -14.6234 -14.6234 -14.5502 -14.5502
   -14.5502 -14.5502 -14.4014 -14.4014 -14.4014 -14.4014 -14.3743 -14.3743
   -14.3060 -14.3060 -14.3060 -14.3060  -1.8282  -1.8282   1.0575   1.0575
     5.9279   5.9279   5.9279   5.9279   6.7685   6.7685  10.0944  10.0944
    10.0944  10.0944  12.6494  12.6494

     occupation numbers 
     1.0000   1.0000   1.0000   1.0000   1.0000   1.0000   1.0000   1.0000
     1.0000   1.0000   1.0000   1.0000   1.0000   1.0000   1.0000   1.0000
     1.0000   1.0000   1.0000   1.0000   1.0000   1.0000   1.0000   1.0000
     1.0000   1.0000   1.0000   1.0000   1.0000   1.0000   0.0000   0.0000
     0.0000   0.0000   0.0000   0.0000

          k =-0.3536-0.3536 0.3536 (  8802 PWs)   bands (ev):

   -14.6746 -14.6746 -14.6746 -14.6746 -14.6225 -14.6225 -14.5492 -14.5492
   -14.5492 -14.5492 -14.4021 -14.4021 -14.4021 -14.4021 -14.3754 -14.3754
   -14.3054 -14.3054 -14.3054 -14.3054  -1.7219  -1.7219   0.8804   0.8804
     5.9008   5.9008   5.9008   5.9008   6.7445   6.7445  10.0947  10.0947
    10.0947  10.0947  12.6243  12.6243

     occupation numbers 
     1.0000   1.0000   1.0000   1.0000   1.0000   1.0000   1.0000   1.0000
     1.0000   1.0000   1.0000   1.0000   1.0000   1.0000   1.0000   1.0000
     1.0000   1.0000   1.0000   1.0000   1.0000   1.0000   1.0000   1.0000
     1.0000   1.0000   1.0000   1.0000   1.0000   1.0000   0.0000   0.0000
     0.0000   0.0000   0.0000   0.0000

          k = 0.0884 0.0000 0.0000 (  8809 PWs)   bands (ev):

   -14.6477 -14.6477 -14.6473 -14.6473 -14.6473 -14.6473 -14.5951 -14.5951
   -14.5905 -14.5905 -14.3682 -14.3682 -14.3507 -14.3507 -14.3458 -14.3458
   -14.3458 -14.3458 -14.3341 -14.3341  -3.1377  -3.1377   5.2294   5.2294
     6.7799   6.7799   6.7799   6.7799   7.4404   7.4404   8.9049   8.9049
     9.3144   9.3144   9.3144   9.3144

     occupation numbers 
     1.0000   1.0000   1.0000   1.0000   1.0000   1.0000   1.0000   1.0000
     1.0000   1.0000   1.0000   1.0000   1.0000   1.0000   1.0000   1.0000
     1.0000   1.0000   1.0000   1.0000   1.0000   1.0000   1.0000   1.0000
     1.0000   1.0000   1.0000   1.0000   0.0000   0.0000   0.0000   0.0000
     0.0000   0.0000   0.0000   0.0000

          k = 0.1326 0.0442-0.0442 (  8853 PWs)   bands (ev):

   -14.6538 -14.6538 -14.6511 -14.6511 -14.6452 -14.6452 -14.5899 -14.5899
   -14.5819 -14.5819 -14.3796 -14.3796 -14.3597 -14.3597 -14.3460 -14.3460
   -14.3373 -14.3373 -14.3271 -14.3271  -3.0569  -3.0569   4.6655   4.6655
     6.5720   6.5720   6.6033   6.6033   7.6931   7.6931   8.9036   8.9036
     9.5973   9.5973   9.6710   9.6710

     occupation numbers 
     1.0000   1.0000   1.0000   1.0000   1.0000   1.0000   1.0000   1.0000
     1.0000   1.0000   1.0000   1.0000   1.0000   1.0000   1.0000   1.0000
     1.0000   1.0000   1.0000   1.0000   1.0000   1.0000   1.0000   1.0000
     1.0000   1.0000   1.0000   1.0000   0.0000   0.0000   0.0000   0.0000
     0.0000   0.0000   0.0000   0.0000

          k = 0.1768 0.0884-0.0884 (  8848 PWs)   bands (ev):

   -14.6611 -14.6611 -14.6569 -14.6569 -14.6411 -14.6411 -14.5813 -14.5813
   -14.5714 -14.5714 -14.3904 -14.3904 -14.3699 -14.3699 -14.3500 -14.3500
   -14.3285 -14.3285 -14.3193 -14.3193  -2.9092  -2.9092   3.9121   3.9121
     6.3498   6.3498   6.3859   6.3859   7.7114   7.7114   9.1306   9.1306
     9.9030   9.9031  10.2223  10.2223

     occupation numbers 
     1.0000   1.0000   1.0000   1.0000   1.0000   1.0000   1.0000   1.0000
     1.0000   1.0000   1.0000   1.0000   1.0000   1.0000   1.0000   1.0000
     1.0000   1.0000   1.0000   1.0000   1.0000   1.0000   1.0000   1.0000
     1.0000   1.0000   1.0000   1.0000   0.0000   0.0000   0.0000   0.0000
     0.0000   0.0000   0.0000   0.0000

          k = 0.2210 0.1326-0.1326 (  8860 PWs)   bands (ev):

   -14.6677 -14.6677 -14.6627 -14.6627 -14.6358 -14.6358 -14.5719 -14.5719
   -14.5613 -14.5613 -14.3994 -14.3994 -14.3792 -14.3792 -14.3562 -14.3562
   -14.3210 -14.3210 -14.3124 -14.3124  -2.6993  -2.6993   3.1240   3.1240
     6.1454   6.1454   6.1495   6.1495   7.5967   7.5967   9.4431   9.4431
    10.1507  10.1507  10.8669  10.8669

     occupation numbers 
     1.0000   1.0000   1.0000   1.0000   1.0000   1.0000   1.0000   1.0000
     1.0000   1.0000   1.0000   1.0000   1.0000   1.0000   1.0000   1.0000
     1.0000   1.0000   1.0000   1.0000   1.0000   1.0000   1.0000   1.0000
     1.0000   1.0000   1.0000   1.0000   0.0000   0.0000   0.0000   0.0000
     0.0000   0.0000   0.0000   0.0000

          k = 0.2652 0.1768-0.1768 (  8840 PWs)   bands (ev):

   -14.6729 -14.6729 -14.6675 -14.6675 -14.6298 -14.6298 -14.5634 -14.5634
   -14.5531 -14.5531 -14.4058 -14.4058 -14.3874 -14.3874 -14.3633 -14.3633
   -14.3150 -14.3150 -14.3070 -14.3070  -2.4376  -2.4376   2.3704   2.3704
     5.9202   5.9202   5.9903   5.9903   7.4514   7.4514   9.7038   9.7038
    10.2891  10.2891  11.5454  11.5454

     occupation numbers 
     1.0000   1.0000   1.0000   1.0000   1.0000   1.0000   1.0000   1.0000
     1.0000   1.0000   1.0000   1.0000   1.0000   1.0000   1.0000   1.0000
     1.0000   1.0000   1.0000   1.0000   1.0000   1.0000   1.0000   1.0000
     1.0000   1.0000   1.0000   1.0000   0.0000   0.0000   0.0000   0.0000
     0.0000   0.0000   0.0000   0.0000

          k = 0.3094 0.2210-0.2210 (  8845 PWs)   bands (ev):

   -14.6765 -14.6765 -14.6711 -14.6711 -14.6241 -14.6241 -14.5562 -14.5562
   -14.5479 -14.5479 -14.4089 -14.4089 -14.3943 -14.3943 -14.3704 -14.3704
   -14.3103 -14.3103 -14.3032 -14.3032  -2.1456  -2.1456   1.7001   1.7001
     5.7318   5.7318   5.8819   5.8819   7.3219   7.3219   9.8632   9.8632
    10.3211  10.3211  12.2139  12.2140

     occupation numbers 
     1.0000   1.0000   1.0000   1.0000   1.0000   1.0000   1.0000   1.0000
     1.0000   1.0000   1.0000   1.0000   1.0000   1.0000   1.0000   1.0000
     1.0000   1.0000   1.0000   1.0000   1.0000   1.0000   1.0000   1.0000
     1.0000   1.0000   1.0000   1.0000   0.0000   0.0000   0.0000   0.0000
     0.0000   0.0000   0.0000   0.0000

          k = 0.3536 0.2652-0.2652 (  8825 PWs)   bands (ev):

   -14.6786 -14.6786 -14.6737 -14.6737 -14.6196 -14.6196 -14.5508 -14.5508
   -14.5458 -14.5458 -14.4088 -14.4088 -14.3997 -14.3997 -14.3763 -14.3763
   -14.3068 -14.3068 -14.3011 -14.3011  -1.8699  -1.8699   1.1741   1.1741
     5.5913   5.5913   5.8289   5.8289   7.2276   7.2276   9.9502   9.9502
    10.2879  10.2879  12.6453  12.6453

     occupation numbers 
     1.0000   1.0000   1.0000   1.0000   1.0000   1.0000   1.0000   1.0000
     1.0000   1.0000   1.0000   1.0000   1.0000   1.0000   1.0000   1.0000
     1.0000   1.0000   1.0000   1.0000   1.0000   1.0000   1.0000   1.0000
     1.0000   1.0000   1.0000   1.0000   0.0000   0.0000   0.0000   0.0000
     0.0000   0.0000   0.0000   0.0000

          k =-0.3094-0.3977 0.3977 (  8824 PWs)   bands (ev):

   -14.6791 -14.6791 -14.6753 -14.6753 -14.6171 -14.6171 -14.5471 -14.5471
   -14.5464 -14.5464 -14.4061 -14.4061 -14.4039 -14.4039 -14.3801 -14.3801
   -14.3046 -14.3046 -14.3007 -14.3007  -1.7021  -1.7021   0.8913   0.8913
     5.5046   5.5046   5.8326   5.8326   7.1768   7.1768  10.0111  10.0111
    10.2303  10.2303  12.7384  12.7384

     occupation numbers 
     1.0000   1.0000   1.0000   1.0000   1.0000   1.0000   1.0000   1.0000
     1.0000   1.0000   1.0000   1.0000   1.0000   1.0000   1.0000   1.0000
     1.0000   1.0000   1.0000   1.0000   1.0000   1.0000   1.0000   1.0000
     1.0000   1.0000   1.0000   1.0000   0.0000   0.0000   0.0000   0.0000
     0.0000   0.0000   0.0000   0.0000

          k =-0.2652-0.3536 0.3536 (  8832 PWs)   bands (ev):

   -14.6783 -14.6783 -14.6760 -14.6760 -14.6172 -14.6172 -14.5490 -14.5490
   -14.5454 -14.5454 -14.4065 -14.4065 -14.4022 -14.4022 -14.3806 -14.3806
   -14.3035 -14.3035 -14.3021 -14.3021  -1.7391  -1.7391   0.9515   0.9515
     5.4753   5.4753   5.8920   5.8920   7.1724   7.1724  10.0709  10.0709
    10.1680  10.1680  12.7513  12.7513

     occupation numbers 
     1.0000   1.0000   1.0000   1.0000   1.0000   1.0000   1.0000   1.0000
     1.0000   1.0000   1.0000   1.0000   1.0000   1.0000   1.0000   1.0000
     1.0000   1.0000   1.0000   1.0000   1.0000   1.0000   1.0000   1.0000
     1.0000   1.0000   1.0000   1.0000   0.0000   0.0000   0.0000   0.0000
     0.0000   0.0000   0.0000   0.0000

          k =-0.2210-0.3094 0.3094 (  8826 PWs)   bands (ev):

   -14.6761 -14.6761 -14.6756 -14.6756 -14.6199 -14.6199 -14.5532 -14.5532
   -14.5461 -14.5461 -14.4071 -14.4071 -14.3981 -14.3981 -14.3770 -14.3770
   -14.3050 -14.3050 -14.3037 -14.3037  -1.9559  -1.9559   1.3293   1.3293
     5.5058   5.5058   6.0040   6.0040   7.2141   7.2141  10.0972  10.0972
    10.1265  10.1265  12.6383  12.6383

     occupation numbers 
     1.0000   1.0000   1.0000   1.0000   1.0000   1.0000   1.0000   1.0000
     1.0000   1.0000   1.0000   1.0000   1.0000   1.0000   1.0000   1.0000
     1.0000   1.0000   1.0000   1.0000   1.0000   1.0000   1.0000   1.0000
     1.0000   1.0000   1.0000   1.0000   0.0000   0.0000   0.0000   0.0000
     0.0000   0.0000   0.0000   0.0000

          k =-0.1768-0.2652 0.2652 (  8836 PWs)   bands (ev):

   -14.6738 -14.6738 -14.6725 -14.6725 -14.6245 -14.6245 -14.5589 -14.5589
   -14.5498 -14.5498 -14.4049 -14.4049 -14.3938 -14.3938 -14.3704 -14.3704
   -14.3096 -14.3096 -14.3054 -14.3054  -2.2447  -2.2447   1.9121   1.9121
     5.5975   5.5975   6.1630   6.1630   7.2973   7.2973   9.9936   9.9936
    10.1439  10.1439  12.0680  12.0680

     occupation numbers 
     1.0000   1.0000   1.0000   1.0000   1.0000   1.0000   1.0000   1.0000
     1.0000   1.0000   1.0000   1.0000   1.0000   1.0000   1.0000   1.0000
     1.0000   1.0000   1.0000   1.0000   1.0000   1.0000   1.0000   1.0000
     1.0000   1.0000   1.0000   1.0000   0.0000   0.0000   0.0000   0.0000
     0.0000   0.0000   0.0000   0.0000

          k =-0.1326-0.2210 0.2210 (  8852 PWs)   bands (ev):

   -14.6706 -14.6706 -14.6676 -14.6676 -14.6304 -14.6304 -14.5660 -14.5660
   -14.5566 -14.5566 -14.3997 -14.3997 -14.3882 -14.3882 -14.3623 -14.3623
   -14.3158 -14.3158 -14.3087 -14.3087  -2.5302  -2.5302   2.6148   2.6148
     5.7509   5.7509   6.3589   6.3589   7.4100   7.4100   9.8259   9.8259
    10.0556  10.0556  11.3384  11.3384

     occupation numbers 
     1.0000   1.0000   1.0000   1.0000   1.0000   1.0000   1.0000   1.0000
     1.0000   1.0000   1.0000   1.0000   1.0000   1.0000   1.0000   1.0000
     1.0000   1.0000   1.0000   1.0000   1.0000   1.0000   1.0000   1.0000
     1.0000   1.0000   1.0000   1.0000   0.0000   0.0000   0.0000   0.0000
     0.0000   0.0000   0.0000   0.0000

          k =-0.0884-0.1768 0.1768 (  8856 PWs)   bands (ev):

   -14.6657 -14.6657 -14.6615 -14.6615 -14.6363 -14.6363 -14.5745 -14.5745
   -14.5660 -14.5660 -14.3916 -14.3916 -14.3811 -14.3811 -14.3543 -14.3543
   -14.3235 -14.3235 -14.3138 -14.3138  -2.7761  -2.7761   3.3824   3.3824
     5.9657   5.9657   6.5742   6.5742   7.5229   7.5229   9.5900   9.5901
     9.7997   9.7997  10.6842  10.6842

     occupation numbers 
     1.0000   1.0000   1.0000   1.0000   1.0000   1.0000   1.0000   1.0000
     1.0000   1.0000   1.0000   1.0000   1.0000   1.0000   1.0000   1.0000
     1.0000   1.0000   1.0000   1.0000   1.0000   1.0000   1.0000   1.0000
     1.0000   1.0000   1.0000   1.0000   0.0000   0.0000   0.0000   0.0000
     0.0000   0.0000   0.0000   0.0000

          k =-0.0442-0.1326 0.1326 (  8860 PWs)   bands (ev):

   -14.6596 -14.6596 -14.6548 -14.6548 -14.6413 -14.6413 -14.5834 -14.5834
   -14.5767 -14.5767 -14.3816 -14.3816 -14.3726 -14.3726 -14.3474 -14.3474
   -14.3326 -14.3326 -14.3206 -14.3206  -2.9659  -2.9659   4.1614   4.1614
     6.2411   6.2411   6.7765   6.7765   7.5667   7.5667   9.3361   9.3361
     9.4432   9.4432  10.1131  10.1131

     occupation numbers 
     1.0000   1.0000   1.0000   1.0000   1.0000   1.0000   1.0000   1.0000
     1.0000   1.0000   1.0000   1.0000   1.0000   1.0000   1.0000   1.0000
     1.0000   1.0000   1.0000   1.0000   1.0000   1.0000   1.0000   1.0000
     1.0000   1.0000   1.0000   1.0000   0.0000   0.0000   0.0000   0.0000
     0.0000   0.0000   0.0000   0.0000

          k = 0.0000-0.0884 0.0884 (  8839 PWs)   bands (ev):

   -14.6531 -14.6531 -14.6492 -14.6492 -14.6445 -14.6445 -14.5909 -14.5909
   -14.5869 -14.5869 -14.3704 -14.3704 -14.3636 -14.3636 -14.3433 -14.3433
   -14.3414 -14.3414 -14.3288 -14.3288  -3.0916  -3.0916   4.8642   4.8642
     6.5760   6.5760   6.9098   6.9098   7.4271   7.4271   9.1571   9.1571
     9.1958   9.1958   9.5911   9.5911

     occupation numbers 
     1.0000   1.0000   1.0000   1.0000   1.0000   1.0000   1.0000   1.0000
     1.0000   1.0000   1.0000   1.0000   1.0000   1.0000   1.0000   1.0000
     1.0000   1.0000   1.0000   1.0000   1.0000   1.0000   1.0000   1.0000
     1.0000   1.0000   0.8010   0.8010   0.0000   0.0000   0.0000   0.0000
     0.0000   0.0000   0.0000   0.0000

          k = 0.1768 0.0000 0.0000 (  8845 PWs)   bands (ev):

   -14.6524 -14.6524 -14.6524 -14.6524 -14.6509 -14.6509 -14.5879 -14.5879
   -14.5730 -14.5730 -14.3929 -14.3929 -14.3577 -14.3577 -14.3388 -14.3388
   -14.3388 -14.3388 -14.3261 -14.3261  -2.9988  -2.9988   4.4159   4.4159
     6.3496   6.3496   6.3496   6.3496   8.1613   8.1613   8.5842   8.5842
     9.9212   9.9212   9.9212   9.9212

     occupation numbers 
     1.0000   1.0000   1.0000   1.0000   1.0000   1.0000   1.0000   1.0000
     1.0000   1.0000   1.0000   1.0000   1.0000   1.0000   1.0000   1.0000
     1.0000   1.0000   1.0000   1.0000   1.0000   1.0000   1.0000   1.0000
     1.0000   1.0000   1.0000   1.0000   0.0000   0.0000   0.0000   0.0000
     0.0000   0.0000   0.0000   0.0000

          k = 0.2210 0.0442-0.0442 (  8862 PWs)   bands (ev):

   -14.6602 -14.6602 -14.6568 -14.6568 -14.6467 -14.6467 -14.5812 -14.5812
   -14.5617 -14.5617 -14.4058 -14.4058 -14.3654 -14.3654 -14.3393 -14.3393
   -14.3318 -14.3318 -14.3205 -14.3205  -2.8729  -2.8729   3.8729   3.8729
     6.1065   6.1065   6.1224   6.1224   8.3440   8.3440   8.5791   8.5791
    10.2676  10.2676  10.3494  10.3494

     occupation numbers 
     1.0000   1.0000   1.0000   1.0000   1.0000   1.0000   1.0000   1.0000
     1.0000   1.0000   1.0000   1.0000   1.0000   1.0000   1.0000   1.0000
     1.0000   1.0000   1.0000   1.0000   1.0000   1.0000   1.0000   1.0000
     1.0000   1.0000   1.0000   1.0000   0.0000   0.0000   0.0000   0.0000
     0.0000   0.0000   0.0000   0.0000

          k = 0.2652 0.0884-0.0884 (  8862 PWs)   bands (ev):

   -14.6685 -14.6685 -14.6621 -14.6621 -14.6396 -14.6396 -14.5724 -14.5724
   -14.5507 -14.5507 -14.4168 -14.4168 -14.3752 -14.3752 -14.3463 -14.3463
   -14.3238 -14.3238 -14.3121 -14.3121  -2.6829  -2.6829   3.1971   3.1971
     5.8261   5.8261   5.9232   5.9232   8.2705   8.2705   8.8729   8.8729
    10.5568  10.5568  10.7840  10.7840

     occupation numbers 
     1.0000   1.0000   1.0000   1.0000   1.0000   1.0000   1.0000   1.0000
     1.0000   1.0000   1.0000   1.0000   1.0000   1.0000   1.0000   1.0000
     1.0000   1.0000   1.0000   1.0000   1.0000   1.0000   1.0000   1.0000
     1.0000   1.0000   1.0000   1.0000   0.0000   0.0000   0.0000   0.0000
     0.0000   0.0000   0.0000   0.0000

          k = 0.3094 0.1326-0.1326 (  8859 PWs)   bands (ev):

   -14.6758 -14.6758 -14.6672 -14.6672 -14.6309 -14.6309 -14.5632 -14.5632
   -14.5416 -14.5416 -14.4248 -14.4248 -14.3847 -14.3847 -14.3559 -14.3559
   -14.3166 -14.3166 -14.3042 -14.3042  -2.4368  -2.4368   2.4953   2.4953
     5.5429   5.5429   5.7698   5.7698   8.1290   8.1290   9.2568   9.2568
    10.7259  10.7259  11.1060  11.1060

     occupation numbers 
     1.0000   1.0000   1.0000   1.0000   1.0000   1.0000   1.0000   1.0000
     1.0000   1.0000   1.0000   1.0000   1.0000   1.0000   1.0000   1.0000
     1.0000   1.0000   1.0000   1.0000   1.0000   1.0000   1.0000   1.0000
     1.0000   1.0000   1.0000   1.0000   0.0000   0.0000   0.0000   0.0000
     0.0000   0.0000   0.0000   0.0000

          k = 0.3536 0.1768-0.1768 (  8855 PWs)   bands (ev):

   -14.6817 -14.6817 -14.6714 -14.6714 -14.6217 -14.6217 -14.5547 -14.5547
   -14.5359 -14.5359 -14.4286 -14.4286 -14.3937 -14.3937 -14.3666 -14.3666
   -14.3107 -14.3107 -14.2979 -14.2979  -2.1507  -2.1507   1.8344   1.8344
     5.2918   5.2918   5.6716   5.6716   7.9861   7.9861   9.5820   9.5820
    10.7630  10.7631  11.4649  11.4649

     occupation numbers 
     1.0000   1.0000   1.0000   1.0000   1.0000   1.0000   1.0000   1.0000
     1.0000   1.0000   1.0000   1.0000   1.0000   1.0000   1.0000   1.0000
     1.0000   1.0000   1.0000   1.0000   1.0000   1.0000   1.0000   1.0000
     1.0000   1.0000   1.0000   1.0000   0.0000   0.0000   0.0000   0.0000
     0.0000   0.0000   0.0000   0.0000

          k = 0.3977 0.2210-0.2210 (  8836 PWs)   bands (ev):

   -14.6856 -14.6856 -14.6748 -14.6748 -14.6134 -14.6134 -14.5472 -14.5472
   -14.5344 -14.5344 -14.4275 -14.4275 -14.4018 -14.4018 -14.3768 -14.3768
   -14.3059 -14.3059 -14.2937 -14.2937  -1.8605  -1.8605   1.2763   1.2763
     5.0907   5.0907   5.6330   5.6330   7.8699   7.8699   9.7816   9.7816
    10.7077  10.7077  11.9829  11.9829

     occupation numbers 
     1.0000   1.0000   1.0000   1.0000   1.0000   1.0000   1.0000   1.0000
     1.0000   1.0000   1.0000   1.0000   1.0000   1.0000   1.0000   1.0000
     1.0000   1.0000   1.0000   1.0000   1.0000   1.0000   1.0000   1.0000
     1.0000   1.0000   1.0000   1.0000   0.0000   0.0000   0.0000   0.0000
     0.0000   0.0000   0.0000   0.0000

          k =-0.2652-0.4419 0.4419 (  8832 PWs)   bands (ev):

   -14.6876 -14.6876 -14.6772 -14.6772 -14.6072 -14.6072 -14.5411 -14.5411
   -14.5368 -14.5368 -14.4219 -14.4219 -14.4089 -14.4089 -14.3852 -14.3852
   -14.3024 -14.3024 -14.2917 -14.2917  -1.6421  -1.6421   0.9111   0.9111
     4.9486   4.9486   5.6550   5.6550   7.7932   7.7932   9.9010   9.9010
    10.6083  10.6083  12.5514  12.5514

     occupation numbers 
     1.0000   1.0000   1.0000   1.0000   1.0000   1.0000   1.0000   1.0000
     1.0000   1.0000   1.0000   1.0000   1.0000   1.0000   1.0000   1.0000
     1.0000   1.0000   1.0000   1.0000   1.0000   1.0000   1.0000   1.0000
     1.0000   1.0000   1.0000   1.0000   0.0000   0.0000   0.0000   0.0000
     0.0000   0.0000   0.0000   0.0000

          k =-0.2210-0.3977 0.3977 (  8821 PWs)   bands (ev):

   -14.6874 -14.6874 -14.6787 -14.6787 -14.6045 -14.6045 -14.5420 -14.5420
   -14.5369 -14.5369 -14.4145 -14.4145 -14.4128 -14.4128 -14.3908 -14.3908
   -14.3001 -14.3001 -14.2922 -14.2922  -1.6067  -1.6067   0.8558   0.8558
     4.8716   4.8716   5.7360   5.7360   7.7607   7.7607  10.0005  10.0005
    10.4929  10.4929  12.8577  12.8577

     occupation numbers 
     1.0000   1.0000   1.0000   1.0000   1.0000   1.0000   1.0000   1.0000
     1.0000   1.0000   1.0000   1.0000   1.0000   1.0000   1.0000   1.0000
     1.0000   1.0000   1.0000   1.0000   1.0000   1.0000   1.0000   1.0000
     1.0000   1.0000   1.0000   1.0000   0.0000   0.0000   0.0000   0.0000
     0.0000   0.0000   0.0000   0.0000

          k =-0.1768-0.3536 0.3536 (  8818 PWs)   bands (ev):

   -14.6852 -14.6852 -14.6791 -14.6791 -14.6061 -14.6061 -14.5484 -14.5484
   -14.5355 -14.5355 -14.4175 -14.4175 -14.4025 -14.4025 -14.3917 -14.3917
   -14.2993 -14.2993 -14.2953 -14.2953  -1.7787  -1.7787   1.1352   1.1352
     4.8652   4.8652   5.8712   5.8712   7.7715   7.7715  10.1018  10.1018
    10.3642  10.3643  12.6026  12.6026

     occupation numbers 
     1.0000   1.0000   1.0000   1.0000   1.0000   1.0000   1.0000   1.0000
     1.0000   1.0000   1.0000   1.0000   1.0000   1.0000   1.0000   1.0000
     1.0000   1.0000   1.0000   1.0000   1.0000   1.0000   1.0000   1.0000
     1.0000   1.0000   1.0000   1.0000   0.0000   0.0000   0.0000   0.0000
     0.0000   0.0000   0.0000   0.0000

          k =-0.1326-0.3094 0.3094 (  8836 PWs)   bands (ev):

   -14.6809 -14.6809 -14.6781 -14.6781 -14.6116 -14.6116 -14.5553 -14.5553
   -14.5379 -14.5379 -14.4169 -14.4169 -14.3970 -14.3970 -14.3834 -14.3834
   -14.3010 -14.3010 -14.3001 -14.3001  -2.0569  -2.0569   1.6420   1.6420
     4.9358   4.9358   6.0526   6.0526   7.8181   7.8181  10.1823  10.1823
    10.2043  10.2043  11.9499  11.9499

     occupation numbers 
     1.0000   1.0000   1.0000   1.0000   1.0000   1.0000   1.0000   1.0000
     1.0000   1.0000   1.0000   1.0000   1.0000   1.0000   1.0000   1.0000
     1.0000   1.0000   1.0000   1.0000   1.0000   1.0000   1.0000   1.0000
     1.0000   1.0000   1.0000   1.0000   0.0000   0.0000   0.0000   0.0000
     0.0000   0.0000   0.0000   0.0000

          k =-0.0884-0.2652 0.2652 (  8843 PWs)   bands (ev):

   -14.6756 -14.6756 -14.6750 -14.6750 -14.6198 -14.6198 -14.5623 -14.5623
   -14.5443 -14.5443 -14.4122 -14.4122 -14.3932 -14.3932 -14.3704 -14.3704
   -14.3089 -14.3089 -14.3026 -14.3026  -2.3493  -2.3493   2.2701   2.2701
     5.0928   5.0928   6.2663   6.2663   7.8821   7.8821   9.9896   9.9896
    10.1495  10.1495  11.3404  11.3404

     occupation numbers 
     1.0000   1.0000   1.0000   1.0000   1.0000   1.0000   1.0000   1.0000
     1.0000   1.0000   1.0000   1.0000   1.0000   1.0000   1.0000   1.0000
     1.0000   1.0000   1.0000   1.0000   1.0000   1.0000   1.0000   1.0000
     1.0000   1.0000   1.0000   1.0000   0.0000   0.0000   0.0000   0.0000
     0.0000   0.0000   0.0000   0.0000

          k =-0.0442-0.2210 0.2210 (  8859 PWs)   bands (ev):

   -14.6715 -14.6715 -14.6677 -14.6677 -14.6288 -14.6288 -14.5697 -14.5697
   -14.5540 -14.5540 -14.4040 -14.4040 -14.3877 -14.3877 -14.3577 -14.3577
   -14.3186 -14.3186 -14.3070 -14.3070  -2.6103  -2.6103   2.9459   2.9459
     5.3510   5.3510   6.4886   6.4886   7.9190   7.9190   9.7268   9.7268
     9.8897   9.8897  10.9574  10.9574

     occupation numbers 
     1.0000   1.0000   1.0000   1.0000   1.0000   1.0000   1.0000   1.0000
     1.0000   1.0000   1.0000   1.0000   1.0000   1.0000   1.0000   1.0000
     1.0000   1.0000   1.0000   1.0000   1.0000   1.0000   1.0000   1.0000
     1.0000   1.0000   1.0000   1.0000   0.0000   0.0000   0.0000   0.0000
     0.0000   0.0000   0.0000   0.0000

          k = 0.0000-0.1768 0.1768 (  8863 PWs)   bands (ev):

   -14.6659 -14.6659 -14.6601 -14.6601 -14.6367 -14.6367 -14.5772 -14.5772
   -14.5654 -14.5654 -14.3934 -14.3934 -14.3805 -14.3805 -14.3478 -14.3478
   -14.3288 -14.3288 -14.3130 -14.3130  -2.8191  -2.8191   3.6015   3.6015
     5.7314   5.7314   6.6786   6.6786   7.8381   7.8381   9.4768   9.4768
     9.5749   9.5749  10.6167  10.6167

     occupation numbers 
     1.0000   1.0000   1.0000   1.0000   1.0000   1.0000   1.0000   1.0000
     1.0000   1.0000   1.0000   1.0000   1.0000   1.0000   1.0000   1.0000
[...]

   -14.6983 -14.6983 -14.6878 -14.6878 -14.5837 -14.5837 -14.5215 -14.5215
   -14.4930 -14.4930 -14.4767 -14.4767 -14.4285 -14.4285 -14.3992 -14.3992
   -14.2899 -14.2899 -14.2796 -14.2796  -1.3175  -1.3175   0.7486   0.7486
     4.1556   4.1556   5.0134   5.0134   8.8237   8.8237   9.9096   9.9096
    10.8407  10.8407  12.3818  12.3818

     occupation numbers 
     1.0000   1.0000   1.0000   1.0000   1.0000   1.0000   1.0000   1.0000
     1.0000   1.0000   1.0000   1.0000   1.0000   1.0000   1.0000   1.0000
     1.0000   1.0000   1.0000   1.0000   1.0000   1.0000   1.0000   1.0000
     1.0000   1.0000   1.0000   1.0000   0.0000   0.0000   0.0000   0.0000
     0.0000   0.0000   0.0000   0.0000

          k =-0.1326-0.3977 0.5745 (  8822 PWs)   bands (ev):

   -14.7015 -14.7015 -14.6888 -14.6888 -14.5756 -14.5756 -14.5154 -14.5154
   -14.4948 -14.4948 -14.4725 -14.4725 -14.4380 -14.4380 -14.4066 -14.4066
   -14.2885 -14.2885 -14.2760 -14.2760  -1.1358  -1.1358   0.5149   0.5149
     4.0349   4.0349   4.9962   4.9962   8.8434   8.8434  10.0847  10.0847
    11.3623  11.3623  12.0479  12.0479

     occupation numbers 
     1.0000   1.0000   1.0000   1.0000   1.0000   1.0000   1.0000   1.0000
     1.0000   1.0000   1.0000   1.0000   1.0000   1.0000   1.0000   1.0000
     1.0000   1.0000   1.0000   1.0000   1.0000   1.0000   1.0000   1.0000
     1.0000   1.0000   1.0000   1.0000   0.0000   0.0000   0.0000   0.0000
     0.0000   0.0000   0.0000   0.0000

          k =-0.0884-0.3536 0.5303 (  8824 PWs)   bands (ev):

   -14.7014 -14.7014 -14.6889 -14.6889 -14.5750 -14.5750 -14.5183 -14.5183
   -14.4963 -14.4963 -14.4683 -14.4683 -14.4374 -14.4374 -14.4077 -14.4077
   -14.2883 -14.2883 -14.2762 -14.2762  -1.1904  -1.1904   0.5842   0.5842
     4.0018   4.0018   5.0653   5.0653   8.8888   8.8888  10.0762  10.0762
    11.4262  11.4262  12.0090  12.0090

     occupation numbers 
     1.0000   1.0000   1.0000   1.0000   1.0000   1.0000   1.0000   1.0000
     1.0000   1.0000   1.0000   1.0000   1.0000   1.0000   1.0000   1.0000
     1.0000   1.0000   1.0000   1.0000   1.0000   1.0000   1.0000   1.0000
     1.0000   1.0000   1.0000   1.0000   0.0000   0.0000   0.0000   0.0000
     0.0000   0.0000   0.0000   0.0000

          k =-0.0442-0.3094 0.4861 (  8828 PWs)   bands (ev):

   -14.6981 -14.6981 -14.6878 -14.6878 -14.5820 -14.5820 -14.5288 -14.5288
   -14.4986 -14.4986 -14.4659 -14.4659 -14.4243 -14.4243 -14.4033 -14.4033
   -14.2895 -14.2895 -14.2804 -14.2804  -1.4341  -1.4341   0.9037   0.9037
     4.0731   4.0731   5.2079   5.2079   8.9408   8.9408   9.9606   9.9606
    10.8479  10.8479  12.2358  12.2358

     occupation numbers 
     1.0000   1.0000   1.0000   1.0000   1.0000   1.0000   1.0000   1.0000
     1.0000   1.0000   1.0000   1.0000   1.0000   1.0000   1.0000   1.0000
     1.0000   1.0000   1.0000   1.0000   1.0000   1.0000   1.0000   1.0000
     1.0000   1.0000   1.0000   1.0000   0.0000   0.0000   0.0000   0.0000
     0.0000   0.0000   0.0000   0.0000

          k = 0.0000-0.2652 0.4419 (  8824 PWs)   bands (ev):

   -14.6920 -14.6920 -14.6855 -14.6855 -14.5948 -14.5948 -14.5396 -14.5396
   -14.5061 -14.5061 -14.4599 -14.4599 -14.4095 -14.4095 -14.3927 -14.3927
   -14.2922 -14.2922 -14.2879 -14.2879  -1.7323  -1.7323   1.3230   1.3230
     4.2680   4.2680   5.3983   5.3983   8.9404   8.9404   9.6063   9.6063
    10.6713  10.6713  12.0094  12.0094

     occupation numbers 
     1.0000   1.0000   1.0000   1.0000   1.0000   1.0000   1.0000   1.0000
     1.0000   1.0000   1.0000   1.0000   1.0000   1.0000   1.0000   1.0000
     1.0000   1.0000   1.0000   1.0000   1.0000   1.0000   1.0000   1.0000
     1.0000   1.0000   1.0000   1.0000   0.0000   0.0000   0.0000   0.0000
     0.0000   0.0000   0.0000   0.0000

          k =-0.1768-0.5303 0.7071 (  8809 PWs)   bands (ev):

   -14.6902 -14.6902 -14.6883 -14.6883 -14.5984 -14.5984 -14.5200 -14.5200
   -14.5009 -14.5009 -14.4750 -14.4750 -14.4258 -14.4258 -14.3822 -14.3822
   -14.2895 -14.2895 -14.2882 -14.2882  -1.4408  -1.4408   0.9414   0.9414
     4.4385   4.4385   4.8692   4.8692   8.5848   8.5848   8.9404   8.9404
    11.3597  11.3597  12.9705  12.9705

     occupation numbers 
     1.0000   1.0000   1.0000   1.0000   1.0000   1.0000   1.0000   1.0000
     1.0000   1.0000   1.0000   1.0000   1.0000   1.0000   1.0000   1.0000
     1.0000   1.0000   1.0000   1.0000   1.0000   1.0000   1.0000   1.0000
     1.0000   1.0000   1.0000   1.0000   0.0000   0.0000   0.0000   0.0000
     0.0000   0.0000   0.0000   0.0000

          k =-0.1326-0.4861 0.6629 (  8821 PWs)   bands (ev):

   -14.6969 -14.6969 -14.6907 -14.6907 -14.5811 -14.5811 -14.5098 -14.5098
   -14.5056 -14.5056 -14.4688 -14.4688 -14.4381 -14.4381 -14.3995 -14.3995
   -14.2866 -14.2866 -14.2804 -14.2804  -1.1369  -1.1369   0.5573   0.5573
     4.2087   4.2087   4.7476   4.7476   8.7509   8.7509   9.4152   9.4152
    11.1848  11.1848  12.9237  12.9237

     occupation numbers 
     1.0000   1.0000   1.0000   1.0000   1.0000   1.0000   1.0000   1.0000
     1.0000   1.0000   1.0000   1.0000   1.0000   1.0000   1.0000   1.0000
     1.0000   1.0000   1.0000   1.0000   1.0000   1.0000   1.0000   1.0000
     1.0000   1.0000   1.0000   1.0000   0.0000   0.0000   0.0000   0.0000
     0.0000   0.0000   0.0000   0.0000

          k =-0.0884-0.4419 0.6187 (  8832 PWs)   bands (ev):

   -14.7020 -14.7020 -14.6917 -14.6917 -14.5684 -14.5684 -14.5054 -14.5054
   -14.4979 -14.4979 -14.4708 -14.4708 -14.4493 -14.4493 -14.4113 -14.4113
   -14.2852 -14.2852 -14.2750 -14.2750  -0.8989  -0.8989   0.2816   0.2816
     4.0108   4.0108   4.7382   4.7382   8.8062   8.8062  10.1423  10.1423
    11.0814  11.0814  12.3440  12.3440

     occupation numbers 
     1.0000   1.0000   1.0000   1.0000   1.0000   1.0000   1.0000   1.0000
     1.0000   1.0000   1.0000   1.0000   1.0000   1.0000   1.0000   1.0000
     1.0000   1.0000   1.0000   1.0000   1.0000   1.0000   1.0000   1.0000
     1.0000   1.0000   1.0000   1.0000   0.0000   0.0000   0.0000   0.0000
     0.0000   0.0000   0.0000   0.0000

          k =-0.0442-0.3977 0.5745 (  8822 PWs)   bands (ev):

   -14.7039 -14.7039 -14.6917 -14.6917 -14.5652 -14.5652 -14.5020 -14.5020
   -14.4894 -14.4894 -14.4788 -14.4788 -14.4537 -14.4537 -14.4142 -14.4142
   -14.2850 -14.2850 -14.2731 -14.2731  -0.9009  -0.9009   0.2865   0.2865
     3.8981   3.8981   4.8271   4.8271   8.8833   8.8833  10.6107  10.6107
    11.2976  11.2976  11.6148  11.6148

     occupation numbers 
     1.0000   1.0000   1.0000   1.0000   1.0000   1.0000   1.0000   1.0000
     1.0000   1.0000   1.0000   1.0000   1.0000   1.0000   1.0000   1.0000
     1.0000   1.0000   1.0000   1.0000   1.0000   1.0000   1.0000   1.0000
     1.0000   1.0000   1.0000   1.0000   0.0000   0.0000   0.0000   0.0000
     0.0000   0.0000   0.0000   0.0000

          k = 0.0000-0.3536 0.5303 (  8840 PWs)   bands (ev):

   -14.7024 -14.7024 -14.6905 -14.6905 -14.5704 -14.5704 -14.5140 -14.5140
   -14.4865 -14.4865 -14.4784 -14.4784 -14.4431 -14.4431 -14.4108 -14.4108
   -14.2864 -14.2864 -14.2751 -14.2751  -1.1364  -1.1364   0.5556   0.5556
     3.9105   3.9105   4.9927   4.9927   8.9617   8.9617  10.4688  10.4688
    10.9206  10.9206  12.1001  12.1001

     occupation numbers 
     1.0000   1.0000   1.0000   1.0000   1.0000   1.0000   1.0000   1.0000
     1.0000   1.0000   1.0000   1.0000   1.0000   1.0000   1.0000   1.0000
     1.0000   1.0000   1.0000   1.0000   1.0000   1.0000   1.0000   1.0000
     1.0000   1.0000   1.0000   1.0000   0.0000   0.0000   0.0000   0.0000
     0.0000   0.0000   0.0000   0.0000

          k =-0.0884-0.5303 0.7071 (  8822 PWs)   bands (ev):

   -14.6936 -14.6936 -14.6924 -14.6924 -14.5793 -14.5793 -14.5295 -14.5295
   -14.4970 -14.4970 -14.4487 -14.4487 -14.4483 -14.4483 -14.4005 -14.4005
   -14.2843 -14.2843 -14.2832 -14.2832  -0.9143  -0.9143   0.2898   0.2898
     4.3650   4.3650   4.5791   4.5791   8.5532   8.5532   8.7615   8.7615
    12.0333  12.0333  13.2592  13.2593

     occupation numbers 
     1.0000   1.0000   1.0000   1.0000   1.0000   1.0000   1.0000   1.0000
     1.0000   1.0000   1.0000   1.0000   1.0000   1.0000   1.0000   1.0000
     1.0000   1.0000   1.0000   1.0000   1.0000   1.0000   1.0000   1.0000
     1.0000   1.0000   1.0000   1.0000   0.0000   0.0000   0.0000   0.0000
     0.0000   0.0000   0.0000   0.0000

          k =-0.0442-0.4861 0.6629 (  8830 PWs)   bands (ev):

   -14.6993 -14.6993 -14.6935 -14.6935 -14.5625 -14.5625 -14.5303 -14.5303
   -14.4865 -14.4865 -14.4614 -14.4614 -14.4463 -14.4463 -14.4165 -14.4165
   -14.2830 -14.2830 -14.2773 -14.2773  -0.6305  -0.6305  -0.0103  -0.0103
     4.1549   4.1549   4.5377   4.5377   8.6985   8.6985   9.3628   9.3628
    11.8506  11.8506  12.5610  12.5610

     occupation numbers 
     1.0000   1.0000   1.0000   1.0000   1.0000   1.0000   1.0000   1.0000
     1.0000   1.0000   1.0000   1.0000   1.0000   1.0000   1.0000   1.0000
     1.0000   1.0000   1.0000   1.0000   1.0000   1.0000   1.0000   1.0000
     1.0000   1.0000   1.0000   1.0000   0.0000   0.0000   0.0000   0.0000
     0.0000   0.0000   0.0000   0.0000

          k = 0.0000-0.4419 0.6187 (  8826 PWs)   bands (ev):

   -14.7032 -14.7032 -14.6932 -14.6932 -14.5595 -14.5595 -14.5143 -14.5143
   -14.4856 -14.4856 -14.4656 -14.4656 -14.4597 -14.4597 -14.4189 -14.4189
   -14.2833 -14.2833 -14.2735 -14.2735  -0.6328  -0.6328   0.0011   0.0011
     3.9620   3.9620   4.6424   4.6424   8.7859   8.7859  10.1807  10.1807
    11.6922  11.6922  11.7034  11.7034

     occupation numbers 
     1.0000   1.0000   1.0000   1.0000   1.0000   1.0000   1.0000   1.0000
     1.0000   1.0000   1.0000   1.0000   1.0000   1.0000   1.0000   1.0000
     1.0000   1.0000   1.0000   1.0000   1.0000   1.0000   1.0000   1.0000
     1.0000   1.0000   1.0000   1.0000   0.0000   0.0000   0.0000   0.0000
     0.0000   0.0000   0.0000   0.0000

          k =-0.7071 0.1768 0.0000 (  8814 PWs)   bands (ev):

   -14.6944 -14.6944 -14.6944 -14.6944 -14.5560 -14.5560 -14.5560 -14.5560
   -14.4728 -14.4728 -14.4728 -14.4728 -14.4230 -14.4230 -14.4230 -14.4230
   -14.2820 -14.2820 -14.2820 -14.2820  -0.3332  -0.3332  -0.3332  -0.3332
     4.4107   4.4107   4.4107   4.4107   8.6165   8.6165   8.6165   8.6165
    12.7556  12.7556  12.7556  12.7556

     occupation numbers 
     1.0000   1.0000   1.0000   1.0000   1.0000   1.0000   1.0000   1.0000
     1.0000   1.0000   1.0000   1.0000   1.0000   1.0000   1.0000   1.0000
     1.0000   1.0000   1.0000   1.0000   1.0000   1.0000   1.0000   1.0000
     1.0000   1.0000   1.0000   1.0000   0.0000   0.0000   0.0000   0.0000
     0.0000   0.0000   0.0000   0.0000

          k =-0.1768-0.4419 0.7071 (  8826 PWs)   bands (ev):

   -14.6970 -14.6970 -14.6908 -14.6908 -14.5804 -14.5804 -14.5203 -14.5203
   -14.4872 -14.4872 -14.4832 -14.4832 -14.4297 -14.4297 -14.4019 -14.4019
   -14.2865 -14.2865 -14.2810 -14.2810  -1.3071  -1.3071   0.7685   0.7685
     4.1298   4.1298   4.9054   4.9054   9.3398   9.3398   9.4698   9.4698
    10.6249  10.6249  12.6999  12.6999

     occupation numbers 
     1.0000   1.0000   1.0000   1.0000   1.0000   1.0000   1.0000   1.0000
     1.0000   1.0000   1.0000   1.0000   1.0000   1.0000   1.0000   1.0000
     1.0000   1.0000   1.0000   1.0000   1.0000   1.0000   1.0000   1.0000
     1.0000   1.0000   1.0000   1.0000   0.0000   0.0000   0.0000   0.0000
     0.0000   0.0000   0.0000   0.0000

          k =-0.1326-0.3977 0.6629 (  8824 PWs)   bands (ev):

   -14.7014 -14.7014 -14.6929 -14.6929 -14.5668 -14.5668 -14.5098 -14.5098
   -14.4922 -14.4922 -14.4769 -14.4769 -14.4440 -14.4440 -14.4135 -14.4135
   -14.2841 -14.2841 -14.2759 -14.2759  -1.0235  -1.0235   0.4295   0.4295
     4.0024   4.0024   4.7500   4.7500   9.3650   9.3650   9.9628   9.9628
    10.7363  10.7363  12.2301  12.2301

     occupation numbers 
     1.0000   1.0000   1.0000   1.0000   1.0000   1.0000   1.0000   1.0000
     1.0000   1.0000   1.0000   1.0000   1.0000   1.0000   1.0000   1.0000
     1.0000   1.0000   1.0000   1.0000   1.0000   1.0000   1.0000   1.0000
     1.0000   1.0000   1.0000   1.0000   0.0000   0.0000   0.0000   0.0000
     0.0000   0.0000   0.0000   0.0000

          k =-0.0884-0.3536 0.6187 (  8822 PWs)   bands (ev):

   -14.7030 -14.7030 -14.6935 -14.6935 -14.5614 -14.5614 -14.5059 -14.5059
   -14.4901 -14.4901 -14.4776 -14.4776 -14.4505 -14.4505 -14.4177 -14.4177
   -14.2833 -14.2833 -14.2740 -14.2740  -0.8856  -0.8856   0.2720   0.2720
     3.9620   3.9620   4.6931   4.6931   9.3647   9.3647  10.0868  10.0868
    11.2592  11.2593  11.5499  11.5499

     occupation numbers 
     1.0000   1.0000   1.0000   1.0000   1.0000   1.0000   1.0000   1.0000
     1.0000   1.0000   1.0000   1.0000   1.0000   1.0000   1.0000   1.0000
     1.0000   1.0000   1.0000   1.0000   1.0000   1.0000   1.0000   1.0000
     1.0000   1.0000   1.0000   1.0000   0.0000   0.0000   0.0000   0.0000
     0.0000   0.0000   0.0000   0.0000

          k =-0.0884-0.4419 0.7071 (  8832 PWs)   bands (ev):

   -14.6994 -14.6994 -14.6956 -14.6956 -14.5619 -14.5619 -14.5142 -14.5142
   -14.4985 -14.4985 -14.4594 -14.4594 -14.4521 -14.4521 -14.4170 -14.4170
   -14.2811 -14.2811 -14.2775 -14.2775  -0.8309  -0.8309   0.2196   0.2196
     4.1201   4.1201   4.5116   4.5116   9.4111   9.4111   9.4543   9.4543
    11.0054  11.0054  12.3985  12.3985

     occupation numbers 
     1.0000   1.0000   1.0000   1.0000   1.0000   1.0000   1.0000   1.0000
     1.0000   1.0000   1.0000   1.0000   1.0000   1.0000   1.0000   1.0000
     1.0000   1.0000   1.0000   1.0000   1.0000   1.0000   1.0000   1.0000
     1.0000   1.0000   1.0000   1.0000   0.0000   0.0000   0.0000   0.0000
     0.0000   0.0000   0.0000   0.0000

          k =-0.0442-0.3977 0.6629 (  8827 PWs)   bands (ev):

   -14.7021 -14.7021 -14.6969 -14.6969 -14.5495 -14.5495 -14.5159 -14.5159
   -14.4894 -14.4894 -14.4652 -14.4652 -14.4559 -14.4559 -14.4275 -14.4275
   -14.2797 -14.2797 -14.2745 -14.2745  -0.6109  -0.6109  -0.0098  -0.0098
     4.0385   4.0385   4.4313   4.4313   9.4914   9.4914  10.1627  10.1627
    10.9248  10.9248  11.5407  11.5407

     occupation numbers 
     1.0000   1.0000   1.0000   1.0000   1.0000   1.0000   1.0000   1.0000
     1.0000   1.0000   1.0000   1.0000   1.0000   1.0000   1.0000   1.0000
     1.0000   1.0000   1.0000   1.0000   1.0000   1.0000   1.0000   1.0000
     1.0000   1.0000   1.0000   1.0000   0.0000   0.0000   0.0000   0.0000
     0.0000   0.0000   0.0000   0.0000

          k =-0.0000-0.3536 0.6187 (  8821 PWs)   bands (ev):

   -14.7029 -14.7029 -14.6959 -14.6959 -14.5533 -14.5533 -14.5056 -14.5056
   -14.4957 -14.4957 -14.4646 -14.4646 -14.4601 -14.4601 -14.4241 -14.4241
   -14.2808 -14.2808 -14.2739 -14.2739  -0.7329  -0.7329   0.1202   0.1202
     3.9731   3.9731   4.5353   4.5353   9.5424   9.5424  10.3439  10.3439
    10.8141  10.8141  11.4449  11.4449

     occupation numbers 
     1.0000   1.0000   1.0000   1.0000   1.0000   1.0000   1.0000   1.0000
     1.0000   1.0000   1.0000   1.0000   1.0000   1.0000   1.0000   1.0000
     1.0000   1.0000   1.0000   1.0000   1.0000   1.0000   1.0000   1.0000
     1.0000   1.0000   1.0000   1.0000   0.0000   0.0000   0.0000   0.0000
     0.0000   0.0000   0.0000   0.0000

          k =-0.7071 0.2652 0.0000 (  8836 PWs)   bands (ev):

   -14.6988 -14.6988 -14.6988 -14.6988 -14.5396 -14.5396 -14.5396 -14.5396
   -14.4754 -14.4754 -14.4754 -14.4754 -14.4368 -14.4368 -14.4368 -14.4368
   -14.2777 -14.2777 -14.2777 -14.2777  -0.3173  -0.3173  -0.3173  -0.3173
     4.2467   4.2467   4.2467   4.2467   9.4222   9.4222   9.4222   9.4222
    11.6745  11.6745  11.6745  11.6745

     occupation numbers 
     1.0000   1.0000   1.0000   1.0000   1.0000   1.0000   1.0000   1.0000
     1.0000   1.0000   1.0000   1.0000   1.0000   1.0000   1.0000   1.0000
     1.0000   1.0000   1.0000   1.0000   1.0000   1.0000   1.0000   1.0000
     1.0000   1.0000   1.0000   1.0000   0.0000   0.0000   0.0000   0.0000
     0.0000   0.0000   0.0000   0.0000

          k =-0.7071 0.3536 0.0000 (  8792 PWs)   bands (ev):

   -14.7004 -14.7004 -14.7004 -14.7004 -14.5312 -14.5312 -14.5312 -14.5312
   -14.4777 -14.4777 -14.4777 -14.4777 -14.4428 -14.4428 -14.4428 -14.4428
   -14.2761 -14.2761 -14.2761 -14.2761  -0.3107  -0.3107  -0.3107  -0.3107
     4.1844   4.1844   4.1844   4.1844  10.0882  10.0882  10.0882  10.0882
    10.9118  10.9118  10.9118  10.9118

     occupation numbers 
     1.0000   1.0000   1.0000   1.0000   1.0000   1.0000   1.0000   1.0000
     1.0000   1.0000   1.0000   1.0000   1.0000   1.0000   1.0000   1.0000
     1.0000   1.0000   1.0000   1.0000   1.0000   1.0000   1.0000   1.0000
     1.0000   1.0000   1.0000   1.0000   0.0000   0.0000   0.0000   0.0000
     0.0000   0.0000   0.0000   0.0000

     the Fermi energy is     6.9106 ev

!    total energy              =    -326.06447552 Ry
     Harris-Foulkes estimate   =    -326.06447538 Ry
     estimated scf accuracy    <       0.00000011 Ry

     The total energy is the sum of the following terms:

     one-electron contribution =    -157.90868619 Ry
     hartree contribution      =      95.59990257 Ry
     xc contribution           =     -96.22589641 Ry
     ewald contribution        =    -167.52979533 Ry
     smearing contrib. (-TS)   =      -0.00000015 Ry

     convergence has been achieved in   5 iterations

     Writing output data file Sn.save
 
     init_run     :      9.05s CPU     10.59s WALL (       1 calls)
     electrons    :    173.32s CPU    201.38s WALL (       1 calls)

     Called by init_run:
     wfcinit      :      8.81s CPU     10.22s WALL (       1 calls)
     potinit      :      0.03s CPU      0.04s WALL (       1 calls)

     Called by electrons:
     c_bands      :    147.82s CPU    171.95s WALL (       6 calls)
     sum_band     :     25.25s CPU     29.09s WALL (       6 calls)
     v_of_rho     :      0.08s CPU      0.10s WALL (       6 calls)
     v_h          :      0.01s CPU      0.01s WALL (       6 calls)
     v_xc         :      0.08s CPU      0.09s WALL (       6 calls)
     newd         :      0.14s CPU      0.17s WALL (       6 calls)
     mix_rho      :      0.03s CPU      0.06s WALL (       6 calls)

     Called by c_bands:
     init_us_2    :      0.55s CPU      0.64s WALL (    1885 calls)
     cegterg      :    142.30s CPU    166.11s WALL (     870 calls)

     Called by sum_band:
     sum_band:bec :      0.07s CPU      0.08s WALL (     870 calls)
     addusdens    :      0.16s CPU      0.20s WALL (       6 calls)

     Called by *egterg:
     h_psi        :    120.85s CPU    139.77s WALL (    3110 calls)
     s_psi        :      2.10s CPU      2.14s WALL (    3110 calls)
     g_psi        :      0.31s CPU      0.31s WALL (    2095 calls)
     cdiaghg      :     10.90s CPU     11.12s WALL (    2820 calls)
     cegterg:over :      5.73s CPU      5.79s WALL (    2095 calls)
     cegterg:upda :      3.38s CPU      3.41s WALL (    2095 calls)
     cegterg:last :      1.52s CPU      1.53s WALL (     870 calls)

     Called by h_psi:
     h_psi:vloc   :    115.57s CPU    134.18s WALL (    3110 calls)
     h_psi:vnl    :      4.93s CPU      5.17s WALL (    3110 calls)
     add_vuspsi   :      2.31s CPU      2.35s WALL (    3110 calls)

     General routines
     calbec       :      3.57s CPU      3.82s WALL (    3980 calls)
     fft          :      0.09s CPU      0.16s WALL (     116 calls)
     fftw         :    123.91s CPU    143.94s WALL (  393768 calls)
     davcio       :      0.08s CPU      0.41s WALL (     145 calls)
 
     Parallel routines
     fft_scatter  :     66.59s CPU     76.33s WALL (  393884 calls)
 
     PWSCF        :  3m 2.97s CPU     3m33.04s WALL

 
   This run was terminated on:  11:42:43  17Mar2020            

=------------------------------------------------------------------------------=
   JOB DONE.
=------------------------------------------------------------------------------=
