
     Program PWSCF v.5.4.0 starts on 15Mar2020 at 19:53:34 

     This program is part of the open-source Quantum ESPRESSO suite
     for quantum simulation of materials; please cite
         "P. Giannozzi et al., J. Phys.:Condens. Matter 21 395502 (2009);
          URL http://www.quantum-espresso.org", 
     in publications or presentations arising from this work. More details at
     http://www.quantum-espresso.org/quote

     Parallel version (MPI & OpenMP), running on      16 processor cores
     Number of MPI processes:                16
     Threads/MPI process:                     1
     R & G space division:  proc/nbgrp/npool/nimage =      16
     Waiting for input...
     Reading input from standard input
Warning: card &IONS ignored
Warning: card / ignored
Warning: card &CELL ignored
Warning: card / ignored

     Current dimensions of program PWSCF are:
     Max number of different atomic species (ntypx) = 10
     Max number of k-points (npk) =  40000
     Max angular momentum in pseudopotentials (lmaxx) =  3
               file Sn.rel-pbesol-dn-kjpaw_psl.1.0.0.UPF: wavefunction(s)  5S 5P 5P 4D 4D renormalized

     Subspace diagonalization in iterative solution of the eigenvalue problem:
     a serial algorithm will be used

 
     Parallelization info
     --------------------
     sticks:   dense  smooth     PW     G-vecs:    dense   smooth      PW
     Min          61      61     18                 1274     1274     210
     Max          62      62     19                 1276     1276     213
     Sum         979     979    301                20395    20395    3383
 

     Title: 
     Sn                                                                         


     bravais-lattice index     =            0
     lattice parameter (alat)  =       8.9127  a.u.
     unit-cell volume          =     500.6268 (a.u.)^3
     number of atoms/cell      =            2
     number of atomic types    =            1
     number of electrons       =        28.00
     number of Kohn-Sham states=           36
     kinetic-energy cutoff     =      45.0000  Ry
     charge density cutoff     =     180.0000  Ry
     convergence threshold     =      1.0E-06
     mixing beta               =       0.7000
     number of iterations used =            8  plain     mixing
     Exchange-correlation      =  SLA  PW   PSX  PSC ( 1  4 10  8 0 0)
     Non magnetic calculation with spin-orbit


     celldm(1)=   8.912709  celldm(2)=   0.000000  celldm(3)=   0.000000
     celldm(4)=   0.000000  celldm(5)=   0.000000  celldm(6)=   0.000000

     crystal axes: (cart. coord. in units of alat)
               a(1) = (   0.000000   0.707107   0.707107 )  
               a(2) = (   0.707107   0.000000   0.707107 )  
               a(3) = (   0.707107   0.707107   0.000000 )  

     reciprocal axes: (cart. coord. in units 2 pi/alat)
               b(1) = ( -0.707107  0.707107  0.707107 )  
               b(2) = (  0.707107 -0.707107  0.707107 )  
               b(3) = (  0.707107  0.707107 -0.707107 )  


     PseudoPot. # 1 for Sn read from file:
     ../PseudopotentialDatabase/Sn.rel-pbesol-dn-kjpaw_psl.1.0.0.UPF
     MD5 check sum: e69eff64f15ae39ad43ef58bacbfdf88
     Pseudo is Projector augmented-wave + core cor, Zval = 14.0
     Generated using "atomic" code by A. Dal Corso  v.6.3
     Shape of augmentation charge: PSQ
     Using radial grid of 1243 points, 10 beta functions with: 
                l(1) =   0
                l(2) =   0
                l(3) =   1
                l(4) =   1
                l(5) =   1
                l(6) =   1
                l(7) =   2
                l(8) =   2
                l(9) =   2
               l(10) =   2
     Q(r) pseudized with 0 coefficients 


     atomic species   valence    mass     pseudopotential
        Sn            14.00   118.71000     Sn( 1.00)

     48 Sym. Ops., with inversion, found (24 have fractional translation)


                                    s                        frac. trans.

      isym =  1     identity                                     

 cryst.   s( 1) = (     1          0          0      )
                  (     0          1          0      )
                  (     0          0          1      )

 cart.    s( 1) = (  1.0000000  0.0000000  0.0000000 )
                  (  0.0000000  1.0000000  0.0000000 )
                  (  0.0000000  0.0000000  1.0000000 )


      isym =  2     180 deg rotation - cart. axis [0,0,1]        

 cryst.   s( 2) = (     0          1         -1      )
                  (     1          0         -1      )
                  (     0          0         -1      )

 cart.    s( 2) = ( -1.0000000  0.0000000  0.0000000 )
                  (  0.0000000 -1.0000000  0.0000000 )
                  (  0.0000000  0.0000000  1.0000000 )


      isym =  3     180 deg rotation - cart. axis [0,1,0]        

 cryst.   s( 3) = (     0         -1          1      )
                  (     0         -1          0      )
                  (     1         -1          0      )

 cart.    s( 3) = ( -1.0000000  0.0000000  0.0000000 )
                  (  0.0000000  1.0000000  0.0000000 )
                  (  0.0000000  0.0000000 -1.0000000 )


      isym =  4     180 deg rotation - cart. axis [1,0,0]        

 cryst.   s( 4) = (    -1          0          0      )
                  (    -1          0          1      )
                  (    -1          1          0      )

 cart.    s( 4) = (  1.0000000  0.0000000  0.0000000 )
                  (  0.0000000 -1.0000000  0.0000000 )
                  (  0.0000000  0.0000000 -1.0000000 )


      isym =  5     180 deg rotation - cart. axis [1,1,0]        

 cryst.   s( 5) = (    -1          0          1      )    f =( -0.2500000 )
                  (     0         -1          1      )       ( -0.2500000 )
                  (     0          0          1      )       ( -0.2500000 )

 cart.    s( 5) = (  0.0000000  1.0000000  0.0000000 )    f =( -0.3535534 )
                  (  1.0000000  0.0000000  0.0000000 )       ( -0.3535534 )
                  (  0.0000000  0.0000000 -1.0000000 )       ( -0.3535534 )


      isym =  6     180 deg rotation - cart. axis [1,-1,0]       

 cryst.   s( 6) = (     0         -1          0      )    f =( -0.2500000 )
                  (    -1          0          0      )       ( -0.2500000 )
                  (     0          0         -1      )       ( -0.2500000 )

 cart.    s( 6) = (  0.0000000 -1.0000000  0.0000000 )    f =( -0.3535534 )
                  ( -1.0000000  0.0000000  0.0000000 )       ( -0.3535534 )
                  (  0.0000000  0.0000000 -1.0000000 )       ( -0.3535534 )


      isym =  7      90 deg rotation - cart. axis [0,0,-1]       

 cryst.   s( 7) = (     0          1          0      )    f =( -0.2500000 )
                  (     0          1         -1      )       ( -0.2500000 )
                  (    -1          1          0      )       ( -0.2500000 )

 cart.    s( 7) = (  0.0000000  1.0000000  0.0000000 )    f =( -0.3535534 )
                  ( -1.0000000  0.0000000  0.0000000 )       ( -0.3535534 )
                  (  0.0000000  0.0000000  1.0000000 )       ( -0.3535534 )


      isym =  8      90 deg rotation - cart. axis [0,0,1]        

 cryst.   s( 8) = (     1          0         -1      )    f =( -0.2500000 )
                  (     1          0          0      )       ( -0.2500000 )
                  (     1         -1          0      )       ( -0.2500000 )

 cart.    s( 8) = (  0.0000000 -1.0000000  0.0000000 )    f =( -0.3535534 )
                  (  1.0000000  0.0000000  0.0000000 )       ( -0.3535534 )
                  (  0.0000000  0.0000000  1.0000000 )       ( -0.3535534 )


      isym =  9     180 deg rotation - cart. axis [1,0,1]        

 cryst.   s( 9) = (    -1          1          0      )    f =( -0.2500000 )
                  (     0          1          0      )       ( -0.2500000 )
                  (     0          1         -1      )       ( -0.2500000 )

 cart.    s( 9) = (  0.0000000  0.0000000  1.0000000 )    f =( -0.3535534 )
                  (  0.0000000 -1.0000000  0.0000000 )       ( -0.3535534 )
                  (  1.0000000  0.0000000  0.0000000 )       ( -0.3535534 )


      isym = 10     180 deg rotation - cart. axis [-1,0,1]       

 cryst.   s(10) = (     0          0         -1      )    f =( -0.2500000 )
                  (     0         -1          0      )       ( -0.2500000 )
                  (    -1          0          0      )       ( -0.2500000 )

 cart.    s(10) = (  0.0000000  0.0000000 -1.0000000 )    f =( -0.3535534 )
                  (  0.0000000 -1.0000000  0.0000000 )       ( -0.3535534 )
                  ( -1.0000000  0.0000000  0.0000000 )       ( -0.3535534 )


      isym = 11      90 deg rotation - cart. axis [0,1,0]        

 cryst.   s(11) = (     0          0          1      )    f =( -0.2500000 )
                  (    -1          0          1      )       ( -0.2500000 )
                  (     0         -1          1      )       ( -0.2500000 )

 cart.    s(11) = (  0.0000000  0.0000000  1.0000000 )    f =( -0.3535534 )
                  (  0.0000000  1.0000000  0.0000000 )       ( -0.3535534 )
                  ( -1.0000000  0.0000000  0.0000000 )       ( -0.3535534 )


      isym = 12      90 deg rotation - cart. axis [0,-1,0]       

 cryst.   s(12) = (     1         -1          0      )    f =( -0.2500000 )
                  (     1          0         -1      )       ( -0.2500000 )
                  (     1          0          0      )       ( -0.2500000 )

 cart.    s(12) = (  0.0000000  0.0000000 -1.0000000 )    f =( -0.3535534 )
                  (  0.0000000  1.0000000  0.0000000 )       ( -0.3535534 )
                  (  1.0000000  0.0000000  0.0000000 )       ( -0.3535534 )


      isym = 13     180 deg rotation - cart. axis [0,1,1]        

 cryst.   s(13) = (     1          0          0      )    f =( -0.2500000 )
                  (     1         -1          0      )       ( -0.2500000 )
                  (     1          0         -1      )       ( -0.2500000 )

 cart.    s(13) = ( -1.0000000  0.0000000  0.0000000 )    f =( -0.3535534 )
                  (  0.0000000  0.0000000  1.0000000 )       ( -0.3535534 )
                  (  0.0000000  1.0000000  0.0000000 )       ( -0.3535534 )


      isym = 14     180 deg rotation - cart. axis [0,1,-1]       

 cryst.   s(14) = (    -1          0          0      )    f =( -0.2500000 )
                  (     0          0         -1      )       ( -0.2500000 )
                  (     0         -1          0      )       ( -0.2500000 )

 cart.    s(14) = ( -1.0000000  0.0000000  0.0000000 )    f =( -0.3535534 )
                  (  0.0000000  0.0000000 -1.0000000 )       ( -0.3535534 )
                  (  0.0000000 -1.0000000  0.0000000 )       ( -0.3535534 )


      isym = 15      90 deg rotation - cart. axis [-1,0,0]       

 cryst.   s(15) = (     0         -1          1      )    f =( -0.2500000 )
                  (     0          0          1      )       ( -0.2500000 )
                  (    -1          0          1      )       ( -0.2500000 )

 cart.    s(15) = (  1.0000000  0.0000000  0.0000000 )    f =( -0.3535534 )
                  (  0.0000000  0.0000000  1.0000000 )       ( -0.3535534 )
                  (  0.0000000 -1.0000000  0.0000000 )       ( -0.3535534 )


      isym = 16      90 deg rotation - cart. axis [1,0,0]        

 cryst.   s(16) = (     0          1         -1      )    f =( -0.2500000 )
                  (    -1          1          0      )       ( -0.2500000 )
                  (     0          1          0      )       ( -0.2500000 )

 cart.    s(16) = (  1.0000000  0.0000000  0.0000000 )    f =( -0.3535534 )
                  (  0.0000000  0.0000000 -1.0000000 )       ( -0.3535534 )
                  (  0.0000000  1.0000000  0.0000000 )       ( -0.3535534 )


      isym = 17     120 deg rotation - cart. axis [-1,-1,-1]     

 cryst.   s(17) = (     0          0          1      )
                  (     1          0          0      )
                  (     0          1          0      )

 cart.    s(17) = (  0.0000000  1.0000000  0.0000000 )
                  (  0.0000000  0.0000000  1.0000000 )
                  (  1.0000000  0.0000000  0.0000000 )


      isym = 18     120 deg rotation - cart. axis [-1,1,1]       

 cryst.   s(18) = (     1         -1          0      )
                  (     0         -1          1      )
                  (     0         -1          0      )

 cart.    s(18) = (  0.0000000 -1.0000000  0.0000000 )
                  (  0.0000000  0.0000000  1.0000000 )
                  ( -1.0000000  0.0000000  0.0000000 )


      isym = 19     120 deg rotation - cart. axis [1,1,-1]       

 cryst.   s(19) = (    -1          1          0      )
                  (    -1          0          0      )
                  (    -1          0          1      )

 cart.    s(19) = (  0.0000000  1.0000000  0.0000000 )
                  (  0.0000000  0.0000000 -1.0000000 )
                  ( -1.0000000  0.0000000  0.0000000 )


      isym = 20     120 deg rotation - cart. axis [1,-1,1]       

 cryst.   s(20) = (     0          0         -1      )
                  (     0          1         -1      )
                  (     1          0         -1      )

 cart.    s(20) = (  0.0000000 -1.0000000  0.0000000 )
                  (  0.0000000  0.0000000 -1.0000000 )
                  (  1.0000000  0.0000000  0.0000000 )


      isym = 21     120 deg rotation - cart. axis [1,1,1]        

 cryst.   s(21) = (     0          1          0      )
                  (     0          0          1      )
                  (     1          0          0      )

 cart.    s(21) = (  0.0000000  0.0000000  1.0000000 )
                  (  1.0000000  0.0000000  0.0000000 )
                  (  0.0000000  1.0000000  0.0000000 )


      isym = 22     120 deg rotation - cart. axis [-1,1,-1]      

 cryst.   s(22) = (    -1          0          1      )
                  (    -1          1          0      )
                  (    -1          0          0      )

 cart.    s(22) = (  0.0000000  0.0000000  1.0000000 )
                  ( -1.0000000  0.0000000  0.0000000 )
                  (  0.0000000 -1.0000000  0.0000000 )


      isym = 23     120 deg rotation - cart. axis [1,-1,-1]      

 cryst.   s(23) = (     1          0         -1      )
                  (     0          0         -1      )
                  (     0          1         -1      )

 cart.    s(23) = (  0.0000000  0.0000000 -1.0000000 )
                  ( -1.0000000  0.0000000  0.0000000 )
                  (  0.0000000  1.0000000  0.0000000 )


      isym = 24     120 deg rotation - cart. axis [-1,-1,1]      

 cryst.   s(24) = (     0         -1          0      )
                  (     1         -1          0      )
                  (     0         -1          1      )

 cart.    s(24) = (  0.0000000  0.0000000 -1.0000000 )
                  (  1.0000000  0.0000000  0.0000000 )
                  (  0.0000000 -1.0000000  0.0000000 )


      isym = 25     inversion                                    

 cryst.   s(25) = (    -1          0          0      )    f =( -0.2500000 )
                  (     0         -1          0      )       ( -0.2500000 )
                  (     0          0         -1      )       ( -0.2500000 )

 cart.    s(25) = ( -1.0000000  0.0000000  0.0000000 )    f =( -0.3535534 )
                  (  0.0000000 -1.0000000  0.0000000 )       ( -0.3535534 )
                  (  0.0000000  0.0000000 -1.0000000 )       ( -0.3535534 )


      isym = 26     inv. 180 deg rotation - cart. axis [0,0,1]   

 cryst.   s(26) = (     0         -1          1      )    f =( -0.2500000 )
                  (    -1          0          1      )       ( -0.2500000 )
                  (     0          0          1      )       ( -0.2500000 )

 cart.    s(26) = (  1.0000000  0.0000000  0.0000000 )    f =( -0.3535534 )
                  (  0.0000000  1.0000000  0.0000000 )       ( -0.3535534 )
                  (  0.0000000  0.0000000 -1.0000000 )       ( -0.3535534 )


      isym = 27     inv. 180 deg rotation - cart. axis [0,1,0]   

 cryst.   s(27) = (     0          1         -1      )    f =( -0.2500000 )
                  (     0          1          0      )       ( -0.2500000 )
                  (    -1          1          0      )       ( -0.2500000 )

 cart.    s(27) = (  1.0000000  0.0000000  0.0000000 )    f =( -0.3535534 )
                  (  0.0000000 -1.0000000  0.0000000 )       ( -0.3535534 )
                  (  0.0000000  0.0000000  1.0000000 )       ( -0.3535534 )


      isym = 28     inv. 180 deg rotation - cart. axis [1,0,0]   

 cryst.   s(28) = (     1          0          0      )    f =( -0.2500000 )
                  (     1          0         -1      )       ( -0.2500000 )
                  (     1         -1          0      )       ( -0.2500000 )

 cart.    s(28) = ( -1.0000000  0.0000000  0.0000000 )    f =( -0.3535534 )
                  (  0.0000000  1.0000000  0.0000000 )       ( -0.3535534 )
                  (  0.0000000  0.0000000  1.0000000 )       ( -0.3535534 )


      isym = 29     inv. 180 deg rotation - cart. axis [1,1,0]   

 cryst.   s(29) = (     1          0         -1      )
                  (     0          1         -1      )
                  (     0          0         -1      )

 cart.    s(29) = (  0.0000000 -1.0000000  0.0000000 )
                  ( -1.0000000  0.0000000  0.0000000 )
                  (  0.0000000  0.0000000  1.0000000 )


      isym = 30     inv. 180 deg rotation - cart. axis [1,-1,0]  

 cryst.   s(30) = (     0          1          0      )
                  (     1          0          0      )
                  (     0          0          1      )

 cart.    s(30) = (  0.0000000  1.0000000  0.0000000 )
                  (  1.0000000  0.0000000  0.0000000 )
                  (  0.0000000  0.0000000  1.0000000 )


      isym = 31     inv.  90 deg rotation - cart. axis [0,0,-1]  

 cryst.   s(31) = (     0         -1          0      )
                  (     0         -1          1      )
                  (     1         -1          0      )

 cart.    s(31) = (  0.0000000 -1.0000000  0.0000000 )
                  (  1.0000000  0.0000000  0.0000000 )
                  (  0.0000000  0.0000000 -1.0000000 )


      isym = 32     inv.  90 deg rotation - cart. axis [0,0,1]   

 cryst.   s(32) = (    -1          0          1      )
                  (    -1          0          0      )
                  (    -1          1          0      )

 cart.    s(32) = (  0.0000000  1.0000000  0.0000000 )
                  ( -1.0000000  0.0000000  0.0000000 )
                  (  0.0000000  0.0000000 -1.0000000 )


      isym = 33     inv. 180 deg rotation - cart. axis [1,0,1]   

 cryst.   s(33) = (     1         -1          0      )
                  (     0         -1          0      )
                  (     0         -1          1      )

 cart.    s(33) = (  0.0000000  0.0000000 -1.0000000 )
                  (  0.0000000  1.0000000  0.0000000 )
                  ( -1.0000000  0.0000000  0.0000000 )


      isym = 34     inv. 180 deg rotation - cart. axis [-1,0,1]  

 cryst.   s(34) = (     0          0          1      )
                  (     0          1          0      )
                  (     1          0          0      )

 cart.    s(34) = (  0.0000000  0.0000000  1.0000000 )
                  (  0.0000000  1.0000000  0.0000000 )
                  (  1.0000000  0.0000000  0.0000000 )


      isym = 35     inv.  90 deg rotation - cart. axis [0,1,0]   

 cryst.   s(35) = (     0          0         -1      )
                  (     1          0         -1      )
                  (     0          1         -1      )

 cart.    s(35) = (  0.0000000  0.0000000 -1.0000000 )
                  (  0.0000000 -1.0000000  0.0000000 )
                  (  1.0000000  0.0000000  0.0000000 )


      isym = 36     inv.  90 deg rotation - cart. axis [0,-1,0]  

 cryst.   s(36) = (    -1          1          0      )
                  (    -1          0          1      )
                  (    -1          0          0      )

 cart.    s(36) = (  0.0000000  0.0000000  1.0000000 )
                  (  0.0000000 -1.0000000  0.0000000 )
                  ( -1.0000000  0.0000000  0.0000000 )


      isym = 37     inv. 180 deg rotation - cart. axis [0,1,1]   

 cryst.   s(37) = (    -1          0          0      )
                  (    -1          1          0      )
                  (    -1          0          1      )

 cart.    s(37) = (  1.0000000  0.0000000  0.0000000 )
                  (  0.0000000  0.0000000 -1.0000000 )
                  (  0.0000000 -1.0000000  0.0000000 )


      isym = 38     inv. 180 deg rotation - cart. axis [0,1,-1]  

 cryst.   s(38) = (     1          0          0      )
                  (     0          0          1      )
                  (     0          1          0      )

 cart.    s(38) = (  1.0000000  0.0000000  0.0000000 )
                  (  0.0000000  0.0000000  1.0000000 )
                  (  0.0000000  1.0000000  0.0000000 )


      isym = 39     inv.  90 deg rotation - cart. axis [-1,0,0]  

 cryst.   s(39) = (     0          1         -1      )
                  (     0          0         -1      )
                  (     1          0         -1      )

 cart.    s(39) = ( -1.0000000  0.0000000  0.0000000 )
                  (  0.0000000  0.0000000 -1.0000000 )
                  (  0.0000000  1.0000000  0.0000000 )


      isym = 40     inv.  90 deg rotation - cart. axis [1,0,0]   

 cryst.   s(40) = (     0         -1          1      )
                  (     1         -1          0      )
                  (     0         -1          0      )

 cart.    s(40) = ( -1.0000000  0.0000000  0.0000000 )
                  (  0.0000000  0.0000000  1.0000000 )
                  (  0.0000000 -1.0000000  0.0000000 )


      isym = 41     inv. 120 deg rotation - cart. axis [-1,-1,-1]

 cryst.   s(41) = (     0          0         -1      )    f =( -0.2500000 )
                  (    -1          0          0      )       ( -0.2500000 )
                  (     0         -1          0      )       ( -0.2500000 )

 cart.    s(41) = (  0.0000000 -1.0000000  0.0000000 )    f =( -0.3535534 )
                  (  0.0000000  0.0000000 -1.0000000 )       ( -0.3535534 )
                  ( -1.0000000  0.0000000  0.0000000 )       ( -0.3535534 )


      isym = 42     inv. 120 deg rotation - cart. axis [-1,1,1]  

 cryst.   s(42) = (    -1          1          0      )    f =( -0.2500000 )
                  (     0          1         -1      )       ( -0.2500000 )
                  (     0          1          0      )       ( -0.2500000 )

 cart.    s(42) = (  0.0000000  1.0000000  0.0000000 )    f =( -0.3535534 )
                  (  0.0000000  0.0000000 -1.0000000 )       ( -0.3535534 )
                  (  1.0000000  0.0000000  0.0000000 )       ( -0.3535534 )


      isym = 43     inv. 120 deg rotation - cart. axis [1,1,-1]  

 cryst.   s(43) = (     1         -1          0      )    f =( -0.2500000 )
                  (     1          0          0      )       ( -0.2500000 )
                  (     1          0         -1      )       ( -0.2500000 )

 cart.    s(43) = (  0.0000000 -1.0000000  0.0000000 )    f =( -0.3535534 )
                  (  0.0000000  0.0000000  1.0000000 )       ( -0.3535534 )
                  (  1.0000000  0.0000000  0.0000000 )       ( -0.3535534 )


      isym = 44     inv. 120 deg rotation - cart. axis [1,-1,1]  

 cryst.   s(44) = (     0          0          1      )    f =( -0.2500000 )
                  (     0         -1          1      )       ( -0.2500000 )
                  (    -1          0          1      )       ( -0.2500000 )

 cart.    s(44) = (  0.0000000  1.0000000  0.0000000 )    f =( -0.3535534 )
                  (  0.0000000  0.0000000  1.0000000 )       ( -0.3535534 )
                  ( -1.0000000  0.0000000  0.0000000 )       ( -0.3535534 )


      isym = 45     inv. 120 deg rotation - cart. axis [1,1,1]   

 cryst.   s(45) = (     0         -1          0      )    f =( -0.2500000 )
                  (     0          0         -1      )       ( -0.2500000 )
                  (    -1          0          0      )       ( -0.2500000 )

 cart.    s(45) = (  0.0000000  0.0000000 -1.0000000 )    f =( -0.3535534 )
                  ( -1.0000000  0.0000000  0.0000000 )       ( -0.3535534 )
                  (  0.0000000 -1.0000000  0.0000000 )       ( -0.3535534 )


      isym = 46     inv. 120 deg rotation - cart. axis [-1,1,-1] 

 cryst.   s(46) = (     1          0         -1      )    f =( -0.2500000 )
                  (     1         -1          0      )       ( -0.2500000 )
                  (     1          0          0      )       ( -0.2500000 )

 cart.    s(46) = (  0.0000000  0.0000000 -1.0000000 )    f =( -0.3535534 )
                  (  1.0000000  0.0000000  0.0000000 )       ( -0.3535534 )
                  (  0.0000000  1.0000000  0.0000000 )       ( -0.3535534 )


      isym = 47     inv. 120 deg rotation - cart. axis [1,-1,-1] 

 cryst.   s(47) = (    -1          0          1      )    f =( -0.2500000 )
                  (     0          0          1      )       ( -0.2500000 )
                  (     0         -1          1      )       ( -0.2500000 )

 cart.    s(47) = (  0.0000000  0.0000000  1.0000000 )    f =( -0.3535534 )
                  (  1.0000000  0.0000000  0.0000000 )       ( -0.3535534 )
                  (  0.0000000 -1.0000000  0.0000000 )       ( -0.3535534 )


      isym = 48     inv. 120 deg rotation - cart. axis [-1,-1,1] 

 cryst.   s(48) = (     0          1          0      )    f =( -0.2500000 )
                  (    -1          1          0      )       ( -0.2500000 )
                  (     0          1         -1      )       ( -0.2500000 )

 cart.    s(48) = (  0.0000000  0.0000000  1.0000000 )    f =( -0.3535534 )
                  ( -1.0000000  0.0000000  0.0000000 )       ( -0.3535534 )
                  (  0.0000000  1.0000000  0.0000000 )       ( -0.3535534 )


   Cartesian axes

     site n.     atom                  positions (alat units)
         1           Sn  tau(   1) = (   0.0000000   0.0000000   0.0000000  )
         2           Sn  tau(   2) = (   0.3535534   0.3535534   0.3535534  )

   Crystallographic axes

     site n.     atom                  positions (cryst. coord.)
         1           Sn  tau(   1) = (  0.0000000  0.0000000  0.0000000  )
         2           Sn  tau(   2) = (  0.2500000  0.2500000  0.2500000  )

     number of k points=   145  gaussian smearing, width (Ry)=  0.0001
                       cart. coord. in units 2pi/alat
        k(    1) = (   0.0000000   0.0000000   0.0000000), wk =   0.0002441
        k(    2) = (   0.0441942   0.0441942  -0.0441942), wk =   0.0019531
        k(    3) = (   0.0883883   0.0883883  -0.0883883), wk =   0.0019531
        k(    4) = (   0.1325825   0.1325825  -0.1325825), wk =   0.0019531
        k(    5) = (   0.1767767   0.1767767  -0.1767767), wk =   0.0019531
        k(    6) = (   0.2209709   0.2209709  -0.2209709), wk =   0.0019531
        k(    7) = (   0.2651650   0.2651650  -0.2651650), wk =   0.0019531
        k(    8) = (   0.3093592   0.3093592  -0.3093592), wk =   0.0019531
        k(    9) = (  -0.3535534  -0.3535534   0.3535534), wk =   0.0009766
        k(   10) = (   0.0883883   0.0000000   0.0000000), wk =   0.0014648
        k(   11) = (   0.1325825   0.0441942  -0.0441942), wk =   0.0058594
        k(   12) = (   0.1767767   0.0883883  -0.0883883), wk =   0.0058594
        k(   13) = (   0.2209709   0.1325825  -0.1325825), wk =   0.0058594
        k(   14) = (   0.2651650   0.1767767  -0.1767767), wk =   0.0058594
        k(   15) = (   0.3093592   0.2209709  -0.2209709), wk =   0.0058594
        k(   16) = (   0.3535534   0.2651650  -0.2651650), wk =   0.0058594
        k(   17) = (  -0.3093592  -0.3977476   0.3977476), wk =   0.0058594
        k(   18) = (  -0.2651650  -0.3535534   0.3535534), wk =   0.0058594
        k(   19) = (  -0.2209709  -0.3093592   0.3093592), wk =   0.0058594
        k(   20) = (  -0.1767767  -0.2651650   0.2651650), wk =   0.0058594
        k(   21) = (  -0.1325825  -0.2209709   0.2209709), wk =   0.0058594
        k(   22) = (  -0.0883883  -0.1767767   0.1767767), wk =   0.0058594
        k(   23) = (  -0.0441942  -0.1325825   0.1325825), wk =   0.0058594
        k(   24) = (   0.0000000  -0.0883883   0.0883883), wk =   0.0029297
        k(   25) = (   0.1767767   0.0000000   0.0000000), wk =   0.0014648
        k(   26) = (   0.2209709   0.0441942  -0.0441942), wk =   0.0058594
        k(   27) = (   0.2651650   0.0883883  -0.0883883), wk =   0.0058594
        k(   28) = (   0.3093592   0.1325825  -0.1325825), wk =   0.0058594
        k(   29) = (   0.3535534   0.1767767  -0.1767767), wk =   0.0058594
        k(   30) = (   0.3977476   0.2209709  -0.2209709), wk =   0.0058594
        k(   31) = (  -0.2651650  -0.4419417   0.4419417), wk =   0.0058594
        k(   32) = (  -0.2209709  -0.3977476   0.3977476), wk =   0.0058594
        k(   33) = (  -0.1767767  -0.3535534   0.3535534), wk =   0.0058594
        k(   34) = (  -0.1325825  -0.3093592   0.3093592), wk =   0.0058594
        k(   35) = (  -0.0883883  -0.2651650   0.2651650), wk =   0.0058594
        k(   36) = (  -0.0441942  -0.2209709   0.2209709), wk =   0.0058594
        k(   37) = (   0.0000000  -0.1767767   0.1767767), wk =   0.0029297
        k(   38) = (   0.2651650   0.0000000   0.0000000), wk =   0.0014648
        k(   39) = (   0.3093592   0.0441942  -0.0441942), wk =   0.0058594
        k(   40) = (   0.3535534   0.0883883  -0.0883883), wk =   0.0058594
        k(   41) = (   0.3977476   0.1325825  -0.1325825), wk =   0.0058594
        k(   42) = (   0.4419417   0.1767767  -0.1767767), wk =   0.0058594
        k(   43) = (  -0.2209709  -0.4861359   0.4861359), wk =   0.0058594
        k(   44) = (  -0.1767767  -0.4419417   0.4419417), wk =   0.0058594
        k(   45) = (  -0.1325825  -0.3977476   0.3977476), wk =   0.0058594
        k(   46) = (  -0.0883883  -0.3535534   0.3535534), wk =   0.0058594
        k(   47) = (  -0.0441942  -0.3093592   0.3093592), wk =   0.0058594
        k(   48) = (   0.0000000  -0.2651650   0.2651650), wk =   0.0029297
        k(   49) = (   0.3535534   0.0000000   0.0000000), wk =   0.0014648
        k(   50) = (   0.3977476   0.0441942  -0.0441942), wk =   0.0058594
        k(   51) = (   0.4419417   0.0883883  -0.0883883), wk =   0.0058594
        k(   52) = (   0.4861359   0.1325825  -0.1325825), wk =   0.0058594
        k(   53) = (  -0.1767767  -0.5303301   0.5303301), wk =   0.0058594
        k(   54) = (  -0.1325825  -0.4861359   0.4861359), wk =   0.0058594
        k(   55) = (  -0.0883883  -0.4419417   0.4419417), wk =   0.0058594
        k(   56) = (  -0.0441942  -0.3977476   0.3977476), wk =   0.0058594
        k(   57) = (   0.0000000  -0.3535534   0.3535534), wk =   0.0029297
        k(   58) = (   0.4419417   0.0000000   0.0000000), wk =   0.0014648
        k(   59) = (   0.4861359   0.0441942  -0.0441942), wk =   0.0058594
        k(   60) = (   0.5303301   0.0883883  -0.0883883), wk =   0.0058594
        k(   61) = (  -0.1325825  -0.5745243   0.5745243), wk =   0.0058594
        k(   62) = (  -0.0883883  -0.5303301   0.5303301), wk =   0.0058594
        k(   63) = (  -0.0441942  -0.4861359   0.4861359), wk =   0.0058594
        k(   64) = (   0.0000000  -0.4419417   0.4419417), wk =   0.0029297
        k(   65) = (   0.5303301   0.0000000   0.0000000), wk =   0.0014648
        k(   66) = (   0.5745243   0.0441942  -0.0441942), wk =   0.0058594
        k(   67) = (  -0.0883883  -0.6187184   0.6187184), wk =   0.0058594
        k(   68) = (  -0.0441942  -0.5745243   0.5745243), wk =   0.0058594
        k(   69) = (   0.0000000  -0.5303301   0.5303301), wk =   0.0029297
        k(   70) = (   0.6187184   0.0000000   0.0000000), wk =   0.0014648
        k(   71) = (  -0.0441942  -0.6629126   0.6629126), wk =   0.0058594
        k(   72) = (   0.0000000  -0.6187184   0.6187184), wk =   0.0029297
        k(   73) = (  -0.7071068   0.0000000   0.0000000), wk =   0.0007324
        k(   74) = (   0.1767767   0.0883883   0.0000000), wk =   0.0058594
        k(   75) = (   0.2209709   0.1325825  -0.0441942), wk =   0.0117188
        k(   76) = (   0.2651650   0.1767767  -0.0883883), wk =   0.0117188
        k(   77) = (   0.3093592   0.2209709  -0.1325825), wk =   0.0117188
        k(   78) = (   0.3535534   0.2651650  -0.1767767), wk =   0.0117188
        k(   79) = (  -0.3093592  -0.3977476   0.4861359), wk =   0.0117188
        k(   80) = (  -0.2651650  -0.3535534   0.4419417), wk =   0.0058594
        k(   81) = (   0.2651650   0.0883883   0.0000000), wk =   0.0058594
        k(   82) = (   0.3093592   0.1325825  -0.0441942), wk =   0.0117188
        k(   83) = (   0.3535534   0.1767767  -0.0883883), wk =   0.0117188
        k(   84) = (   0.3977476   0.2209709  -0.1325825), wk =   0.0117188
        k(   85) = (  -0.2651650  -0.4419417   0.5303301), wk =   0.0117188
        k(   86) = (  -0.2209709  -0.3977476   0.4861359), wk =   0.0117188
        k(   87) = (  -0.1767767  -0.3535534   0.4419417), wk =   0.0117188
        k(   88) = (  -0.1325825  -0.3093592   0.3977476), wk =   0.0117188
        k(   89) = (  -0.0883883  -0.2651650   0.3535534), wk =   0.0117188
        k(   90) = (  -0.0441942  -0.2209709   0.3093592), wk =   0.0117188
        k(   91) = (   0.0000000  -0.1767767   0.2651650), wk =   0.0058594
        k(   92) = (   0.3535534   0.0883883   0.0000000), wk =   0.0058594
        k(   93) = (   0.3977476   0.1325825  -0.0441942), wk =   0.0117188
        k(   94) = (   0.4419417   0.1767767  -0.0883883), wk =   0.0117188
        k(   95) = (  -0.2209709  -0.4861359   0.5745243), wk =   0.0117188
        k(   96) = (  -0.1767767  -0.4419417   0.5303301), wk =   0.0117188
        k(   97) = (  -0.1325825  -0.3977476   0.4861359), wk =   0.0117188
        k(   98) = (  -0.0883883  -0.3535534   0.4419417), wk =   0.0117188
        k(   99) = (  -0.0441942  -0.3093592   0.3977476), wk =   0.0117188
        k(  100) = (   0.0000000  -0.2651650   0.3535534), wk =   0.0058594
        k(  101) = (   0.4419417   0.0883883   0.0000000), wk =   0.0058594
        k(  102) = (   0.4861359   0.1325825  -0.0441942), wk =   0.0117188
        k(  103) = (  -0.1767767  -0.5303301   0.6187184), wk =   0.0117188
        k(  104) = (  -0.1325825  -0.4861359   0.5745243), wk =   0.0117188
        k(  105) = (  -0.0883883  -0.4419417   0.5303301), wk =   0.0117188
        k(  106) = (  -0.0441942  -0.3977476   0.4861359), wk =   0.0117188
        k(  107) = (   0.0000000  -0.3535534   0.4419417), wk =   0.0058594
        k(  108) = (   0.5303301   0.0883883   0.0000000), wk =   0.0058594
        k(  109) = (  -0.1325825  -0.5745243   0.6629126), wk =   0.0117188
        k(  110) = (  -0.0883883  -0.5303301   0.6187184), wk =   0.0117188
        k(  111) = (  -0.0441942  -0.4861359   0.5745243), wk =   0.0117188
        k(  112) = (   0.0000000  -0.4419417   0.5303301), wk =   0.0058594
        k(  113) = (  -0.0883883  -0.6187184   0.7071068), wk =   0.0058594
        k(  114) = (  -0.0441942  -0.5745243   0.6629126), wk =   0.0117188
        k(  115) = (  -0.0000000  -0.5303301   0.6187184), wk =   0.0058594
        k(  116) = (  -0.7071068   0.0883883   0.0000000), wk =   0.0029297
        k(  117) = (   0.3535534   0.1767767   0.0000000), wk =   0.0058594
        k(  118) = (   0.3977476   0.2209709  -0.0441942), wk =   0.0117188
        k(  119) = (  -0.2651650  -0.4419417   0.6187184), wk =   0.0117188
        k(  120) = (  -0.2209709  -0.3977476   0.5745243), wk =   0.0117188
        k(  121) = (  -0.1767767  -0.3535534   0.5303301), wk =   0.0058594
        k(  122) = (   0.4419417   0.1767767   0.0000000), wk =   0.0058594
        k(  123) = (  -0.2209709  -0.4861359   0.6629126), wk =   0.0117188
        k(  124) = (  -0.1767767  -0.4419417   0.6187184), wk =   0.0117188
        k(  125) = (  -0.1325825  -0.3977476   0.5745243), wk =   0.0117188
        k(  126) = (  -0.0883883  -0.3535534   0.5303301), wk =   0.0117188
        k(  127) = (  -0.0441942  -0.3093592   0.4861359), wk =   0.0117188
        k(  128) = (   0.0000000  -0.2651650   0.4419417), wk =   0.0058594
        k(  129) = (  -0.1767767  -0.5303301   0.7071068), wk =   0.0058594
        k(  130) = (  -0.1325825  -0.4861359   0.6629126), wk =   0.0117188
        k(  131) = (  -0.0883883  -0.4419417   0.6187184), wk =   0.0117188
        k(  132) = (  -0.0441942  -0.3977476   0.5745243), wk =   0.0117188
        k(  133) = (   0.0000000  -0.3535534   0.5303301), wk =   0.0058594
        k(  134) = (  -0.0883883  -0.5303301   0.7071068), wk =   0.0058594
        k(  135) = (  -0.0441942  -0.4861359   0.6629126), wk =   0.0117188
        k(  136) = (   0.0000000  -0.4419417   0.6187184), wk =   0.0058594
        k(  137) = (  -0.7071068   0.1767767   0.0000000), wk =   0.0029297
        k(  138) = (  -0.1767767  -0.4419417   0.7071068), wk =   0.0058594
        k(  139) = (  -0.1325825  -0.3977476   0.6629126), wk =   0.0117188
        k(  140) = (  -0.0883883  -0.3535534   0.6187184), wk =   0.0058594
        k(  141) = (  -0.0883883  -0.4419417   0.7071068), wk =   0.0058594
        k(  142) = (  -0.0441942  -0.3977476   0.6629126), wk =   0.0117188
        k(  143) = (  -0.0000000  -0.3535534   0.6187184), wk =   0.0058594
        k(  144) = (  -0.7071068   0.2651650   0.0000000), wk =   0.0029297
        k(  145) = (  -0.7071068   0.3535534   0.0000000), wk =   0.0014648

                       cryst. coord.
        k(    1) = (   0.0000000   0.0000000   0.0000000), wk =   0.0002441
        k(    2) = (   0.0000000   0.0000000   0.0625000), wk =   0.0019531
        k(    3) = (   0.0000000   0.0000000   0.1250000), wk =   0.0019531
        k(    4) = (   0.0000000   0.0000000   0.1875000), wk =   0.0019531
        k(    5) = (   0.0000000   0.0000000   0.2500000), wk =   0.0019531
        k(    6) = (   0.0000000   0.0000000   0.3125000), wk =   0.0019531
        k(    7) = (   0.0000000   0.0000000   0.3750000), wk =   0.0019531
        k(    8) = (   0.0000000   0.0000000   0.4375000), wk =   0.0019531
        k(    9) = (   0.0000000   0.0000000  -0.5000000), wk =   0.0009766
        k(   10) = (   0.0000000   0.0625000   0.0625000), wk =   0.0014648
        k(   11) = (   0.0000000   0.0625000   0.1250000), wk =   0.0058594
        k(   12) = (   0.0000000   0.0625000   0.1875000), wk =   0.0058594
        k(   13) = (   0.0000000   0.0625000   0.2500000), wk =   0.0058594
        k(   14) = (   0.0000000   0.0625000   0.3125000), wk =   0.0058594
        k(   15) = (   0.0000000   0.0625000   0.3750000), wk =   0.0058594
        k(   16) = (   0.0000000   0.0625000   0.4375000), wk =   0.0058594
        k(   17) = (   0.0000000   0.0625000  -0.5000000), wk =   0.0058594
        k(   18) = (   0.0000000   0.0625000  -0.4375000), wk =   0.0058594
        k(   19) = (   0.0000000   0.0625000  -0.3750000), wk =   0.0058594
        k(   20) = (   0.0000000   0.0625000  -0.3125000), wk =   0.0058594
        k(   21) = (   0.0000000   0.0625000  -0.2500000), wk =   0.0058594
        k(   22) = (   0.0000000   0.0625000  -0.1875000), wk =   0.0058594
        k(   23) = (   0.0000000   0.0625000  -0.1250000), wk =   0.0058594
        k(   24) = (   0.0000000   0.0625000  -0.0625000), wk =   0.0029297
        k(   25) = (   0.0000000   0.1250000   0.1250000), wk =   0.0014648
        k(   26) = (   0.0000000   0.1250000   0.1875000), wk =   0.0058594
        k(   27) = (   0.0000000   0.1250000   0.2500000), wk =   0.0058594
        k(   28) = (   0.0000000   0.1250000   0.3125000), wk =   0.0058594
        k(   29) = (   0.0000000   0.1250000   0.3750000), wk =   0.0058594
        k(   30) = (   0.0000000   0.1250000   0.4375000), wk =   0.0058594
        k(   31) = (   0.0000000   0.1250000  -0.5000000), wk =   0.0058594
        k(   32) = (   0.0000000   0.1250000  -0.4375000), wk =   0.0058594
        k(   33) = (   0.0000000   0.1250000  -0.3750000), wk =   0.0058594
        k(   34) = (   0.0000000   0.1250000  -0.3125000), wk =   0.0058594
        k(   35) = (   0.0000000   0.1250000  -0.2500000), wk =   0.0058594
        k(   36) = (   0.0000000   0.1250000  -0.1875000), wk =   0.0058594
        k(   37) = (   0.0000000   0.1250000  -0.1250000), wk =   0.0029297
        k(   38) = (   0.0000000   0.1875000   0.1875000), wk =   0.0014648
        k(   39) = (   0.0000000   0.1875000   0.2500000), wk =   0.0058594
        k(   40) = (   0.0000000   0.1875000   0.3125000), wk =   0.0058594
        k(   41) = (   0.0000000   0.1875000   0.3750000), wk =   0.0058594
        k(   42) = (   0.0000000   0.1875000   0.4375000), wk =   0.0058594
        k(   43) = (   0.0000000   0.1875000  -0.5000000), wk =   0.0058594
        k(   44) = (   0.0000000   0.1875000  -0.4375000), wk =   0.0058594
        k(   45) = (   0.0000000   0.1875000  -0.3750000), wk =   0.0058594
        k(   46) = (   0.0000000   0.1875000  -0.3125000), wk =   0.0058594
        k(   47) = (   0.0000000   0.1875000  -0.2500000), wk =   0.0058594
        k(   48) = (   0.0000000   0.1875000  -0.1875000), wk =   0.0029297
        k(   49) = (   0.0000000   0.2500000   0.2500000), wk =   0.0014648
        k(   50) = (   0.0000000   0.2500000   0.3125000), wk =   0.0058594
        k(   51) = (   0.0000000   0.2500000   0.3750000), wk =   0.0058594
        k(   52) = (   0.0000000   0.2500000   0.4375000), wk =   0.0058594
        k(   53) = (   0.0000000   0.2500000  -0.5000000), wk =   0.0058594
        k(   54) = (   0.0000000   0.2500000  -0.4375000), wk =   0.0058594
        k(   55) = (   0.0000000   0.2500000  -0.3750000), wk =   0.0058594
        k(   56) = (   0.0000000   0.2500000  -0.3125000), wk =   0.0058594
        k(   57) = (   0.0000000   0.2500000  -0.2500000), wk =   0.0029297
        k(   58) = (   0.0000000   0.3125000   0.3125000), wk =   0.0014648
        k(   59) = (   0.0000000   0.3125000   0.3750000), wk =   0.0058594
        k(   60) = (   0.0000000   0.3125000   0.4375000), wk =   0.0058594
        k(   61) = (   0.0000000   0.3125000  -0.5000000), wk =   0.0058594
        k(   62) = (   0.0000000   0.3125000  -0.4375000), wk =   0.0058594
        k(   63) = (   0.0000000   0.3125000  -0.3750000), wk =   0.0058594
        k(   64) = (   0.0000000   0.3125000  -0.3125000), wk =   0.0029297
        k(   65) = (   0.0000000   0.3750000   0.3750000), wk =   0.0014648
        k(   66) = (   0.0000000   0.3750000   0.4375000), wk =   0.0058594
        k(   67) = (   0.0000000   0.3750000  -0.5000000), wk =   0.0058594
        k(   68) = (   0.0000000   0.3750000  -0.4375000), wk =   0.0058594
        k(   69) = (   0.0000000   0.3750000  -0.3750000), wk =   0.0029297
        k(   70) = (   0.0000000   0.4375000   0.4375000), wk =   0.0014648
        k(   71) = (   0.0000000   0.4375000  -0.5000000), wk =   0.0058594
        k(   72) = (   0.0000000   0.4375000  -0.4375000), wk =   0.0029297
        k(   73) = (   0.0000000  -0.5000000  -0.5000000), wk =   0.0007324
        k(   74) = (   0.0625000   0.1250000   0.1875000), wk =   0.0058594
        k(   75) = (   0.0625000   0.1250000   0.2500000), wk =   0.0117188
        k(   76) = (   0.0625000   0.1250000   0.3125000), wk =   0.0117188
        k(   77) = (   0.0625000   0.1250000   0.3750000), wk =   0.0117188
        k(   78) = (   0.0625000   0.1250000   0.4375000), wk =   0.0117188
        k(   79) = (   0.0625000   0.1250000  -0.5000000), wk =   0.0117188
        k(   80) = (   0.0625000   0.1250000  -0.4375000), wk =   0.0058594
        k(   81) = (   0.0625000   0.1875000   0.2500000), wk =   0.0058594
        k(   82) = (   0.0625000   0.1875000   0.3125000), wk =   0.0117188
        k(   83) = (   0.0625000   0.1875000   0.3750000), wk =   0.0117188
        k(   84) = (   0.0625000   0.1875000   0.4375000), wk =   0.0117188
        k(   85) = (   0.0625000   0.1875000  -0.5000000), wk =   0.0117188
        k(   86) = (   0.0625000   0.1875000  -0.4375000), wk =   0.0117188
        k(   87) = (   0.0625000   0.1875000  -0.3750000), wk =   0.0117188
        k(   88) = (   0.0625000   0.1875000  -0.3125000), wk =   0.0117188
        k(   89) = (   0.0625000   0.1875000  -0.2500000), wk =   0.0117188
        k(   90) = (   0.0625000   0.1875000  -0.1875000), wk =   0.0117188
        k(   91) = (   0.0625000   0.1875000  -0.1250000), wk =   0.0058594
        k(   92) = (   0.0625000   0.2500000   0.3125000), wk =   0.0058594
        k(   93) = (   0.0625000   0.2500000   0.3750000), wk =   0.0117188
        k(   94) = (   0.0625000   0.2500000   0.4375000), wk =   0.0117188
        k(   95) = (   0.0625000   0.2500000  -0.5000000), wk =   0.0117188
        k(   96) = (   0.0625000   0.2500000  -0.4375000), wk =   0.0117188
        k(   97) = (   0.0625000   0.2500000  -0.3750000), wk =   0.0117188
        k(   98) = (   0.0625000   0.2500000  -0.3125000), wk =   0.0117188
        k(   99) = (   0.0625000   0.2500000  -0.2500000), wk =   0.0117188
        k(  100) = (   0.0625000   0.2500000  -0.1875000), wk =   0.0058594
        k(  101) = (   0.0625000   0.3125000   0.3750000), wk =   0.0058594
        k(  102) = (   0.0625000   0.3125000   0.4375000), wk =   0.0117188
        k(  103) = (   0.0625000   0.3125000  -0.5000000), wk =   0.0117188
        k(  104) = (   0.0625000   0.3125000  -0.4375000), wk =   0.0117188
        k(  105) = (   0.0625000   0.3125000  -0.3750000), wk =   0.0117188
        k(  106) = (   0.0625000   0.3125000  -0.3125000), wk =   0.0117188
        k(  107) = (   0.0625000   0.3125000  -0.2500000), wk =   0.0058594
        k(  108) = (   0.0625000   0.3750000   0.4375000), wk =   0.0058594
        k(  109) = (   0.0625000   0.3750000  -0.5000000), wk =   0.0117188
        k(  110) = (   0.0625000   0.3750000  -0.4375000), wk =   0.0117188
        k(  111) = (   0.0625000   0.3750000  -0.3750000), wk =   0.0117188
        k(  112) = (   0.0625000   0.3750000  -0.3125000), wk =   0.0058594
        k(  113) = (   0.0625000   0.4375000  -0.5000000), wk =   0.0058594
        k(  114) = (   0.0625000   0.4375000  -0.4375000), wk =   0.0117188
        k(  115) = (   0.0625000   0.4375000  -0.3750000), wk =   0.0058594
        k(  116) = (   0.0625000  -0.5000000  -0.4375000), wk =   0.0029297
        k(  117) = (   0.1250000   0.2500000   0.3750000), wk =   0.0058594
        k(  118) = (   0.1250000   0.2500000   0.4375000), wk =   0.0117188
        k(  119) = (   0.1250000   0.2500000  -0.5000000), wk =   0.0117188
        k(  120) = (   0.1250000   0.2500000  -0.4375000), wk =   0.0117188
        k(  121) = (   0.1250000   0.2500000  -0.3750000), wk =   0.0058594
        k(  122) = (   0.1250000   0.3125000   0.4375000), wk =   0.0058594
        k(  123) = (   0.1250000   0.3125000  -0.5000000), wk =   0.0117188
        k(  124) = (   0.1250000   0.3125000  -0.4375000), wk =   0.0117188
        k(  125) = (   0.1250000   0.3125000  -0.3750000), wk =   0.0117188
        k(  126) = (   0.1250000   0.3125000  -0.3125000), wk =   0.0117188
        k(  127) = (   0.1250000   0.3125000  -0.2500000), wk =   0.0117188
        k(  128) = (   0.1250000   0.3125000  -0.1875000), wk =   0.0058594
        k(  129) = (   0.1250000   0.3750000  -0.5000000), wk =   0.0058594
        k(  130) = (   0.1250000   0.3750000  -0.4375000), wk =   0.0117188
        k(  131) = (   0.1250000   0.3750000  -0.3750000), wk =   0.0117188
        k(  132) = (   0.1250000   0.3750000  -0.3125000), wk =   0.0117188
        k(  133) = (   0.1250000   0.3750000  -0.2500000), wk =   0.0058594
        k(  134) = (   0.1250000   0.4375000  -0.4375000), wk =   0.0058594
        k(  135) = (   0.1250000   0.4375000  -0.3750000), wk =   0.0117188
        k(  136) = (   0.1250000   0.4375000  -0.3125000), wk =   0.0058594
        k(  137) = (   0.1250000  -0.5000000  -0.3750000), wk =   0.0029297
        k(  138) = (   0.1875000   0.3750000  -0.4375000), wk =   0.0058594
        k(  139) = (   0.1875000   0.3750000  -0.3750000), wk =   0.0117188
        k(  140) = (   0.1875000   0.3750000  -0.3125000), wk =   0.0058594
        k(  141) = (   0.1875000   0.4375000  -0.3750000), wk =   0.0058594
        k(  142) = (   0.1875000   0.4375000  -0.3125000), wk =   0.0117188
        k(  143) = (   0.1875000   0.4375000  -0.2500000), wk =   0.0058594
        k(  144) = (   0.1875000  -0.5000000  -0.3125000), wk =   0.0029297
        k(  145) = (   0.2500000  -0.5000000  -0.2500000), wk =   0.0014648

     Dense  grid:    20395 G-vectors     FFT dimensions: (  40,  40,  40)

     Largest allocated arrays     est. size (Mb)     dimensions
        Kohn-Sham Wavefunctions         0.18 Mb     (     328,   36)
        NL pseudopotentials             0.17 Mb     (     164,   68)
        Each V/rho on FFT grid          0.07 Mb     (    4800)
        Each G-vector array             0.01 Mb     (    1275)
        G-vector shells                 0.00 Mb     (     222)
     Largest temporary arrays     est. size (Mb)     dimensions
        Auxiliary wavefunctions         0.72 Mb     (     328,  144)
        Each subspace H/S matrix        0.32 Mb     (     144,  144)
        Each <psi_i|beta_j> matrix      0.07 Mb     (      68,   2,   36)
        Arrays for rho mixing           0.59 Mb     (    4800,    8)

     Check: negative/imaginary core charge=   -0.000007    0.000000

     Initial potential from superposition of free atoms

     starting charge   27.99801, renormalised to   28.00000
     Starting wfc are   36 randomized atomic wfcs
     Checking if some PAW data can be deallocated... 

     total cpu time spent up to now is        8.0 secs

     Self-consistent Calculation

     iteration #  1     ecut=    45.00 Ry     beta=0.70
     Davidson diagonalization with overlap
     ethr =  1.00E-02,  avg # of iterations =  3.4

     Threshold (ethr) on eigenvalues was too large:
     Diagonalizing with lowered threshold

     Davidson diagonalization with overlap
     ethr =  5.65E-05,  avg # of iterations =  3.4

     total cpu time spent up to now is       50.1 secs

     total energy              =    -874.79246423 Ry
     Harris-Foulkes estimate   =    -874.79640821 Ry
     estimated scf accuracy    <       0.01863490 Ry

     iteration #  2     ecut=    45.00 Ry     beta=0.70
     Davidson diagonalization with overlap
     ethr =  6.66E-05,  avg # of iterations =  1.0

     total cpu time spent up to now is       65.4 secs

     total energy              =    -874.79333183 Ry
     Harris-Foulkes estimate   =    -874.79365099 Ry
     estimated scf accuracy    <       0.00156449 Ry

     iteration #  3     ecut=    45.00 Ry     beta=0.70
     Davidson diagonalization with overlap
     ethr =  5.59E-06,  avg # of iterations =  2.2

     total cpu time spent up to now is       86.4 secs

     total energy              =    -874.79365237 Ry
     Harris-Foulkes estimate   =    -874.79370764 Ry
     estimated scf accuracy    <       0.00008961 Ry

     iteration #  4     ecut=    45.00 Ry     beta=0.70
     Davidson diagonalization with overlap
     ethr =  3.20E-07,  avg # of iterations =  2.1

     total cpu time spent up to now is      108.4 secs

     total energy              =    -874.79368146 Ry
     Harris-Foulkes estimate   =    -874.79368065 Ry
     estimated scf accuracy    <       0.00000346 Ry

     iteration #  5     ecut=    45.00 Ry     beta=0.70
     Davidson diagonalization with overlap
     ethr =  1.23E-08,  avg # of iterations =  2.0

     total cpu time spent up to now is      125.8 secs

     End of self-consistent calculation

          k = 0.0000 0.0000 0.0000 (  2637 PWs)   bands (ev):

   -15.2256 -15.2256 -15.2256 -15.2256 -15.1455 -15.1455 -15.1455 -15.1455
   -14.2970 -14.2970 -14.1273 -14.1273 -14.1273 -14.1273 -14.0893 -14.0893
   -14.0893 -14.0893 -13.9859 -13.9859  -3.3408  -3.3408   5.5251   5.5251
     6.3993   6.3993   7.0547   7.0547   7.0547   7.0547   8.5694   8.5694
     9.0441   9.0441   9.0441   9.0441

     occupation numbers 
     1.0000   1.0000   1.0000   1.0000   1.0000   1.0000   1.0000   1.0000
     1.0000   1.0000   1.0000   1.0000   1.0000   1.0000   1.0000   1.0000
     1.0000   1.0000   1.0000   1.0000   1.0000   1.0000   1.0000   1.0000
     1.0000   1.0000   0.0000   0.0000   0.0000   0.0000   0.0000   0.0000
     0.0000   0.0000   0.0000   0.0000

          k = 0.0442 0.0442-0.0442 (  2604 PWs)   bands (ev):

   -15.2259 -15.2259 -15.2246 -15.2246 -15.1457 -15.1457 -15.1447 -15.1447
   -14.2951 -14.2951 -14.1320 -14.1320 -14.1299 -14.1299 -14.0859 -14.0859
   -14.0848 -14.0848 -13.9865 -13.9865  -3.3060  -3.3060   5.1285   5.1285
     6.4425   6.4425   6.9794   6.9794   7.1039   7.1039   8.7272   8.7272
     9.1229   9.1229   9.1415   9.1415

     occupation numbers 
     1.0000   1.0000   1.0000   1.0000   1.0000   1.0000   1.0000   1.0000
     1.0000   1.0000   1.0000   1.0000   1.0000   1.0000   1.0000   1.0000
     1.0000   1.0000   1.0000   1.0000   1.0000   1.0000   1.0000   1.0000
     1.0000   1.0000   0.0000   0.0000   0.0000   0.0000   0.0000   0.0000
     0.0000   0.0000   0.0000   0.0000

          k = 0.0884 0.0884-0.0884 (  2574 PWs)   bands (ev):

   -15.2269 -15.2269 -15.2224 -15.2224 -15.1477 -15.1477 -15.1428 -15.1428
   -14.2899 -14.2899 -14.1428 -14.1428 -14.1369 -14.1369 -14.0781 -14.0781
   -14.0757 -14.0757 -13.9890 -13.9890  -3.2025  -3.2025   4.3745   4.3745
     6.3380   6.3380   6.7967   6.7967   7.1351   7.1351   9.0555   9.0555
     9.3793   9.3793   9.4679   9.4679

     occupation numbers 
     1.0000   1.0000   1.0000   1.0000   1.0000   1.0000   1.0000   1.0000
     1.0000   1.0000   1.0000   1.0000   1.0000   1.0000   1.0000   1.0000
     1.0000   1.0000   1.0000   1.0000   1.0000   1.0000   1.0000   1.0000
     1.0000   1.0000   0.5107   0.5107   0.0000   0.0000   0.0000   0.0000
     0.0000   0.0000   0.0000   0.0000

          k = 0.1326 0.1326-0.1326 (  2571 PWs)   bands (ev):

   -15.2284 -15.2284 -15.2188 -15.2188 -15.1515 -15.1515 -15.1407 -15.1407
   -14.2818 -14.2818 -14.1559 -14.1559 -14.1451 -14.1451 -14.0692 -14.0692
   -14.0660 -14.0660 -13.9935 -13.9935  -3.0331  -3.0331   3.5507   3.5507
     6.1431   6.1431   6.5777   6.5777   7.0474   7.0474   9.3412   9.3412
     9.6534   9.6534  10.1274  10.1274

     occupation numbers 
     1.0000   1.0000   1.0000   1.0000   1.0000   1.0000   1.0000   1.0000
     1.0000   1.0000   1.0000   1.0000   1.0000   1.0000   1.0000   1.0000
     1.0000   1.0000   1.0000   1.0000   1.0000   1.0000   1.0000   1.0000
     1.0000   1.0000   1.0000   1.0000   0.0000   0.0000   0.0000   0.0000
     0.0000   0.0000   0.0000   0.0000

          k = 0.1768 0.1768-0.1768 (  2563 PWs)   bands (ev):

   -15.2301 -15.2301 -15.2140 -15.2140 -15.1560 -15.1560 -15.1384 -15.1384
   -14.2715 -14.2715 -14.1695 -14.1695 -14.1525 -14.1525 -14.0610 -14.0610
   -14.0565 -14.0565 -13.9989 -13.9989  -2.8042  -2.8042   2.7425   2.7425
     5.9429   5.9429   6.3684   6.3684   6.9033   6.9033   9.5716   9.5716
     9.8742   9.8742  10.9293  10.9293

     occupation numbers 
     1.0000   1.0000   1.0000   1.0000   1.0000   1.0000   1.0000   1.0000
     1.0000   1.0000   1.0000   1.0000   1.0000   1.0000   1.0000   1.0000
     1.0000   1.0000   1.0000   1.0000   1.0000   1.0000   1.0000   1.0000
     1.0000   1.0000   1.0000   1.0000   0.0000   0.0000   0.0000   0.0000
     0.0000   0.0000   0.0000   0.0000

          k = 0.2210 0.2210-0.2210 (  2557 PWs)   bands (ev):

   -15.2316 -15.2316 -15.2083 -15.2083 -15.1615 -15.1615 -15.1362 -15.1362
   -14.2596 -14.2596 -14.1828 -14.1828 -14.1588 -14.1588 -14.0536 -14.0536
   -14.0481 -14.0481 -14.0055 -14.0055  -2.5288  -2.5288   1.9962   1.9962
     5.7709   5.7709   6.1921   6.1921   6.7610   6.7610   9.7197   9.7197
     9.9975   9.9975  11.7866  11.7866

     occupation numbers 
     1.0000   1.0000   1.0000   1.0000   1.0000   1.0000   1.0000   1.0000
     1.0000   1.0000   1.0000   1.0000   1.0000   1.0000   1.0000   1.0000
     1.0000   1.0000   1.0000   1.0000   1.0000   1.0000   1.0000   1.0000
     1.0000   1.0000   1.0000   1.0000   1.0000   1.0000   0.0000   0.0000
     0.0000   0.0000   0.0000   0.0000

          k = 0.2652 0.2652-0.2652 (  2545 PWs)   bands (ev):

   -15.2327 -15.2327 -15.2020 -15.2020 -15.1674 -15.1674 -15.1344 -15.1344
   -14.2470 -14.2470 -14.1956 -14.1956 -14.1634 -14.1634 -14.0479 -14.0479
   -14.0402 -14.0402 -14.0124 -14.0124  -2.2349  -2.2349   1.3569   1.3569
     5.6415   5.6415   6.0606   6.0606   6.6484   6.6484   9.7881   9.7881
    10.0381  10.0381  12.4231  12.4231

     occupation numbers 
     1.0000   1.0000   1.0000   1.0000   1.0000   1.0000   1.0000   1.0000
     1.0000   1.0000   1.0000   1.0000   1.0000   1.0000   1.0000   1.0000
     1.0000   1.0000   1.0000   1.0000   1.0000   1.0000   1.0000   1.0000
     1.0000   1.0000   1.0000   1.0000   1.0000   1.0000   0.0000   0.0000
     0.0000   0.0000   0.0000   0.0000

          k = 0.3094 0.3094-0.3094 (  2545 PWs)   bands (ev):

   -15.2336 -15.2336 -15.1964 -15.1964 -15.1730 -15.1730 -15.1332 -15.1332
   -14.2348 -14.2348 -14.2078 -14.2078 -14.1664 -14.1664 -14.0442 -14.0442
   -14.0335 -14.0335 -14.0191 -14.0191  -1.9828  -1.9828   0.8942   0.8942
     5.5618   5.5618   5.9799   5.9799   6.5777   6.5777   9.8089   9.8089
    10.0396  10.0396  12.4267  12.4267

     occupation numbers 
     1.0000   1.0000   1.0000   1.0000   1.0000   1.0000   1.0000   1.0000
     1.0000   1.0000   1.0000   1.0000   1.0000   1.0000   1.0000   1.0000
     1.0000   1.0000   1.0000   1.0000   1.0000   1.0000   1.0000   1.0000
     1.0000   1.0000   1.0000   1.0000   1.0000   1.0000   0.0000   0.0000
     0.0000   0.0000   0.0000   0.0000

          k =-0.3536-0.3536 0.3536 (  2536 PWs)   bands (ev):

   -15.2339 -15.2339 -15.1935 -15.1935 -15.1757 -15.1757 -15.1327 -15.1327
   -14.2261 -14.2261 -14.2162 -14.2162 -14.1675 -14.1675 -14.0428 -14.0428
   -14.0285 -14.0285 -14.0241 -14.0241  -1.8761  -1.8761   0.7169   0.7169
     5.5349   5.5349   5.9527   5.9527   6.5537   6.5537   9.8121   9.8121
    10.0361  10.0361  12.3992  12.3992

     occupation numbers 
     1.0000   1.0000   1.0000   1.0000   1.0000   1.0000   1.0000   1.0000
     1.0000   1.0000   1.0000   1.0000   1.0000   1.0000   1.0000   1.0000
     1.0000   1.0000   1.0000   1.0000   1.0000   1.0000   1.0000   1.0000
     1.0000   1.0000   1.0000   1.0000   1.0000   1.0000   0.0000   0.0000
     0.0000   0.0000   0.0000   0.0000

          k = 0.0884 0.0000 0.0000 (  2601 PWs)   bands (ev):

   -15.2256 -15.2256 -15.2250 -15.2250 -15.1455 -15.1455 -15.1447 -15.1447
   -14.2946 -14.2946 -14.1344 -14.1344 -14.1297 -14.1297 -14.0853 -14.0853
   -14.0835 -14.0835 -13.9866 -13.9866  -3.2944  -3.2944   5.0485   5.0485
     6.3762   6.3762   6.7968   6.7968   7.3611   7.3611   8.6412   8.6412
     9.1389   9.1389   9.2755   9.2755

     occupation numbers 
     1.0000   1.0000   1.0000   1.0000   1.0000   1.0000   1.0000   1.0000
     1.0000   1.0000   1.0000   1.0000   1.0000   1.0000   1.0000   1.0000
     1.0000   1.0000   1.0000   1.0000   1.0000   1.0000   1.0000   1.0000
     1.0000   1.0000   0.4857   0.4857   0.0000   0.0000   0.0000   0.0000
     0.0000   0.0000   0.0000   0.0000

          k = 0.1326 0.0442-0.0442 (  2583 PWs)   bands (ev):

   -15.2264 -15.2264 -15.2232 -15.2232 -15.1471 -15.1471 -15.1434 -15.1434
   -14.2905 -14.2905 -14.1432 -14.1432 -14.1347 -14.1347 -14.0799 -14.0799
   -14.0762 -14.0762 -13.9885 -13.9885  -3.2135  -3.2135   4.4898   4.4898
     6.2372   6.2372   6.5832   6.5832   7.5558   7.5558   8.7049   8.7049
     9.4243   9.4243   9.5754   9.5754

     occupation numbers 
     1.0000   1.0000   1.0000   1.0000   1.0000   1.0000   1.0000   1.0000
     1.0000   1.0000   1.0000   1.0000   1.0000   1.0000   1.0000   1.0000
     1.0000   1.0000   1.0000   1.0000   1.0000   1.0000   1.0000   1.0000
     1.0000   1.0000   1.0000   1.0000   0.0000   0.0000   0.0000   0.0000
     0.0000   0.0000   0.0000   0.0000

          k = 0.1768 0.0884-0.0884 (  2573 PWs)   bands (ev):

   -15.2278 -15.2278 -15.2200 -15.2200 -15.1504 -15.1504 -15.1414 -15.1414
   -14.2834 -14.2834 -14.1550 -14.1550 -14.1419 -14.1419 -14.0732 -14.0732
   -14.0660 -14.0660 -13.9923 -13.9923  -3.0657  -3.0657   3.7423   3.7423
     6.0319   6.0319   6.3620   6.3620   7.5450   7.5450   8.9486   8.9486
     9.7583   9.7583  10.0781  10.0781

     occupation numbers 
     1.0000   1.0000   1.0000   1.0000   1.0000   1.0000   1.0000   1.0000
     1.0000   1.0000   1.0000   1.0000   1.0000   1.0000   1.0000   1.0000
     1.0000   1.0000   1.0000   1.0000   1.0000   1.0000   1.0000   1.0000
     1.0000   1.0000   1.0000   1.0000   0.0000   0.0000   0.0000   0.0000
     0.0000   0.0000   0.0000   0.0000

          k = 0.2210 0.1326-0.1326 (  2569 PWs)   bands (ev):

   -15.2295 -15.2295 -15.2156 -15.2156 -15.1547 -15.1547 -15.1391 -15.1391
   -14.2738 -14.2738 -14.1676 -14.1676 -14.1493 -14.1493 -14.0667 -14.0667
   -14.0558 -14.0558 -13.9972 -13.9972  -2.8556  -2.8556   2.9581   2.9581
     5.8149   5.8149   6.1431   6.1431   7.4238   7.4238   9.2554   9.2554
    10.0129  10.0129  10.7044  10.7044

     occupation numbers 
     1.0000   1.0000   1.0000   1.0000   1.0000   1.0000   1.0000   1.0000
     1.0000   1.0000   1.0000   1.0000   1.0000   1.0000   1.0000   1.0000
     1.0000   1.0000   1.0000   1.0000   1.0000   1.0000   1.0000   1.0000
     1.0000   1.0000   1.0000   1.0000   0.0000   0.0000   0.0000   0.0000
     0.0000   0.0000   0.0000   0.0000

          k = 0.2652 0.1768-0.1768 (  2554 PWs)   bands (ev):

   -15.2310 -15.2310 -15.2101 -15.2101 -15.1599 -15.1599 -15.1367 -15.1367
   -14.2624 -14.2624 -14.1801 -14.1801 -14.1558 -14.1558 -14.0608 -14.0608
   -14.0466 -14.0466 -14.0027 -14.0027  -2.5936  -2.5936   2.2066   2.2066
     5.6188   5.6188   5.9569   5.9569   7.2775   7.2775   9.5093   9.5093
    10.1513  10.1513  11.3721  11.3722

     occupation numbers 
     1.0000   1.0000   1.0000   1.0000   1.0000   1.0000   1.0000   1.0000
     1.0000   1.0000   1.0000   1.0000   1.0000   1.0000   1.0000   1.0000
     1.0000   1.0000   1.0000   1.0000   1.0000   1.0000   1.0000   1.0000
     1.0000   1.0000   1.0000   1.0000   0.0000   0.0000   0.0000   0.0000
     0.0000   0.0000   0.0000   0.0000

          k = 0.3094 0.2210-0.2210 (  2548 PWs)   bands (ev):

   -15.2324 -15.2324 -15.2039 -15.2039 -15.1658 -15.1658 -15.1347 -15.1347
   -14.2503 -14.2503 -14.1923 -14.1923 -14.1612 -14.1612 -14.0560 -14.0560
   -14.0388 -14.0388 -14.0084 -14.0084  -2.3011  -2.3011   1.5371   1.5371
     5.4572   5.4572   5.8231   5.8231   7.1477   7.1477   9.6643   9.6643
    10.1812  10.1812  12.0306  12.0306

     occupation numbers 
     1.0000   1.0000   1.0000   1.0000   1.0000   1.0000   1.0000   1.0000
     1.0000   1.0000   1.0000   1.0000   1.0000   1.0000   1.0000   1.0000
     1.0000   1.0000   1.0000   1.0000   1.0000   1.0000   1.0000   1.0000
     1.0000   1.0000   1.0000   1.0000   0.0000   0.0000   0.0000   0.0000
     0.0000   0.0000   0.0000   0.0000

          k = 0.3536 0.2652-0.2652 (  2548 PWs)   bands (ev):

   -15.2333 -15.2333 -15.1981 -15.1981 -15.1717 -15.1717 -15.1332 -15.1332
   -14.2384 -14.2384 -14.2037 -14.2037 -14.1649 -14.1649 -14.0527 -14.0527
   -14.0329 -14.0329 -14.0135 -14.0135  -2.0248  -2.0248   1.0112   1.0112
     5.3378   5.3378   5.7498   5.7498   7.0531   7.0531   9.7468   9.7468
    10.1488  10.1488  12.4403  12.4404

     occupation numbers 
     1.0000   1.0000   1.0000   1.0000   1.0000   1.0000   1.0000   1.0000
     1.0000   1.0000   1.0000   1.0000   1.0000   1.0000   1.0000   1.0000
     1.0000   1.0000   1.0000   1.0000   1.0000   1.0000   1.0000   1.0000
     1.0000   1.0000   1.0000   1.0000   0.0000   0.0000   0.0000   0.0000
     0.0000   0.0000   0.0000   0.0000

          k =-0.3094-0.3977 0.3977 (  2540 PWs)   bands (ev):

   -15.2337 -15.2337 -15.1939 -15.1939 -15.1757 -15.1757 -15.1325 -15.1325
   -14.2286 -14.2286 -14.2131 -14.2131 -14.1665 -14.1665 -14.0512 -14.0512
   -14.0292 -14.0292 -14.0167 -14.0167  -1.8564  -1.8564   0.7282   0.7282
     5.2666   5.2666   5.7385   5.7385   7.0020   7.0020   9.7979   9.7979
    10.0992  10.0992  12.5218  12.5218

     occupation numbers 
     1.0000   1.0000   1.0000   1.0000   1.0000   1.0000   1.0000   1.0000
     1.0000   1.0000   1.0000   1.0000   1.0000   1.0000   1.0000   1.0000
     1.0000   1.0000   1.0000   1.0000   1.0000   1.0000   1.0000   1.0000
     1.0000   1.0000   1.0000   1.0000   0.0000   0.0000   0.0000   0.0000
     0.0000   0.0000   0.0000   0.0000

          k =-0.2652-0.3536 0.3536 (  2538 PWs)   bands (ev):

   -15.2336 -15.2336 -15.1948 -15.1948 -15.1748 -15.1748 -15.1326 -15.1326
   -14.2313 -14.2313 -14.2105 -14.2105 -14.1661 -14.1661 -14.0516 -14.0516
   -14.0298 -14.0298 -14.0160 -14.0160  -1.8935  -1.8935   0.7885   0.7885
     5.2483   5.2483   5.7872   5.7872   6.9974   6.9974   9.8330   9.8330
    10.0617  10.0618  12.5354  12.5354

     occupation numbers 
     1.0000   1.0000   1.0000   1.0000   1.0000   1.0000   1.0000   1.0000
     1.0000   1.0000   1.0000   1.0000   1.0000   1.0000   1.0000   1.0000
     1.0000   1.0000   1.0000   1.0000   1.0000   1.0000   1.0000   1.0000
     1.0000   1.0000   1.0000   1.0000   0.0000   0.0000   0.0000   0.0000
     0.0000   0.0000   0.0000   0.0000

          k =-0.2210-0.3094 0.3094 (  2548 PWs)   bands (ev):

   -15.2331 -15.2331 -15.1998 -15.1998 -15.1699 -15.1699 -15.1336 -15.1336
   -14.2423 -14.2423 -14.2000 -14.2000 -14.1637 -14.1637 -14.0541 -14.0541
   -14.0340 -14.0340 -14.0121 -14.0121  -2.1110  -2.1110   1.1665   1.1665
     5.2863   5.2863   5.8917   5.8917   7.0388   7.0388   9.8298   9.8298
    10.0519  10.0519  12.4385  12.4385

     occupation numbers 
     1.0000   1.0000   1.0000   1.0000   1.0000   1.0000   1.0000   1.0000
     1.0000   1.0000   1.0000   1.0000   1.0000   1.0000   1.0000   1.0000
     1.0000   1.0000   1.0000   1.0000   1.0000   1.0000   1.0000   1.0000
     1.0000   1.0000   1.0000   1.0000   0.0000   0.0000   0.0000   0.0000
     0.0000   0.0000   0.0000   0.0000

          k =-0.1768-0.2652 0.2652 (  2550 PWs)   bands (ev):

   -15.2320 -15.2320 -15.2058 -15.2058 -15.1639 -15.1639 -15.1352 -15.1352
   -14.2544 -14.2544 -14.1883 -14.1883 -14.1593 -14.1593 -14.0582 -14.0582
   -14.0404 -14.0404 -14.0067 -14.0067  -2.4004  -2.4004   1.7490   1.7490
     5.3827   5.3827   6.0455   6.0455   7.1218   7.1218   9.7572   9.7572
    10.0428  10.0428  11.8881  11.8881

     occupation numbers 
     1.0000   1.0000   1.0000   1.0000   1.0000   1.0000   1.0000   1.0000
     1.0000   1.0000   1.0000   1.0000   1.0000   1.0000   1.0000   1.0000
     1.0000   1.0000   1.0000   1.0000   1.0000   1.0000   1.0000   1.0000
     1.0000   1.0000   1.0000   1.0000   0.0000   0.0000   0.0000   0.0000
     0.0000   0.0000   0.0000   0.0000

          k =-0.1326-0.2210 0.2210 (  2560 PWs)   bands (ev):

   -15.2306 -15.2306 -15.2118 -15.2118 -15.1583 -15.1583 -15.1374 -15.1374
   -14.2664 -14.2664 -14.1761 -14.1761 -14.1536 -14.1536 -14.0636 -14.0636
   -14.0485 -14.0485 -14.0009 -14.0009  -2.6863  -2.6863   2.4504   2.4504
     5.5381   5.5381   6.2384   6.2384   7.2345   7.2345   9.6016   9.6016
     9.9492   9.9492  11.1684  11.1685

     occupation numbers 
     1.0000   1.0000   1.0000   1.0000   1.0000   1.0000   1.0000   1.0000
     1.0000   1.0000   1.0000   1.0000   1.0000   1.0000   1.0000   1.0000
     1.0000   1.0000   1.0000   1.0000   1.0000   1.0000   1.0000   1.0000
     1.0000   1.0000   1.0000   1.0000   0.0000   0.0000   0.0000   0.0000
     0.0000   0.0000   0.0000   0.0000

          k =-0.0884-0.1768 0.1768 (  2573 PWs)   bands (ev):

   -15.2290 -15.2290 -15.2170 -15.2170 -15.1535 -15.1535 -15.1397 -15.1397
   -14.2772 -14.2772 -14.1635 -14.1635 -14.1467 -14.1467 -14.0699 -14.0699
   -14.0582 -14.0582 -13.9955 -13.9955  -2.9325  -2.9325   3.2155   3.2155
     5.7511   5.7511   6.4530   6.4530   7.3493   7.3493   9.3696   9.3696
     9.6943   9.6943  10.5273  10.5273

     occupation numbers 
     1.0000   1.0000   1.0000   1.0000   1.0000   1.0000   1.0000   1.0000
     1.0000   1.0000   1.0000   1.0000   1.0000   1.0000   1.0000   1.0000
     1.0000   1.0000   1.0000   1.0000   1.0000   1.0000   1.0000   1.0000
     1.0000   1.0000   1.0000   1.0000   0.0000   0.0000   0.0000   0.0000
     0.0000   0.0000   0.0000   0.0000

          k =-0.0442-0.1326 0.1326 (  2581 PWs)   bands (ev):

   -15.2275 -15.2275 -15.2210 -15.2210 -15.1495 -15.1495 -15.1420 -15.1420
   -14.2861 -14.2861 -14.1508 -14.1508 -14.1395 -14.1395 -14.0765 -14.0765
   -14.0685 -14.0685 -13.9910 -13.9910  -3.1225  -3.1225   3.9900   3.9900
     6.0152   6.0152   6.6593   6.6593   7.4044   7.4044   9.1024   9.1024
     9.3481   9.3481   9.9740   9.9740

     occupation numbers 
     1.0000   1.0000   1.0000   1.0000   1.0000   1.0000   1.0000   1.0000
     1.0000   1.0000   1.0000   1.0000   1.0000   1.0000   1.0000   1.0000
     1.0000   1.0000   1.0000   1.0000   1.0000   1.0000   1.0000   1.0000
     1.0000   1.0000   1.0000   1.0000   0.0000   0.0000   0.0000   0.0000
     0.0000   0.0000   0.0000   0.0000

          k = 0.0000-0.0884 0.0884 (  2583 PWs)   bands (ev):

   -15.2263 -15.2263 -15.2236 -15.2236 -15.1466 -15.1466 -15.1437 -15.1437
   -14.2922 -14.2922 -14.1392 -14.1392 -14.1331 -14.1331 -14.0824 -14.0824
   -14.0784 -14.0784 -13.9878 -13.9878  -3.2482  -3.2482   4.6869   4.6869
     6.2979   6.2979   6.8220   6.8220   7.3060   7.3060   8.8598   8.8598
     9.1382   9.1382   9.4786   9.4786

     occupation numbers 
     1.0000   1.0000   1.0000   1.0000   1.0000   1.0000   1.0000   1.0000
     1.0000   1.0000   1.0000   1.0000   1.0000   1.0000   1.0000   1.0000
     1.0000   1.0000   1.0000   1.0000   1.0000   1.0000   1.0000   1.0000
     1.0000   1.0000   0.0000   0.0000   0.0000   0.0000   0.0000   0.0000
     0.0000   0.0000   0.0000   0.0000

          k = 0.1768 0.0000 0.0000 (  2585 PWs)   bands (ev):

   -15.2259 -15.2259 -15.2233 -15.2233 -15.1475 -15.1475 -15.1436 -15.1436
   -14.2876 -14.2876 -14.1493 -14.1493 -14.1365 -14.1365 -14.0757 -14.0757
   -14.0740 -14.0740 -13.9897 -13.9897  -3.1554  -3.1554   4.2418   4.2418
     6.0472   6.0472   6.3049   6.3049   8.0179   8.0179   8.3914   8.3914
     9.7284   9.7284   9.8321   9.8321

     occupation numbers 
     1.0000   1.0000   1.0000   1.0000   1.0000   1.0000   1.0000   1.0000
     1.0000   1.0000   1.0000   1.0000   1.0000   1.0000   1.0000   1.0000
     1.0000   1.0000   1.0000   1.0000   1.0000   1.0000   1.0000   1.0000
     1.0000   1.0000   1.0000   1.0000   0.0000   0.0000   0.0000   0.0000
     0.0000   0.0000   0.0000   0.0000

          k = 0.2210 0.0442-0.0442 (  2577 PWs)   bands (ev):

   -15.2267 -15.2267 -15.2209 -15.2209 -15.1498 -15.1498 -15.1422 -15.1422
   -14.2816 -14.2816 -14.1588 -14.1588 -14.1412 -14.1412 -14.0722 -14.0722
   -14.0656 -14.0656 -13.9924 -13.9924  -3.0294  -3.0294   3.7031   3.7031
     5.8264   5.8264   6.0613   6.0613   8.1587   8.1587   8.4207   8.4207
    10.0980  10.0980  10.2240  10.2240

     occupation numbers 
     1.0000   1.0000   1.0000   1.0000   1.0000   1.0000   1.0000   1.0000
     1.0000   1.0000   1.0000   1.0000   1.0000   1.0000   1.0000   1.0000
     1.0000   1.0000   1.0000   1.0000   1.0000   1.0000   1.0000   1.0000
     1.0000   1.0000   1.0000   1.0000   0.0000   0.0000   0.0000   0.0000
     0.0000   0.0000   0.0000   0.0000

          k = 0.2652 0.0884-0.0884 (  2565 PWs)   bands (ev):

   -15.2283 -15.2283 -15.2169 -15.2169 -15.1536 -15.1536 -15.1399 -15.1399
   -14.2730 -14.2730 -14.1697 -14.1697 -14.1468 -14.1468 -14.0695 -14.0695
   -14.0551 -14.0551 -13.9960 -13.9960  -2.8393  -2.8393   3.0312   3.0312
     5.5734   5.5734   5.8377   5.8377   8.0829   8.0829   8.7112   8.7112
    10.3927  10.3927  10.6352  10.6353

     occupation numbers 
     1.0000   1.0000   1.0000   1.0000   1.0000   1.0000   1.0000   1.0000
     1.0000   1.0000   1.0000   1.0000   1.0000   1.0000   1.0000   1.0000
     1.0000   1.0000   1.0000   1.0000   1.0000   1.0000   1.0000   1.0000
     1.0000   1.0000   1.0000   1.0000   0.0000   0.0000   0.0000   0.0000
     0.0000   0.0000   0.0000   0.0000

          k = 0.3094 0.1326-0.1326 (  2553 PWs)   bands (ev):

   -15.2300 -15.2300 -15.2118 -15.2118 -15.1584 -15.1584 -15.1373 -15.1373
   -14.2626 -14.2626 -14.1807 -14.1807 -14.1524 -14.1524 -14.0672 -14.0672
   -14.0454 -14.0454 -13.9998 -13.9998  -2.5929  -2.5929   2.3320   2.3320
     5.3150   5.3150   5.6608   5.6608   7.9467   7.9467   9.0855   9.0855
    10.5625  10.5625  10.9404  10.9404

     occupation numbers 
     1.0000   1.0000   1.0000   1.0000   1.0000   1.0000   1.0000   1.0000
     1.0000   1.0000   1.0000   1.0000   1.0000   1.0000   1.0000   1.0000
     1.0000   1.0000   1.0000   1.0000   1.0000   1.0000   1.0000   1.0000
     1.0000   1.0000   1.0000   1.0000   0.0000   0.0000   0.0000   0.0000
     0.0000   0.0000   0.0000   0.0000

          k = 0.3536 0.1768-0.1768 (  2550 PWs)   bands (ev):

   -15.2316 -15.2316 -15.2060 -15.2060 -15.1643 -15.1643 -15.1350 -15.1350
   -14.2514 -14.2514 -14.1912 -14.1912 -14.1577 -14.1577 -14.0657 -14.0657
   -14.0376 -14.0376 -14.0034 -14.0034  -2.3064  -2.3064   1.6723   1.6723
     5.0797   5.0797   5.5476   5.5476   7.8063   7.8063   9.4046   9.4046
    10.5987  10.5987  11.2903  11.2903

     occupation numbers 
     1.0000   1.0000   1.0000   1.0000   1.0000   1.0000   1.0000   1.0000
     1.0000   1.0000   1.0000   1.0000   1.0000   1.0000   1.0000   1.0000
     1.0000   1.0000   1.0000   1.0000   1.0000   1.0000   1.0000   1.0000
     1.0000   1.0000   1.0000   1.0000   0.0000   0.0000   0.0000   0.0000
     0.0000   0.0000   0.0000   0.0000

          k = 0.3977 0.2210-0.2210 (  2543 PWs)   bands (ev):

   -15.2326 -15.2326 -15.2001 -15.2001 -15.1700 -15.1700 -15.1331 -15.1331
   -14.2405 -14.2405 -14.2005 -14.2005 -14.1616 -14.1616 -14.0650 -14.0650
   -14.0324 -14.0324 -14.0056 -14.0056  -2.0156  -2.0156   1.1146   1.1146
     4.8882   4.8882   5.4999   5.4999   7.6913   7.6913   9.6000   9.6000
    10.5429  10.5430  11.8022  11.8022

     occupation numbers 
     1.0000   1.0000   1.0000   1.0000   1.0000   1.0000   1.0000   1.0000
     1.0000   1.0000   1.0000   1.0000   1.0000   1.0000   1.0000   1.0000
     1.0000   1.0000   1.0000   1.0000   1.0000   1.0000   1.0000   1.0000
     1.0000   1.0000   1.0000   1.0000   0.0000   0.0000   0.0000   0.0000
     0.0000   0.0000   0.0000   0.0000

          k =-0.2652-0.4419 0.4419 (  2543 PWs)   bands (ev):

   -15.2334 -15.2334 -15.1951 -15.1951 -15.1752 -15.1752 -15.1319 -15.1319
   -14.2319 -14.2319 -14.2080 -14.2080 -14.1639 -14.1639 -14.0650 -14.0650
   -14.0297 -14.0297 -14.0066 -14.0066  -1.7966  -1.7966   0.7491   0.7491
     4.7523   4.7523   5.5162   5.5162   7.6151   7.6151   9.7159   9.7159
    10.4445  10.4445  12.3625  12.3626

     occupation numbers 
     1.0000   1.0000   1.0000   1.0000   1.0000   1.0000   1.0000   1.0000
     1.0000   1.0000   1.0000   1.0000   1.0000   1.0000   1.0000   1.0000
     1.0000   1.0000   1.0000   1.0000   1.0000   1.0000   1.0000   1.0000
     1.0000   1.0000   1.0000   1.0000   0.0000   0.0000   0.0000   0.0000
     0.0000   0.0000   0.0000   0.0000

          k =-0.2210-0.3977 0.3977 (  2547 PWs)   bands (ev):

   -15.2335 -15.2335 -15.1938 -15.1938 -15.1766 -15.1766 -15.1317 -15.1317
   -14.2304 -14.2304 -14.2094 -14.2094 -14.1640 -14.1640 -14.0656 -14.0656
   -14.0290 -14.0290 -14.0069 -14.0069  -1.7612  -1.7612   0.6938   0.6938
     4.6794   4.6794   5.5934   5.5934   7.5828   7.5828   9.8109   9.8109
    10.3328  10.3328  12.6613  12.6613

     occupation numbers 
     1.0000   1.0000   1.0000   1.0000   1.0000   1.0000   1.0000   1.0000
     1.0000   1.0000   1.0000   1.0000   1.0000   1.0000   1.0000   1.0000
     1.0000   1.0000   1.0000   1.0000   1.0000   1.0000   1.0000   1.0000
     1.0000   1.0000   1.0000   1.0000   0.0000   0.0000   0.0000   0.0000
     0.0000   0.0000   0.0000   0.0000

          k =-0.1768-0.3536 0.3536 (  2556 PWs)   bands (ev):

   -15.2333 -15.2333 -15.1974 -15.1974 -15.1731 -15.1731 -15.1323 -15.1323
   -14.2377 -14.2377 -14.2033 -14.2033 -14.1620 -14.1620 -14.0666 -14.0666
   -14.0300 -14.0300 -14.0065 -14.0065  -1.9336  -1.9336   0.9735   0.9735
     4.6756   4.6756   5.7261   5.7261   7.5935   7.5935   9.9013   9.9013
    10.2162  10.2162  12.4142  12.4142

     occupation numbers 
     1.0000   1.0000   1.0000   1.0000   1.0000   1.0000   1.0000   1.0000
     1.0000   1.0000   1.0000   1.0000   1.0000   1.0000   1.0000   1.0000
     1.0000   1.0000   1.0000   1.0000   1.0000   1.0000   1.0000   1.0000
     1.0000   1.0000   1.0000   1.0000   0.0000   0.0000   0.0000   0.0000
     0.0000   0.0000   0.0000   0.0000

          k =-0.1326-0.3094 0.3094 (  2556 PWs)   bands (ev):

   -15.2325 -15.2325 -15.2029 -15.2029 -15.1676 -15.1676 -15.1336 -15.1336
   -14.2480 -14.2480 -14.1946 -14.1946 -14.1581 -14.1581 -14.0679 -14.0679
   -14.0332 -14.0332 -14.0050 -14.0050  -2.2124  -2.2124   1.4802   1.4802
     4.7477   4.7477   5.9057   5.9057   7.6397   7.6397   9.9307   9.9307
    10.1108  10.1108  11.7703  11.7703

     occupation numbers 
     1.0000   1.0000   1.0000   1.0000   1.0000   1.0000   1.0000   1.0000
     1.0000   1.0000   1.0000   1.0000   1.0000   1.0000   1.0000   1.0000
     1.0000   1.0000   1.0000   1.0000   1.0000   1.0000   1.0000   1.0000
     1.0000   1.0000   1.0000   1.0000   0.0000   0.0000   0.0000   0.0000
     0.0000   0.0000   0.0000   0.0000

          k =-0.0884-0.2652 0.2652 (  2554 PWs)   bands (ev):

   -15.2313 -15.2313 -15.2087 -15.2087 -15.1618 -15.1618 -15.1356 -15.1356
   -14.2592 -14.2592 -14.1846 -14.1846 -14.1531 -14.1531 -14.0698 -14.0698
   -14.0394 -14.0394 -14.0018 -14.0018  -2.5052  -2.5052   2.1074   2.1074
     4.9052   4.9052   6.1184   6.1184   7.7029   7.7029   9.7806   9.7806
    10.0197  10.0197  11.1690  11.1690

     occupation numbers 
     1.0000   1.0000   1.0000   1.0000   1.0000   1.0000   1.0000   1.0000
     1.0000   1.0000   1.0000   1.0000   1.0000   1.0000   1.0000   1.0000
     1.0000   1.0000   1.0000   1.0000   1.0000   1.0000   1.0000   1.0000
     1.0000   1.0000   1.0000   1.0000   0.0000   0.0000   0.0000   0.0000
     0.0000   0.0000   0.0000   0.0000

          k =-0.0442-0.2210 0.2210 (  2568 PWs)   bands (ev):

   -15.2300 -15.2300 -15.2140 -15.2140 -15.1566 -15.1566 -15.1379 -15.1379
   -14.2700 -14.2700 -14.1737 -14.1737 -14.1479 -14.1479 -14.0722 -14.0722
   -14.0481 -14.0481 -13.9980 -13.9980  -2.7665  -2.7665   2.7814   2.7814
     5.1623   5.1623   6.3408   6.3408   7.7392   7.7392   9.5318   9.5318
     9.7520   9.7520  10.7978  10.7978

     occupation numbers 
     1.0000   1.0000   1.0000   1.0000   1.0000   1.0000   1.0000   1.0000
     1.0000   1.0000   1.0000   1.0000   1.0000   1.0000   1.0000   1.0000
     1.0000   1.0000   1.0000   1.0000   1.0000   1.0000   1.0000   1.0000
     1.0000   1.0000   1.0000   1.0000   0.0000   0.0000   0.0000   0.0000
     0.0000   0.0000   0.0000   0.0000

          k = 0.0000-0.1768 0.1768 (  2573 PWs)   bands (ev):

   -15.2285 -15.2285 -15.2182 -15.2182 -15.1525 -15.1525 -15.1401 -15.1401
   -14.2792 -14.2792 -14.1620 -14.1620 -14.1431 -14.1431 -14.0746 -14.0746
   -14.0582 -14.0582 -13.9941 -13.9941  -2.9756  -2.9756   3.4339   3.4339
[...]

     occupation numbers 
     1.0000   1.0000   1.0000   1.0000   1.0000   1.0000   1.0000   1.0000
     1.0000   1.0000   1.0000   1.0000   1.0000   1.0000   1.0000   1.0000
     1.0000   1.0000   1.0000   1.0000   1.0000   1.0000   1.0000   1.0000
     1.0000   1.0000   1.0000   1.0000   0.0000   0.0000   0.0000   0.0000
     0.0000   0.0000   0.0000   0.0000

          k =-0.1326-0.3977 0.5745 (  2553 PWs)   bands (ev):

   -15.2322 -15.2322 -15.1973 -15.1973 -15.1748 -15.1748 -15.1305 -15.1305
   -14.2337 -14.2337 -14.1986 -14.1986 -14.1536 -14.1536 -14.0995 -14.0995
   -14.0289 -14.0289 -13.9899 -13.9899  -1.2907  -1.2907   0.3573   0.3573
     3.8520   3.8520   4.8394   4.8394   8.6499   8.6499   9.9056   9.9056
    11.1680  11.1680  11.8918  11.8918

     occupation numbers 
     1.0000   1.0000   1.0000   1.0000   1.0000   1.0000   1.0000   1.0000
     1.0000   1.0000   1.0000   1.0000   1.0000   1.0000   1.0000   1.0000
     1.0000   1.0000   1.0000   1.0000   1.0000   1.0000   1.0000   1.0000
     1.0000   1.0000   1.0000   1.0000   0.0000   0.0000   0.0000   0.0000
     0.0000   0.0000   0.0000   0.0000

          k =-0.0884-0.3536 0.5303 (  2553 PWs)   bands (ev):

   -15.2324 -15.2324 -15.1967 -15.1967 -15.1754 -15.1754 -15.1303 -15.1303
   -14.2342 -14.2342 -14.1986 -14.1986 -14.1533 -14.1533 -14.0990 -14.0990
   -14.0291 -14.0291 -13.9901 -13.9901  -1.3453  -1.3453   0.4266   0.4266
     3.8194   3.8194   4.9081   4.9081   8.6953   8.6953   9.8978   9.8978
    11.2276  11.2276  11.8572  11.8572

     occupation numbers 
     1.0000   1.0000   1.0000   1.0000   1.0000   1.0000   1.0000   1.0000
     1.0000   1.0000   1.0000   1.0000   1.0000   1.0000   1.0000   1.0000
     1.0000   1.0000   1.0000   1.0000   1.0000   1.0000   1.0000   1.0000
     1.0000   1.0000   1.0000   1.0000   0.0000   0.0000   0.0000   0.0000
     0.0000   0.0000   0.0000   0.0000

          k =-0.0442-0.3094 0.4861 (  2549 PWs)   bands (ev):

   -15.2322 -15.2322 -15.1988 -15.1988 -15.1731 -15.1731 -15.1309 -15.1309
   -14.2363 -14.2363 -14.1992 -14.1992 -14.1529 -14.1529 -14.0944 -14.0944
   -14.0294 -14.0294 -13.9922 -13.9922  -1.5894  -1.5894   0.7458   0.7458
     3.8911   3.8911   5.0507   5.0507   8.7445   8.7445   9.7895   9.7895
    10.6606  10.6606  12.0699  12.0699

     occupation numbers 
     1.0000   1.0000   1.0000   1.0000   1.0000   1.0000   1.0000   1.0000
     1.0000   1.0000   1.0000   1.0000   1.0000   1.0000   1.0000   1.0000
     1.0000   1.0000   1.0000   1.0000   1.0000   1.0000   1.0000   1.0000
     1.0000   1.0000   1.0000   1.0000   0.0000   0.0000   0.0000   0.0000
     0.0000   0.0000   0.0000   0.0000

          k = 0.0000-0.2652 0.4419 (  2553 PWs)   bands (ev):

   -15.2317 -15.2317 -15.2024 -15.2024 -15.1692 -15.1692 -15.1324 -15.1324
   -14.2411 -14.2411 -14.1981 -14.1981 -14.1530 -14.1530 -14.0871 -14.0871
   -14.0306 -14.0306 -13.9956 -13.9956  -1.8878  -1.8878   1.1643   1.1643
     4.0861   4.0861   5.2419   5.2419   8.7367   8.7367   9.4484   9.4484
    10.4836  10.4836  11.8430  11.8430

     occupation numbers 
     1.0000   1.0000   1.0000   1.0000   1.0000   1.0000   1.0000   1.0000
     1.0000   1.0000   1.0000   1.0000   1.0000   1.0000   1.0000   1.0000
     1.0000   1.0000   1.0000   1.0000   1.0000   1.0000   1.0000   1.0000
     1.0000   1.0000   1.0000   1.0000   0.0000   0.0000   0.0000   0.0000
     0.0000   0.0000   0.0000   0.0000

          k =-0.1768-0.5303 0.7071 (  2541 PWs)   bands (ev):

   -15.2287 -15.2287 -15.2069 -15.2069 -15.1639 -15.1639 -15.1352 -15.1352
   -14.2354 -14.2354 -14.2009 -14.2009 -14.1514 -14.1514 -14.0951 -14.0951
   -14.0276 -14.0276 -13.9935 -13.9935  -1.5965  -1.5965   0.7838   0.7838
     4.2540   4.2540   4.7158   4.7158   8.3792   8.3792   8.7732   8.7732
    11.1779  11.1779  12.7946  12.7946

     occupation numbers 
     1.0000   1.0000   1.0000   1.0000   1.0000   1.0000   1.0000   1.0000
     1.0000   1.0000   1.0000   1.0000   1.0000   1.0000   1.0000   1.0000
     1.0000   1.0000   1.0000   1.0000   1.0000   1.0000   1.0000   1.0000
     1.0000   1.0000   1.0000   1.0000   0.0000   0.0000   0.0000   0.0000
     0.0000   0.0000   0.0000   0.0000

          k =-0.1326-0.4861 0.6629 (  2544 PWs)   bands (ev):

   -15.2298 -15.2298 -15.2037 -15.2037 -15.1678 -15.1678 -15.1331 -15.1331
   -14.2337 -14.2337 -14.1994 -14.1994 -14.1491 -14.1491 -14.1040 -14.1040
   -14.0272 -14.0272 -13.9901 -13.9901  -1.2924  -1.2924   0.4005   0.4005
     4.0244   4.0244   4.5925   4.5925   8.5510   8.5510   9.2404   9.2404
    11.0036  11.0036  12.7470  12.7470

     occupation numbers 
     1.0000   1.0000   1.0000   1.0000   1.0000   1.0000   1.0000   1.0000
     1.0000   1.0000   1.0000   1.0000   1.0000   1.0000   1.0000   1.0000
     1.0000   1.0000   1.0000   1.0000   1.0000   1.0000   1.0000   1.0000
     1.0000   1.0000   1.0000   1.0000   0.0000   0.0000   0.0000   0.0000
     0.0000   0.0000   0.0000   0.0000

          k =-0.0884-0.4419 0.6187 (  2550 PWs)   bands (ev):

   -15.2309 -15.2309 -15.2006 -15.2006 -15.1716 -15.1716 -15.1314 -15.1314
   -14.2339 -14.2339 -14.1967 -14.1967 -14.1474 -14.1474 -14.1103 -14.1103
   -14.0279 -14.0279 -13.9875 -13.9875  -1.0541  -1.0541   0.1253   0.1253
     3.8276   3.8276   4.5809   4.5809   8.6112   8.6112   9.9575   9.9575
    10.9027  10.9027  12.1698  12.1698

     occupation numbers 
     1.0000   1.0000   1.0000   1.0000   1.0000   1.0000   1.0000   1.0000
     1.0000   1.0000   1.0000   1.0000   1.0000   1.0000   1.0000   1.0000
     1.0000   1.0000   1.0000   1.0000   1.0000   1.0000   1.0000   1.0000
     1.0000   1.0000   1.0000   1.0000   0.0000   0.0000   0.0000   0.0000
     0.0000   0.0000   0.0000   0.0000

          k =-0.0442-0.3977 0.5745 (  2551 PWs)   bands (ev):

   -15.2317 -15.2317 -15.1983 -15.1983 -15.1742 -15.1742 -15.1303 -15.1303
   -14.2345 -14.2345 -14.1957 -14.1957 -14.1476 -14.1476 -14.1107 -14.1107
   -14.0286 -14.0286 -13.9868 -13.9868  -1.0560  -1.0560   0.1301   0.1301
     3.7157   3.7157   4.6688   4.6688   8.6895   8.6895  10.4173  10.4173
    11.1125  11.1125  11.4555  11.4555

     occupation numbers 
     1.0000   1.0000   1.0000   1.0000   1.0000   1.0000   1.0000   1.0000
     1.0000   1.0000   1.0000   1.0000   1.0000   1.0000   1.0000   1.0000
     1.0000   1.0000   1.0000   1.0000   1.0000   1.0000   1.0000   1.0000
     1.0000   1.0000   1.0000   1.0000   0.0000   0.0000   0.0000   0.0000
     0.0000   0.0000   0.0000   0.0000

          k = 0.0000-0.3536 0.5303 (  2539 PWs)   bands (ev):

   -15.2320 -15.2320 -15.1975 -15.1975 -15.1747 -15.1747 -15.1301 -15.1301
   -14.2349 -14.2349 -14.1970 -14.1970 -14.1499 -14.1499 -14.1045 -14.1045
   -14.0289 -14.0289 -13.9883 -13.9883  -1.2916  -1.2916   0.3988   0.3988
     3.7285   3.7285   4.8343   4.8343   8.7673   8.7673  10.2848  10.2848
    10.7388  10.7388  11.9324  11.9324

     occupation numbers 
     1.0000   1.0000   1.0000   1.0000   1.0000   1.0000   1.0000   1.0000
     1.0000   1.0000   1.0000   1.0000   1.0000   1.0000   1.0000   1.0000
     1.0000   1.0000   1.0000   1.0000   1.0000   1.0000   1.0000   1.0000
     1.0000   1.0000   1.0000   1.0000   0.0000   0.0000   0.0000   0.0000
     0.0000   0.0000   0.0000   0.0000

          k =-0.0884-0.5303 0.7071 (  2548 PWs)   bands (ev):

   -15.2279 -15.2279 -15.2071 -15.2071 -15.1640 -15.1640 -15.1355 -15.1355
   -14.2316 -14.2316 -14.2016 -14.2016 -14.1439 -14.1439 -14.1114 -14.1114
   -14.0239 -14.0239 -13.9911 -13.9911  -1.0700  -1.0700   0.1335   0.1335
     4.1731   4.1731   4.4325   4.4325   8.3422   8.3422   8.5971   8.5971
    11.8464  11.8464  13.0791  13.0791

     occupation numbers 
     1.0000   1.0000   1.0000   1.0000   1.0000   1.0000   1.0000   1.0000
     1.0000   1.0000   1.0000   1.0000   1.0000   1.0000   1.0000   1.0000
     1.0000   1.0000   1.0000   1.0000   1.0000   1.0000   1.0000   1.0000
     1.0000   1.0000   1.0000   1.0000   0.0000   0.0000   0.0000   0.0000
     0.0000   0.0000   0.0000   0.0000

          k =-0.0442-0.4861 0.6629 (  2549 PWs)   bands (ev):

   -15.2293 -15.2293 -15.2041 -15.2041 -15.1677 -15.1677 -15.1332 -15.1332
   -14.2328 -14.2328 -14.1979 -14.1979 -14.1403 -14.1403 -14.1189 -14.1189
   -14.0257 -14.0257 -13.9877 -13.9877  -0.7864  -0.7864  -0.1658  -0.1658
     3.9679   3.9679   4.3846   4.3846   8.5000   8.5000   9.1846   9.1846
    11.6634  11.6634  12.3859  12.3860

     occupation numbers 
     1.0000   1.0000   1.0000   1.0000   1.0000   1.0000   1.0000   1.0000
     1.0000   1.0000   1.0000   1.0000   1.0000   1.0000   1.0000   1.0000
     1.0000   1.0000   1.0000   1.0000   1.0000   1.0000   1.0000   1.0000
     1.0000   1.0000   1.0000   1.0000   0.0000   0.0000   0.0000   0.0000
     0.0000   0.0000   0.0000   0.0000

          k = 0.0000-0.4419 0.6187 (  2543 PWs)   bands (ev):

   -15.2305 -15.2305 -15.2010 -15.2010 -15.1712 -15.1712 -15.1313 -15.1313
   -14.2340 -14.2340 -14.1952 -14.1952 -14.1417 -14.1417 -14.1188 -14.1188
   -14.0275 -14.0275 -13.9860 -13.9860  -0.7884  -0.7884  -0.1544  -0.1544
     3.7787   3.7787   4.4848   4.4848   8.5913   8.5913   9.9933   9.9933
    11.4702  11.4702  11.5719  11.5719

     occupation numbers 
     1.0000   1.0000   1.0000   1.0000   1.0000   1.0000   1.0000   1.0000
     1.0000   1.0000   1.0000   1.0000   1.0000   1.0000   1.0000   1.0000
     1.0000   1.0000   1.0000   1.0000   1.0000   1.0000   1.0000   1.0000
     1.0000   1.0000   1.0000   1.0000   0.0000   0.0000   0.0000   0.0000
     0.0000   0.0000   0.0000   0.0000

          k =-0.7071 0.1768 0.0000 (  2560 PWs)   bands (ev):

   -15.2277 -15.2277 -15.2074 -15.2074 -15.1640 -15.1640 -15.1357 -15.1357
   -14.2310 -14.2310 -14.2015 -14.2015 -14.1347 -14.1347 -14.1238 -14.1238
   -14.0226 -14.0226 -13.9902 -13.9902  -0.5045  -0.5045  -0.4736  -0.4736
     4.1717   4.1717   4.3109   4.3109   8.3579   8.3579   8.4988   8.4988
    12.4883  12.4883  12.6534  12.6534

     occupation numbers 
     1.0000   1.0000   1.0000   1.0000   1.0000   1.0000   1.0000   1.0000
     1.0000   1.0000   1.0000   1.0000   1.0000   1.0000   1.0000   1.0000
     1.0000   1.0000   1.0000   1.0000   1.0000   1.0000   1.0000   1.0000
     1.0000   1.0000   1.0000   1.0000   0.0000   0.0000   0.0000   0.0000
     0.0000   0.0000   0.0000   0.0000

          k =-0.1768-0.4419 0.7071 (  2544 PWs)   bands (ev):

   -15.2311 -15.2311 -15.2013 -15.2013 -15.1704 -15.1704 -15.1318 -15.1318
   -14.2354 -14.2354 -14.1986 -14.1986 -14.1512 -14.1512 -14.0993 -14.0993
   -14.0290 -14.0290 -13.9904 -13.9904  -1.4625  -1.4625   0.6114   0.6114
     3.9467   3.9467   4.7486   4.7486   9.0811   9.0811   9.3590   9.3590
    10.4416  10.4416  12.5254  12.5255

     occupation numbers 
     1.0000   1.0000   1.0000   1.0000   1.0000   1.0000   1.0000   1.0000
     1.0000   1.0000   1.0000   1.0000   1.0000   1.0000   1.0000   1.0000
     1.0000   1.0000   1.0000   1.0000   1.0000   1.0000   1.0000   1.0000
     1.0000   1.0000   1.0000   1.0000   0.0000   0.0000   0.0000   0.0000
     0.0000   0.0000   0.0000   0.0000

          k =-0.1326-0.3977 0.6629 (  2546 PWs)   bands (ev):

   -15.2315 -15.2315 -15.1992 -15.1992 -15.1730 -15.1730 -15.1306 -15.1306
   -14.2346 -14.2346 -14.1962 -14.1962 -14.1491 -14.1491 -14.1073 -14.1073
   -14.0290 -14.0290 -13.9874 -13.9874  -1.1788  -1.1788   0.2730   0.2730
     3.8185   3.8185   4.5929   4.5929   9.1535   9.1535   9.8014   9.8014
    10.5526  10.5526  12.0564  12.0564

     occupation numbers 
     1.0000   1.0000   1.0000   1.0000   1.0000   1.0000   1.0000   1.0000
     1.0000   1.0000   1.0000   1.0000   1.0000   1.0000   1.0000   1.0000
     1.0000   1.0000   1.0000   1.0000   1.0000   1.0000   1.0000   1.0000
     1.0000   1.0000   1.0000   1.0000   0.0000   0.0000   0.0000   0.0000
     0.0000   0.0000   0.0000   0.0000

          k =-0.0884-0.3536 0.6187 (  2550 PWs)   bands (ev):

   -15.2317 -15.2317 -15.1984 -15.1984 -15.1741 -15.1741 -15.1303 -15.1303
   -14.2346 -14.2346 -14.1950 -14.1950 -14.1481 -14.1481 -14.1106 -14.1106
   -14.0291 -14.0291 -13.9863 -13.9863  -1.0407  -1.0407   0.1157   0.1157
     3.7777   3.7777   4.5360   4.5360   9.1588   9.1588   9.9167   9.9167
    11.0590  11.0590  11.3955  11.3955

     occupation numbers 
     1.0000   1.0000   1.0000   1.0000   1.0000   1.0000   1.0000   1.0000
     1.0000   1.0000   1.0000   1.0000   1.0000   1.0000   1.0000   1.0000
     1.0000   1.0000   1.0000   1.0000   1.0000   1.0000   1.0000   1.0000
     1.0000   1.0000   1.0000   1.0000   0.0000   0.0000   0.0000   0.0000
     0.0000   0.0000   0.0000   0.0000

          k =-0.0884-0.4419 0.7071 (  2554 PWs)   bands (ev):

   -15.2304 -15.2304 -15.2019 -15.2019 -15.1703 -15.1703 -15.1318 -15.1318
   -14.2342 -14.2342 -14.1960 -14.1960 -14.1449 -14.1449 -14.1140 -14.1140
   -14.0279 -14.0279 -13.9868 -13.9868  -0.9865  -0.9865   0.0638   0.0638
     3.9306   3.9306   4.3599   4.3599   9.1362   9.1362   9.3525   9.3525
    10.8253  10.8253  12.2209  12.2209

     occupation numbers 
     1.0000   1.0000   1.0000   1.0000   1.0000   1.0000   1.0000   1.0000
     1.0000   1.0000   1.0000   1.0000   1.0000   1.0000   1.0000   1.0000
     1.0000   1.0000   1.0000   1.0000   1.0000   1.0000   1.0000   1.0000
     1.0000   1.0000   1.0000   1.0000   0.0000   0.0000   0.0000   0.0000
     0.0000   0.0000   0.0000   0.0000

          k =-0.0442-0.3977 0.6629 (  2549 PWs)   bands (ev):

   -15.2309 -15.2309 -15.2003 -15.2003 -15.1722 -15.1722 -15.1308 -15.1308
   -14.2348 -14.2348 -14.1934 -14.1934 -14.1419 -14.1419 -14.1198 -14.1198
   -14.0288 -14.0288 -13.9847 -13.9847  -0.7668  -0.7668  -0.1649  -0.1649
     3.8479   3.8479   4.2798   4.2798   9.2800   9.2800   9.9917   9.9917
    10.7480  10.7480  11.3669  11.3669

     occupation numbers 
     1.0000   1.0000   1.0000   1.0000   1.0000   1.0000   1.0000   1.0000
     1.0000   1.0000   1.0000   1.0000   1.0000   1.0000   1.0000   1.0000
     1.0000   1.0000   1.0000   1.0000   1.0000   1.0000   1.0000   1.0000
     1.0000   1.0000   1.0000   1.0000   0.0000   0.0000   0.0000   0.0000
     0.0000   0.0000   0.0000   0.0000

          k =-0.0000-0.3536 0.6187 (  2545 PWs)   bands (ev):

   -15.2312 -15.2312 -15.1993 -15.1993 -15.1732 -15.1732 -15.1303 -15.1303
   -14.2350 -14.2350 -14.1935 -14.1935 -14.1442 -14.1442 -14.1167 -14.1167
   -14.0291 -14.0291 -13.9849 -13.9849  -0.8884  -0.8884  -0.0353  -0.0353
     3.7867   3.7867   4.3798   4.3798   9.3312   9.3312  10.1742  10.1742
    10.6339  10.6339  11.2737  11.2737

     occupation numbers 
     1.0000   1.0000   1.0000   1.0000   1.0000   1.0000   1.0000   1.0000
     1.0000   1.0000   1.0000   1.0000   1.0000   1.0000   1.0000   1.0000
     1.0000   1.0000   1.0000   1.0000   1.0000   1.0000   1.0000   1.0000
     1.0000   1.0000   1.0000   1.0000   0.0000   0.0000   0.0000   0.0000
     0.0000   0.0000   0.0000   0.0000

          k =-0.7071 0.2652 0.0000 (  2548 PWs)   bands (ev):

   -15.2299 -15.2299 -15.2023 -15.2023 -15.1700 -15.1700 -15.1319 -15.1319
   -14.2341 -14.2341 -14.1946 -14.1946 -14.1374 -14.1374 -14.1243 -14.1243
   -14.0275 -14.0275 -13.9853 -13.9853  -0.4934  -0.4934  -0.4522  -0.4522
     3.9932   3.9932   4.1586   4.1586   9.1343   9.1343   9.3318   9.3318
    11.4417  11.4417  11.5501  11.5501

     occupation numbers 
     1.0000   1.0000   1.0000   1.0000   1.0000   1.0000   1.0000   1.0000
     1.0000   1.0000   1.0000   1.0000   1.0000   1.0000   1.0000   1.0000
     1.0000   1.0000   1.0000   1.0000   1.0000   1.0000   1.0000   1.0000
     1.0000   1.0000   1.0000   1.0000   0.0000   0.0000   0.0000   0.0000
     0.0000   0.0000   0.0000   0.0000

          k =-0.7071 0.3536 0.0000 (  2520 PWs)   bands (ev):

   -15.2305 -15.2305 -15.2000 -15.2000 -15.1722 -15.1722 -15.1303 -15.1303
   -14.2350 -14.2350 -14.1917 -14.1917 -14.1382 -14.1382 -14.1245 -14.1245
   -14.0289 -14.0289 -13.9834 -13.9834  -0.4885  -0.4885  -0.4436  -0.4436
     3.9264   3.9264   4.0997   4.0997   9.7356   9.7356  10.0613  10.0613
    10.7244  10.7244  10.7461  10.7461

     occupation numbers 
     1.0000   1.0000   1.0000   1.0000   1.0000   1.0000   1.0000   1.0000
     1.0000   1.0000   1.0000   1.0000   1.0000   1.0000   1.0000   1.0000
     1.0000   1.0000   1.0000   1.0000   1.0000   1.0000   1.0000   1.0000
     1.0000   1.0000   1.0000   1.0000   0.0000   0.0000   0.0000   0.0000
     0.0000   0.0000   0.0000   0.0000

     the Fermi energy is     6.7967 ev

!    total energy              =    -874.79368193 Ry
     Harris-Foulkes estimate   =    -874.79368182 Ry
     estimated scf accuracy    <       0.00000010 Ry

     total all-electron energy =    -24705.603565 Ry

     The total energy is the sum of the following terms:

     one-electron contribution =    -153.89174055 Ry
     hartree contribution      =      95.46190247 Ry
     xc contribution           =     -95.07033018 Ry
     ewald contribution        =    -167.52979537 Ry
     one-center paw contrib.   =    -553.76371810 Ry
     smearing contrib. (-TS)   =      -0.00000019 Ry

     convergence has been achieved in   5 iterations

     Writing output data file Sn.save
 
     init_run     :      5.65s CPU      6.37s WALL (       1 calls)
     electrons    :    113.71s CPU    117.85s WALL (       1 calls)

     Called by init_run:
     wfcinit      :      4.94s CPU      5.21s WALL (       1 calls)
     potinit      :      0.23s CPU      0.27s WALL (       1 calls)

     Called by electrons:
     c_bands      :     95.10s CPU     98.63s WALL (       6 calls)
     sum_band     :     17.27s CPU     17.75s WALL (       6 calls)
     v_of_rho     :      0.05s CPU      0.05s WALL (       6 calls)
     v_h          :      0.01s CPU      0.01s WALL (       6 calls)
     v_xc         :      0.04s CPU      0.04s WALL (       6 calls)
     newd         :      0.34s CPU      0.37s WALL (       6 calls)
     PAW_pot      :      1.15s CPU      1.23s WALL (       6 calls)
     mix_rho      :      0.02s CPU      0.03s WALL (       6 calls)

     Called by c_bands:
     init_us_2    :      0.24s CPU      0.28s WALL (    1885 calls)
     cegterg      :     90.29s CPU     93.61s WALL (     870 calls)

     Called by sum_band:
     sum_band:bec :      2.81s CPU      2.84s WALL (     870 calls)
     addusdens    :      0.16s CPU      0.20s WALL (       6 calls)

     Called by *egterg:
     h_psi        :     69.29s CPU     71.60s WALL (    3065 calls)
     s_psi        :      2.83s CPU      2.85s WALL (    3065 calls)
     g_psi        :      0.22s CPU      0.22s WALL (    2050 calls)
     cdiaghg      :     11.31s CPU     11.56s WALL (    2775 calls)
     cegterg:over :      4.52s CPU      4.55s WALL (    2050 calls)
     cegterg:upda :      1.75s CPU      1.76s WALL (    2050 calls)
     cegterg:last :      0.98s CPU      0.99s WALL (     870 calls)

     Called by h_psi:
     h_psi:vloc   :     62.36s CPU     64.55s WALL (    3065 calls)
     h_psi:vnl    :      6.75s CPU      6.86s WALL (    3065 calls)
     add_vuspsi   :      3.15s CPU      3.18s WALL (    3065 calls)

     General routines
     calbec       :      4.82s CPU      4.92s WALL (    3935 calls)
     fft          :      0.08s CPU      0.25s WALL (     116 calls)
     fftw         :     70.23s CPU     72.64s WALL (  395452 calls)
     davcio       :      0.02s CPU      0.55s WALL (     145 calls)
 
     Parallel routines
     fft_scatter  :     44.29s CPU     46.06s WALL (  395568 calls)

     PAW routines
     PAW_pot      :      1.15s CPU      1.23s WALL (       6 calls)
     PAW_symme    :      0.05s CPU      0.05s WALL (      12 calls)
 
     PWSCF        :  2m 0.83s CPU     2m 6.69s WALL

 
   This run was terminated on:  19:55:41  15Mar2020            

=------------------------------------------------------------------------------=
   JOB DONE.
=------------------------------------------------------------------------------=
