
     Program PWSCF v.5.4.0 starts on 21Feb2020 at  0:53:42 

     This program is part of the open-source Quantum ESPRESSO suite
     for quantum simulation of materials; please cite
         "P. Giannozzi et al., J. Phys.:Condens. Matter 21 395502 (2009);
          URL http://www.quantum-espresso.org", 
     in publications or presentations arising from this work. More details at
     http://www.quantum-espresso.org/quote

     Parallel version (MPI & OpenMP), running on      16 processor cores
     Number of MPI processes:                16
     Threads/MPI process:                     1
     R & G space division:  proc/nbgrp/npool/nimage =      16
     Waiting for input...
     Reading input from standard input
Warning: card &IONS ignored
Warning: card / ignored
Warning: card &CELL ignored
Warning: card / ignored

     Current dimensions of program PWSCF are:
     Max number of different atomic species (ntypx) = 10
     Max number of k-points (npk) =  40000
     Max angular momentum in pseudopotentials (lmaxx) =  3

     Subspace diagonalization in iterative solution of the eigenvalue problem:
     a serial algorithm will be used

 
     Parallelization info
     --------------------
     sticks:   dense  smooth     PW     G-vecs:    dense   smooth      PW
     Min          80      80     23                 1931     1931     312
     Max          81      81     24                 1936     1936     316
     Sum        1285    1285    379                30923    30923    5029
 

     Title: 
     Sn                                                                         


     bravais-lattice index     =            0
     lattice parameter (alat)  =       8.8993  a.u.
     unit-cell volume          =     498.3785 (a.u.)^3
     number of atoms/cell      =            2
     number of atomic types    =            1
     number of electrons       =        28.00
     number of Kohn-Sham states=           18
     kinetic-energy cutoff     =      60.0000  Ry
     charge density cutoff     =     240.0000  Ry
     convergence threshold     =      1.0E-06
     mixing beta               =       0.7000
     number of iterations used =            8  plain     mixing
     Exchange-correlation      = PBE ( 1  4  3  4 0 0)

     celldm(1)=   8.899346  celldm(2)=   0.000000  celldm(3)=   0.000000
     celldm(4)=   0.000000  celldm(5)=   0.000000  celldm(6)=   0.000000

     crystal axes: (cart. coord. in units of alat)
               a(1) = (   0.000000   0.707107   0.707107 )  
               a(2) = (   0.707107   0.000000   0.707107 )  
               a(3) = (   0.707107   0.707107   0.000000 )  

     reciprocal axes: (cart. coord. in units 2 pi/alat)
               b(1) = ( -0.707107  0.707107  0.707107 )  
               b(2) = (  0.707107 -0.707107  0.707107 )  
               b(3) = (  0.707107  0.707107 -0.707107 )  


     PseudoPot. # 1 for Sn read from file:
     ../PseudopotentialDatabase/Sn_ONCV_PBE-1.2.upf
     MD5 check sum: 6680f7ee4d83b53e0fcd4167fcb72813
     Pseudo is Norm-conserving, Zval = 14.0
     Generated using ONCVPSP code by D. R. Hamann
     Using radial grid of  602 points,  6 beta functions with: 
                l(1) =   0
                l(2) =   0
                l(3) =   1
                l(4) =   1
                l(5) =   2
                l(6) =   2

     atomic species   valence    mass     pseudopotential
        Sn            14.00   118.71000     Sn( 1.00)

     24 Sym. Ops. (no inversion) found
          (note: 24 additional sym.ops. were found but ignored
           their fractional translations are incommensurate with FFT grid)

                                    s                        frac. trans.

      isym =  1     identity                                     

 cryst.   s( 1) = (     1          0          0      )
                  (     0          1          0      )
                  (     0          0          1      )

 cart.    s( 1) = (  1.0000000  0.0000000  0.0000000 )
                  (  0.0000000  1.0000000  0.0000000 )
                  (  0.0000000  0.0000000  1.0000000 )


      isym =  2     180 deg rotation - cart. axis [0,0,1]        

 cryst.   s( 2) = (     0          1         -1      )
                  (     1          0         -1      )
                  (     0          0         -1      )

 cart.    s( 2) = ( -1.0000000  0.0000000  0.0000000 )
                  (  0.0000000 -1.0000000  0.0000000 )
                  (  0.0000000  0.0000000  1.0000000 )


      isym =  3     180 deg rotation - cart. axis [0,1,0]        

 cryst.   s( 3) = (     0         -1          1      )
                  (     0         -1          0      )
                  (     1         -1          0      )

 cart.    s( 3) = ( -1.0000000  0.0000000  0.0000000 )
                  (  0.0000000  1.0000000  0.0000000 )
                  (  0.0000000  0.0000000 -1.0000000 )


      isym =  4     180 deg rotation - cart. axis [1,0,0]        

 cryst.   s( 4) = (    -1          0          0      )
                  (    -1          0          1      )
                  (    -1          1          0      )

 cart.    s( 4) = (  1.0000000  0.0000000  0.0000000 )
                  (  0.0000000 -1.0000000  0.0000000 )
                  (  0.0000000  0.0000000 -1.0000000 )


      isym =  5     120 deg rotation - cart. axis [-1,-1,-1]     

 cryst.   s( 5) = (     0          0          1      )
                  (     1          0          0      )
                  (     0          1          0      )

 cart.    s( 5) = (  0.0000000  1.0000000  0.0000000 )
                  (  0.0000000  0.0000000  1.0000000 )
                  (  1.0000000  0.0000000  0.0000000 )


      isym =  6     120 deg rotation - cart. axis [-1,1,1]       

 cryst.   s( 6) = (     1         -1          0      )
                  (     0         -1          1      )
                  (     0         -1          0      )

 cart.    s( 6) = (  0.0000000 -1.0000000  0.0000000 )
                  (  0.0000000  0.0000000  1.0000000 )
                  ( -1.0000000  0.0000000  0.0000000 )


      isym =  7     120 deg rotation - cart. axis [1,1,-1]       

 cryst.   s( 7) = (    -1          1          0      )
                  (    -1          0          0      )
                  (    -1          0          1      )

 cart.    s( 7) = (  0.0000000  1.0000000  0.0000000 )
                  (  0.0000000  0.0000000 -1.0000000 )
                  ( -1.0000000  0.0000000  0.0000000 )


      isym =  8     120 deg rotation - cart. axis [1,-1,1]       

 cryst.   s( 8) = (     0          0         -1      )
                  (     0          1         -1      )
                  (     1          0         -1      )

 cart.    s( 8) = (  0.0000000 -1.0000000  0.0000000 )
                  (  0.0000000  0.0000000 -1.0000000 )
                  (  1.0000000  0.0000000  0.0000000 )


      isym =  9     120 deg rotation - cart. axis [1,1,1]        

 cryst.   s( 9) = (     0          1          0      )
                  (     0          0          1      )
                  (     1          0          0      )

 cart.    s( 9) = (  0.0000000  0.0000000  1.0000000 )
                  (  1.0000000  0.0000000  0.0000000 )
                  (  0.0000000  1.0000000  0.0000000 )


      isym = 10     120 deg rotation - cart. axis [-1,1,-1]      

 cryst.   s(10) = (    -1          0          1      )
                  (    -1          1          0      )
                  (    -1          0          0      )

 cart.    s(10) = (  0.0000000  0.0000000  1.0000000 )
                  ( -1.0000000  0.0000000  0.0000000 )
                  (  0.0000000 -1.0000000  0.0000000 )


      isym = 11     120 deg rotation - cart. axis [1,-1,-1]      

 cryst.   s(11) = (     1          0         -1      )
                  (     0          0         -1      )
                  (     0          1         -1      )

 cart.    s(11) = (  0.0000000  0.0000000 -1.0000000 )
                  ( -1.0000000  0.0000000  0.0000000 )
                  (  0.0000000  1.0000000  0.0000000 )


      isym = 12     120 deg rotation - cart. axis [-1,-1,1]      

 cryst.   s(12) = (     0         -1          0      )
                  (     1         -1          0      )
                  (     0         -1          1      )

 cart.    s(12) = (  0.0000000  0.0000000 -1.0000000 )
                  (  1.0000000  0.0000000  0.0000000 )
                  (  0.0000000 -1.0000000  0.0000000 )


      isym = 13     inv. 180 deg rotation - cart. axis [1,1,0]   

 cryst.   s(13) = (     1          0         -1      )
                  (     0          1         -1      )
                  (     0          0         -1      )

 cart.    s(13) = (  0.0000000 -1.0000000  0.0000000 )
                  ( -1.0000000  0.0000000  0.0000000 )
                  (  0.0000000  0.0000000  1.0000000 )


      isym = 14     inv. 180 deg rotation - cart. axis [1,-1,0]  

 cryst.   s(14) = (     0          1          0      )
                  (     1          0          0      )
                  (     0          0          1      )

 cart.    s(14) = (  0.0000000  1.0000000  0.0000000 )
                  (  1.0000000  0.0000000  0.0000000 )
                  (  0.0000000  0.0000000  1.0000000 )


      isym = 15     inv.  90 deg rotation - cart. axis [0,0,-1]  

 cryst.   s(15) = (     0         -1          0      )
                  (     0         -1          1      )
                  (     1         -1          0      )

 cart.    s(15) = (  0.0000000 -1.0000000  0.0000000 )
                  (  1.0000000  0.0000000  0.0000000 )
                  (  0.0000000  0.0000000 -1.0000000 )


      isym = 16     inv.  90 deg rotation - cart. axis [0,0,1]   

 cryst.   s(16) = (    -1          0          1      )
                  (    -1          0          0      )
                  (    -1          1          0      )

 cart.    s(16) = (  0.0000000  1.0000000  0.0000000 )
                  ( -1.0000000  0.0000000  0.0000000 )
                  (  0.0000000  0.0000000 -1.0000000 )


      isym = 17     inv. 180 deg rotation - cart. axis [1,0,1]   

 cryst.   s(17) = (     1         -1          0      )
                  (     0         -1          0      )
                  (     0         -1          1      )

 cart.    s(17) = (  0.0000000  0.0000000 -1.0000000 )
                  (  0.0000000  1.0000000  0.0000000 )
                  ( -1.0000000  0.0000000  0.0000000 )


      isym = 18     inv. 180 deg rotation - cart. axis [-1,0,1]  

 cryst.   s(18) = (     0          0          1      )
                  (     0          1          0      )
                  (     1          0          0      )

 cart.    s(18) = (  0.0000000  0.0000000  1.0000000 )
                  (  0.0000000  1.0000000  0.0000000 )
                  (  1.0000000  0.0000000  0.0000000 )


      isym = 19     inv.  90 deg rotation - cart. axis [0,1,0]   

 cryst.   s(19) = (     0          0         -1      )
                  (     1          0         -1      )
                  (     0          1         -1      )

 cart.    s(19) = (  0.0000000  0.0000000 -1.0000000 )
                  (  0.0000000 -1.0000000  0.0000000 )
                  (  1.0000000  0.0000000  0.0000000 )


      isym = 20     inv.  90 deg rotation - cart. axis [0,-1,0]  

 cryst.   s(20) = (    -1          1          0      )
                  (    -1          0          1      )
                  (    -1          0          0      )

 cart.    s(20) = (  0.0000000  0.0000000  1.0000000 )
                  (  0.0000000 -1.0000000  0.0000000 )
                  ( -1.0000000  0.0000000  0.0000000 )


      isym = 21     inv. 180 deg rotation - cart. axis [0,1,1]   

 cryst.   s(21) = (    -1          0          0      )
                  (    -1          1          0      )
                  (    -1          0          1      )

 cart.    s(21) = (  1.0000000  0.0000000  0.0000000 )
                  (  0.0000000  0.0000000 -1.0000000 )
                  (  0.0000000 -1.0000000  0.0000000 )


      isym = 22     inv. 180 deg rotation - cart. axis [0,1,-1]  

 cryst.   s(22) = (     1          0          0      )
                  (     0          0          1      )
                  (     0          1          0      )

 cart.    s(22) = (  1.0000000  0.0000000  0.0000000 )
                  (  0.0000000  0.0000000  1.0000000 )
                  (  0.0000000  1.0000000  0.0000000 )


      isym = 23     inv.  90 deg rotation - cart. axis [-1,0,0]  

 cryst.   s(23) = (     0          1         -1      )
                  (     0          0         -1      )
                  (     1          0         -1      )

 cart.    s(23) = ( -1.0000000  0.0000000  0.0000000 )
                  (  0.0000000  0.0000000 -1.0000000 )
                  (  0.0000000  1.0000000  0.0000000 )


      isym = 24     inv.  90 deg rotation - cart. axis [1,0,0]   

 cryst.   s(24) = (     0         -1          1      )
                  (     1         -1          0      )
                  (     0         -1          0      )

 cart.    s(24) = ( -1.0000000  0.0000000  0.0000000 )
                  (  0.0000000  0.0000000  1.0000000 )
                  (  0.0000000 -1.0000000  0.0000000 )


   Cartesian axes

     site n.     atom                  positions (alat units)
         1           Sn  tau(   1) = (   0.0000000   0.0000000   0.0000000  )
         2           Sn  tau(   2) = (   0.3535534   0.3535534   0.3535534  )

   Crystallographic axes

     site n.     atom                  positions (cryst. coord.)
         1           Sn  tau(   1) = (  0.0000000  0.0000000  0.0000000  )
         2           Sn  tau(   2) = (  0.2500000  0.2500000  0.2500000  )

     number of k points=   455  gaussian smearing, width (Ry)=  0.0100
                       cart. coord. in units 2pi/alat
        k(    1) = (   0.0000000   0.0000000   0.0000000), wk =   0.0001280
        k(    2) = (   0.0282843   0.0282843  -0.0282843), wk =   0.0010240
        k(    3) = (   0.0565685   0.0565685  -0.0565685), wk =   0.0010240
        k(    4) = (   0.0848528   0.0848528  -0.0848528), wk =   0.0010240
        k(    5) = (   0.1131371   0.1131371  -0.1131371), wk =   0.0010240
        k(    6) = (   0.1414214   0.1414214  -0.1414214), wk =   0.0010240
        k(    7) = (   0.1697056   0.1697056  -0.1697056), wk =   0.0010240
        k(    8) = (   0.1979899   0.1979899  -0.1979899), wk =   0.0010240
        k(    9) = (   0.2262742   0.2262742  -0.2262742), wk =   0.0010240
        k(   10) = (   0.2545584   0.2545584  -0.2545584), wk =   0.0010240
        k(   11) = (   0.2828427   0.2828427  -0.2828427), wk =   0.0010240
        k(   12) = (   0.3111270   0.3111270  -0.3111270), wk =   0.0010240
        k(   13) = (   0.3394113   0.3394113  -0.3394113), wk =   0.0010240
        k(   14) = (   0.0565685   0.0000000   0.0000000), wk =   0.0007680
        k(   15) = (   0.0848528   0.0282843  -0.0282843), wk =   0.0030720
        k(   16) = (   0.1131371   0.0565685  -0.0565685), wk =   0.0030720
        k(   17) = (   0.1414214   0.0848528  -0.0848528), wk =   0.0030720
        k(   18) = (   0.1697056   0.1131371  -0.1131371), wk =   0.0030720
        k(   19) = (   0.1979899   0.1414214  -0.1414214), wk =   0.0030720
        k(   20) = (   0.2262742   0.1697056  -0.1697056), wk =   0.0030720
        k(   21) = (   0.2545584   0.1979899  -0.1979899), wk =   0.0030720
        k(   22) = (   0.2828427   0.2262742  -0.2262742), wk =   0.0030720
        k(   23) = (   0.3111270   0.2545584  -0.2545584), wk =   0.0030720
        k(   24) = (   0.3394113   0.2828427  -0.2828427), wk =   0.0030720
        k(   25) = (   0.3676955   0.3111270  -0.3111270), wk =   0.0030720
        k(   26) = (  -0.3111270  -0.3676955   0.3676955), wk =   0.0030720
        k(   27) = (  -0.2828427  -0.3394113   0.3394113), wk =   0.0030720
        k(   28) = (  -0.2545584  -0.3111270   0.3111270), wk =   0.0030720
        k(   29) = (  -0.2262742  -0.2828427   0.2828427), wk =   0.0030720
        k(   30) = (  -0.1979899  -0.2545584   0.2545584), wk =   0.0030720
        k(   31) = (  -0.1697056  -0.2262742   0.2262742), wk =   0.0030720
        k(   32) = (  -0.1414214  -0.1979899   0.1979899), wk =   0.0030720
        k(   33) = (  -0.1131371  -0.1697056   0.1697056), wk =   0.0030720
        k(   34) = (  -0.0848528  -0.1414214   0.1414214), wk =   0.0030720
        k(   35) = (  -0.0565685  -0.1131371   0.1131371), wk =   0.0030720
        k(   36) = (  -0.0282843  -0.0848528   0.0848528), wk =   0.0030720
        k(   37) = (  -0.0000000  -0.0565685   0.0565685), wk =   0.0015360
        k(   38) = (   0.1131371   0.0000000   0.0000000), wk =   0.0007680
        k(   39) = (   0.1414214   0.0282843  -0.0282843), wk =   0.0030720
        k(   40) = (   0.1697056   0.0565685  -0.0565685), wk =   0.0030720
        k(   41) = (   0.1979899   0.0848528  -0.0848528), wk =   0.0030720
        k(   42) = (   0.2262742   0.1131371  -0.1131371), wk =   0.0030720
        k(   43) = (   0.2545584   0.1414214  -0.1414214), wk =   0.0030720
        k(   44) = (   0.2828427   0.1697056  -0.1697056), wk =   0.0030720
        k(   45) = (   0.3111270   0.1979899  -0.1979899), wk =   0.0030720
        k(   46) = (   0.3394113   0.2262742  -0.2262742), wk =   0.0030720
        k(   47) = (   0.3676955   0.2545584  -0.2545584), wk =   0.0030720
        k(   48) = (   0.3959798   0.2828427  -0.2828427), wk =   0.0030720
        k(   49) = (  -0.2828427  -0.3959798   0.3959798), wk =   0.0030720
        k(   50) = (  -0.2545584  -0.3676955   0.3676955), wk =   0.0030720
        k(   51) = (  -0.2262742  -0.3394113   0.3394113), wk =   0.0030720
        k(   52) = (  -0.1979899  -0.3111270   0.3111270), wk =   0.0030720
        k(   53) = (  -0.1697056  -0.2828427   0.2828427), wk =   0.0030720
        k(   54) = (  -0.1414214  -0.2545584   0.2545584), wk =   0.0030720
        k(   55) = (  -0.1131371  -0.2262742   0.2262742), wk =   0.0030720
        k(   56) = (  -0.0848528  -0.1979899   0.1979899), wk =   0.0030720
        k(   57) = (  -0.0565685  -0.1697056   0.1697056), wk =   0.0030720
        k(   58) = (  -0.0282843  -0.1414214   0.1414214), wk =   0.0030720
        k(   59) = (   0.0000000  -0.1131371   0.1131371), wk =   0.0015360
        k(   60) = (   0.1697056   0.0000000   0.0000000), wk =   0.0007680
        k(   61) = (   0.1979899   0.0282843  -0.0282843), wk =   0.0030720
        k(   62) = (   0.2262742   0.0565685  -0.0565685), wk =   0.0030720
        k(   63) = (   0.2545584   0.0848528  -0.0848528), wk =   0.0030720
        k(   64) = (   0.2828427   0.1131371  -0.1131371), wk =   0.0030720
        k(   65) = (   0.3111270   0.1414214  -0.1414214), wk =   0.0030720
        k(   66) = (   0.3394113   0.1697056  -0.1697056), wk =   0.0030720
        k(   67) = (   0.3676955   0.1979899  -0.1979899), wk =   0.0030720
        k(   68) = (   0.3959798   0.2262742  -0.2262742), wk =   0.0030720
        k(   69) = (   0.4242641   0.2545584  -0.2545584), wk =   0.0030720
        k(   70) = (  -0.2545584  -0.4242641   0.4242641), wk =   0.0030720
        k(   71) = (  -0.2262742  -0.3959798   0.3959798), wk =   0.0030720
        k(   72) = (  -0.1979899  -0.3676955   0.3676955), wk =   0.0030720
        k(   73) = (  -0.1697056  -0.3394113   0.3394113), wk =   0.0030720
        k(   74) = (  -0.1414214  -0.3111270   0.3111270), wk =   0.0030720
        k(   75) = (  -0.1131371  -0.2828427   0.2828427), wk =   0.0030720
        k(   76) = (  -0.0848528  -0.2545584   0.2545584), wk =   0.0030720
        k(   77) = (  -0.0565685  -0.2262742   0.2262742), wk =   0.0030720
        k(   78) = (  -0.0282843  -0.1979899   0.1979899), wk =   0.0030720
        k(   79) = (   0.0000000  -0.1697056   0.1697056), wk =   0.0015360
        k(   80) = (   0.2262742   0.0000000   0.0000000), wk =   0.0007680
        k(   81) = (   0.2545584   0.0282843  -0.0282843), wk =   0.0030720
        k(   82) = (   0.2828427   0.0565685  -0.0565685), wk =   0.0030720
        k(   83) = (   0.3111270   0.0848528  -0.0848528), wk =   0.0030720
        k(   84) = (   0.3394113   0.1131371  -0.1131371), wk =   0.0030720
        k(   85) = (   0.3676955   0.1414214  -0.1414214), wk =   0.0030720
        k(   86) = (   0.3959798   0.1697056  -0.1697056), wk =   0.0030720
        k(   87) = (   0.4242641   0.1979899  -0.1979899), wk =   0.0030720
        k(   88) = (   0.4525483   0.2262742  -0.2262742), wk =   0.0030720
        k(   89) = (  -0.2262742  -0.4525483   0.4525483), wk =   0.0030720
        k(   90) = (  -0.1979899  -0.4242641   0.4242641), wk =   0.0030720
        k(   91) = (  -0.1697056  -0.3959798   0.3959798), wk =   0.0030720
        k(   92) = (  -0.1414214  -0.3676955   0.3676955), wk =   0.0030720
        k(   93) = (  -0.1131371  -0.3394113   0.3394113), wk =   0.0030720
        k(   94) = (  -0.0848528  -0.3111270   0.3111270), wk =   0.0030720
        k(   95) = (  -0.0565685  -0.2828427   0.2828427), wk =   0.0030720
        k(   96) = (  -0.0282843  -0.2545584   0.2545584), wk =   0.0030720
        k(   97) = (  -0.0000000  -0.2262742   0.2262742), wk =   0.0015360
        k(   98) = (   0.2828427   0.0000000   0.0000000), wk =   0.0007680
        k(   99) = (   0.3111270   0.0282843  -0.0282843), wk =   0.0030720
        k(  100) = (   0.3394113   0.0565685  -0.0565685), wk =   0.0030720
        k(  101) = (   0.3676955   0.0848528  -0.0848528), wk =   0.0030720
        k(  102) = (   0.3959798   0.1131371  -0.1131371), wk =   0.0030720
        k(  103) = (   0.4242641   0.1414214  -0.1414214), wk =   0.0030720
        k(  104) = (   0.4525483   0.1697056  -0.1697056), wk =   0.0030720
        k(  105) = (   0.4808326   0.1979899  -0.1979899), wk =   0.0030720
        k(  106) = (  -0.1979899  -0.4808326   0.4808326), wk =   0.0030720
        k(  107) = (  -0.1697056  -0.4525483   0.4525483), wk =   0.0030720
        k(  108) = (  -0.1414214  -0.4242641   0.4242641), wk =   0.0030720
        k(  109) = (  -0.1131371  -0.3959798   0.3959798), wk =   0.0030720
        k(  110) = (  -0.0848528  -0.3676955   0.3676955), wk =   0.0030720
        k(  111) = (  -0.0565685  -0.3394113   0.3394113), wk =   0.0030720
        k(  112) = (  -0.0282843  -0.3111270   0.3111270), wk =   0.0030720
        k(  113) = (   0.0000000  -0.2828427   0.2828427), wk =   0.0015360
        k(  114) = (   0.3394113   0.0000000   0.0000000), wk =   0.0007680
        k(  115) = (   0.3676955   0.0282843  -0.0282843), wk =   0.0030720
        k(  116) = (   0.3959798   0.0565685  -0.0565685), wk =   0.0030720
        k(  117) = (   0.4242641   0.0848528  -0.0848528), wk =   0.0030720
        k(  118) = (   0.4525483   0.1131371  -0.1131371), wk =   0.0030720
        k(  119) = (   0.4808326   0.1414214  -0.1414214), wk =   0.0030720
        k(  120) = (   0.5091169   0.1697056  -0.1697056), wk =   0.0030720
        k(  121) = (  -0.1697056  -0.5091169   0.5091169), wk =   0.0030720
        k(  122) = (  -0.1414214  -0.4808326   0.4808326), wk =   0.0030720
        k(  123) = (  -0.1131371  -0.4525483   0.4525483), wk =   0.0030720
        k(  124) = (  -0.0848528  -0.4242641   0.4242641), wk =   0.0030720
        k(  125) = (  -0.0565685  -0.3959798   0.3959798), wk =   0.0030720
        k(  126) = (  -0.0282843  -0.3676955   0.3676955), wk =   0.0030720
        k(  127) = (   0.0000000  -0.3394113   0.3394113), wk =   0.0015360
        k(  128) = (   0.3959798   0.0000000   0.0000000), wk =   0.0007680
        k(  129) = (   0.4242641   0.0282843  -0.0282843), wk =   0.0030720
        k(  130) = (   0.4525483   0.0565685  -0.0565685), wk =   0.0030720
        k(  131) = (   0.4808326   0.0848528  -0.0848528), wk =   0.0030720
        k(  132) = (   0.5091169   0.1131371  -0.1131371), wk =   0.0030720
        k(  133) = (   0.5374012   0.1414214  -0.1414214), wk =   0.0030720
        k(  134) = (  -0.1414214  -0.5374012   0.5374012), wk =   0.0030720
        k(  135) = (  -0.1131371  -0.5091169   0.5091169), wk =   0.0030720
        k(  136) = (  -0.0848528  -0.4808326   0.4808326), wk =   0.0030720
        k(  137) = (  -0.0565685  -0.4525483   0.4525483), wk =   0.0030720
        k(  138) = (  -0.0282843  -0.4242641   0.4242641), wk =   0.0030720
        k(  139) = (   0.0000000  -0.3959798   0.3959798), wk =   0.0015360
        k(  140) = (   0.4525483   0.0000000   0.0000000), wk =   0.0007680
        k(  141) = (   0.4808326   0.0282843  -0.0282843), wk =   0.0030720
        k(  142) = (   0.5091169   0.0565685  -0.0565685), wk =   0.0030720
        k(  143) = (   0.5374012   0.0848528  -0.0848528), wk =   0.0030720
        k(  144) = (   0.5656854   0.1131371  -0.1131371), wk =   0.0030720
        k(  145) = (  -0.1131371  -0.5656854   0.5656854), wk =   0.0030720
        k(  146) = (  -0.0848528  -0.5374012   0.5374012), wk =   0.0030720
        k(  147) = (  -0.0565685  -0.5091169   0.5091169), wk =   0.0030720
        k(  148) = (  -0.0282843  -0.4808326   0.4808326), wk =   0.0030720
        k(  149) = (   0.0000000  -0.4525483   0.4525483), wk =   0.0015360
        k(  150) = (   0.5091169   0.0000000   0.0000000), wk =   0.0007680
        k(  151) = (   0.5374012   0.0282843  -0.0282843), wk =   0.0030720
        k(  152) = (   0.5656854   0.0565685  -0.0565685), wk =   0.0030720
        k(  153) = (   0.5939697   0.0848528  -0.0848528), wk =   0.0030720
        k(  154) = (  -0.0848528  -0.5939697   0.5939697), wk =   0.0030720
        k(  155) = (  -0.0565685  -0.5656854   0.5656854), wk =   0.0030720
        k(  156) = (  -0.0282843  -0.5374012   0.5374012), wk =   0.0030720
        k(  157) = (   0.0000000  -0.5091169   0.5091169), wk =   0.0015360
        k(  158) = (   0.5656854   0.0000000   0.0000000), wk =   0.0007680
        k(  159) = (   0.5939697   0.0282843  -0.0282843), wk =   0.0030720
        k(  160) = (   0.6222540   0.0565685  -0.0565685), wk =   0.0030720
        k(  161) = (  -0.0565685  -0.6222540   0.6222540), wk =   0.0030720
        k(  162) = (  -0.0282843  -0.5939697   0.5939697), wk =   0.0030720
        k(  163) = (   0.0000000  -0.5656854   0.5656854), wk =   0.0015360
        k(  164) = (   0.6222540   0.0000000   0.0000000), wk =   0.0007680
        k(  165) = (   0.6505382   0.0282843  -0.0282843), wk =   0.0030720
        k(  166) = (  -0.0282843  -0.6505382   0.6505382), wk =   0.0030720
        k(  167) = (   0.0000000  -0.6222540   0.6222540), wk =   0.0015360
        k(  168) = (   0.6788225   0.0000000   0.0000000), wk =   0.0007680
        k(  169) = (   0.0000000  -0.6788225   0.6788225), wk =   0.0015360
        k(  170) = (   0.1131371   0.0565685   0.0000000), wk =   0.0030720
        k(  171) = (   0.1414214   0.0848528  -0.0282843), wk =   0.0061440
        k(  172) = (   0.1697056   0.1131371  -0.0565685), wk =   0.0061440
        k(  173) = (   0.1979899   0.1414214  -0.0848528), wk =   0.0061440
        k(  174) = (   0.2262742   0.1697056  -0.1131371), wk =   0.0061440
        k(  175) = (   0.2545584   0.1979899  -0.1414214), wk =   0.0061440
        k(  176) = (   0.2828427   0.2262742  -0.1697056), wk =   0.0061440
        k(  177) = (   0.3111270   0.2545584  -0.1979899), wk =   0.0061440
        k(  178) = (   0.3394113   0.2828427  -0.2262742), wk =   0.0061440
        k(  179) = (   0.3676955   0.3111270  -0.2545584), wk =   0.0061440
        k(  180) = (  -0.3111270  -0.3676955   0.4242641), wk =   0.0061440
        k(  181) = (   0.1697056   0.0565685   0.0000000), wk =   0.0030720
        k(  182) = (   0.1979899   0.0848528  -0.0282843), wk =   0.0061440
        k(  183) = (   0.2262742   0.1131371  -0.0565685), wk =   0.0061440
        k(  184) = (   0.2545584   0.1414214  -0.0848528), wk =   0.0061440
        k(  185) = (   0.2828427   0.1697056  -0.1131371), wk =   0.0061440
        k(  186) = (   0.3111270   0.1979899  -0.1414214), wk =   0.0061440
        k(  187) = (   0.3394113   0.2262742  -0.1697056), wk =   0.0061440
        k(  188) = (   0.3676955   0.2545584  -0.1979899), wk =   0.0061440
        k(  189) = (   0.3959798   0.2828427  -0.2262742), wk =   0.0061440
        k(  190) = (  -0.2828427  -0.3959798   0.4525483), wk =   0.0061440
        k(  191) = (  -0.2545584  -0.3676955   0.4242641), wk =   0.0061440
        k(  192) = (  -0.2262742  -0.3394113   0.3959798), wk =   0.0061440
        k(  193) = (  -0.1979899  -0.3111270   0.3676955), wk =   0.0061440
        k(  194) = (  -0.1697056  -0.2828427   0.3394113), wk =   0.0061440
        k(  195) = (  -0.1414214  -0.2545584   0.3111270), wk =   0.0061440
        k(  196) = (  -0.1131371  -0.2262742   0.2828427), wk =   0.0061440
        k(  197) = (  -0.0848528  -0.1979899   0.2545584), wk =   0.0061440
        k(  198) = (  -0.0565685  -0.1697056   0.2262742), wk =   0.0061440
        k(  199) = (  -0.0282843  -0.1414214   0.1979899), wk =   0.0061440
        k(  200) = (   0.0000000  -0.1131371   0.1697056), wk =   0.0030720
        k(  201) = (   0.2262742   0.0565685   0.0000000), wk =   0.0030720
        k(  202) = (   0.2545584   0.0848528  -0.0282843), wk =   0.0061440
        k(  203) = (   0.2828427   0.1131371  -0.0565685), wk =   0.0061440
        k(  204) = (   0.3111270   0.1414214  -0.0848528), wk =   0.0061440
        k(  205) = (   0.3394113   0.1697056  -0.1131371), wk =   0.0061440
        k(  206) = (   0.3676955   0.1979899  -0.1414214), wk =   0.0061440
        k(  207) = (   0.3959798   0.2262742  -0.1697056), wk =   0.0061440
        k(  208) = (   0.4242641   0.2545584  -0.1979899), wk =   0.0061440
        k(  209) = (  -0.2545584  -0.4242641   0.4808326), wk =   0.0061440
        k(  210) = (  -0.2262742  -0.3959798   0.4525483), wk =   0.0061440
        k(  211) = (  -0.1979899  -0.3676955   0.4242641), wk =   0.0061440
        k(  212) = (  -0.1697056  -0.3394113   0.3959798), wk =   0.0061440
        k(  213) = (  -0.1414214  -0.3111270   0.3676955), wk =   0.0061440
        k(  214) = (  -0.1131371  -0.2828427   0.3394113), wk =   0.0061440
        k(  215) = (  -0.0848528  -0.2545584   0.3111270), wk =   0.0061440
        k(  216) = (  -0.0565685  -0.2262742   0.2828427), wk =   0.0061440
        k(  217) = (  -0.0282843  -0.1979899   0.2545584), wk =   0.0061440
        k(  218) = (   0.0000000  -0.1697056   0.2262742), wk =   0.0030720
        k(  219) = (   0.2828427   0.0565685   0.0000000), wk =   0.0030720
        k(  220) = (   0.3111270   0.0848528  -0.0282843), wk =   0.0061440
        k(  221) = (   0.3394113   0.1131371  -0.0565685), wk =   0.0061440
        k(  222) = (   0.3676955   0.1414214  -0.0848528), wk =   0.0061440
        k(  223) = (   0.3959798   0.1697056  -0.1131371), wk =   0.0061440
        k(  224) = (   0.4242641   0.1979899  -0.1414214), wk =   0.0061440
        k(  225) = (   0.4525483   0.2262742  -0.1697056), wk =   0.0061440
        k(  226) = (  -0.2262742  -0.4525483   0.5091169), wk =   0.0061440
        k(  227) = (  -0.1979899  -0.4242641   0.4808326), wk =   0.0061440
        k(  228) = (  -0.1697056  -0.3959798   0.4525483), wk =   0.0061440
        k(  229) = (  -0.1414214  -0.3676955   0.4242641), wk =   0.0061440
        k(  230) = (  -0.1131371  -0.3394113   0.3959798), wk =   0.0061440
        k(  231) = (  -0.0848528  -0.3111270   0.3676955), wk =   0.0061440
        k(  232) = (  -0.0565685  -0.2828427   0.3394113), wk =   0.0061440
        k(  233) = (  -0.0282843  -0.2545584   0.3111270), wk =   0.0061440
        k(  234) = (  -0.0000000  -0.2262742   0.2828427), wk =   0.0030720
        k(  235) = (   0.3394113   0.0565685   0.0000000), wk =   0.0030720
        k(  236) = (   0.3676955   0.0848528  -0.0282843), wk =   0.0061440
        k(  237) = (   0.3959798   0.1131371  -0.0565685), wk =   0.0061440
        k(  238) = (   0.4242641   0.1414214  -0.0848528), wk =   0.0061440
        k(  239) = (   0.4525483   0.1697056  -0.1131371), wk =   0.0061440
        k(  240) = (   0.4808326   0.1979899  -0.1414214), wk =   0.0061440
        k(  241) = (  -0.1979899  -0.4808326   0.5374012), wk =   0.0061440
        k(  242) = (  -0.1697056  -0.4525483   0.5091169), wk =   0.0061440
        k(  243) = (  -0.1414214  -0.4242641   0.4808326), wk =   0.0061440
        k(  244) = (  -0.1131371  -0.3959798   0.4525483), wk =   0.0061440
        k(  245) = (  -0.0848528  -0.3676955   0.4242641), wk =   0.0061440
        k(  246) = (  -0.0565685  -0.3394113   0.3959798), wk =   0.0061440
        k(  247) = (  -0.0282843  -0.3111270   0.3676955), wk =   0.0061440
        k(  248) = (   0.0000000  -0.2828427   0.3394113), wk =   0.0030720
        k(  249) = (   0.3959798   0.0565685   0.0000000), wk =   0.0030720
        k(  250) = (   0.4242641   0.0848528  -0.0282843), wk =   0.0061440
        k(  251) = (   0.4525483   0.1131371  -0.0565685), wk =   0.0061440
        k(  252) = (   0.4808326   0.1414214  -0.0848528), wk =   0.0061440
        k(  253) = (   0.5091169   0.1697056  -0.1131371), wk =   0.0061440
        k(  254) = (  -0.1697056  -0.5091169   0.5656854), wk =   0.0061440
        k(  255) = (  -0.1414214  -0.4808326   0.5374012), wk =   0.0061440
        k(  256) = (  -0.1131371  -0.4525483   0.5091169), wk =   0.0061440
        k(  257) = (  -0.0848528  -0.4242641   0.4808326), wk =   0.0061440
        k(  258) = (  -0.0565685  -0.3959798   0.4525483), wk =   0.0061440
        k(  259) = (  -0.0282843  -0.3676955   0.4242641), wk =   0.0061440
        k(  260) = (   0.0000000  -0.3394113   0.3959798), wk =   0.0030720
        k(  261) = (   0.4525483   0.0565685   0.0000000), wk =   0.0030720
        k(  262) = (   0.4808326   0.0848528  -0.0282843), wk =   0.0061440
        k(  263) = (   0.5091169   0.1131371  -0.0565685), wk =   0.0061440
        k(  264) = (   0.5374012   0.1414214  -0.0848528), wk =   0.0061440
        k(  265) = (  -0.1414214  -0.5374012   0.5939697), wk =   0.0061440
        k(  266) = (  -0.1131371  -0.5091169   0.5656854), wk =   0.0061440
        k(  267) = (  -0.0848528  -0.4808326   0.5374012), wk =   0.0061440
        k(  268) = (  -0.0565685  -0.4525483   0.5091169), wk =   0.0061440
        k(  269) = (  -0.0282843  -0.4242641   0.4808326), wk =   0.0061440
        k(  270) = (   0.0000000  -0.3959798   0.4525483), wk =   0.0030720
        k(  271) = (   0.5091169   0.0565685  -0.0000000), wk =   0.0030720
        k(  272) = (   0.5374012   0.0848528  -0.0282843), wk =   0.0061440
        k(  273) = (   0.5656854   0.1131371  -0.0565685), wk =   0.0061440
        k(  274) = (  -0.1131371  -0.5656854   0.6222540), wk =   0.0061440
        k(  275) = (  -0.0848528  -0.5374012   0.5939697), wk =   0.0061440
        k(  276) = (  -0.0565685  -0.5091169   0.5656854), wk =   0.0061440
        k(  277) = (  -0.0282843  -0.4808326   0.5374012), wk =   0.0061440
        k(  278) = (   0.0000000  -0.4525483   0.5091169), wk =   0.0030720
        k(  279) = (   0.5656854   0.0565685   0.0000000), wk =   0.0030720
        k(  280) = (   0.5939697   0.0848528  -0.0282843), wk =   0.0061440
        k(  281) = (  -0.0848528  -0.5939697   0.6505382), wk =   0.0061440
        k(  282) = (  -0.0565685  -0.5656854   0.6222540), wk =   0.0061440
        k(  283) = (  -0.0282843  -0.5374012   0.5939697), wk =   0.0061440
        k(  284) = (   0.0000000  -0.5091169   0.5656854), wk =   0.0030720
        k(  285) = (   0.6222540   0.0565685   0.0000000), wk =   0.0030720
        k(  286) = (  -0.0565685  -0.6222540   0.6788225), wk =   0.0061440
        k(  287) = (  -0.0282843  -0.5939697   0.6505382), wk =   0.0061440
        k(  288) = (  -0.0000000  -0.5656854   0.6222540), wk =   0.0030720
        k(  289) = (  -0.0282843  -0.6505382   0.7071068), wk =   0.0030720
        k(  290) = (   0.0000000  -0.6222540   0.6788225), wk =   0.0030720
        k(  291) = (   0.2262742   0.1131371   0.0000000), wk =   0.0030720
        k(  292) = (   0.2545584   0.1414214  -0.0282843), wk =   0.0061440
        k(  293) = (   0.2828427   0.1697056  -0.0565685), wk =   0.0061440
        k(  294) = (   0.3111270   0.1979899  -0.0848528), wk =   0.0061440
        k(  295) = (   0.3394113   0.2262742  -0.1131371), wk =   0.0061440
        k(  296) = (   0.3676955   0.2545584  -0.1414214), wk =   0.0061440
        k(  297) = (   0.3959798   0.2828427  -0.1697056), wk =   0.0061440
        k(  298) = (  -0.2828427  -0.3959798   0.5091169), wk =   0.0061440
        k(  299) = (  -0.2545584  -0.3676955   0.4808326), wk =   0.0061440
        k(  300) = (   0.2828427   0.1131371   0.0000000), wk =   0.0030720
        k(  301) = (   0.3111270   0.1414214  -0.0282843), wk =   0.0061440
        k(  302) = (   0.3394113   0.1697056  -0.0565685), wk =   0.0061440
        k(  303) = (   0.3676955   0.1979899  -0.0848528), wk =   0.0061440
        k(  304) = (   0.3959798   0.2262742  -0.1131371), wk =   0.0061440
        k(  305) = (   0.4242641   0.2545584  -0.1414214), wk =   0.0061440
        k(  306) = (  -0.2545584  -0.4242641   0.5374012), wk =   0.0061440
        k(  307) = (  -0.2262742  -0.3959798   0.5091169), wk =   0.0061440
        k(  308) = (  -0.1979899  -0.3676955   0.4808326), wk =   0.0061440
        k(  309) = (  -0.1697056  -0.3394113   0.4525483), wk =   0.0061440
        k(  310) = (  -0.1414214  -0.3111270   0.4242641), wk =   0.0061440
        k(  311) = (  -0.1131371  -0.2828427   0.3959798), wk =   0.0061440
        k(  312) = (  -0.0848528  -0.2545584   0.3676955), wk =   0.0061440
        k(  313) = (  -0.0565685  -0.2262742   0.3394113), wk =   0.0061440
        k(  314) = (  -0.0282843  -0.1979899   0.3111270), wk =   0.0061440
        k(  315) = (   0.0000000  -0.1697056   0.2828427), wk =   0.0030720
        k(  316) = (   0.3394113   0.1131371   0.0000000), wk =   0.0030720
        k(  317) = (   0.3676955   0.1414214  -0.0282843), wk =   0.0061440
        k(  318) = (   0.3959798   0.1697056  -0.0565685), wk =   0.0061440
        k(  319) = (   0.4242641   0.1979899  -0.0848528), wk =   0.0061440
        k(  320) = (   0.4525483   0.2262742  -0.1131371), wk =   0.0061440
        k(  321) = (  -0.2262742  -0.4525483   0.5656854), wk =   0.0061440
        k(  322) = (  -0.1979899  -0.4242641   0.5374012), wk =   0.0061440
        k(  323) = (  -0.1697056  -0.3959798   0.5091169), wk =   0.0061440
        k(  324) = (  -0.1414214  -0.3676955   0.4808326), wk =   0.0061440
        k(  325) = (  -0.1131371  -0.3394113   0.4525483), wk =   0.0061440
        k(  326) = (  -0.0848528  -0.3111270   0.4242641), wk =   0.0061440
        k(  327) = (  -0.0565685  -0.2828427   0.3959798), wk =   0.0061440
        k(  328) = (  -0.0282843  -0.2545584   0.3676955), wk =   0.0061440
        k(  329) = (  -0.0000000  -0.2262742   0.3394113), wk =   0.0030720
        k(  330) = (   0.3959798   0.1131371   0.0000000), wk =   0.0030720
        k(  331) = (   0.4242641   0.1414214  -0.0282843), wk =   0.0061440
        k(  332) = (   0.4525483   0.1697056  -0.0565685), wk =   0.0061440
        k(  333) = (   0.4808326   0.1979899  -0.0848528), wk =   0.0061440
        k(  334) = (  -0.1979899  -0.4808326   0.5939697), wk =   0.0061440
        k(  335) = (  -0.1697056  -0.4525483   0.5656854), wk =   0.0061440
        k(  336) = (  -0.1414214  -0.4242641   0.5374012), wk =   0.0061440
        k(  337) = (  -0.1131371  -0.3959798   0.5091169), wk =   0.0061440
        k(  338) = (  -0.0848528  -0.3676955   0.4808326), wk =   0.0061440
        k(  339) = (  -0.0565685  -0.3394113   0.4525483), wk =   0.0061440
        k(  340) = (  -0.0282843  -0.3111270   0.4242641), wk =   0.0061440
        k(  341) = (   0.0000000  -0.2828427   0.3959798), wk =   0.0030720
        k(  342) = (   0.4525483   0.1131371   0.0000000), wk =   0.0030720
        k(  343) = (   0.4808326   0.1414214  -0.0282843), wk =   0.0061440
        k(  344) = (   0.5091169   0.1697056  -0.0565685), wk =   0.0061440
        k(  345) = (  -0.1697056  -0.5091169   0.6222540), wk =   0.0061440
        k(  346) = (  -0.1414214  -0.4808326   0.5939697), wk =   0.0061440
        k(  347) = (  -0.1131371  -0.4525483   0.5656854), wk =   0.0061440
        k(  348) = (  -0.0848528  -0.4242641   0.5374012), wk =   0.0061440
        k(  349) = (  -0.0565685  -0.3959798   0.5091169), wk =   0.0061440
        k(  350) = (  -0.0282843  -0.3676955   0.4808326), wk =   0.0061440
        k(  351) = (   0.0000000  -0.3394113   0.4525483), wk =   0.0030720
        k(  352) = (   0.5091169   0.1131371   0.0000000), wk =   0.0030720
        k(  353) = (   0.5374012   0.1414214  -0.0282843), wk =   0.0061440
        k(  354) = (  -0.1414214  -0.5374012   0.6505382), wk =   0.0061440
        k(  355) = (  -0.1131371  -0.5091169   0.6222540), wk =   0.0061440
        k(  356) = (  -0.0848528  -0.4808326   0.5939697), wk =   0.0061440
        k(  357) = (  -0.0565685  -0.4525483   0.5656854), wk =   0.0061440
        k(  358) = (  -0.0282843  -0.4242641   0.5374012), wk =   0.0061440
        k(  359) = (  -0.0000000  -0.3959798   0.5091169), wk =   0.0030720
        k(  360) = (   0.5656854   0.1131371   0.0000000), wk =   0.0030720
        k(  361) = (  -0.1131371  -0.5656854   0.6788225), wk =   0.0061440
        k(  362) = (  -0.0848528  -0.5374012   0.6505382), wk =   0.0061440
        k(  363) = (  -0.0565685  -0.5091169   0.6222540), wk =   0.0061440
        k(  364) = (  -0.0282843  -0.4808326   0.5939697), wk =   0.0061440
        k(  365) = (   0.0000000  -0.4525483   0.5656854), wk =   0.0030720
        k(  366) = (  -0.0848528  -0.5939697   0.7071068), wk =   0.0030720
        k(  367) = (  -0.0565685  -0.5656854   0.6788225), wk =   0.0061440
        k(  368) = (  -0.0282843  -0.5374012   0.6505382), wk =   0.0061440
        k(  369) = (   0.0000000  -0.5091169   0.6222540), wk =   0.0030720
        k(  370) = (  -0.0282843  -0.5939697   0.7071068), wk =   0.0030720
        k(  371) = (  -0.0000000  -0.5656854   0.6788225), wk =   0.0030720
        k(  372) = (   0.3394113   0.1697056   0.0000000), wk =   0.0030720
        k(  373) = (   0.3676955   0.1979899  -0.0282843), wk =   0.0061440
        k(  374) = (   0.3959798   0.2262742  -0.0565685), wk =   0.0061440
        k(  375) = (   0.4242641   0.2545584  -0.0848528), wk =   0.0061440
        k(  376) = (  -0.2545584  -0.4242641   0.5939697), wk =   0.0061440
        k(  377) = (  -0.2262742  -0.3959798   0.5656854), wk =   0.0061440
        k(  378) = (  -0.1979899  -0.3676955   0.5374012), wk =   0.0061440
        k(  379) = (   0.3959798   0.1697056  -0.0000000), wk =   0.0030720
        k(  380) = (   0.4242641   0.1979899  -0.0282843), wk =   0.0061440
        k(  381) = (   0.4525483   0.2262742  -0.0565685), wk =   0.0061440
        k(  382) = (  -0.2262742  -0.4525483   0.6222540), wk =   0.0061440
        k(  383) = (  -0.1979899  -0.4242641   0.5939697), wk =   0.0061440
        k(  384) = (  -0.1697056  -0.3959798   0.5656854), wk =   0.0061440
        k(  385) = (  -0.1414214  -0.3676955   0.5374012), wk =   0.0061440
        k(  386) = (  -0.1131371  -0.3394113   0.5091169), wk =   0.0061440
        k(  387) = (  -0.0848528  -0.3111270   0.4808326), wk =   0.0061440
        k(  388) = (  -0.0565685  -0.2828427   0.4525483), wk =   0.0061440
        k(  389) = (  -0.0282843  -0.2545584   0.4242641), wk =   0.0061440
        k(  390) = (  -0.0000000  -0.2262742   0.3959798), wk =   0.0030720
        k(  391) = (   0.4525483   0.1697056   0.0000000), wk =   0.0030720
        k(  392) = (   0.4808326   0.1979899  -0.0282843), wk =   0.0061440
        k(  393) = (  -0.1979899  -0.4808326   0.6505382), wk =   0.0061440
        k(  394) = (  -0.1697056  -0.4525483   0.6222540), wk =   0.0061440
        k(  395) = (  -0.1414214  -0.4242641   0.5939697), wk =   0.0061440
        k(  396) = (  -0.1131371  -0.3959798   0.5656854), wk =   0.0061440
        k(  397) = (  -0.0848528  -0.3676955   0.5374012), wk =   0.0061440
        k(  398) = (  -0.0565685  -0.3394113   0.5091169), wk =   0.0061440
        k(  399) = (  -0.0282843  -0.3111270   0.4808326), wk =   0.0061440
        k(  400) = (   0.0000000  -0.2828427   0.4525483), wk =   0.0030720
        k(  401) = (   0.5091169   0.1697056   0.0000000), wk =   0.0030720
        k(  402) = (  -0.1697056  -0.5091169   0.6788225), wk =   0.0061440
        k(  403) = (  -0.1414214  -0.4808326   0.6505382), wk =   0.0061440
        k(  404) = (  -0.1131371  -0.4525483   0.6222540), wk =   0.0061440
        k(  405) = (  -0.0848528  -0.4242641   0.5939697), wk =   0.0061440
        k(  406) = (  -0.0565685  -0.3959798   0.5656854), wk =   0.0061440
        k(  407) = (  -0.0282843  -0.3676955   0.5374012), wk =   0.0061440
        k(  408) = (  -0.0000000  -0.3394113   0.5091169), wk =   0.0030720
        k(  409) = (  -0.1414214  -0.5374012   0.7071068), wk =   0.0030720
        k(  410) = (  -0.1131371  -0.5091169   0.6788225), wk =   0.0061440
        k(  411) = (  -0.0848528  -0.4808326   0.6505382), wk =   0.0061440
        k(  412) = (  -0.0565685  -0.4525483   0.6222540), wk =   0.0061440
        k(  413) = (  -0.0282843  -0.4242641   0.5939697), wk =   0.0061440
        k(  414) = (   0.0000000  -0.3959798   0.5656854), wk =   0.0030720
        k(  415) = (  -0.0848528  -0.5374012   0.7071068), wk =   0.0030720
        k(  416) = (  -0.0565685  -0.5091169   0.6788225), wk =   0.0061440
        k(  417) = (  -0.0282843  -0.4808326   0.6505382), wk =   0.0061440
        k(  418) = (   0.0000000  -0.4525483   0.6222540), wk =   0.0030720
        k(  419) = (  -0.0282843  -0.5374012   0.7071068), wk =   0.0030720
        k(  420) = (   0.0000000  -0.5091169   0.6788225), wk =   0.0030720
        k(  421) = (   0.4525483   0.2262742   0.0000000), wk =   0.0030720
        k(  422) = (  -0.2262742  -0.4525483   0.6788225), wk =   0.0061440
        k(  423) = (  -0.1979899  -0.4242641   0.6505382), wk =   0.0061440
        k(  424) = (  -0.1697056  -0.3959798   0.6222540), wk =   0.0061440
        k(  425) = (  -0.1414214  -0.3676955   0.5939697), wk =   0.0061440
        k(  426) = (  -0.1979899  -0.4808326   0.7071068), wk =   0.0030720
        k(  427) = (  -0.1697056  -0.4525483   0.6788225), wk =   0.0061440
        k(  428) = (  -0.1414214  -0.4242641   0.6505382), wk =   0.0061440
        k(  429) = (  -0.1131371  -0.3959798   0.6222540), wk =   0.0061440
        k(  430) = (  -0.0848528  -0.3676955   0.5939697), wk =   0.0061440
        k(  431) = (  -0.0565685  -0.3394113   0.5656854), wk =   0.0061440
        k(  432) = (  -0.0282843  -0.3111270   0.5374012), wk =   0.0061440
        k(  433) = (   0.0000000  -0.2828427   0.5091169), wk =   0.0030720
        k(  434) = (  -0.1414214  -0.4808326   0.7071068), wk =   0.0030720
        k(  435) = (  -0.1131371  -0.4525483   0.6788225), wk =   0.0061440
        k(  436) = (  -0.0848528  -0.4242641   0.6505382), wk =   0.0061440
        k(  437) = (  -0.0565685  -0.3959798   0.6222540), wk =   0.0061440
        k(  438) = (  -0.0282843  -0.3676955   0.5939697), wk =   0.0061440
        k(  439) = (   0.0000000  -0.3394113   0.5656854), wk =   0.0030720
        k(  440) = (  -0.0848528  -0.4808326   0.7071068), wk =   0.0030720
        k(  441) = (  -0.0565685  -0.4525483   0.6788225), wk =   0.0061440
        k(  442) = (  -0.0282843  -0.4242641   0.6505382), wk =   0.0061440
        k(  443) = (  -0.0000000  -0.3959798   0.6222540), wk =   0.0030720
        k(  444) = (  -0.0282843  -0.4808326   0.7071068), wk =   0.0030720
        k(  445) = (   0.0000000  -0.4525483   0.6788225), wk =   0.0030720
        k(  446) = (  -0.1414214  -0.4242641   0.7071068), wk =   0.0030720
        k(  447) = (  -0.1131371  -0.3959798   0.6788225), wk =   0.0061440
        k(  448) = (  -0.0848528  -0.3676955   0.6505382), wk =   0.0061440
        k(  449) = (  -0.0848528  -0.4242641   0.7071068), wk =   0.0030720
        k(  450) = (  -0.0565685  -0.3959798   0.6788225), wk =   0.0061440
        k(  451) = (  -0.0282843  -0.3676955   0.6505382), wk =   0.0061440
        k(  452) = (  -0.0000000  -0.3394113   0.6222540), wk =   0.0030720
        k(  453) = (  -0.0282843  -0.4242641   0.7071068), wk =   0.0030720
        k(  454) = (  -0.0000000  -0.3959798   0.6788225), wk =   0.0030720
        k(  455) = (  -0.0282843  -0.3676955   0.7071068), wk =   0.0030720

                       cryst. coord.
        k(    1) = (   0.0000000   0.0000000   0.0000000), wk =   0.0001280
        k(    2) = (   0.0000000   0.0000000   0.0400000), wk =   0.0010240
        k(    3) = (   0.0000000   0.0000000   0.0800000), wk =   0.0010240
        k(    4) = (   0.0000000   0.0000000   0.1200000), wk =   0.0010240
        k(    5) = (   0.0000000   0.0000000   0.1600000), wk =   0.0010240
        k(    6) = (   0.0000000   0.0000000   0.2000000), wk =   0.0010240
        k(    7) = (   0.0000000   0.0000000   0.2400000), wk =   0.0010240
        k(    8) = (   0.0000000   0.0000000   0.2800000), wk =   0.0010240
        k(    9) = (   0.0000000   0.0000000   0.3200000), wk =   0.0010240
        k(   10) = (   0.0000000   0.0000000   0.3600000), wk =   0.0010240
        k(   11) = (   0.0000000   0.0000000   0.4000000), wk =   0.0010240
        k(   12) = (   0.0000000   0.0000000   0.4400000), wk =   0.0010240
        k(   13) = (   0.0000000   0.0000000   0.4800000), wk =   0.0010240
        k(   14) = (   0.0000000   0.0400000   0.0400000), wk =   0.0007680
        k(   15) = (   0.0000000   0.0400000   0.0800000), wk =   0.0030720
        k(   16) = (   0.0000000   0.0400000   0.1200000), wk =   0.0030720
        k(   17) = (   0.0000000   0.0400000   0.1600000), wk =   0.0030720
        k(   18) = (   0.0000000   0.0400000   0.2000000), wk =   0.0030720
        k(   19) = (   0.0000000   0.0400000   0.2400000), wk =   0.0030720
        k(   20) = (   0.0000000   0.0400000   0.2800000), wk =   0.0030720
        k(   21) = (   0.0000000   0.0400000   0.3200000), wk =   0.0030720
        k(   22) = (   0.0000000   0.0400000   0.3600000), wk =   0.0030720
        k(   23) = (   0.0000000   0.0400000   0.4000000), wk =   0.0030720
        k(   24) = (   0.0000000   0.0400000   0.4400000), wk =   0.0030720
        k(   25) = (   0.0000000   0.0400000   0.4800000), wk =   0.0030720
        k(   26) = (   0.0000000   0.0400000  -0.4800000), wk =   0.0030720
        k(   27) = (   0.0000000   0.0400000  -0.4400000), wk =   0.0030720
        k(   28) = (   0.0000000   0.0400000  -0.4000000), wk =   0.0030720
        k(   29) = (   0.0000000   0.0400000  -0.3600000), wk =   0.0030720
        k(   30) = (   0.0000000   0.0400000  -0.3200000), wk =   0.0030720
        k(   31) = (   0.0000000   0.0400000  -0.2800000), wk =   0.0030720
        k(   32) = (   0.0000000   0.0400000  -0.2400000), wk =   0.0030720
        k(   33) = (   0.0000000   0.0400000  -0.2000000), wk =   0.0030720
        k(   34) = (   0.0000000   0.0400000  -0.1600000), wk =   0.0030720
        k(   35) = (   0.0000000   0.0400000  -0.1200000), wk =   0.0030720
        k(   36) = (   0.0000000   0.0400000  -0.0800000), wk =   0.0030720
        k(   37) = (   0.0000000   0.0400000  -0.0400000), wk =   0.0015360
        k(   38) = (   0.0000000   0.0800000   0.0800000), wk =   0.0007680
        k(   39) = (   0.0000000   0.0800000   0.1200000), wk =   0.0030720
        k(   40) = (   0.0000000   0.0800000   0.1600000), wk =   0.0030720
        k(   41) = (   0.0000000   0.0800000   0.2000000), wk =   0.0030720
        k(   42) = (   0.0000000   0.0800000   0.2400000), wk =   0.0030720
        k(   43) = (   0.0000000   0.0800000   0.2800000), wk =   0.0030720
        k(   44) = (   0.0000000   0.0800000   0.3200000), wk =   0.0030720
        k(   45) = (   0.0000000   0.0800000   0.3600000), wk =   0.0030720
        k(   46) = (   0.0000000   0.0800000   0.4000000), wk =   0.0030720
        k(   47) = (   0.0000000   0.0800000   0.4400000), wk =   0.0030720
        k(   48) = (   0.0000000   0.0800000   0.4800000), wk =   0.0030720
        k(   49) = (   0.0000000   0.0800000  -0.4800000), wk =   0.0030720
        k(   50) = (   0.0000000   0.0800000  -0.4400000), wk =   0.0030720
        k(   51) = (   0.0000000   0.0800000  -0.4000000), wk =   0.0030720
        k(   52) = (   0.0000000   0.0800000  -0.3600000), wk =   0.0030720
        k(   53) = (   0.0000000   0.0800000  -0.3200000), wk =   0.0030720
        k(   54) = (   0.0000000   0.0800000  -0.2800000), wk =   0.0030720
        k(   55) = (   0.0000000   0.0800000  -0.2400000), wk =   0.0030720
        k(   56) = (   0.0000000   0.0800000  -0.2000000), wk =   0.0030720
        k(   57) = (   0.0000000   0.0800000  -0.1600000), wk =   0.0030720
        k(   58) = (   0.0000000   0.0800000  -0.1200000), wk =   0.0030720
        k(   59) = (   0.0000000   0.0800000  -0.0800000), wk =   0.0015360
        k(   60) = (   0.0000000   0.1200000   0.1200000), wk =   0.0007680
        k(   61) = (   0.0000000   0.1200000   0.1600000), wk =   0.0030720
        k(   62) = (   0.0000000   0.1200000   0.2000000), wk =   0.0030720
        k(   63) = (   0.0000000   0.1200000   0.2400000), wk =   0.0030720
        k(   64) = (   0.0000000   0.1200000   0.2800000), wk =   0.0030720
        k(   65) = (   0.0000000   0.1200000   0.3200000), wk =   0.0030720
        k(   66) = (   0.0000000   0.1200000   0.3600000), wk =   0.0030720
        k(   67) = (   0.0000000   0.1200000   0.4000000), wk =   0.0030720
        k(   68) = (   0.0000000   0.1200000   0.4400000), wk =   0.0030720
        k(   69) = (   0.0000000   0.1200000   0.4800000), wk =   0.0030720
        k(   70) = (   0.0000000   0.1200000  -0.4800000), wk =   0.0030720
        k(   71) = (   0.0000000   0.1200000  -0.4400000), wk =   0.0030720
        k(   72) = (   0.0000000   0.1200000  -0.4000000), wk =   0.0030720
        k(   73) = (   0.0000000   0.1200000  -0.3600000), wk =   0.0030720
        k(   74) = (   0.0000000   0.1200000  -0.3200000), wk =   0.0030720
        k(   75) = (   0.0000000   0.1200000  -0.2800000), wk =   0.0030720
        k(   76) = (   0.0000000   0.1200000  -0.2400000), wk =   0.0030720
        k(   77) = (   0.0000000   0.1200000  -0.2000000), wk =   0.0030720
        k(   78) = (   0.0000000   0.1200000  -0.1600000), wk =   0.0030720
        k(   79) = (   0.0000000   0.1200000  -0.1200000), wk =   0.0015360
        k(   80) = (   0.0000000   0.1600000   0.1600000), wk =   0.0007680
        k(   81) = (   0.0000000   0.1600000   0.2000000), wk =   0.0030720
        k(   82) = (   0.0000000   0.1600000   0.2400000), wk =   0.0030720
        k(   83) = (   0.0000000   0.1600000   0.2800000), wk =   0.0030720
        k(   84) = (   0.0000000   0.1600000   0.3200000), wk =   0.0030720
        k(   85) = (   0.0000000   0.1600000   0.3600000), wk =   0.0030720
        k(   86) = (   0.0000000   0.1600000   0.4000000), wk =   0.0030720
        k(   87) = (   0.0000000   0.1600000   0.4400000), wk =   0.0030720
        k(   88) = (   0.0000000   0.1600000   0.4800000), wk =   0.0030720
        k(   89) = (   0.0000000   0.1600000  -0.4800000), wk =   0.0030720
        k(   90) = (   0.0000000   0.1600000  -0.4400000), wk =   0.0030720
        k(   91) = (   0.0000000   0.1600000  -0.4000000), wk =   0.0030720
        k(   92) = (   0.0000000   0.1600000  -0.3600000), wk =   0.0030720
        k(   93) = (   0.0000000   0.1600000  -0.3200000), wk =   0.0030720
        k(   94) = (   0.0000000   0.1600000  -0.2800000), wk =   0.0030720
        k(   95) = (   0.0000000   0.1600000  -0.2400000), wk =   0.0030720
        k(   96) = (   0.0000000   0.1600000  -0.2000000), wk =   0.0030720
        k(   97) = (   0.0000000   0.1600000  -0.1600000), wk =   0.0015360
        k(   98) = (   0.0000000   0.2000000   0.2000000), wk =   0.0007680
        k(   99) = (   0.0000000   0.2000000   0.2400000), wk =   0.0030720
        k(  100) = (   0.0000000   0.2000000   0.2800000), wk =   0.0030720
        k(  101) = (   0.0000000   0.2000000   0.3200000), wk =   0.0030720
        k(  102) = (   0.0000000   0.2000000   0.3600000), wk =   0.0030720
        k(  103) = (   0.0000000   0.2000000   0.4000000), wk =   0.0030720
        k(  104) = (   0.0000000   0.2000000   0.4400000), wk =   0.0030720
        k(  105) = (   0.0000000   0.2000000   0.4800000), wk =   0.0030720
        k(  106) = (   0.0000000   0.2000000  -0.4800000), wk =   0.0030720
        k(  107) = (   0.0000000   0.2000000  -0.4400000), wk =   0.0030720
        k(  108) = (   0.0000000   0.2000000  -0.4000000), wk =   0.0030720
        k(  109) = (   0.0000000   0.2000000  -0.3600000), wk =   0.0030720
        k(  110) = (   0.0000000   0.2000000  -0.3200000), wk =   0.0030720
        k(  111) = (   0.0000000   0.2000000  -0.2800000), wk =   0.0030720
        k(  112) = (   0.0000000   0.2000000  -0.2400000), wk =   0.0030720
        k(  113) = (   0.0000000   0.2000000  -0.2000000), wk =   0.0015360
        k(  114) = (   0.0000000   0.2400000   0.2400000), wk =   0.0007680
        k(  115) = (   0.0000000   0.2400000   0.2800000), wk =   0.0030720
        k(  116) = (   0.0000000   0.2400000   0.3200000), wk =   0.0030720
        k(  117) = (   0.0000000   0.2400000   0.3600000), wk =   0.0030720
        k(  118) = (   0.0000000   0.2400000   0.4000000), wk =   0.0030720
        k(  119) = (   0.0000000   0.2400000   0.4400000), wk =   0.0030720
        k(  120) = (   0.0000000   0.2400000   0.4800000), wk =   0.0030720
        k(  121) = (   0.0000000   0.2400000  -0.4800000), wk =   0.0030720
        k(  122) = (   0.0000000   0.2400000  -0.4400000), wk =   0.0030720
        k(  123) = (   0.0000000   0.2400000  -0.4000000), wk =   0.0030720
        k(  124) = (   0.0000000   0.2400000  -0.3600000), wk =   0.0030720
        k(  125) = (   0.0000000   0.2400000  -0.3200000), wk =   0.0030720
        k(  126) = (   0.0000000   0.2400000  -0.2800000), wk =   0.0030720
        k(  127) = (   0.0000000   0.2400000  -0.2400000), wk =   0.0015360
        k(  128) = (   0.0000000   0.2800000   0.2800000), wk =   0.0007680
        k(  129) = (   0.0000000   0.2800000   0.3200000), wk =   0.0030720
        k(  130) = (   0.0000000   0.2800000   0.3600000), wk =   0.0030720
        k(  131) = (   0.0000000   0.2800000   0.4000000), wk =   0.0030720
        k(  132) = (   0.0000000   0.2800000   0.4400000), wk =   0.0030720
        k(  133) = (   0.0000000   0.2800000   0.4800000), wk =   0.0030720
        k(  134) = (   0.0000000   0.2800000  -0.4800000), wk =   0.0030720
        k(  135) = (   0.0000000   0.2800000  -0.4400000), wk =   0.0030720
        k(  136) = (   0.0000000   0.2800000  -0.4000000), wk =   0.0030720
        k(  137) = (   0.0000000   0.2800000  -0.3600000), wk =   0.0030720
        k(  138) = (   0.0000000   0.2800000  -0.3200000), wk =   0.0030720
        k(  139) = (   0.0000000   0.2800000  -0.2800000), wk =   0.0015360
        k(  140) = (   0.0000000   0.3200000   0.3200000), wk =   0.0007680
        k(  141) = (   0.0000000   0.3200000   0.3600000), wk =   0.0030720
        k(  142) = (   0.0000000   0.3200000   0.4000000), wk =   0.0030720
        k(  143) = (   0.0000000   0.3200000   0.4400000), wk =   0.0030720
        k(  144) = (   0.0000000   0.3200000   0.4800000), wk =   0.0030720
        k(  145) = (   0.0000000   0.3200000  -0.4800000), wk =   0.0030720
        k(  146) = (   0.0000000   0.3200000  -0.4400000), wk =   0.0030720
        k(  147) = (   0.0000000   0.3200000  -0.4000000), wk =   0.0030720
        k(  148) = (   0.0000000   0.3200000  -0.3600000), wk =   0.0030720
        k(  149) = (   0.0000000   0.3200000  -0.3200000), wk =   0.0015360
        k(  150) = (   0.0000000   0.3600000   0.3600000), wk =   0.0007680
        k(  151) = (   0.0000000   0.3600000   0.4000000), wk =   0.0030720
        k(  152) = (   0.0000000   0.3600000   0.4400000), wk =   0.0030720
        k(  153) = (   0.0000000   0.3600000   0.4800000), wk =   0.0030720
        k(  154) = (   0.0000000   0.3600000  -0.4800000), wk =   0.0030720
        k(  155) = (   0.0000000   0.3600000  -0.4400000), wk =   0.0030720
        k(  156) = (   0.0000000   0.3600000  -0.4000000), wk =   0.0030720
        k(  157) = (   0.0000000   0.3600000  -0.3600000), wk =   0.0015360
        k(  158) = (   0.0000000   0.4000000   0.4000000), wk =   0.0007680
        k(  159) = (   0.0000000   0.4000000   0.4400000), wk =   0.0030720
        k(  160) = (   0.0000000   0.4000000   0.4800000), wk =   0.0030720
        k(  161) = (   0.0000000   0.4000000  -0.4800000), wk =   0.0030720
        k(  162) = (   0.0000000   0.4000000  -0.4400000), wk =   0.0030720
        k(  163) = (   0.0000000   0.4000000  -0.4000000), wk =   0.0015360
        k(  164) = (   0.0000000   0.4400000   0.4400000), wk =   0.0007680
        k(  165) = (   0.0000000   0.4400000   0.4800000), wk =   0.0030720
        k(  166) = (   0.0000000   0.4400000  -0.4800000), wk =   0.0030720
        k(  167) = (   0.0000000   0.4400000  -0.4400000), wk =   0.0015360
        k(  168) = (   0.0000000   0.4800000   0.4800000), wk =   0.0007680
        k(  169) = (   0.0000000   0.4800000  -0.4800000), wk =   0.0015360
        k(  170) = (   0.0400000   0.0800000   0.1200000), wk =   0.0030720
        k(  171) = (   0.0400000   0.0800000   0.1600000), wk =   0.0061440
        k(  172) = (   0.0400000   0.0800000   0.2000000), wk =   0.0061440
        k(  173) = (   0.0400000   0.0800000   0.2400000), wk =   0.0061440
        k(  174) = (   0.0400000   0.0800000   0.2800000), wk =   0.0061440
        k(  175) = (   0.0400000   0.0800000   0.3200000), wk =   0.0061440
        k(  176) = (   0.0400000   0.0800000   0.3600000), wk =   0.0061440
        k(  177) = (   0.0400000   0.0800000   0.4000000), wk =   0.0061440
        k(  178) = (   0.0400000   0.0800000   0.4400000), wk =   0.0061440
        k(  179) = (   0.0400000   0.0800000   0.4800000), wk =   0.0061440
        k(  180) = (   0.0400000   0.0800000  -0.4800000), wk =   0.0061440
        k(  181) = (   0.0400000   0.1200000   0.1600000), wk =   0.0030720
        k(  182) = (   0.0400000   0.1200000   0.2000000), wk =   0.0061440
        k(  183) = (   0.0400000   0.1200000   0.2400000), wk =   0.0061440
        k(  184) = (   0.0400000   0.1200000   0.2800000), wk =   0.0061440
        k(  185) = (   0.0400000   0.1200000   0.3200000), wk =   0.0061440
        k(  186) = (   0.0400000   0.1200000   0.3600000), wk =   0.0061440
        k(  187) = (   0.0400000   0.1200000   0.4000000), wk =   0.0061440
        k(  188) = (   0.0400000   0.1200000   0.4400000), wk =   0.0061440
        k(  189) = (   0.0400000   0.1200000   0.4800000), wk =   0.0061440
        k(  190) = (   0.0400000   0.1200000  -0.4800000), wk =   0.0061440
        k(  191) = (   0.0400000   0.1200000  -0.4400000), wk =   0.0061440
        k(  192) = (   0.0400000   0.1200000  -0.4000000), wk =   0.0061440
        k(  193) = (   0.0400000   0.1200000  -0.3600000), wk =   0.0061440
        k(  194) = (   0.0400000   0.1200000  -0.3200000), wk =   0.0061440
        k(  195) = (   0.0400000   0.1200000  -0.2800000), wk =   0.0061440
        k(  196) = (   0.0400000   0.1200000  -0.2400000), wk =   0.0061440
        k(  197) = (   0.0400000   0.1200000  -0.2000000), wk =   0.0061440
        k(  198) = (   0.0400000   0.1200000  -0.1600000), wk =   0.0061440
        k(  199) = (   0.0400000   0.1200000  -0.1200000), wk =   0.0061440
        k(  200) = (   0.0400000   0.1200000  -0.0800000), wk =   0.0030720
        k(  201) = (   0.0400000   0.1600000   0.2000000), wk =   0.0030720
        k(  202) = (   0.0400000   0.1600000   0.2400000), wk =   0.0061440
        k(  203) = (   0.0400000   0.1600000   0.2800000), wk =   0.0061440
        k(  204) = (   0.0400000   0.1600000   0.3200000), wk =   0.0061440
        k(  205) = (   0.0400000   0.1600000   0.3600000), wk =   0.0061440
        k(  206) = (   0.0400000   0.1600000   0.4000000), wk =   0.0061440
        k(  207) = (   0.0400000   0.1600000   0.4400000), wk =   0.0061440
        k(  208) = (   0.0400000   0.1600000   0.4800000), wk =   0.0061440
        k(  209) = (   0.0400000   0.1600000  -0.4800000), wk =   0.0061440
        k(  210) = (   0.0400000   0.1600000  -0.4400000), wk =   0.0061440
        k(  211) = (   0.0400000   0.1600000  -0.4000000), wk =   0.0061440
        k(  212) = (   0.0400000   0.1600000  -0.3600000), wk =   0.0061440
        k(  213) = (   0.0400000   0.1600000  -0.3200000), wk =   0.0061440
        k(  214) = (   0.0400000   0.1600000  -0.2800000), wk =   0.0061440
        k(  215) = (   0.0400000   0.1600000  -0.2400000), wk =   0.0061440
        k(  216) = (   0.0400000   0.1600000  -0.2000000), wk =   0.0061440
        k(  217) = (   0.0400000   0.1600000  -0.1600000), wk =   0.0061440
        k(  218) = (   0.0400000   0.1600000  -0.1200000), wk =   0.0030720
        k(  219) = (   0.0400000   0.2000000   0.2400000), wk =   0.0030720
        k(  220) = (   0.0400000   0.2000000   0.2800000), wk =   0.0061440
        k(  221) = (   0.0400000   0.2000000   0.3200000), wk =   0.0061440
        k(  222) = (   0.0400000   0.2000000   0.3600000), wk =   0.0061440
        k(  223) = (   0.0400000   0.2000000   0.4000000), wk =   0.0061440
        k(  224) = (   0.0400000   0.2000000   0.4400000), wk =   0.0061440
        k(  225) = (   0.0400000   0.2000000   0.4800000), wk =   0.0061440
        k(  226) = (   0.0400000   0.2000000  -0.4800000), wk =   0.0061440
        k(  227) = (   0.0400000   0.2000000  -0.4400000), wk =   0.0061440
        k(  228) = (   0.0400000   0.2000000  -0.4000000), wk =   0.0061440
        k(  229) = (   0.0400000   0.2000000  -0.3600000), wk =   0.0061440
        k(  230) = (   0.0400000   0.2000000  -0.3200000), wk =   0.0061440
        k(  231) = (   0.0400000   0.2000000  -0.2800000), wk =   0.0061440
        k(  232) = (   0.0400000   0.2000000  -0.2400000), wk =   0.0061440
        k(  233) = (   0.0400000   0.2000000  -0.2000000), wk =   0.0061440
        k(  234) = (   0.0400000   0.2000000  -0.1600000), wk =   0.0030720
        k(  235) = (   0.0400000   0.2400000   0.2800000), wk =   0.0030720
        k(  236) = (   0.0400000   0.2400000   0.3200000), wk =   0.0061440
        k(  237) = (   0.0400000   0.2400000   0.3600000), wk =   0.0061440
        k(  238) = (   0.0400000   0.2400000   0.4000000), wk =   0.0061440
        k(  239) = (   0.0400000   0.2400000   0.4400000), wk =   0.0061440
        k(  240) = (   0.0400000   0.2400000   0.4800000), wk =   0.0061440
        k(  241) = (   0.0400000   0.2400000  -0.4800000), wk =   0.0061440
        k(  242) = (   0.0400000   0.2400000  -0.4400000), wk =   0.0061440
        k(  243) = (   0.0400000   0.2400000  -0.4000000), wk =   0.0061440
        k(  244) = (   0.0400000   0.2400000  -0.3600000), wk =   0.0061440
        k(  245) = (   0.0400000   0.2400000  -0.3200000), wk =   0.0061440
        k(  246) = (   0.0400000   0.2400000  -0.2800000), wk =   0.0061440
        k(  247) = (   0.0400000   0.2400000  -0.2400000), wk =   0.0061440
        k(  248) = (   0.0400000   0.2400000  -0.2000000), wk =   0.0030720
        k(  249) = (   0.0400000   0.2800000   0.3200000), wk =   0.0030720
        k(  250) = (   0.0400000   0.2800000   0.3600000), wk =   0.0061440
        k(  251) = (   0.0400000   0.2800000   0.4000000), wk =   0.0061440
        k(  252) = (   0.0400000   0.2800000   0.4400000), wk =   0.0061440
        k(  253) = (   0.0400000   0.2800000   0.4800000), wk =   0.0061440
        k(  254) = (   0.0400000   0.2800000  -0.4800000), wk =   0.0061440
        k(  255) = (   0.0400000   0.2800000  -0.4400000), wk =   0.0061440
        k(  256) = (   0.0400000   0.2800000  -0.4000000), wk =   0.0061440
        k(  257) = (   0.0400000   0.2800000  -0.3600000), wk =   0.0061440
        k(  258) = (   0.0400000   0.2800000  -0.3200000), wk =   0.0061440
        k(  259) = (   0.0400000   0.2800000  -0.2800000), wk =   0.0061440
        k(  260) = (   0.0400000   0.2800000  -0.2400000), wk =   0.0030720
        k(  261) = (   0.0400000   0.3200000   0.3600000), wk =   0.0030720
        k(  262) = (   0.0400000   0.3200000   0.4000000), wk =   0.0061440
        k(  263) = (   0.0400000   0.3200000   0.4400000), wk =   0.0061440
        k(  264) = (   0.0400000   0.3200000   0.4800000), wk =   0.0061440
        k(  265) = (   0.0400000   0.3200000  -0.4800000), wk =   0.0061440
        k(  266) = (   0.0400000   0.3200000  -0.4400000), wk =   0.0061440
        k(  267) = (   0.0400000   0.3200000  -0.4000000), wk =   0.0061440
        k(  268) = (   0.0400000   0.3200000  -0.3600000), wk =   0.0061440
        k(  269) = (   0.0400000   0.3200000  -0.3200000), wk =   0.0061440
        k(  270) = (   0.0400000   0.3200000  -0.2800000), wk =   0.0030720
        k(  271) = (   0.0400000   0.3600000   0.4000000), wk =   0.0030720
        k(  272) = (   0.0400000   0.3600000   0.4400000), wk =   0.0061440
        k(  273) = (   0.0400000   0.3600000   0.4800000), wk =   0.0061440
        k(  274) = (   0.0400000   0.3600000  -0.4800000), wk =   0.0061440
        k(  275) = (   0.0400000   0.3600000  -0.4400000), wk =   0.0061440
        k(  276) = (   0.0400000   0.3600000  -0.4000000), wk =   0.0061440
        k(  277) = (   0.0400000   0.3600000  -0.3600000), wk =   0.0061440
        k(  278) = (   0.0400000   0.3600000  -0.3200000), wk =   0.0030720
        k(  279) = (   0.0400000   0.4000000   0.4400000), wk =   0.0030720
        k(  280) = (   0.0400000   0.4000000   0.4800000), wk =   0.0061440
        k(  281) = (   0.0400000   0.4000000  -0.4800000), wk =   0.0061440
        k(  282) = (   0.0400000   0.4000000  -0.4400000), wk =   0.0061440
        k(  283) = (   0.0400000   0.4000000  -0.4000000), wk =   0.0061440
        k(  284) = (   0.0400000   0.4000000  -0.3600000), wk =   0.0030720
        k(  285) = (   0.0400000   0.4400000   0.4800000), wk =   0.0030720
        k(  286) = (   0.0400000   0.4400000  -0.4800000), wk =   0.0061440
        k(  287) = (   0.0400000   0.4400000  -0.4400000), wk =   0.0061440
        k(  288) = (   0.0400000   0.4400000  -0.4000000), wk =   0.0030720
        k(  289) = (   0.0400000   0.4800000  -0.4800000), wk =   0.0030720
        k(  290) = (   0.0400000   0.4800000  -0.4400000), wk =   0.0030720
        k(  291) = (   0.0800000   0.1600000   0.2400000), wk =   0.0030720
        k(  292) = (   0.0800000   0.1600000   0.2800000), wk =   0.0061440
        k(  293) = (   0.0800000   0.1600000   0.3200000), wk =   0.0061440
        k(  294) = (   0.0800000   0.1600000   0.3600000), wk =   0.0061440
        k(  295) = (   0.0800000   0.1600000   0.4000000), wk =   0.0061440
        k(  296) = (   0.0800000   0.1600000   0.4400000), wk =   0.0061440
        k(  297) = (   0.0800000   0.1600000   0.4800000), wk =   0.0061440
        k(  298) = (   0.0800000   0.1600000  -0.4800000), wk =   0.0061440
        k(  299) = (   0.0800000   0.1600000  -0.4400000), wk =   0.0061440
        k(  300) = (   0.0800000   0.2000000   0.2800000), wk =   0.0030720
        k(  301) = (   0.0800000   0.2000000   0.3200000), wk =   0.0061440
        k(  302) = (   0.0800000   0.2000000   0.3600000), wk =   0.0061440
        k(  303) = (   0.0800000   0.2000000   0.4000000), wk =   0.0061440
        k(  304) = (   0.0800000   0.2000000   0.4400000), wk =   0.0061440
        k(  305) = (   0.0800000   0.2000000   0.4800000), wk =   0.0061440
        k(  306) = (   0.0800000   0.2000000  -0.4800000), wk =   0.0061440
        k(  307) = (   0.0800000   0.2000000  -0.4400000), wk =   0.0061440
        k(  308) = (   0.0800000   0.2000000  -0.4000000), wk =   0.0061440
        k(  309) = (   0.0800000   0.2000000  -0.3600000), wk =   0.0061440
        k(  310) = (   0.0800000   0.2000000  -0.3200000), wk =   0.0061440
        k(  311) = (   0.0800000   0.2000000  -0.2800000), wk =   0.0061440
        k(  312) = (   0.0800000   0.2000000  -0.2400000), wk =   0.0061440
        k(  313) = (   0.0800000   0.2000000  -0.2000000), wk =   0.0061440
        k(  314) = (   0.0800000   0.2000000  -0.1600000), wk =   0.0061440
        k(  315) = (   0.0800000   0.2000000  -0.1200000), wk =   0.0030720
        k(  316) = (   0.0800000   0.2400000   0.3200000), wk =   0.0030720
        k(  317) = (   0.0800000   0.2400000   0.3600000), wk =   0.0061440
        k(  318) = (   0.0800000   0.2400000   0.4000000), wk =   0.0061440
        k(  319) = (   0.0800000   0.2400000   0.4400000), wk =   0.0061440
        k(  320) = (   0.0800000   0.2400000   0.4800000), wk =   0.0061440
        k(  321) = (   0.0800000   0.2400000  -0.4800000), wk =   0.0061440
        k(  322) = (   0.0800000   0.2400000  -0.4400000), wk =   0.0061440
        k(  323) = (   0.0800000   0.2400000  -0.4000000), wk =   0.0061440
        k(  324) = (   0.0800000   0.2400000  -0.3600000), wk =   0.0061440
        k(  325) = (   0.0800000   0.2400000  -0.3200000), wk =   0.0061440
        k(  326) = (   0.0800000   0.2400000  -0.2800000), wk =   0.0061440
        k(  327) = (   0.0800000   0.2400000  -0.2400000), wk =   0.0061440
        k(  328) = (   0.0800000   0.2400000  -0.2000000), wk =   0.0061440
        k(  329) = (   0.0800000   0.2400000  -0.1600000), wk =   0.0030720
        k(  330) = (   0.0800000   0.2800000   0.3600000), wk =   0.0030720
        k(  331) = (   0.0800000   0.2800000   0.4000000), wk =   0.0061440
        k(  332) = (   0.0800000   0.2800000   0.4400000), wk =   0.0061440
        k(  333) = (   0.0800000   0.2800000   0.4800000), wk =   0.0061440
        k(  334) = (   0.0800000   0.2800000  -0.4800000), wk =   0.0061440
        k(  335) = (   0.0800000   0.2800000  -0.4400000), wk =   0.0061440
        k(  336) = (   0.0800000   0.2800000  -0.4000000), wk =   0.0061440
        k(  337) = (   0.0800000   0.2800000  -0.3600000), wk =   0.0061440
        k(  338) = (   0.0800000   0.2800000  -0.3200000), wk =   0.0061440
        k(  339) = (   0.0800000   0.2800000  -0.2800000), wk =   0.0061440
        k(  340) = (   0.0800000   0.2800000  -0.2400000), wk =   0.0061440
        k(  341) = (   0.0800000   0.2800000  -0.2000000), wk =   0.0030720
        k(  342) = (   0.0800000   0.3200000   0.4000000), wk =   0.0030720
        k(  343) = (   0.0800000   0.3200000   0.4400000), wk =   0.0061440
        k(  344) = (   0.0800000   0.3200000   0.4800000), wk =   0.0061440
        k(  345) = (   0.0800000   0.3200000  -0.4800000), wk =   0.0061440
        k(  346) = (   0.0800000   0.3200000  -0.4400000), wk =   0.0061440
        k(  347) = (   0.0800000   0.3200000  -0.4000000), wk =   0.0061440
        k(  348) = (   0.0800000   0.3200000  -0.3600000), wk =   0.0061440
        k(  349) = (   0.0800000   0.3200000  -0.3200000), wk =   0.0061440
        k(  350) = (   0.0800000   0.3200000  -0.2800000), wk =   0.0061440
        k(  351) = (   0.0800000   0.3200000  -0.2400000), wk =   0.0030720
        k(  352) = (   0.0800000   0.3600000   0.4400000), wk =   0.0030720
        k(  353) = (   0.0800000   0.3600000   0.4800000), wk =   0.0061440
        k(  354) = (   0.0800000   0.3600000  -0.4800000), wk =   0.0061440
        k(  355) = (   0.0800000   0.3600000  -0.4400000), wk =   0.0061440
        k(  356) = (   0.0800000   0.3600000  -0.4000000), wk =   0.0061440
        k(  357) = (   0.0800000   0.3600000  -0.3600000), wk =   0.0061440
        k(  358) = (   0.0800000   0.3600000  -0.3200000), wk =   0.0061440
        k(  359) = (   0.0800000   0.3600000  -0.2800000), wk =   0.0030720
        k(  360) = (   0.0800000   0.4000000   0.4800000), wk =   0.0030720
        k(  361) = (   0.0800000   0.4000000  -0.4800000), wk =   0.0061440
        k(  362) = (   0.0800000   0.4000000  -0.4400000), wk =   0.0061440
        k(  363) = (   0.0800000   0.4000000  -0.4000000), wk =   0.0061440
        k(  364) = (   0.0800000   0.4000000  -0.3600000), wk =   0.0061440
        k(  365) = (   0.0800000   0.4000000  -0.3200000), wk =   0.0030720
        k(  366) = (   0.0800000   0.4400000  -0.4800000), wk =   0.0030720
        k(  367) = (   0.0800000   0.4400000  -0.4400000), wk =   0.0061440
        k(  368) = (   0.0800000   0.4400000  -0.4000000), wk =   0.0061440
        k(  369) = (   0.0800000   0.4400000  -0.3600000), wk =   0.0030720
        k(  370) = (   0.0800000   0.4800000  -0.4400000), wk =   0.0030720
        k(  371) = (   0.0800000   0.4800000  -0.4000000), wk =   0.0030720
        k(  372) = (   0.1200000   0.2400000   0.3600000), wk =   0.0030720
        k(  373) = (   0.1200000   0.2400000   0.4000000), wk =   0.0061440
        k(  374) = (   0.1200000   0.2400000   0.4400000), wk =   0.0061440
        k(  375) = (   0.1200000   0.2400000   0.4800000), wk =   0.0061440
        k(  376) = (   0.1200000   0.2400000  -0.4800000), wk =   0.0061440
        k(  377) = (   0.1200000   0.2400000  -0.4400000), wk =   0.0061440
        k(  378) = (   0.1200000   0.2400000  -0.4000000), wk =   0.0061440
        k(  379) = (   0.1200000   0.2800000   0.4000000), wk =   0.0030720
        k(  380) = (   0.1200000   0.2800000   0.4400000), wk =   0.0061440
        k(  381) = (   0.1200000   0.2800000   0.4800000), wk =   0.0061440
        k(  382) = (   0.1200000   0.2800000  -0.4800000), wk =   0.0061440
        k(  383) = (   0.1200000   0.2800000  -0.4400000), wk =   0.0061440
        k(  384) = (   0.1200000   0.2800000  -0.4000000), wk =   0.0061440
        k(  385) = (   0.1200000   0.2800000  -0.3600000), wk =   0.0061440
        k(  386) = (   0.1200000   0.2800000  -0.3200000), wk =   0.0061440
        k(  387) = (   0.1200000   0.2800000  -0.2800000), wk =   0.0061440
        k(  388) = (   0.1200000   0.2800000  -0.2400000), wk =   0.0061440
        k(  389) = (   0.1200000   0.2800000  -0.2000000), wk =   0.0061440
        k(  390) = (   0.1200000   0.2800000  -0.1600000), wk =   0.0030720
        k(  391) = (   0.1200000   0.3200000   0.4400000), wk =   0.0030720
        k(  392) = (   0.1200000   0.3200000   0.4800000), wk =   0.0061440
        k(  393) = (   0.1200000   0.3200000  -0.4800000), wk =   0.0061440
        k(  394) = (   0.1200000   0.3200000  -0.4400000), wk =   0.0061440
        k(  395) = (   0.1200000   0.3200000  -0.4000000), wk =   0.0061440
        k(  396) = (   0.1200000   0.3200000  -0.3600000), wk =   0.0061440
        k(  397) = (   0.1200000   0.3200000  -0.3200000), wk =   0.0061440
        k(  398) = (   0.1200000   0.3200000  -0.2800000), wk =   0.0061440
        k(  399) = (   0.1200000   0.3200000  -0.2400000), wk =   0.0061440
        k(  400) = (   0.1200000   0.3200000  -0.2000000), wk =   0.0030720
        k(  401) = (   0.1200000   0.3600000   0.4800000), wk =   0.0030720
        k(  402) = (   0.1200000   0.3600000  -0.4800000), wk =   0.0061440
        k(  403) = (   0.1200000   0.3600000  -0.4400000), wk =   0.0061440
        k(  404) = (   0.1200000   0.3600000  -0.4000000), wk =   0.0061440
        k(  405) = (   0.1200000   0.3600000  -0.3600000), wk =   0.0061440
        k(  406) = (   0.1200000   0.3600000  -0.3200000), wk =   0.0061440
        k(  407) = (   0.1200000   0.3600000  -0.2800000), wk =   0.0061440
        k(  408) = (   0.1200000   0.3600000  -0.2400000), wk =   0.0030720
        k(  409) = (   0.1200000   0.4000000  -0.4800000), wk =   0.0030720
        k(  410) = (   0.1200000   0.4000000  -0.4400000), wk =   0.0061440
        k(  411) = (   0.1200000   0.4000000  -0.4000000), wk =   0.0061440
        k(  412) = (   0.1200000   0.4000000  -0.3600000), wk =   0.0061440
        k(  413) = (   0.1200000   0.4000000  -0.3200000), wk =   0.0061440
        k(  414) = (   0.1200000   0.4000000  -0.2800000), wk =   0.0030720
[...]
    13.4900  14.3786

     occupation numbers 
     1.0000   1.0000   1.0000   1.0000   1.0000   1.0000   1.0000   1.0000
     1.0000   1.0000   1.0000   1.0000   1.0000   1.0000   0.0000   0.0000
     0.0000   0.0000

          k =-0.0283-0.4808 0.6505 (  3920 PWs)   bands (ev):

   -13.3220 -13.3148 -13.1791 -13.1474 -13.0978 -13.0794 -13.0630 -13.0339
   -12.9001 -12.8929   0.8579   1.3532   5.5327   5.9982  10.1066  10.9646
    13.3763  13.8384

     occupation numbers 
     1.0000   1.0000   1.0000   1.0000   1.0000   1.0000   1.0000   1.0000
     1.0000   1.0000   1.0000   1.0000   1.0000   1.0000   0.0000   0.0000
     0.0000   0.0000

          k = 0.0000-0.4525 0.6223 (  3910 PWs)   bands (ev):

   -13.3244 -13.3145 -13.1786 -13.1353 -13.0988 -13.0807 -13.0732 -13.0341
   -12.9004 -12.8905   0.8170   1.4022   5.4091   6.0739  10.1655  11.4991
    13.2692  13.2816

     occupation numbers 
     1.0000   1.0000   1.0000   1.0000   1.0000   1.0000   1.0000   1.0000
     1.0000   1.0000   1.0000   1.0000   1.0000   1.0000   0.0000   0.0000
     0.0000   0.0000

          k =-0.0283-0.5374 0.7071 (  3924 PWs)   bands (ev):

   -13.3156 -13.3152 -13.1835 -13.1671 -13.0949 -13.0792 -13.0457 -13.0301
   -12.8997 -12.8993   0.8989   1.2904   5.8325   5.8967   9.9724  10.0449
    14.0818  14.5143

     occupation numbers 
     1.0000   1.0000   1.0000   1.0000   1.0000   1.0000   1.0000   1.0000
     1.0000   1.0000   1.0000   1.0000   1.0000   1.0000   0.0000   0.0000
     0.0000   0.0000

          k = 0.0000-0.5091 0.6788 (  3914 PWs)   bands (ev):

   -13.3191 -13.3153 -13.1761 -13.1634 -13.0898 -13.0856 -13.0488 -13.0368
   -12.8996 -12.8958   1.0237   1.1728   5.6843   5.9155  10.0489  10.4544
    13.9474  13.9713

     occupation numbers 
     1.0000   1.0000   1.0000   1.0000   1.0000   1.0000   1.0000   1.0000
     1.0000   1.0000   1.0000   1.0000   1.0000   1.0000   0.0000   0.0000
     0.0000   0.0000

          k = 0.4525 0.2263 0.0000 (  3917 PWs)   bands (ev):

   -13.3109 -13.3066 -13.2209 -13.1530 -13.1176 -13.0847 -13.0233 -13.0000
   -12.9093 -12.9077  -0.3442   2.8179   5.8248   6.7177  10.5350  10.6198
    12.1183  13.6571

     occupation numbers 
     1.0000   1.0000   1.0000   1.0000   1.0000   1.0000   1.0000   1.0000
     1.0000   1.0000   1.0000   1.0000   1.0000   1.0000   0.0000   0.0000
     0.0000   0.0000

          k =-0.2263-0.4525 0.6788 (  3919 PWs)   bands (ev):

   -13.3154 -13.3086 -13.2109 -13.1467 -13.1123 -13.0890 -13.0311 -13.0098
   -12.9072 -12.9020  -0.1514   2.5367   5.6685   6.6010  10.5310  10.9493
    12.0809  13.8346

     occupation numbers 
     1.0000   1.0000   1.0000   1.0000   1.0000   1.0000   1.0000   1.0000
     1.0000   1.0000   1.0000   1.0000   1.0000   1.0000   0.0000   0.0000
     0.0000   0.0000

          k =-0.1980-0.4243 0.6505 (  3916 PWs)   bands (ev):

   -13.3192 -13.3099 -13.2022 -13.1403 -13.1094 -13.0907 -13.0399 -13.0175
   -12.9057 -12.8973   0.0388   2.2747   5.5554   6.5015  10.5111  11.2287
    12.1838  13.8697

     occupation numbers 
     1.0000   1.0000   1.0000   1.0000   1.0000   1.0000   1.0000   1.0000
     1.0000   1.0000   1.0000   1.0000   1.0000   1.0000   0.0000   0.0000
     0.0000   0.0000

          k =-0.1697-0.3960 0.6223 (  3915 PWs)   bands (ev):

   -13.3219 -13.3108 -13.1957 -13.1345 -13.1089 -13.0904 -13.0483 -13.0225
   -12.9047 -12.8941   0.2037   2.0591   5.4826   6.4296  10.4968  11.3600
    12.4924  13.7246

     occupation numbers 
     1.0000   1.0000   1.0000   1.0000   1.0000   1.0000   1.0000   1.0000
     1.0000   1.0000   1.0000   1.0000   1.0000   1.0000   0.0000   0.0000
     0.0000   0.0000

          k =-0.1414-0.3677 0.5940 (  3920 PWs)   bands (ev):

   -13.3233 -13.3112 -13.1923 -13.1308 -13.1090 -13.0898 -13.0536 -13.0250
   -12.9042 -12.8925   0.3055   1.9311   5.4471   6.3921  10.4895  11.3945
    12.9296  13.3834

     occupation numbers 
     1.0000   1.0000   1.0000   1.0000   1.0000   1.0000   1.0000   1.0000
     1.0000   1.0000   1.0000   1.0000   1.0000   1.0000   0.0000   0.0000
     0.0000   0.0000

          k =-0.1980-0.4808 0.7071 (  3923 PWs)   bands (ev):

   -13.3146 -13.3102 -13.2113 -13.1403 -13.1032 -13.1019 -13.0362 -13.0067
   -12.9056 -12.9026  -0.0615   2.4286   5.7172   6.4175  10.5308  10.6576
    12.2260  14.1781

     occupation numbers 
     1.0000   1.0000   1.0000   1.0000   1.0000   1.0000   1.0000   1.0000
     1.0000   1.0000   1.0000   1.0000   1.0000   1.0000   0.0000   0.0000
     0.0000   0.0000

          k =-0.1697-0.4525 0.6788 (  3919 PWs)   bands (ev):

   -13.3185 -13.3120 -13.2007 -13.1337 -13.1075 -13.0967 -13.0447 -13.0167
   -12.9035 -12.8979   0.1334   2.1762   5.5877   6.3097  10.5973  10.9928
    12.1495  14.2061

     occupation numbers 
     1.0000   1.0000   1.0000   1.0000   1.0000   1.0000   1.0000   1.0000
     1.0000   1.0000   1.0000   1.0000   1.0000   1.0000   0.0000   0.0000
     0.0000   0.0000

          k =-0.1414-0.4243 0.6505 (  3922 PWs)   bands (ev):

   -13.3217 -13.3131 -13.1917 -13.1277 -13.1091 -13.0940 -13.0533 -13.0244
   -12.9022 -12.8940   0.3138   1.9543   5.4890   6.2348  10.6077  11.3603
    12.1784  13.9581

     occupation numbers 
     1.0000   1.0000   1.0000   1.0000   1.0000   1.0000   1.0000   1.0000
     1.0000   1.0000   1.0000   1.0000   1.0000   1.0000   0.0000   0.0000
     0.0000   0.0000

          k =-0.1131-0.3960 0.6223 (  3921 PWs)   bands (ev):

   -13.3238 -13.3137 -13.1858 -13.1238 -13.1067 -13.0948 -13.0600 -13.0292
   -12.9015 -12.8917   0.4445   1.8003   5.4213   6.2012  10.6269  11.5510
    12.4406  13.5155

     occupation numbers 
     1.0000   1.0000   1.0000   1.0000   1.0000   1.0000   1.0000   1.0000
     1.0000   1.0000   1.0000   1.0000   1.0000   1.0000   0.0000   0.0000
     0.0000   0.0000

          k =-0.0849-0.3677 0.5940 (  3921 PWs)   bands (ev):

   -13.3246 -13.3138 -13.1839 -13.1230 -13.1028 -13.0975 -13.0626 -13.0307
   -12.9013 -12.8909   0.4757   1.7646   5.3868   6.2115  10.6544  11.5801
    12.8250  13.0828

     occupation numbers 
     1.0000   1.0000   1.0000   1.0000   1.0000   1.0000   1.0000   1.0000
     1.0000   1.0000   1.0000   1.0000   1.0000   1.0000   0.0000   0.0000
     0.0000   0.0000

          k =-0.0566-0.3394 0.5657 (  3918 PWs)   bands (ev):

   -13.3239 -13.3134 -13.1862 -13.1259 -13.1030 -13.0969 -13.0594 -13.0291
   -12.9017 -12.8917   0.3912   1.8632   5.3895   6.2634  10.6850  11.5425
    12.4836  13.4523

     occupation numbers 
     1.0000   1.0000   1.0000   1.0000   1.0000   1.0000   1.0000   1.0000
     1.0000   1.0000   1.0000   1.0000   1.0000   1.0000   0.0000   0.0000
     0.0000   0.0000

          k =-0.0283-0.3111 0.5374 (  3915 PWs)   bands (ev):

   -13.3220 -13.3125 -13.1920 -13.1324 -13.1019 -13.0980 -13.0511 -13.0251
   -12.9026 -12.8941   0.2316   2.0536   5.4344   6.3516  10.7088  11.4081
    12.1469  13.8701

     occupation numbers 
     1.0000   1.0000   1.0000   1.0000   1.0000   1.0000   1.0000   1.0000
     1.0000   1.0000   1.0000   1.0000   1.0000   1.0000   0.0000   0.0000
     0.0000   0.0000

          k = 0.0000-0.2828 0.5091 (  3919 PWs)   bands (ev):

   -13.3190 -13.3110 -13.2007 -13.1398 -13.1054 -13.0950 -13.0407 -13.0187
   -12.9043 -12.8977   0.0422   2.2878   5.5263   6.4680  10.6950  11.1402
    12.0400  14.0110

     occupation numbers 
     1.0000   1.0000   1.0000   1.0000   1.0000   1.0000   1.0000   1.0000
     1.0000   1.0000   1.0000   1.0000   1.0000   1.0000   0.0000   0.0000
     0.0000   0.0000

          k =-0.1414-0.4808 0.7071 (  3923 PWs)   bands (ev):

   -13.3172 -13.3135 -13.2001 -13.1264 -13.1216 -13.0858 -13.0504 -13.0157
   -12.9019 -12.8989   0.2461   2.0420   5.6586   6.1601  10.4773  10.6545
    12.5119  14.4419

     occupation numbers 
     1.0000   1.0000   1.0000   1.0000   1.0000   1.0000   1.0000   1.0000
     1.0000   1.0000   1.0000   1.0000   1.0000   1.0000   0.0000   0.0000
     0.0000   0.0000

          k =-0.1131-0.4525 0.6788 (  3919 PWs)   bands (ev):

   -13.3205 -13.3151 -13.1889 -13.1251 -13.1194 -13.0819 -13.0591 -13.0259
   -12.9001 -12.8951   0.4382   1.8191   5.5552   6.0671  10.5804  11.0196
    12.4095  14.1292

     occupation numbers 
     1.0000   1.0000   1.0000   1.0000   1.0000   1.0000   1.0000   1.0000
     1.0000   1.0000   1.0000   1.0000   1.0000   1.0000   0.0000   0.0000
     0.0000   0.0000

          k =-0.0849-0.4243 0.6505 (  3917 PWs)   bands (ev):

   -13.3231 -13.3157 -13.1805 -13.1255 -13.1129 -13.0819 -13.0666 -13.0331
   -12.8993 -12.8921   0.5951   1.6452   5.4634   6.0300  10.6174  11.4821
    12.3572  13.6263

     occupation numbers 
     1.0000   1.0000   1.0000   1.0000   1.0000   1.0000   1.0000   1.0000
     1.0000   1.0000   1.0000   1.0000   1.0000   1.0000   0.0000   0.0000
     0.0000   0.0000

          k =-0.0566-0.3960 0.6223 (  3912 PWs)   bands (ev):

   -13.3247 -13.3158 -13.1768 -13.1223 -13.1093 -13.0855 -13.0708 -13.0359
   -12.8992 -12.8904   0.6562   1.5802   5.3934   6.0485  10.6619  11.8278
    12.4633  13.0946

     occupation numbers 
     1.0000   1.0000   1.0000   1.0000   1.0000   1.0000   1.0000   1.0000
     1.0000   1.0000   1.0000   1.0000   1.0000   1.0000   0.0000   0.0000
     0.0000   0.0000

          k =-0.0283-0.3677 0.5940 (  3916 PWs)   bands (ev):

   -13.3250 -13.3153 -13.1783 -13.1174 -13.1119 -13.0882 -13.0702 -13.0347
   -12.8996 -12.8902   0.5821   1.6622   5.3586   6.1145  10.7103  11.8880
    12.4953  12.9780

     occupation numbers 
     1.0000   1.0000   1.0000   1.0000   1.0000   1.0000   1.0000   1.0000
     1.0000   1.0000   1.0000   1.0000   1.0000   1.0000   0.0000   0.0000
     0.0000   0.0000

          k = 0.0000-0.3394 0.5657 (  3919 PWs)   bands (ev):

   -13.3241 -13.3143 -13.1837 -13.1234 -13.1071 -13.0932 -13.0624 -13.0308
   -12.9007 -12.8915   0.4217   1.8397   5.3699   6.2187  10.7439  11.7179
    12.2091  13.4682

     occupation numbers 
     1.0000   1.0000   1.0000   1.0000   1.0000   1.0000   1.0000   1.0000
     1.0000   1.0000   1.0000   1.0000   1.0000   1.0000   0.0000   0.0000
     0.0000   0.0000

          k =-0.0849-0.4808 0.7071 (  3923 PWs)   bands (ev):

   -13.3187 -13.3162 -13.1870 -13.1395 -13.1116 -13.0699 -13.0654 -13.0270
   -12.8988 -12.8967   0.5757   1.6604   5.6514   5.9523  10.4600  10.5929
    12.9124  14.2629

     occupation numbers 
     1.0000   1.0000   1.0000   1.0000   1.0000   1.0000   1.0000   1.0000
     1.0000   1.0000   1.0000   1.0000   1.0000   1.0000   0.0000   0.0000
     0.0000   0.0000

          k =-0.0566-0.4525 0.6788 (  3921 PWs)   bands (ev):

   -13.3214 -13.3173 -13.1759 -13.1413 -13.1050 -13.0743 -13.0672 -13.0368
   -12.8977 -12.8936   0.7563   1.4705   5.5655   5.8882  10.5588  11.0096
    12.8025  13.7330

     occupation numbers 
     1.0000   1.0000   1.0000   1.0000   1.0000   1.0000   1.0000   1.0000
     1.0000   1.0000   1.0000   1.0000   1.0000   1.0000   0.0000   0.0000
     0.0000   0.0000

          k =-0.0283-0.4243 0.6505 (  3911 PWs)   bands (ev):

   -13.3237 -13.3172 -13.1708 -13.1368 -13.1011 -13.0809 -13.0703 -13.0408
   -12.8976 -12.8912   0.8433   1.3839   5.4632   5.9126  10.6101  11.5219
    12.7176  13.1670

     occupation numbers 
     1.0000   1.0000   1.0000   1.0000   1.0000   1.0000   1.0000   1.0000
     1.0000   1.0000   1.0000   1.0000   1.0000   1.0000   0.0000   0.0000
     0.0000   0.0000

          k =-0.0000-0.3960 0.6223 (  3918 PWs)   bands (ev):

   -13.3250 -13.3166 -13.1726 -13.1263 -13.1056 -13.0787 -13.0784 -13.0390
   -12.8982 -12.8900   0.7559   1.4783   5.3865   5.9940  10.6665  11.9641
    12.6470  12.7284

     occupation numbers 
     1.0000   1.0000   1.0000   1.0000   1.0000   1.0000   1.0000   1.0000
     1.0000   1.0000   1.0000   1.0000   1.0000   1.0000   0.0000   0.0000
     0.0000   0.0000

          k =-0.0283-0.4808 0.7071 (  3924 PWs)   bands (ev):

   -13.3190 -13.3181 -13.1725 -13.1565 -13.0963 -13.0808 -13.0545 -13.0400
   -12.8968 -12.8960   0.9237   1.2865   5.6973   5.7976  10.4775  10.5255
    13.3707  13.8438

     occupation numbers 
     1.0000   1.0000   1.0000   1.0000   1.0000   1.0000   1.0000   1.0000
     1.0000   1.0000   1.0000   1.0000   1.0000   1.0000   0.0000   0.0000
     0.0000   0.0000

          k = 0.0000-0.4525 0.6788 (  3911 PWs)   bands (ev):

   -13.3216 -13.3181 -13.1665 -13.1519 -13.0926 -13.0865 -13.0581 -13.0449
   -12.8967 -12.8932   1.0110   1.2058   5.5851   5.8118  10.5508  11.0014
    13.2608  13.2612

     occupation numbers 
     1.0000   1.0000   1.0000   1.0000   1.0000   1.0000   1.0000   1.0000
     1.0000   1.0000   1.0000   1.0000   1.0000   1.0000   0.0000   0.0000
     0.0000   0.0000

          k =-0.1414-0.4243 0.7071 (  3899 PWs)   bands (ev):

   -13.3211 -13.3145 -13.1897 -13.1265 -13.1128 -13.0907 -13.0545 -13.0261
   -12.9007 -12.8948   0.3286   1.9478   5.4925   6.1743  10.9313  11.0794
    12.0777  14.0190

     occupation numbers 
     1.0000   1.0000   1.0000   1.0000   1.0000   1.0000   1.0000   1.0000
     1.0000   1.0000   1.0000   1.0000   1.0000   1.0000   0.0000   0.0000
     0.0000   0.0000

          k =-0.1131-0.3960 0.6788 (  3916 PWs)   bands (ev):

   -13.3232 -13.3159 -13.1807 -13.1205 -13.1157 -13.0865 -13.0639 -13.0332
   -12.8991 -12.8922   0.5084   1.7450   5.4334   6.0725  10.9676  11.4204
    12.1264  13.5433

     occupation numbers 
     1.0000   1.0000   1.0000   1.0000   1.0000   1.0000   1.0000   1.0000
     1.0000   1.0000   1.0000   1.0000   1.0000   1.0000   0.0000   0.0000
     0.0000   0.0000

          k =-0.0849-0.3677 0.6505 (  3913 PWs)   bands (ev):

   -13.3244 -13.3165 -13.1755 -13.1214 -13.1111 -13.0861 -13.0693 -13.0372
   -12.8984 -12.8908   0.6296   1.6117   5.4059   6.0178  10.9725  11.5890
    12.4188  13.0199

     occupation numbers 
     1.0000   1.0000   1.0000   1.0000   1.0000   1.0000   1.0000   1.0000
     1.0000   1.0000   1.0000   1.0000   1.0000   1.0000   0.0000   0.0000
     0.0000   0.0000

          k =-0.0849-0.4243 0.7071 (  3916 PWs)   bands (ev):

   -13.3219 -13.3176 -13.1770 -13.1302 -13.1125 -13.0759 -13.0688 -13.0361
   -12.8973 -12.8933   0.6324   1.6103   5.5143   5.9263  11.0359  11.0486
    12.3108  13.6346

     occupation numbers 
     1.0000   1.0000   1.0000   1.0000   1.0000   1.0000   1.0000   1.0000
     1.0000   1.0000   1.0000   1.0000   1.0000   1.0000   0.0000   0.0000
     0.0000   0.0000

          k =-0.0566-0.3960 0.6788 (  3915 PWs)   bands (ev):

   -13.3233 -13.3187 -13.1681 -13.1333 -13.1060 -13.0783 -13.0717 -13.0432
   -12.8962 -12.8917   0.7904   1.4456   5.4822   5.8498  11.0725  11.5036
    12.2750  13.0741

     occupation numbers 
     1.0000   1.0000   1.0000   1.0000   1.0000   1.0000   1.0000   1.0000
     1.0000   1.0000   1.0000   1.0000   1.0000   1.0000   0.0000   0.0000
     0.0000   0.0000

          k =-0.0283-0.3677 0.6505 (  3914 PWs)   bands (ev):

   -13.3242 -13.3187 -13.1662 -13.1312 -13.1046 -13.0812 -13.0729 -13.0444
   -12.8962 -12.8908   0.8204   1.4158   5.4464   5.8587  11.1053  11.7684
    12.3710  12.6491

     occupation numbers 
     1.0000   1.0000   1.0000   1.0000   1.0000   1.0000   1.0000   1.0000
     1.0000   1.0000   1.0000   1.0000   1.0000   1.0000   0.0000   0.0000
     0.0000   0.0000

          k =-0.0000-0.3394 0.6223 (  3916 PWs)   bands (ev):

   -13.3241 -13.3177 -13.1715 -13.1247 -13.1110 -13.0790 -13.0742 -13.0402
   -12.8971 -12.8910   0.6936   1.5488   5.4229   5.9408  11.1104  11.6579
    12.1730  13.0051

     occupation numbers 
     1.0000   1.0000   1.0000   1.0000   1.0000   1.0000   1.0000   1.0000
     1.0000   1.0000   1.0000   1.0000   1.0000   1.0000   0.0000   0.0000
     0.0000   0.0000

          k =-0.0283-0.4243 0.7071 (  3918 PWs)   bands (ev):

   -13.3215 -13.3200 -13.1626 -13.1469 -13.0980 -13.0834 -13.0615 -13.0481
   -12.8948 -12.8933   0.9497   1.2767   5.5938   5.7315  11.0433  11.0504
    12.6965  13.1579

     occupation numbers 
     1.0000   1.0000   1.0000   1.0000   1.0000   1.0000   1.0000   1.0000
     1.0000   1.0000   1.0000   1.0000   1.0000   1.0000   0.0000   0.0000
     0.0000   0.0000

          k =-0.0000-0.3960 0.6788 (  3910 PWs)   bands (ev):

   -13.3230 -13.3201 -13.1591 -13.1435 -13.0963 -13.0873 -13.0639 -13.0505
   -12.8948 -12.8919   0.9947   1.2357   5.5338   5.7391  11.0902  11.5403
    12.6151  12.6275

     occupation numbers 
     1.0000   1.0000   1.0000   1.0000   1.0000   1.0000   1.0000   1.0000
     1.0000   1.0000   1.0000   1.0000   1.0000   1.0000   0.0000   0.0000
     0.0000   0.0000

          k =-0.0283-0.3677 0.7071 (  3917 PWs)   bands (ev):

   -13.3230 -13.3207 -13.1573 -13.1416 -13.0986 -13.0863 -13.0650 -13.0518
   -12.8941 -12.8919   0.9740   1.2598   5.5369   5.7108  11.4157  11.5819
    12.2675  12.5656

     occupation numbers 
     1.0000   1.0000   1.0000   1.0000   1.0000   1.0000   1.0000   1.0000
     1.0000   1.0000   1.0000   1.0000   1.0000   1.0000   0.0000   0.0000
     0.0000   0.0000

     the Fermi energy is     8.3516 ev

!    total energy              =    -241.29890102 Ry
     Harris-Foulkes estimate   =    -241.29890101 Ry
     estimated scf accuracy    <       0.00000005 Ry

     The total energy is the sum of the following terms:

     one-electron contribution =    -109.44965578 Ry
     hartree contribution      =      65.34031247 Ry
     xc contribution           =     -29.40810589 Ry
     ewald contribution        =    -167.78134162 Ry
     smearing contrib. (-TS)   =      -0.00011020 Ry

     convergence has been achieved in   5 iterations

     Writing output data file Sn.save
 
     init_run     :      4.41s CPU      4.67s WALL (       1 calls)
     electrons    :    105.68s CPU    109.57s WALL (       1 calls)

     Called by init_run:
     wfcinit      :      4.23s CPU      4.41s WALL (       1 calls)
     potinit      :      0.01s CPU      0.01s WALL (       1 calls)

     Called by electrons:
     c_bands      :     95.10s CPU     98.57s WALL (       6 calls)
     sum_band     :     10.52s CPU     10.86s WALL (       6 calls)
     v_of_rho     :      0.05s CPU      0.05s WALL (       6 calls)
     v_h          :      0.00s CPU      0.00s WALL (       6 calls)
     v_xc         :      0.04s CPU      0.04s WALL (       6 calls)
     mix_rho      :      0.01s CPU      0.01s WALL (       6 calls)

     Called by c_bands:
     init_us_2    :      0.93s CPU      1.04s WALL (    5915 calls)
     cegterg      :     89.18s CPU     92.22s WALL (    2730 calls)

     Called by sum_band:

     Called by *egterg:
     h_psi        :     69.46s CPU     72.02s WALL (   11318 calls)
     g_psi        :      0.22s CPU      0.22s WALL (    8133 calls)
     cdiaghg      :     14.07s CPU     14.20s WALL (   10408 calls)
     cegterg:over :      3.69s CPU      3.80s WALL (    8133 calls)
     cegterg:upda :      1.02s CPU      1.03s WALL (    8133 calls)
     cegterg:last :      0.53s CPU      0.54s WALL (    3340 calls)

     Called by h_psi:
     h_psi:vloc   :     65.41s CPU     67.83s WALL (   11318 calls)
     h_psi:vnl    :      3.83s CPU      3.95s WALL (   11318 calls)
     add_vuspsi   :      1.04s CPU      1.07s WALL (   11318 calls)

     General routines
     calbec       :      2.68s CPU      2.77s WALL (   11318 calls)
     fft          :      0.03s CPU      0.04s WALL (      67 calls)
     fftw         :     69.55s CPU     72.07s WALL (  366600 calls)
     davcio       :      0.01s CPU      0.21s WALL (     455 calls)
 
     Parallel routines
     fft_scatter  :     32.88s CPU     34.13s WALL (  366667 calls)
 
     PWSCF        :  1m50.51s CPU     1m55.02s WALL

 
   This run was terminated on:   0:55:37  21Feb2020            

=------------------------------------------------------------------------------=
   JOB DONE.
=------------------------------------------------------------------------------=
