
     Program PWSCF v.5.4.0 starts on  8Mar2020 at 23:59:24 

     This program is part of the open-source Quantum ESPRESSO suite
     for quantum simulation of materials; please cite
         "P. Giannozzi et al., J. Phys.:Condens. Matter 21 395502 (2009);
          URL http://www.quantum-espresso.org", 
     in publications or presentations arising from this work. More details at
     http://www.quantum-espresso.org/quote

     Parallel version (MPI & OpenMP), running on      16 processor cores
     Number of MPI processes:                16
     Threads/MPI process:                     1
     R & G space division:  proc/nbgrp/npool/nimage =      16
     Waiting for input...
     Reading input from standard input
Warning: card &IONS ignored
Warning: card / ignored
Warning: card &CELL ignored
Warning: card / ignored

     Current dimensions of program PWSCF are:
     Max number of different atomic species (ntypx) = 10
     Max number of k-points (npk) =  40000
     Max angular momentum in pseudopotentials (lmaxx) =  3
               file Sn.rel-pbe-dn-kjpaw_psl.1.0.0.UPF: wavefunction(s)  5S 5P 5P 4D 4D renormalized

     Subspace diagonalization in iterative solution of the eigenvalue problem:
     a serial algorithm will be used

 
     Parallelization info
     --------------------
     sticks:   dense  smooth     PW     G-vecs:    dense   smooth      PW
     Min          72      72     21                 1638     1638     266
     Max          73      73     22                 1642     1642     269
     Sum        1159    1159    349                26229    26229    4279
 

     Title: 
     Sn                                                                         


     bravais-lattice index     =            0
     lattice parameter (alat)  =       8.7524  a.u.
     unit-cell volume          =     474.0897 (a.u.)^3
     number of atoms/cell      =            2
     number of atomic types    =            1
     number of electrons       =        28.00
     number of Kohn-Sham states=           36
     kinetic-energy cutoff     =      55.0000  Ry
     charge density cutoff     =     220.0000  Ry
     convergence threshold     =      1.0E-06
     mixing beta               =       0.7000
     number of iterations used =            8  plain     mixing
     Exchange-correlation      =  SLA  PW   PBX  PBC ( 1  4  3  4 0 0)
     Non magnetic calculation with spin-orbit


     celldm(1)=   8.752360  celldm(2)=   0.000000  celldm(3)=   0.000000
     celldm(4)=   0.000000  celldm(5)=   0.000000  celldm(6)=   0.000000

     crystal axes: (cart. coord. in units of alat)
               a(1) = (   0.000000   0.707107   0.707107 )  
               a(2) = (   0.707107   0.000000   0.707107 )  
               a(3) = (   0.707107   0.707107   0.000000 )  

     reciprocal axes: (cart. coord. in units 2 pi/alat)
               b(1) = ( -0.707107  0.707107  0.707107 )  
               b(2) = (  0.707107 -0.707107  0.707107 )  
               b(3) = (  0.707107  0.707107 -0.707107 )  


     PseudoPot. # 1 for Sn read from file:
     ../PseudopotentialDatabase/Sn.rel-pbe-dn-kjpaw_psl.1.0.0.UPF
     MD5 check sum: 6bcaba2b82cf8d008985ef5bb9854e68
     Pseudo is Projector augmented-wave + core cor, Zval = 14.0
     Generated using "atomic" code by A. Dal Corso  v.6.3
     Shape of augmentation charge: PSQ
     Using radial grid of 1243 points, 10 beta functions with: 
                l(1) =   0
                l(2) =   0
                l(3) =   1
                l(4) =   1
                l(5) =   1
                l(6) =   1
                l(7) =   2
                l(8) =   2
                l(9) =   2
               l(10) =   2
     Q(r) pseudized with 0 coefficients 


     atomic species   valence    mass     pseudopotential
        Sn            14.00   118.71000     Sn( 1.00)

     24 Sym. Ops. (no inversion) found
          (note: 24 additional sym.ops. were found but ignored
           their fractional translations are incommensurate with FFT grid)

                                    s                        frac. trans.

      isym =  1     identity                                     

 cryst.   s( 1) = (     1          0          0      )
                  (     0          1          0      )
                  (     0          0          1      )

 cart.    s( 1) = (  1.0000000  0.0000000  0.0000000 )
                  (  0.0000000  1.0000000  0.0000000 )
                  (  0.0000000  0.0000000  1.0000000 )


      isym =  2     180 deg rotation - cart. axis [0,0,1]        

 cryst.   s( 2) = (     0          1         -1      )
                  (     1          0         -1      )
                  (     0          0         -1      )

 cart.    s( 2) = ( -1.0000000  0.0000000  0.0000000 )
                  (  0.0000000 -1.0000000  0.0000000 )
                  (  0.0000000  0.0000000  1.0000000 )


      isym =  3     180 deg rotation - cart. axis [0,1,0]        

 cryst.   s( 3) = (     0         -1          1      )
                  (     0         -1          0      )
                  (     1         -1          0      )

 cart.    s( 3) = ( -1.0000000  0.0000000  0.0000000 )
                  (  0.0000000  1.0000000  0.0000000 )
                  (  0.0000000  0.0000000 -1.0000000 )


      isym =  4     180 deg rotation - cart. axis [1,0,0]        

 cryst.   s( 4) = (    -1          0          0      )
                  (    -1          0          1      )
                  (    -1          1          0      )

 cart.    s( 4) = (  1.0000000  0.0000000  0.0000000 )
                  (  0.0000000 -1.0000000  0.0000000 )
                  (  0.0000000  0.0000000 -1.0000000 )


      isym =  5     120 deg rotation - cart. axis [-1,-1,-1]     

 cryst.   s( 5) = (     0          0          1      )
                  (     1          0          0      )
                  (     0          1          0      )

 cart.    s( 5) = (  0.0000000  1.0000000  0.0000000 )
                  (  0.0000000  0.0000000  1.0000000 )
                  (  1.0000000  0.0000000  0.0000000 )


      isym =  6     120 deg rotation - cart. axis [-1,1,1]       

 cryst.   s( 6) = (     1         -1          0      )
                  (     0         -1          1      )
                  (     0         -1          0      )

 cart.    s( 6) = (  0.0000000 -1.0000000  0.0000000 )
                  (  0.0000000  0.0000000  1.0000000 )
                  ( -1.0000000  0.0000000  0.0000000 )


      isym =  7     120 deg rotation - cart. axis [1,1,-1]       

 cryst.   s( 7) = (    -1          1          0      )
                  (    -1          0          0      )
                  (    -1          0          1      )

 cart.    s( 7) = (  0.0000000  1.0000000  0.0000000 )
                  (  0.0000000  0.0000000 -1.0000000 )
                  ( -1.0000000  0.0000000  0.0000000 )


      isym =  8     120 deg rotation - cart. axis [1,-1,1]       

 cryst.   s( 8) = (     0          0         -1      )
                  (     0          1         -1      )
                  (     1          0         -1      )

 cart.    s( 8) = (  0.0000000 -1.0000000  0.0000000 )
                  (  0.0000000  0.0000000 -1.0000000 )
                  (  1.0000000  0.0000000  0.0000000 )


      isym =  9     120 deg rotation - cart. axis [1,1,1]        

 cryst.   s( 9) = (     0          1          0      )
                  (     0          0          1      )
                  (     1          0          0      )

 cart.    s( 9) = (  0.0000000  0.0000000  1.0000000 )
                  (  1.0000000  0.0000000  0.0000000 )
                  (  0.0000000  1.0000000  0.0000000 )


      isym = 10     120 deg rotation - cart. axis [-1,1,-1]      

 cryst.   s(10) = (    -1          0          1      )
                  (    -1          1          0      )
                  (    -1          0          0      )

 cart.    s(10) = (  0.0000000  0.0000000  1.0000000 )
                  ( -1.0000000  0.0000000  0.0000000 )
                  (  0.0000000 -1.0000000  0.0000000 )


      isym = 11     120 deg rotation - cart. axis [1,-1,-1]      

 cryst.   s(11) = (     1          0         -1      )
                  (     0          0         -1      )
                  (     0          1         -1      )

 cart.    s(11) = (  0.0000000  0.0000000 -1.0000000 )
                  ( -1.0000000  0.0000000  0.0000000 )
                  (  0.0000000  1.0000000  0.0000000 )


      isym = 12     120 deg rotation - cart. axis [-1,-1,1]      

 cryst.   s(12) = (     0         -1          0      )
                  (     1         -1          0      )
                  (     0         -1          1      )

 cart.    s(12) = (  0.0000000  0.0000000 -1.0000000 )
                  (  1.0000000  0.0000000  0.0000000 )
                  (  0.0000000 -1.0000000  0.0000000 )


      isym = 13     inv. 180 deg rotation - cart. axis [1,1,0]   

 cryst.   s(13) = (     1          0         -1      )
                  (     0          1         -1      )
                  (     0          0         -1      )

 cart.    s(13) = (  0.0000000 -1.0000000  0.0000000 )
                  ( -1.0000000  0.0000000  0.0000000 )
                  (  0.0000000  0.0000000  1.0000000 )


      isym = 14     inv. 180 deg rotation - cart. axis [1,-1,0]  

 cryst.   s(14) = (     0          1          0      )
                  (     1          0          0      )
                  (     0          0          1      )

 cart.    s(14) = (  0.0000000  1.0000000  0.0000000 )
                  (  1.0000000  0.0000000  0.0000000 )
                  (  0.0000000  0.0000000  1.0000000 )


      isym = 15     inv.  90 deg rotation - cart. axis [0,0,-1]  

 cryst.   s(15) = (     0         -1          0      )
                  (     0         -1          1      )
                  (     1         -1          0      )

 cart.    s(15) = (  0.0000000 -1.0000000  0.0000000 )
                  (  1.0000000  0.0000000  0.0000000 )
                  (  0.0000000  0.0000000 -1.0000000 )


      isym = 16     inv.  90 deg rotation - cart. axis [0,0,1]   

 cryst.   s(16) = (    -1          0          1      )
                  (    -1          0          0      )
                  (    -1          1          0      )

 cart.    s(16) = (  0.0000000  1.0000000  0.0000000 )
                  ( -1.0000000  0.0000000  0.0000000 )
                  (  0.0000000  0.0000000 -1.0000000 )


      isym = 17     inv. 180 deg rotation - cart. axis [1,0,1]   

 cryst.   s(17) = (     1         -1          0      )
                  (     0         -1          0      )
                  (     0         -1          1      )

 cart.    s(17) = (  0.0000000  0.0000000 -1.0000000 )
                  (  0.0000000  1.0000000  0.0000000 )
                  ( -1.0000000  0.0000000  0.0000000 )


      isym = 18     inv. 180 deg rotation - cart. axis [-1,0,1]  

 cryst.   s(18) = (     0          0          1      )
                  (     0          1          0      )
                  (     1          0          0      )

 cart.    s(18) = (  0.0000000  0.0000000  1.0000000 )
                  (  0.0000000  1.0000000  0.0000000 )
                  (  1.0000000  0.0000000  0.0000000 )


      isym = 19     inv.  90 deg rotation - cart. axis [0,1,0]   

 cryst.   s(19) = (     0          0         -1      )
                  (     1          0         -1      )
                  (     0          1         -1      )

 cart.    s(19) = (  0.0000000  0.0000000 -1.0000000 )
                  (  0.0000000 -1.0000000  0.0000000 )
                  (  1.0000000  0.0000000  0.0000000 )


      isym = 20     inv.  90 deg rotation - cart. axis [0,-1,0]  

 cryst.   s(20) = (    -1          1          0      )
                  (    -1          0          1      )
                  (    -1          0          0      )

 cart.    s(20) = (  0.0000000  0.0000000  1.0000000 )
                  (  0.0000000 -1.0000000  0.0000000 )
                  ( -1.0000000  0.0000000  0.0000000 )


      isym = 21     inv. 180 deg rotation - cart. axis [0,1,1]   

 cryst.   s(21) = (    -1          0          0      )
                  (    -1          1          0      )
                  (    -1          0          1      )

 cart.    s(21) = (  1.0000000  0.0000000  0.0000000 )
                  (  0.0000000  0.0000000 -1.0000000 )
                  (  0.0000000 -1.0000000  0.0000000 )


      isym = 22     inv. 180 deg rotation - cart. axis [0,1,-1]  

 cryst.   s(22) = (     1          0          0      )
                  (     0          0          1      )
                  (     0          1          0      )

 cart.    s(22) = (  1.0000000  0.0000000  0.0000000 )
                  (  0.0000000  0.0000000  1.0000000 )
                  (  0.0000000  1.0000000  0.0000000 )


      isym = 23     inv.  90 deg rotation - cart. axis [-1,0,0]  

 cryst.   s(23) = (     0          1         -1      )
                  (     0          0         -1      )
                  (     1          0         -1      )

 cart.    s(23) = ( -1.0000000  0.0000000  0.0000000 )
                  (  0.0000000  0.0000000 -1.0000000 )
                  (  0.0000000  1.0000000  0.0000000 )


      isym = 24     inv.  90 deg rotation - cart. axis [1,0,0]   

 cryst.   s(24) = (     0         -1          1      )
                  (     1         -1          0      )
                  (     0         -1          0      )

 cart.    s(24) = ( -1.0000000  0.0000000  0.0000000 )
                  (  0.0000000  0.0000000  1.0000000 )
                  (  0.0000000 -1.0000000  0.0000000 )


   Cartesian axes

     site n.     atom                  positions (alat units)
         1           Sn  tau(   1) = (   0.0000000   0.0000000   0.0000000  )
         2           Sn  tau(   2) = (   0.3535534   0.3535534   0.3535534  )

   Crystallographic axes

     site n.     atom                  positions (cryst. coord.)
         1           Sn  tau(   1) = (  0.0000000  0.0000000  0.0000000  )
         2           Sn  tau(   2) = (  0.2500000  0.2500000  0.2500000  )

     number of k points=   145  gaussian smearing, width (Ry)=  0.0001
                       cart. coord. in units 2pi/alat
        k(    1) = (   0.0000000   0.0000000   0.0000000), wk =   0.0002441
        k(    2) = (   0.0441942   0.0441942  -0.0441942), wk =   0.0019531
        k(    3) = (   0.0883883   0.0883883  -0.0883883), wk =   0.0019531
        k(    4) = (   0.1325825   0.1325825  -0.1325825), wk =   0.0019531
        k(    5) = (   0.1767767   0.1767767  -0.1767767), wk =   0.0019531
        k(    6) = (   0.2209709   0.2209709  -0.2209709), wk =   0.0019531
        k(    7) = (   0.2651650   0.2651650  -0.2651650), wk =   0.0019531
        k(    8) = (   0.3093592   0.3093592  -0.3093592), wk =   0.0019531
        k(    9) = (  -0.3535534  -0.3535534   0.3535534), wk =   0.0009766
        k(   10) = (   0.0883883   0.0000000   0.0000000), wk =   0.0014648
        k(   11) = (   0.1325825   0.0441942  -0.0441942), wk =   0.0058594
        k(   12) = (   0.1767767   0.0883883  -0.0883883), wk =   0.0058594
        k(   13) = (   0.2209709   0.1325825  -0.1325825), wk =   0.0058594
        k(   14) = (   0.2651650   0.1767767  -0.1767767), wk =   0.0058594
        k(   15) = (   0.3093592   0.2209709  -0.2209709), wk =   0.0058594
        k(   16) = (   0.3535534   0.2651650  -0.2651650), wk =   0.0058594
        k(   17) = (  -0.3093592  -0.3977476   0.3977476), wk =   0.0058594
        k(   18) = (  -0.2651650  -0.3535534   0.3535534), wk =   0.0058594
        k(   19) = (  -0.2209709  -0.3093592   0.3093592), wk =   0.0058594
        k(   20) = (  -0.1767767  -0.2651650   0.2651650), wk =   0.0058594
        k(   21) = (  -0.1325825  -0.2209709   0.2209709), wk =   0.0058594
        k(   22) = (  -0.0883883  -0.1767767   0.1767767), wk =   0.0058594
        k(   23) = (  -0.0441942  -0.1325825   0.1325825), wk =   0.0058594
        k(   24) = (   0.0000000  -0.0883883   0.0883883), wk =   0.0029297
        k(   25) = (   0.1767767   0.0000000   0.0000000), wk =   0.0014648
        k(   26) = (   0.2209709   0.0441942  -0.0441942), wk =   0.0058594
        k(   27) = (   0.2651650   0.0883883  -0.0883883), wk =   0.0058594
        k(   28) = (   0.3093592   0.1325825  -0.1325825), wk =   0.0058594
        k(   29) = (   0.3535534   0.1767767  -0.1767767), wk =   0.0058594
        k(   30) = (   0.3977476   0.2209709  -0.2209709), wk =   0.0058594
        k(   31) = (  -0.2651650  -0.4419417   0.4419417), wk =   0.0058594
        k(   32) = (  -0.2209709  -0.3977476   0.3977476), wk =   0.0058594
        k(   33) = (  -0.1767767  -0.3535534   0.3535534), wk =   0.0058594
        k(   34) = (  -0.1325825  -0.3093592   0.3093592), wk =   0.0058594
        k(   35) = (  -0.0883883  -0.2651650   0.2651650), wk =   0.0058594
        k(   36) = (  -0.0441942  -0.2209709   0.2209709), wk =   0.0058594
        k(   37) = (   0.0000000  -0.1767767   0.1767767), wk =   0.0029297
        k(   38) = (   0.2651650   0.0000000   0.0000000), wk =   0.0014648
        k(   39) = (   0.3093592   0.0441942  -0.0441942), wk =   0.0058594
        k(   40) = (   0.3535534   0.0883883  -0.0883883), wk =   0.0058594
        k(   41) = (   0.3977476   0.1325825  -0.1325825), wk =   0.0058594
        k(   42) = (   0.4419417   0.1767767  -0.1767767), wk =   0.0058594
        k(   43) = (  -0.2209709  -0.4861359   0.4861359), wk =   0.0058594
        k(   44) = (  -0.1767767  -0.4419417   0.4419417), wk =   0.0058594
        k(   45) = (  -0.1325825  -0.3977476   0.3977476), wk =   0.0058594
        k(   46) = (  -0.0883883  -0.3535534   0.3535534), wk =   0.0058594
        k(   47) = (  -0.0441942  -0.3093592   0.3093592), wk =   0.0058594
        k(   48) = (   0.0000000  -0.2651650   0.2651650), wk =   0.0029297
        k(   49) = (   0.3535534   0.0000000   0.0000000), wk =   0.0014648
        k(   50) = (   0.3977476   0.0441942  -0.0441942), wk =   0.0058594
        k(   51) = (   0.4419417   0.0883883  -0.0883883), wk =   0.0058594
        k(   52) = (   0.4861359   0.1325825  -0.1325825), wk =   0.0058594
        k(   53) = (  -0.1767767  -0.5303301   0.5303301), wk =   0.0058594
        k(   54) = (  -0.1325825  -0.4861359   0.4861359), wk =   0.0058594
        k(   55) = (  -0.0883883  -0.4419417   0.4419417), wk =   0.0058594
        k(   56) = (  -0.0441942  -0.3977476   0.3977476), wk =   0.0058594
        k(   57) = (   0.0000000  -0.3535534   0.3535534), wk =   0.0029297
        k(   58) = (   0.4419417   0.0000000   0.0000000), wk =   0.0014648
        k(   59) = (   0.4861359   0.0441942  -0.0441942), wk =   0.0058594
        k(   60) = (   0.5303301   0.0883883  -0.0883883), wk =   0.0058594
        k(   61) = (  -0.1325825  -0.5745243   0.5745243), wk =   0.0058594
        k(   62) = (  -0.0883883  -0.5303301   0.5303301), wk =   0.0058594
        k(   63) = (  -0.0441942  -0.4861359   0.4861359), wk =   0.0058594
        k(   64) = (   0.0000000  -0.4419417   0.4419417), wk =   0.0029297
        k(   65) = (   0.5303301   0.0000000   0.0000000), wk =   0.0014648
        k(   66) = (   0.5745243   0.0441942  -0.0441942), wk =   0.0058594
        k(   67) = (  -0.0883883  -0.6187184   0.6187184), wk =   0.0058594
        k(   68) = (  -0.0441942  -0.5745243   0.5745243), wk =   0.0058594
        k(   69) = (   0.0000000  -0.5303301   0.5303301), wk =   0.0029297
        k(   70) = (   0.6187184   0.0000000   0.0000000), wk =   0.0014648
        k(   71) = (  -0.0441942  -0.6629126   0.6629126), wk =   0.0058594
        k(   72) = (   0.0000000  -0.6187184   0.6187184), wk =   0.0029297
        k(   73) = (  -0.7071068   0.0000000   0.0000000), wk =   0.0007324
        k(   74) = (   0.1767767   0.0883883   0.0000000), wk =   0.0058594
        k(   75) = (   0.2209709   0.1325825  -0.0441942), wk =   0.0117188
        k(   76) = (   0.2651650   0.1767767  -0.0883883), wk =   0.0117188
        k(   77) = (   0.3093592   0.2209709  -0.1325825), wk =   0.0117188
        k(   78) = (   0.3535534   0.2651650  -0.1767767), wk =   0.0117188
        k(   79) = (  -0.3093592  -0.3977476   0.4861359), wk =   0.0117188
        k(   80) = (  -0.2651650  -0.3535534   0.4419417), wk =   0.0058594
        k(   81) = (   0.2651650   0.0883883   0.0000000), wk =   0.0058594
        k(   82) = (   0.3093592   0.1325825  -0.0441942), wk =   0.0117188
        k(   83) = (   0.3535534   0.1767767  -0.0883883), wk =   0.0117188
        k(   84) = (   0.3977476   0.2209709  -0.1325825), wk =   0.0117188
        k(   85) = (  -0.2651650  -0.4419417   0.5303301), wk =   0.0117188
        k(   86) = (  -0.2209709  -0.3977476   0.4861359), wk =   0.0117188
        k(   87) = (  -0.1767767  -0.3535534   0.4419417), wk =   0.0117188
        k(   88) = (  -0.1325825  -0.3093592   0.3977476), wk =   0.0117188
        k(   89) = (  -0.0883883  -0.2651650   0.3535534), wk =   0.0117188
        k(   90) = (  -0.0441942  -0.2209709   0.3093592), wk =   0.0117188
        k(   91) = (   0.0000000  -0.1767767   0.2651650), wk =   0.0058594
        k(   92) = (   0.3535534   0.0883883   0.0000000), wk =   0.0058594
        k(   93) = (   0.3977476   0.1325825  -0.0441942), wk =   0.0117188
        k(   94) = (   0.4419417   0.1767767  -0.0883883), wk =   0.0117188
        k(   95) = (  -0.2209709  -0.4861359   0.5745243), wk =   0.0117188
        k(   96) = (  -0.1767767  -0.4419417   0.5303301), wk =   0.0117188
        k(   97) = (  -0.1325825  -0.3977476   0.4861359), wk =   0.0117188
        k(   98) = (  -0.0883883  -0.3535534   0.4419417), wk =   0.0117188
        k(   99) = (  -0.0441942  -0.3093592   0.3977476), wk =   0.0117188
        k(  100) = (   0.0000000  -0.2651650   0.3535534), wk =   0.0058594
        k(  101) = (   0.4419417   0.0883883   0.0000000), wk =   0.0058594
        k(  102) = (   0.4861359   0.1325825  -0.0441942), wk =   0.0117188
        k(  103) = (  -0.1767767  -0.5303301   0.6187184), wk =   0.0117188
        k(  104) = (  -0.1325825  -0.4861359   0.5745243), wk =   0.0117188
        k(  105) = (  -0.0883883  -0.4419417   0.5303301), wk =   0.0117188
        k(  106) = (  -0.0441942  -0.3977476   0.4861359), wk =   0.0117188
        k(  107) = (   0.0000000  -0.3535534   0.4419417), wk =   0.0058594
        k(  108) = (   0.5303301   0.0883883   0.0000000), wk =   0.0058594
        k(  109) = (  -0.1325825  -0.5745243   0.6629126), wk =   0.0117188
        k(  110) = (  -0.0883883  -0.5303301   0.6187184), wk =   0.0117188
        k(  111) = (  -0.0441942  -0.4861359   0.5745243), wk =   0.0117188
        k(  112) = (   0.0000000  -0.4419417   0.5303301), wk =   0.0058594
        k(  113) = (  -0.0883883  -0.6187184   0.7071068), wk =   0.0058594
        k(  114) = (  -0.0441942  -0.5745243   0.6629126), wk =   0.0117188
        k(  115) = (  -0.0000000  -0.5303301   0.6187184), wk =   0.0058594
        k(  116) = (  -0.7071068   0.0883883   0.0000000), wk =   0.0029297
        k(  117) = (   0.3535534   0.1767767   0.0000000), wk =   0.0058594
        k(  118) = (   0.3977476   0.2209709  -0.0441942), wk =   0.0117188
        k(  119) = (  -0.2651650  -0.4419417   0.6187184), wk =   0.0117188
        k(  120) = (  -0.2209709  -0.3977476   0.5745243), wk =   0.0117188
        k(  121) = (  -0.1767767  -0.3535534   0.5303301), wk =   0.0058594
        k(  122) = (   0.4419417   0.1767767   0.0000000), wk =   0.0058594
        k(  123) = (  -0.2209709  -0.4861359   0.6629126), wk =   0.0117188
        k(  124) = (  -0.1767767  -0.4419417   0.6187184), wk =   0.0117188
        k(  125) = (  -0.1325825  -0.3977476   0.5745243), wk =   0.0117188
        k(  126) = (  -0.0883883  -0.3535534   0.5303301), wk =   0.0117188
        k(  127) = (  -0.0441942  -0.3093592   0.4861359), wk =   0.0117188
        k(  128) = (   0.0000000  -0.2651650   0.4419417), wk =   0.0058594
        k(  129) = (  -0.1767767  -0.5303301   0.7071068), wk =   0.0058594
        k(  130) = (  -0.1325825  -0.4861359   0.6629126), wk =   0.0117188
        k(  131) = (  -0.0883883  -0.4419417   0.6187184), wk =   0.0117188
        k(  132) = (  -0.0441942  -0.3977476   0.5745243), wk =   0.0117188
        k(  133) = (   0.0000000  -0.3535534   0.5303301), wk =   0.0058594
        k(  134) = (  -0.0883883  -0.5303301   0.7071068), wk =   0.0058594
        k(  135) = (  -0.0441942  -0.4861359   0.6629126), wk =   0.0117188
        k(  136) = (   0.0000000  -0.4419417   0.6187184), wk =   0.0058594
        k(  137) = (  -0.7071068   0.1767767   0.0000000), wk =   0.0029297
        k(  138) = (  -0.1767767  -0.4419417   0.7071068), wk =   0.0058594
        k(  139) = (  -0.1325825  -0.3977476   0.6629126), wk =   0.0117188
        k(  140) = (  -0.0883883  -0.3535534   0.6187184), wk =   0.0058594
        k(  141) = (  -0.0883883  -0.4419417   0.7071068), wk =   0.0058594
        k(  142) = (  -0.0441942  -0.3977476   0.6629126), wk =   0.0117188
        k(  143) = (  -0.0000000  -0.3535534   0.6187184), wk =   0.0058594
        k(  144) = (  -0.7071068   0.2651650   0.0000000), wk =   0.0029297
        k(  145) = (  -0.7071068   0.3535534   0.0000000), wk =   0.0014648

                       cryst. coord.
        k(    1) = (   0.0000000   0.0000000   0.0000000), wk =   0.0002441
        k(    2) = (   0.0000000   0.0000000   0.0625000), wk =   0.0019531
        k(    3) = (   0.0000000   0.0000000   0.1250000), wk =   0.0019531
        k(    4) = (   0.0000000   0.0000000   0.1875000), wk =   0.0019531
        k(    5) = (   0.0000000   0.0000000   0.2500000), wk =   0.0019531
        k(    6) = (   0.0000000   0.0000000   0.3125000), wk =   0.0019531
        k(    7) = (   0.0000000   0.0000000   0.3750000), wk =   0.0019531
        k(    8) = (   0.0000000   0.0000000   0.4375000), wk =   0.0019531
        k(    9) = (   0.0000000   0.0000000  -0.5000000), wk =   0.0009766
        k(   10) = (   0.0000000   0.0625000   0.0625000), wk =   0.0014648
        k(   11) = (   0.0000000   0.0625000   0.1250000), wk =   0.0058594
        k(   12) = (   0.0000000   0.0625000   0.1875000), wk =   0.0058594
        k(   13) = (   0.0000000   0.0625000   0.2500000), wk =   0.0058594
        k(   14) = (   0.0000000   0.0625000   0.3125000), wk =   0.0058594
        k(   15) = (   0.0000000   0.0625000   0.3750000), wk =   0.0058594
        k(   16) = (   0.0000000   0.0625000   0.4375000), wk =   0.0058594
        k(   17) = (   0.0000000   0.0625000  -0.5000000), wk =   0.0058594
        k(   18) = (   0.0000000   0.0625000  -0.4375000), wk =   0.0058594
        k(   19) = (   0.0000000   0.0625000  -0.3750000), wk =   0.0058594
        k(   20) = (   0.0000000   0.0625000  -0.3125000), wk =   0.0058594
        k(   21) = (   0.0000000   0.0625000  -0.2500000), wk =   0.0058594
        k(   22) = (   0.0000000   0.0625000  -0.1875000), wk =   0.0058594
        k(   23) = (   0.0000000   0.0625000  -0.1250000), wk =   0.0058594
        k(   24) = (   0.0000000   0.0625000  -0.0625000), wk =   0.0029297
        k(   25) = (   0.0000000   0.1250000   0.1250000), wk =   0.0014648
        k(   26) = (   0.0000000   0.1250000   0.1875000), wk =   0.0058594
        k(   27) = (   0.0000000   0.1250000   0.2500000), wk =   0.0058594
        k(   28) = (   0.0000000   0.1250000   0.3125000), wk =   0.0058594
        k(   29) = (   0.0000000   0.1250000   0.3750000), wk =   0.0058594
        k(   30) = (   0.0000000   0.1250000   0.4375000), wk =   0.0058594
        k(   31) = (   0.0000000   0.1250000  -0.5000000), wk =   0.0058594
        k(   32) = (   0.0000000   0.1250000  -0.4375000), wk =   0.0058594
        k(   33) = (   0.0000000   0.1250000  -0.3750000), wk =   0.0058594
        k(   34) = (   0.0000000   0.1250000  -0.3125000), wk =   0.0058594
        k(   35) = (   0.0000000   0.1250000  -0.2500000), wk =   0.0058594
        k(   36) = (   0.0000000   0.1250000  -0.1875000), wk =   0.0058594
        k(   37) = (   0.0000000   0.1250000  -0.1250000), wk =   0.0029297
        k(   38) = (   0.0000000   0.1875000   0.1875000), wk =   0.0014648
        k(   39) = (   0.0000000   0.1875000   0.2500000), wk =   0.0058594
        k(   40) = (   0.0000000   0.1875000   0.3125000), wk =   0.0058594
        k(   41) = (   0.0000000   0.1875000   0.3750000), wk =   0.0058594
        k(   42) = (   0.0000000   0.1875000   0.4375000), wk =   0.0058594
        k(   43) = (   0.0000000   0.1875000  -0.5000000), wk =   0.0058594
        k(   44) = (   0.0000000   0.1875000  -0.4375000), wk =   0.0058594
        k(   45) = (   0.0000000   0.1875000  -0.3750000), wk =   0.0058594
        k(   46) = (   0.0000000   0.1875000  -0.3125000), wk =   0.0058594
        k(   47) = (   0.0000000   0.1875000  -0.2500000), wk =   0.0058594
        k(   48) = (   0.0000000   0.1875000  -0.1875000), wk =   0.0029297
        k(   49) = (   0.0000000   0.2500000   0.2500000), wk =   0.0014648
        k(   50) = (   0.0000000   0.2500000   0.3125000), wk =   0.0058594
        k(   51) = (   0.0000000   0.2500000   0.3750000), wk =   0.0058594
        k(   52) = (   0.0000000   0.2500000   0.4375000), wk =   0.0058594
        k(   53) = (   0.0000000   0.2500000  -0.5000000), wk =   0.0058594
        k(   54) = (   0.0000000   0.2500000  -0.4375000), wk =   0.0058594
        k(   55) = (   0.0000000   0.2500000  -0.3750000), wk =   0.0058594
        k(   56) = (   0.0000000   0.2500000  -0.3125000), wk =   0.0058594
        k(   57) = (   0.0000000   0.2500000  -0.2500000), wk =   0.0029297
        k(   58) = (   0.0000000   0.3125000   0.3125000), wk =   0.0014648
        k(   59) = (   0.0000000   0.3125000   0.3750000), wk =   0.0058594
        k(   60) = (   0.0000000   0.3125000   0.4375000), wk =   0.0058594
        k(   61) = (   0.0000000   0.3125000  -0.5000000), wk =   0.0058594
        k(   62) = (   0.0000000   0.3125000  -0.4375000), wk =   0.0058594
        k(   63) = (   0.0000000   0.3125000  -0.3750000), wk =   0.0058594
        k(   64) = (   0.0000000   0.3125000  -0.3125000), wk =   0.0029297
        k(   65) = (   0.0000000   0.3750000   0.3750000), wk =   0.0014648
        k(   66) = (   0.0000000   0.3750000   0.4375000), wk =   0.0058594
        k(   67) = (   0.0000000   0.3750000  -0.5000000), wk =   0.0058594
        k(   68) = (   0.0000000   0.3750000  -0.4375000), wk =   0.0058594
        k(   69) = (   0.0000000   0.3750000  -0.3750000), wk =   0.0029297
        k(   70) = (   0.0000000   0.4375000   0.4375000), wk =   0.0014648
        k(   71) = (   0.0000000   0.4375000  -0.5000000), wk =   0.0058594
        k(   72) = (   0.0000000   0.4375000  -0.4375000), wk =   0.0029297
        k(   73) = (   0.0000000  -0.5000000  -0.5000000), wk =   0.0007324
        k(   74) = (   0.0625000   0.1250000   0.1875000), wk =   0.0058594
        k(   75) = (   0.0625000   0.1250000   0.2500000), wk =   0.0117188
        k(   76) = (   0.0625000   0.1250000   0.3125000), wk =   0.0117188
        k(   77) = (   0.0625000   0.1250000   0.3750000), wk =   0.0117188
        k(   78) = (   0.0625000   0.1250000   0.4375000), wk =   0.0117188
        k(   79) = (   0.0625000   0.1250000  -0.5000000), wk =   0.0117188
        k(   80) = (   0.0625000   0.1250000  -0.4375000), wk =   0.0058594
        k(   81) = (   0.0625000   0.1875000   0.2500000), wk =   0.0058594
        k(   82) = (   0.0625000   0.1875000   0.3125000), wk =   0.0117188
        k(   83) = (   0.0625000   0.1875000   0.3750000), wk =   0.0117188
        k(   84) = (   0.0625000   0.1875000   0.4375000), wk =   0.0117188
        k(   85) = (   0.0625000   0.1875000  -0.5000000), wk =   0.0117188
        k(   86) = (   0.0625000   0.1875000  -0.4375000), wk =   0.0117188
        k(   87) = (   0.0625000   0.1875000  -0.3750000), wk =   0.0117188
        k(   88) = (   0.0625000   0.1875000  -0.3125000), wk =   0.0117188
        k(   89) = (   0.0625000   0.1875000  -0.2500000), wk =   0.0117188
        k(   90) = (   0.0625000   0.1875000  -0.1875000), wk =   0.0117188
        k(   91) = (   0.0625000   0.1875000  -0.1250000), wk =   0.0058594
        k(   92) = (   0.0625000   0.2500000   0.3125000), wk =   0.0058594
        k(   93) = (   0.0625000   0.2500000   0.3750000), wk =   0.0117188
        k(   94) = (   0.0625000   0.2500000   0.4375000), wk =   0.0117188
        k(   95) = (   0.0625000   0.2500000  -0.5000000), wk =   0.0117188
        k(   96) = (   0.0625000   0.2500000  -0.4375000), wk =   0.0117188
        k(   97) = (   0.0625000   0.2500000  -0.3750000), wk =   0.0117188
        k(   98) = (   0.0625000   0.2500000  -0.3125000), wk =   0.0117188
        k(   99) = (   0.0625000   0.2500000  -0.2500000), wk =   0.0117188
        k(  100) = (   0.0625000   0.2500000  -0.1875000), wk =   0.0058594
        k(  101) = (   0.0625000   0.3125000   0.3750000), wk =   0.0058594
        k(  102) = (   0.0625000   0.3125000   0.4375000), wk =   0.0117188
        k(  103) = (   0.0625000   0.3125000  -0.5000000), wk =   0.0117188
        k(  104) = (   0.0625000   0.3125000  -0.4375000), wk =   0.0117188
        k(  105) = (   0.0625000   0.3125000  -0.3750000), wk =   0.0117188
        k(  106) = (   0.0625000   0.3125000  -0.3125000), wk =   0.0117188
        k(  107) = (   0.0625000   0.3125000  -0.2500000), wk =   0.0058594
        k(  108) = (   0.0625000   0.3750000   0.4375000), wk =   0.0058594
        k(  109) = (   0.0625000   0.3750000  -0.5000000), wk =   0.0117188
        k(  110) = (   0.0625000   0.3750000  -0.4375000), wk =   0.0117188
        k(  111) = (   0.0625000   0.3750000  -0.3750000), wk =   0.0117188
        k(  112) = (   0.0625000   0.3750000  -0.3125000), wk =   0.0058594
        k(  113) = (   0.0625000   0.4375000  -0.5000000), wk =   0.0058594
        k(  114) = (   0.0625000   0.4375000  -0.4375000), wk =   0.0117188
        k(  115) = (   0.0625000   0.4375000  -0.3750000), wk =   0.0058594
        k(  116) = (   0.0625000  -0.5000000  -0.4375000), wk =   0.0029297
        k(  117) = (   0.1250000   0.2500000   0.3750000), wk =   0.0058594
        k(  118) = (   0.1250000   0.2500000   0.4375000), wk =   0.0117188
        k(  119) = (   0.1250000   0.2500000  -0.5000000), wk =   0.0117188
        k(  120) = (   0.1250000   0.2500000  -0.4375000), wk =   0.0117188
        k(  121) = (   0.1250000   0.2500000  -0.3750000), wk =   0.0058594
        k(  122) = (   0.1250000   0.3125000   0.4375000), wk =   0.0058594
        k(  123) = (   0.1250000   0.3125000  -0.5000000), wk =   0.0117188
        k(  124) = (   0.1250000   0.3125000  -0.4375000), wk =   0.0117188
        k(  125) = (   0.1250000   0.3125000  -0.3750000), wk =   0.0117188
        k(  126) = (   0.1250000   0.3125000  -0.3125000), wk =   0.0117188
        k(  127) = (   0.1250000   0.3125000  -0.2500000), wk =   0.0117188
        k(  128) = (   0.1250000   0.3125000  -0.1875000), wk =   0.0058594
        k(  129) = (   0.1250000   0.3750000  -0.5000000), wk =   0.0058594
        k(  130) = (   0.1250000   0.3750000  -0.4375000), wk =   0.0117188
        k(  131) = (   0.1250000   0.3750000  -0.3750000), wk =   0.0117188
        k(  132) = (   0.1250000   0.3750000  -0.3125000), wk =   0.0117188
        k(  133) = (   0.1250000   0.3750000  -0.2500000), wk =   0.0058594
        k(  134) = (   0.1250000   0.4375000  -0.4375000), wk =   0.0058594
        k(  135) = (   0.1250000   0.4375000  -0.3750000), wk =   0.0117188
        k(  136) = (   0.1250000   0.4375000  -0.3125000), wk =   0.0058594
        k(  137) = (   0.1250000  -0.5000000  -0.3750000), wk =   0.0029297
        k(  138) = (   0.1875000   0.3750000  -0.4375000), wk =   0.0058594
        k(  139) = (   0.1875000   0.3750000  -0.3750000), wk =   0.0117188
        k(  140) = (   0.1875000   0.3750000  -0.3125000), wk =   0.0058594
        k(  141) = (   0.1875000   0.4375000  -0.3750000), wk =   0.0058594
        k(  142) = (   0.1875000   0.4375000  -0.3125000), wk =   0.0117188
        k(  143) = (   0.1875000   0.4375000  -0.2500000), wk =   0.0058594
        k(  144) = (   0.1875000  -0.5000000  -0.3125000), wk =   0.0029297
        k(  145) = (   0.2500000  -0.5000000  -0.2500000), wk =   0.0014648

     Dense  grid:    26229 G-vectors     FFT dimensions: (  45,  45,  45)

     Largest allocated arrays     est. size (Mb)     dimensions
        Kohn-Sham Wavefunctions         0.24 Mb     (     430,   36)
        NL pseudopotentials             0.22 Mb     (     215,   68)
        Each V/rho on FFT grid          0.09 Mb     (    6075)
        Each G-vector array             0.01 Mb     (    1642)
        G-vector shells                 0.00 Mb     (     267)
     Largest temporary arrays     est. size (Mb)     dimensions
        Auxiliary wavefunctions         0.94 Mb     (     430,  144)
        Each subspace H/S matrix        0.32 Mb     (     144,  144)
        Each <psi_i|beta_j> matrix      0.07 Mb     (      68,   2,   36)
        Arrays for rho mixing           0.74 Mb     (    6075,    8)

     Check: negative/imaginary core charge=   -0.000002    0.000000

     Initial potential from superposition of free atoms

     starting charge   27.99781, renormalised to   28.00000
     Starting wfc are   36 randomized atomic wfcs
     Checking if some PAW data can be deallocated... 

     total cpu time spent up to now is        6.4 secs

     Self-consistent Calculation

     iteration #  1     ecut=    55.00 Ry     beta=0.70
     Davidson diagonalization with overlap
     ethr =  1.00E-02,  avg # of iterations =  3.5

     Threshold (ethr) on eigenvalues was too large:
     Diagonalizing with lowered threshold

     Davidson diagonalization with overlap
     ethr =  6.09E-05,  avg # of iterations =  3.4

     total cpu time spent up to now is       43.9 secs

     total energy              =    -885.86150214 Ry
     Harris-Foulkes estimate   =    -885.86407689 Ry
     estimated scf accuracy    <       0.02036416 Ry

     iteration #  2     ecut=    55.00 Ry     beta=0.70
     Davidson diagonalization with overlap
     ethr =  7.27E-05,  avg # of iterations =  1.0

     total cpu time spent up to now is       58.4 secs

     total energy              =    -885.86249325 Ry
     Harris-Foulkes estimate   =    -885.86263657 Ry
     estimated scf accuracy    <       0.00184538 Ry

     iteration #  3     ecut=    55.00 Ry     beta=0.70
     Davidson diagonalization with overlap
     ethr =  6.59E-06,  avg # of iterations =  2.2

     total cpu time spent up to now is       77.8 secs

     total energy              =    -885.86281533 Ry
     Harris-Foulkes estimate   =    -885.86287764 Ry
     estimated scf accuracy    <       0.00011399 Ry

     iteration #  4     ecut=    55.00 Ry     beta=0.70
     Davidson diagonalization with overlap
     ethr =  4.07E-07,  avg # of iterations =  2.1

     total cpu time spent up to now is       97.0 secs

     total energy              =    -885.86285172 Ry
     Harris-Foulkes estimate   =    -885.86285248 Ry
     estimated scf accuracy    <       0.00000775 Ry

     iteration #  5     ecut=    55.00 Ry     beta=0.70
     Davidson diagonalization with overlap
     ethr =  2.77E-08,  avg # of iterations =  2.0

     total cpu time spent up to now is      114.0 secs

     total energy              =    -885.86285380 Ry
     Harris-Foulkes estimate   =    -885.86285367 Ry
     estimated scf accuracy    <       0.00000115 Ry

     iteration #  6     ecut=    55.00 Ry     beta=0.70
     Davidson diagonalization with overlap
     ethr =  4.11E-09,  avg # of iterations =  2.0

     total cpu time spent up to now is      131.6 secs

     End of self-consistent calculation

          k = 0.0000 0.0000 0.0000 (  3287 PWs)   bands (ev):

   -14.5664 -14.5664 -14.5664 -14.5664 -14.4764 -14.4764 -14.4764 -14.4764
   -13.6547 -13.6547 -13.4591 -13.4591 -13.4591 -13.4591 -13.4108 -13.4108
   -13.4108 -13.4108 -13.2993 -13.2993  -2.8568  -2.8568   6.7453   6.7453
     7.1912   7.1912   7.8598   7.8598   7.8598   7.8598   9.3986   9.3986
     9.8714   9.8714   9.8714   9.8714

     occupation numbers 
     1.0000   1.0000   1.0000   1.0000   1.0000   1.0000   1.0000   1.0000
     1.0000   1.0000   1.0000   1.0000   1.0000   1.0000   1.0000   1.0000
     1.0000   1.0000   1.0000   1.0000   1.0000   1.0000   1.0000   1.0000
     1.0000   1.0000   0.0000   0.0000   0.0000   0.0000   0.0000   0.0000
     0.0000   0.0000   0.0000   0.0000

          k = 0.0442 0.0442-0.0442 (  3266 PWs)   bands (ev):

   -14.5669 -14.5668 -14.5656 -14.5656 -14.4767 -14.4767 -14.4756 -14.4756
   -13.6527 -13.6527 -13.4642 -13.4642 -13.4618 -13.4618 -13.4074 -13.4074
   -13.4064 -13.4064 -13.2999 -13.2999  -2.8200  -2.8200   6.1987   6.1987
     7.2663   7.2663   7.7778   7.7778   7.9936   7.9936   9.5720   9.5720
     9.9679   9.9679   9.9762   9.9762

     occupation numbers 
     1.0000   1.0000   1.0000   1.0000   1.0000   1.0000   1.0000   1.0000
     1.0000   1.0000   1.0000   1.0000   1.0000   1.0000   1.0000   1.0000
     1.0000   1.0000   1.0000   1.0000   1.0000   1.0000   1.0000   1.0000
     1.0000   1.0000   0.0000   0.0000   0.0000   0.0000   0.0000   0.0000
     0.0000   0.0000   0.0000   0.0000

          k = 0.0884 0.0884-0.0884 (  3278 PWs)   bands (ev):

   -14.5684 -14.5684 -14.5634 -14.5634 -14.4791 -14.4791 -14.4735 -14.4735
   -13.6468 -13.6468 -13.4764 -13.4764 -13.4691 -13.4690 -13.3998 -13.3998
   -13.3971 -13.3971 -13.3028 -13.3028  -2.7104  -2.7104   5.3284   5.3284
     7.1263   7.1263   7.5805   7.5805   8.0842   8.0842   9.9128   9.9128
    10.2298  10.2298  10.3883  10.3883

     occupation numbers 
     1.0000   1.0000   1.0000   1.0000   1.0000   1.0000   1.0000   1.0000
     1.0000   1.0000   1.0000   1.0000   1.0000   1.0000   1.0000   1.0000
     1.0000   1.0000   1.0000   1.0000   1.0000   1.0000   1.0000   1.0000
     1.0000   1.0000   1.0000   1.0000   0.0000   0.0000   0.0000   0.0000
     0.0000   0.0000   0.0000   0.0000

          k = 0.1326 0.1326-0.1326 (  3284 PWs)   bands (ev):

   -14.5702 -14.5702 -14.5592 -14.5592 -14.4834 -14.4834 -14.4710 -14.4709
   -13.6371 -13.6371 -13.4913 -13.4913 -13.4779 -13.4778 -13.3902 -13.3901
   -13.3864 -13.3864 -13.3076 -13.3076  -2.5308  -2.5308   4.4210   4.4210
     6.9078   6.9078   7.3460   7.3460   8.0021   8.0021  10.2076  10.2076
    10.5178  10.5178  11.1279  11.1279

     occupation numbers 
     1.0000   1.0000   1.0000   1.0000   1.0000   1.0000   1.0000   1.0000
     1.0000   1.0000   1.0000   1.0000   1.0000   1.0000   1.0000   1.0000
     1.0000   1.0000   1.0000   1.0000   1.0000   1.0000   1.0000   1.0000
     1.0000   1.0000   1.0000   1.0000   0.0000   0.0000   0.0000   0.0000
     0.0000   0.0000   0.0000   0.0000

          k = 0.1768 0.1768-0.1768 (  3275 PWs)   bands (ev):

   -14.5720 -14.5719 -14.5539 -14.5539 -14.4884 -14.4884 -14.4682 -14.4682
   -13.6250 -13.6250 -13.5068 -13.5068 -13.4858 -13.4858 -13.3809 -13.3809
   -13.3760 -13.3760 -13.3136 -13.3136  -2.2877  -2.2877   3.5453   3.5453
     6.6914   6.6914   7.1230   7.1230   7.8551   7.8551  10.4453  10.4453
    10.7438  10.7438  11.9862  11.9862

     occupation numbers 
     1.0000   1.0000   1.0000   1.0000   1.0000   1.0000   1.0000   1.0000
     1.0000   1.0000   1.0000   1.0000   1.0000   1.0000   1.0000   1.0000
     1.0000   1.0000   1.0000   1.0000   1.0000   1.0000   1.0000   1.0000
     1.0000   1.0000   1.0000   1.0000   0.0000   0.0000   0.0000   0.0000
     0.0000   0.0000   0.0000   0.0000

          k = 0.2210 0.2210-0.2210 (  3272 PWs)   bands (ev):

   -14.5738 -14.5737 -14.5474 -14.5474 -14.4947 -14.4947 -14.4655 -14.4654
   -13.6111 -13.6111 -13.5220 -13.5220 -13.4929 -13.4928 -13.3725 -13.3725
   -13.3667 -13.3667 -13.3206 -13.3206  -1.9942  -1.9942   2.7421   2.7421
     6.5075   6.5075   6.9359   6.9359   7.7103   7.7103  10.5922  10.5922
    10.8627  10.8627  12.8738  12.8738

     occupation numbers 
     1.0000   1.0000   1.0000   1.0000   1.0000   1.0000   1.0000   1.0000
     1.0000   1.0000   1.0000   1.0000   1.0000   1.0000   1.0000   1.0000
     1.0000   1.0000   1.0000   1.0000   1.0000   1.0000   1.0000   1.0000
     1.0000   1.0000   1.0000   1.0000   0.0000   0.0000   0.0000   0.0000
     0.0000   0.0000   0.0000   0.0000

          k = 0.2652 0.2652-0.2652 (  3272 PWs)   bands (ev):

   -14.5753 -14.5753 -14.5405 -14.5405 -14.5014 -14.5014 -14.4633 -14.4632
   -13.5969 -13.5969 -13.5365 -13.5365 -13.4981 -13.4981 -13.3661 -13.3661
   -13.3584 -13.3584 -13.3281 -13.3281  -1.6792  -1.6792   2.0550   2.0550
     6.3698   6.3698   6.7965   6.7965   7.5964   7.5964  10.6544  10.6544
    10.8951  10.8951  13.3582  13.3582

     occupation numbers 
     1.0000   1.0000   1.0000   1.0000   1.0000   1.0000   1.0000   1.0000
     1.0000   1.0000   1.0000   1.0000   1.0000   1.0000   1.0000   1.0000
     1.0000   1.0000   1.0000   1.0000   1.0000   1.0000   1.0000   1.0000
     1.0000   1.0000   1.0000   1.0000   1.0000   1.0000   0.0000   0.0000
     0.0000   0.0000   0.0000   0.0000

          k = 0.3094 0.3094-0.3094 (  3262 PWs)   bands (ev):

   -14.5761 -14.5761 -14.5339 -14.5339 -14.5074 -14.5074 -14.4620 -14.4620
   -13.5830 -13.5830 -13.5498 -13.5498 -13.5012 -13.5011 -13.3622 -13.3622
   -13.3509 -13.3509 -13.3353 -13.3353  -1.4064  -1.4064   1.5561   1.5561
     6.2851   6.2851   6.7110   6.7110   7.5250   7.5250  10.6695  10.6695
    10.8899  10.8899  13.3059  13.3059

     occupation numbers 
     1.0000   1.0000   1.0000   1.0000   1.0000   1.0000   1.0000   1.0000
     1.0000   1.0000   1.0000   1.0000   1.0000   1.0000   1.0000   1.0000
     1.0000   1.0000   1.0000   1.0000   1.0000   1.0000   1.0000   1.0000
     1.0000   1.0000   1.0000   1.0000   1.0000   1.0000   0.0000   0.0000
     0.0000   0.0000   0.0000   0.0000

          k =-0.3536-0.3536 0.3536 (  3274 PWs)   bands (ev):

   -14.5767 -14.5767 -14.5307 -14.5307 -14.5109 -14.5109 -14.4614 -14.4614
   -13.5744 -13.5744 -13.5583 -13.5583 -13.5027 -13.5027 -13.3607 -13.3607
   -13.3460 -13.3460 -13.3405 -13.3405  -1.2899  -1.2899   1.3638   1.3638
     6.2566   6.2566   6.6823   6.6823   7.5008   7.5008  10.6706  10.6706
    10.8841  10.8841  13.2726  13.2726

     occupation numbers 
     1.0000   1.0000   1.0000   1.0000   1.0000   1.0000   1.0000   1.0000
     1.0000   1.0000   1.0000   1.0000   1.0000   1.0000   1.0000   1.0000
     1.0000   1.0000   1.0000   1.0000   1.0000   1.0000   1.0000   1.0000
     1.0000   1.0000   1.0000   1.0000   1.0000   1.0000   0.0000   0.0000
     0.0000   0.0000   0.0000   0.0000

          k = 0.0884 0.0000 0.0000 (  3271 PWs)   bands (ev):

   -14.5668 -14.5668 -14.5657 -14.5657 -14.4767 -14.4767 -14.4756 -14.4756
   -13.6520 -13.6520 -13.4671 -13.4671 -13.4612 -13.4612 -13.4070 -13.4070
   -13.4050 -13.4050 -13.3002 -13.3002  -2.8077  -2.8077   6.1155   6.1155
     7.1803   7.1803   7.5797   7.5797   8.2877   8.2877   9.4729   9.4729
     9.9861   9.9861  10.1227  10.1227

     occupation numbers 
     1.0000   1.0000   1.0000   1.0000   1.0000   1.0000   1.0000   1.0000
     1.0000   1.0000   1.0000   1.0000   1.0000   1.0000   1.0000   1.0000
     1.0000   1.0000   1.0000   1.0000   1.0000   1.0000   1.0000   1.0000
     1.0000   1.0000   1.0000   1.0000   0.0000   0.0000   0.0000   0.0000
     0.0000   0.0000   0.0000   0.0000

          k = 0.1326 0.0442-0.0442 (  3271 PWs)   bands (ev):

   -14.5677 -14.5677 -14.5640 -14.5640 -14.4786 -14.4785 -14.4740 -14.4740
   -13.6473 -13.6473 -13.4769 -13.4769 -13.4663 -13.4663 -13.4017 -13.4017
   -13.3972 -13.3972 -13.3023 -13.3023  -2.7221  -2.7221   5.4728   5.4728
     7.0166   7.0166   7.3608   7.3608   8.5226   8.5226   9.5422   9.5422
    10.3017  10.3017  10.4585  10.4585

     occupation numbers 
     1.0000   1.0000   1.0000   1.0000   1.0000   1.0000   1.0000   1.0000
     1.0000   1.0000   1.0000   1.0000   1.0000   1.0000   1.0000   1.0000
     1.0000   1.0000   1.0000   1.0000   1.0000   1.0000   1.0000   1.0000
     1.0000   1.0000   1.0000   1.0000   0.0000   0.0000   0.0000   0.0000
     0.0000   0.0000   0.0000   0.0000

          k = 0.1768 0.0884-0.0884 (  3274 PWs)   bands (ev):

   -14.5694 -14.5694 -14.5605 -14.5605 -14.4822 -14.4822 -14.4716 -14.4715
   -13.6389 -13.6389 -13.4902 -13.4902 -13.4741 -13.4741 -13.3946 -13.3946
   -13.3863 -13.3862 -13.3062 -13.3062  -2.5655  -2.5655   4.6414   4.6414
     6.7913   6.7913   7.1345   7.1345   8.5054   8.5054   9.8012   9.8012
    10.6470  10.6470  11.0352  11.0352

     occupation numbers 
     1.0000   1.0000   1.0000   1.0000   1.0000   1.0000   1.0000   1.0000
     1.0000   1.0000   1.0000   1.0000   1.0000   1.0000   1.0000   1.0000
     1.0000   1.0000   1.0000   1.0000   1.0000   1.0000   1.0000   1.0000
     1.0000   1.0000   1.0000   1.0000   0.0000   0.0000   0.0000   0.0000
     0.0000   0.0000   0.0000   0.0000

          k = 0.2210 0.1326-0.1326 (  3284 PWs)   bands (ev):

   -14.5714 -14.5714 -14.5556 -14.5556 -14.4871 -14.4871 -14.4689 -14.4688
   -13.6277 -13.6277 -13.5047 -13.5047 -13.4823 -13.4822 -13.3876 -13.3876
   -13.3750 -13.3750 -13.3116 -13.3116  -2.3426  -2.3426   3.7864   3.7864
     6.5617   6.5617   6.9047   6.9047   8.3718   8.3718  10.1180  10.1180
    10.9060  10.9060  11.7122  11.7122

     occupation numbers 
     1.0000   1.0000   1.0000   1.0000   1.0000   1.0000   1.0000   1.0000
     1.0000   1.0000   1.0000   1.0000   1.0000   1.0000   1.0000   1.0000
     1.0000   1.0000   1.0000   1.0000   1.0000   1.0000   1.0000   1.0000
     1.0000   1.0000   1.0000   1.0000   0.0000   0.0000   0.0000   0.0000
     0.0000   0.0000   0.0000   0.0000

          k = 0.2652 0.1768-0.1768 (  3276 PWs)   bands (ev):

   -14.5733 -14.5733 -14.5494 -14.5494 -14.4929 -14.4929 -14.4660 -14.4660
   -13.6145 -13.6145 -13.5191 -13.5191 -13.4896 -13.4895 -13.3812 -13.3811
   -13.3647 -13.3647 -13.3175 -13.3175  -2.0637  -2.0637   2.9747   2.9747
     6.3578   6.3578   6.7064   6.7064   8.2171   8.2171  10.3730  10.3730
    11.0393  11.0393  12.3968  12.3968

     occupation numbers 
     1.0000   1.0000   1.0000   1.0000   1.0000   1.0000   1.0000   1.0000
     1.0000   1.0000   1.0000   1.0000   1.0000   1.0000   1.0000   1.0000
     1.0000   1.0000   1.0000   1.0000   1.0000   1.0000   1.0000   1.0000
     1.0000   1.0000   1.0000   1.0000   0.0000   0.0000   0.0000   0.0000
     0.0000   0.0000   0.0000   0.0000

          k = 0.3094 0.2210-0.2210 (  3270 PWs)   bands (ev):

   -14.5747 -14.5747 -14.5427 -14.5427 -14.4995 -14.4995 -14.4636 -14.4635
   -13.6005 -13.6005 -13.5328 -13.5328 -13.4955 -13.4955 -13.3760 -13.3760
   -13.3561 -13.3561 -13.3235 -13.3235  -1.7508  -1.7508   2.2542   2.2542
     6.1911   6.1911   6.5620   6.5620   8.0826   8.0826  10.5229  10.5229
    11.0578  11.0578  13.0334  13.0334

     occupation numbers 
     1.0000   1.0000   1.0000   1.0000   1.0000   1.0000   1.0000   1.0000
     1.0000   1.0000   1.0000   1.0000   1.0000   1.0000   1.0000   1.0000
     1.0000   1.0000   1.0000   1.0000   1.0000   1.0000   1.0000   1.0000
     1.0000   1.0000   1.0000   1.0000   0.0000   0.0000   0.0000   0.0000
     0.0000   0.0000   0.0000   0.0000

          k = 0.3536 0.2652-0.2652 (  3260 PWs)   bands (ev):

   -14.5757 -14.5757 -14.5358 -14.5358 -14.5060 -14.5059 -14.4618 -14.4618
   -13.5868 -13.5868 -13.5454 -13.5454 -13.4996 -13.4996 -13.3725 -13.3725
   -13.3497 -13.3497 -13.3286 -13.3286  -1.4530  -1.4530   1.6875   1.6875
     6.0677   6.0677   6.4819   6.4819   7.9858   7.9858  10.6005  10.6005
    11.0139  11.0139  13.3679  13.3680

     occupation numbers 
     1.0000   1.0000   1.0000   1.0000   1.0000   1.0000   1.0000   1.0000
     1.0000   1.0000   1.0000   1.0000   1.0000   1.0000   1.0000   1.0000
     1.0000   1.0000   1.0000   1.0000   1.0000   1.0000   1.0000   1.0000
     1.0000   1.0000   1.0000   1.0000   0.0000   0.0000   0.0000   0.0000
     0.0000   0.0000   0.0000   0.0000

          k =-0.3094-0.3977 0.3977 (  3259 PWs)   bands (ev):

   -14.5763 -14.5762 -14.5312 -14.5311 -14.5106 -14.5105 -14.4610 -14.4610
   -13.5764 -13.5764 -13.5553 -13.5553 -13.5015 -13.5014 -13.3709 -13.3709
   -13.3461 -13.3460 -13.3317 -13.3317  -1.2697  -1.2697   1.3808   1.3808
     5.9934   5.9934   6.4683   6.4683   7.9343   7.9344  10.6514  10.6514
    10.9557  10.9557  13.4221  13.4222

     occupation numbers 
     1.0000   1.0000   1.0000   1.0000   1.0000   1.0000   1.0000   1.0000
     1.0000   1.0000   1.0000   1.0000   1.0000   1.0000   1.0000   1.0000
     1.0000   1.0000   1.0000   1.0000   1.0000   1.0000   1.0000   1.0000
     1.0000   1.0000   1.0000   1.0000   0.0000   0.0000   0.0000   0.0000
     0.0000   0.0000   0.0000   0.0000

          k =-0.2652-0.3536 0.3536 (  3260 PWs)   bands (ev):

   -14.5762 -14.5762 -14.5322 -14.5321 -14.5097 -14.5095 -14.4611 -14.4611
   -13.5791 -13.5791 -13.5526 -13.5526 -13.5012 -13.5012 -13.3715 -13.3715
   -13.3464 -13.3464 -13.3312 -13.3312  -1.3103  -1.3103   1.4463   1.4463
     5.9731   5.9731   6.5191   6.5191   7.9308   7.9308  10.6918  10.6918
    10.9138  10.9138  13.4391  13.4391

     occupation numbers 
     1.0000   1.0000   1.0000   1.0000   1.0000   1.0000   1.0000   1.0000
     1.0000   1.0000   1.0000   1.0000   1.0000   1.0000   1.0000   1.0000
     1.0000   1.0000   1.0000   1.0000   1.0000   1.0000   1.0000   1.0000
     1.0000   1.0000   1.0000   1.0000   0.0000   0.0000   0.0000   0.0000
     0.0000   0.0000   0.0000   0.0000

          k =-0.2210-0.3094 0.3094 (  3262 PWs)   bands (ev):

   -14.5755 -14.5755 -14.5379 -14.5378 -14.5041 -14.5040 -14.4622 -14.4622
   -13.5913 -13.5913 -13.5413 -13.5413 -13.4983 -13.4983 -13.3742 -13.3742
   -13.3507 -13.3506 -13.3272 -13.3272  -1.5462  -1.5462   1.8550   1.8550
     6.0108   6.0108   6.6297   6.6297   7.9747   7.9747  10.6956  10.6956
    10.9073  10.9073  13.3931  13.3931

     occupation numbers 
     1.0000   1.0000   1.0000   1.0000   1.0000   1.0000   1.0000   1.0000
     1.0000   1.0000   1.0000   1.0000   1.0000   1.0000   1.0000   1.0000
     1.0000   1.0000   1.0000   1.0000   1.0000   1.0000   1.0000   1.0000
     1.0000   1.0000   1.0000   1.0000   0.0000   0.0000   0.0000   0.0000
     0.0000   0.0000   0.0000   0.0000

          k =-0.1768-0.2652 0.2652 (  3270 PWs)   bands (ev):

   -14.5743 -14.5743 -14.5448 -14.5448 -14.4975 -14.4975 -14.4641 -14.4641
   -13.6052 -13.6052 -13.5283 -13.5283 -13.4935 -13.4935 -13.3786 -13.3786
   -13.3576 -13.3576 -13.3217 -13.3217  -1.8573  -1.8573   2.4822   2.4822
     6.1090   6.1090   6.7931   6.7931   8.0618   8.0618  10.6267  10.6267
    10.9115  10.9115  12.9319  12.9319

     occupation numbers 
     1.0000   1.0000   1.0000   1.0000   1.0000   1.0000   1.0000   1.0000
     1.0000   1.0000   1.0000   1.0000   1.0000   1.0000   1.0000   1.0000
     1.0000   1.0000   1.0000   1.0000   1.0000   1.0000   1.0000   1.0000
     1.0000   1.0000   1.0000   1.0000   0.0000   0.0000   0.0000   0.0000
     0.0000   0.0000   0.0000   0.0000

          k =-0.1326-0.2210 0.2210 (  3273 PWs)   bands (ev):

   -14.5728 -14.5727 -14.5515 -14.5514 -14.4910 -14.4910 -14.4667 -14.4667
   -13.6191 -13.6191 -13.5143 -13.5143 -13.4870 -13.4869 -13.3844 -13.3844
   -13.3668 -13.3667 -13.3155 -13.3155  -2.1624  -2.1624   3.2375   3.2375
     6.2686   6.2686   6.9985   6.9985   8.1808   8.1808  10.4707  10.4707
    10.8335  10.8335  12.2034  12.2035

     occupation numbers 
     1.0000   1.0000   1.0000   1.0000   1.0000   1.0000   1.0000   1.0000
     1.0000   1.0000   1.0000   1.0000   1.0000   1.0000   1.0000   1.0000
     1.0000   1.0000   1.0000   1.0000   1.0000   1.0000   1.0000   1.0000
     1.0000   1.0000   1.0000   1.0000   0.0000   0.0000   0.0000   0.0000
     0.0000   0.0000   0.0000   0.0000

          k =-0.0884-0.1768 0.1768 (  3283 PWs)   bands (ev):

   -14.5710 -14.5709 -14.5572 -14.5572 -14.4856 -14.4856 -14.4696 -14.4695
   -13.6317 -13.6317 -13.4998 -13.4998 -13.4795 -13.4795 -13.3912 -13.3911
   -13.3774 -13.3774 -13.3098 -13.3098  -2.4242  -2.4242   4.0655   4.0655
     6.4889   6.4889   7.2278   7.2278   8.3047   8.3047  10.2324  10.2324
    10.5863  10.5863  11.5217  11.5217

     occupation numbers 
     1.0000   1.0000   1.0000   1.0000   1.0000   1.0000   1.0000   1.0000
     1.0000   1.0000   1.0000   1.0000   1.0000   1.0000   1.0000   1.0000
     1.0000   1.0000   1.0000   1.0000   1.0000   1.0000   1.0000   1.0000
     1.0000   1.0000   1.0000   1.0000   0.0000   0.0000   0.0000   0.0000
     0.0000   0.0000   0.0000   0.0000

          k =-0.0442-0.1326 0.1326 (  3280 PWs)   bands (ev):

   -14.5691 -14.5691 -14.5616 -14.5616 -14.4811 -14.4811 -14.4723 -14.4723
   -13.6421 -13.6421 -13.4854 -13.4854 -13.4716 -13.4716 -13.3981 -13.3981
   -13.3890 -13.3889 -13.3049 -13.3049  -2.6256  -2.6256   4.9127   4.9127
     6.7661   6.7661   7.4492   7.4492   8.3677   8.3678   9.9580   9.9580
    10.2247  10.2247  10.9112  10.9112

     occupation numbers 
     1.0000   1.0000   1.0000   1.0000   1.0000   1.0000   1.0000   1.0000
     1.0000   1.0000   1.0000   1.0000   1.0000   1.0000   1.0000   1.0000
     1.0000   1.0000   1.0000   1.0000   1.0000   1.0000   1.0000   1.0000
     1.0000   1.0000   1.0000   1.0000   0.0000   0.0000   0.0000   0.0000
     0.0000   0.0000   0.0000   0.0000

          k = 0.0000-0.0884 0.0884 (  3265 PWs)   bands (ev):

   -14.5676 -14.5676 -14.5645 -14.5645 -14.4779 -14.4779 -14.4744 -14.4743
   -13.6493 -13.6493 -13.4723 -13.4723 -13.4649 -13.4649 -13.4042 -13.4041
   -13.3997 -13.3997 -13.3013 -13.3013  -2.7588  -2.7588   5.6889   5.6889
     7.0794   7.0794   7.6216   7.6216   8.2510   8.2510   9.7101   9.7101
     9.9866   9.9866  10.3575  10.3575

     occupation numbers 
     1.0000   1.0000   1.0000   1.0000   1.0000   1.0000   1.0000   1.0000
     1.0000   1.0000   1.0000   1.0000   1.0000   1.0000   1.0000   1.0000
     1.0000   1.0000   1.0000   1.0000   1.0000   1.0000   1.0000   1.0000
     1.0000   1.0000   0.0835   0.0832   0.0000   0.0000   0.0000   0.0000
     0.0000   0.0000   0.0000   0.0000

          k = 0.1768 0.0000 0.0000 (  3271 PWs)   bands (ev):

   -14.5673 -14.5673 -14.5637 -14.5637 -14.4792 -14.4792 -14.4738 -14.4738
   -13.6439 -13.6439 -13.4841 -13.4841 -13.4677 -13.4677 -13.3973 -13.3973
   -13.3945 -13.3945 -13.3035 -13.3035  -2.6606  -2.6606   5.2166   5.2166
     6.8042   6.8042   7.0536   7.0536   9.0365   9.0366   9.2102   9.2102
    10.6244  10.6244  10.7201  10.7201

     occupation numbers 
     1.0000   1.0000   1.0000   1.0000   1.0000   1.0000   1.0000   1.0000
     1.0000   1.0000   1.0000   1.0000   1.0000   1.0000   1.0000   1.0000
     1.0000   1.0000   1.0000   1.0000   1.0000   1.0000   1.0000   1.0000
     1.0000   1.0000   1.0000   1.0000   0.0000   0.0000   0.0000   0.0000
     0.0000   0.0000   0.0000   0.0000

          k = 0.2210 0.0442-0.0442 (  3278 PWs)   bands (ev):

   -14.5684 -14.5683 -14.5613 -14.5613 -14.4818 -14.4818 -14.4722 -14.4722
   -13.6368 -13.6368 -13.4950 -13.4949 -13.4729 -13.4728 -13.3933 -13.3933
   -13.3858 -13.3858 -13.3063 -13.3063  -2.5272  -2.5272   4.6244   4.6244
     6.5657   6.5657   6.8010   6.8010   9.1036   9.1036   9.3174   9.3174
    11.0140  11.0140  11.1486  11.1486

     occupation numbers 
     1.0000   1.0000   1.0000   1.0000   1.0000   1.0000   1.0000   1.0000
     1.0000   1.0000   1.0000   1.0000   1.0000   1.0000   1.0000   1.0000
     1.0000   1.0000   1.0000   1.0000   1.0000   1.0000   1.0000   1.0000
     1.0000   1.0000   1.0000   1.0000   0.0000   0.0000   0.0000   0.0000
     0.0000   0.0000   0.0000   0.0000

          k = 0.2652 0.0884-0.0884 (  3274 PWs)   bands (ev):

   -14.5702 -14.5702 -14.5570 -14.5570 -14.4859 -14.4859 -14.4694 -14.4694
   -13.6267 -13.6267 -13.5074 -13.5074 -13.4792 -13.4792 -13.3907 -13.3907
   -13.3743 -13.3743 -13.3099 -13.3099  -2.3256  -2.3256   3.8883   3.8883
     6.3018   6.3018   6.5689   6.5689   9.0328   9.0328   9.5980   9.5980
    11.3172  11.3172  11.5748  11.5748

     occupation numbers 
     1.0000   1.0000   1.0000   1.0000   1.0000   1.0000   1.0000   1.0000
     1.0000   1.0000   1.0000   1.0000   1.0000   1.0000   1.0000   1.0000
     1.0000   1.0000   1.0000   1.0000   1.0000   1.0000   1.0000   1.0000
     1.0000   1.0000   1.0000   1.0000   0.0000   0.0000   0.0000   0.0000
     0.0000   0.0000   0.0000   0.0000

          k = 0.3094 0.1326-0.1326 (  3274 PWs)   bands (ev):

   -14.5722 -14.5721 -14.5515 -14.5514 -14.4915 -14.4915 -14.4664 -14.4664
   -13.6146 -13.6146 -13.5199 -13.5198 -13.4858 -13.4858 -13.3886 -13.3886
   -13.3635 -13.3634 -13.3139 -13.3139  -2.0637  -2.0637   3.1289   3.1289
     6.0373   6.0373   6.3810   6.3810   8.8938   8.8938   9.9710   9.9710
    11.4838  11.4838  11.8652  11.8652

     occupation numbers 
     1.0000   1.0000   1.0000   1.0000   1.0000   1.0000   1.0000   1.0000
     1.0000   1.0000   1.0000   1.0000   1.0000   1.0000   1.0000   1.0000
     1.0000   1.0000   1.0000   1.0000   1.0000   1.0000   1.0000   1.0000
     1.0000   1.0000   1.0000   1.0000   0.0000   0.0000   0.0000   0.0000
     0.0000   0.0000   0.0000   0.0000

          k = 0.3536 0.1768-0.1768 (  3284 PWs)   bands (ev):

   -14.5740 -14.5740 -14.5452 -14.5451 -14.4980 -14.4979 -14.4638 -14.4637
   -13.6017 -13.6017 -13.5316 -13.5316 -13.4918 -13.4918 -13.3875 -13.3875
   -13.3550 -13.3550 -13.3173 -13.3173  -1.7580  -1.7580   2.4161   2.4161
     5.7957   5.7957   6.2598   6.2598   8.7488   8.7488  10.2833  10.2833
    11.5080  11.5080  12.2198  12.2198

     occupation numbers 
     1.0000   1.0000   1.0000   1.0000   1.0000   1.0000   1.0000   1.0000
     1.0000   1.0000   1.0000   1.0000   1.0000   1.0000   1.0000   1.0000
     1.0000   1.0000   1.0000   1.0000   1.0000   1.0000   1.0000   1.0000
     1.0000   1.0000   1.0000   1.0000   0.0000   0.0000   0.0000   0.0000
     0.0000   0.0000   0.0000   0.0000

          k = 0.3977 0.2210-0.2210 (  3274 PWs)   bands (ev):

   -14.5752 -14.5752 -14.5386 -14.5385 -14.5045 -14.5044 -14.4616 -14.4615
   -13.5891 -13.5891 -13.5419 -13.5419 -13.4965 -13.4965 -13.3871 -13.3871
   -13.3494 -13.3493 -13.3191 -13.3191  -1.4457  -1.4457   1.8139   1.8139
     5.5968   5.5968   6.2089   6.2089   8.6312   8.6312  10.4662  10.4662
    11.4385  11.4385  12.7557  12.7557

     occupation numbers 
     1.0000   1.0000   1.0000   1.0000   1.0000   1.0000   1.0000   1.0000
     1.0000   1.0000   1.0000   1.0000   1.0000   1.0000   1.0000   1.0000
     1.0000   1.0000   1.0000   1.0000   1.0000   1.0000   1.0000   1.0000
     1.0000   1.0000   1.0000   1.0000   0.0000   0.0000   0.0000   0.0000
     0.0000   0.0000   0.0000   0.0000

          k =-0.2652-0.4419 0.4419 (  3263 PWs)   bands (ev):

   -14.5759 -14.5759 -14.5330 -14.5328 -14.5099 -14.5097 -14.4602 -14.4601
   -13.5794 -13.5794 -13.5498 -13.5497 -13.4991 -13.4991 -13.3874 -13.3874
   -13.3464 -13.3464 -13.3197 -13.3197  -1.2082  -1.2082   1.4178   1.4178
     5.4535   5.4535   6.2265   6.2265   8.5549   8.5549  10.5741  10.5741
    11.3286  11.3286  13.3354  13.3354

     occupation numbers 
     1.0000   1.0000   1.0000   1.0000   1.0000   1.0000   1.0000   1.0000
     1.0000   1.0000   1.0000   1.0000   1.0000   1.0000   1.0000   1.0000
     1.0000   1.0000   1.0000   1.0000   1.0000   1.0000   1.0000   1.0000
     1.0000   1.0000   1.0000   1.0000   0.0000   0.0000   0.0000   0.0000
     0.0000   0.0000   0.0000   0.0000

          k =-0.2210-0.3977 0.3977 (  3258 PWs)   bands (ev):

   -14.5762 -14.5762 -14.5314 -14.5312 -14.5115 -14.5112 -14.4596 -14.4596
   -13.5777 -13.5777 -13.5512 -13.5512 -13.4993 -13.4993 -13.3881 -13.3881
   -13.3453 -13.3453 -13.3198 -13.3198  -1.1694  -1.1694   1.3576   1.3576
     5.3740   5.3740   6.3090   6.3090   8.5248   8.5248  10.6688  10.6688
    11.2091  11.2091  13.6432  13.6432

     occupation numbers 
     1.0000   1.0000   1.0000   1.0000   1.0000   1.0000   1.0000   1.0000
     1.0000   1.0000   1.0000   1.0000   1.0000   1.0000   1.0000   1.0000
     1.0000   1.0000   1.0000   1.0000   1.0000   1.0000   1.0000   1.0000
     1.0000   1.0000   1.0000   1.0000   0.0000   0.0000   0.0000   0.0000
     0.0000   0.0000   0.0000   0.0000

          k =-0.1768-0.3536 0.3536 (  3265 PWs)   bands (ev):

   -14.5758 -14.5758 -14.5354 -14.5352 -14.5077 -14.5075 -14.4604 -14.4604
   -13.5858 -13.5858 -13.5447 -13.5447 -13.4968 -13.4968 -13.3892 -13.3892
   -13.3460 -13.3460 -13.3199 -13.3199  -1.3568  -1.3568   1.6610   1.6610
     5.3650   5.3650   6.4508   6.4508   8.5397   8.5397  10.7678  10.7678
    11.0876  11.0876  13.4343  13.4343

     occupation numbers 
     1.0000   1.0000   1.0000   1.0000   1.0000   1.0000   1.0000   1.0000
     1.0000   1.0000   1.0000   1.0000   1.0000   1.0000   1.0000   1.0000
     1.0000   1.0000   1.0000   1.0000   1.0000   1.0000   1.0000   1.0000
     1.0000   1.0000   1.0000   1.0000   0.0000   0.0000   0.0000   0.0000
     0.0000   0.0000   0.0000   0.0000

          k =-0.1326-0.3094 0.3094 (  3268 PWs)   bands (ev):

   -14.5750 -14.5749 -14.5416 -14.5415 -14.5016 -14.5015 -14.4619 -14.4619
   -13.5977 -13.5977 -13.5351 -13.5351 -13.4923 -13.4923 -13.3905 -13.3905
   -13.3493 -13.3493 -13.3189 -13.3189  -1.6570  -1.6570   2.2084   2.2084
     5.4341   5.4341   6.6428   6.6428   8.5925   8.5925  10.8132  10.8132
    10.9807  10.9807  12.7883  12.7883

     occupation numbers 
     1.0000   1.0000   1.0000   1.0000   1.0000   1.0000   1.0000   1.0000
     1.0000   1.0000   1.0000   1.0000   1.0000   1.0000   1.0000   1.0000
     1.0000   1.0000   1.0000   1.0000   1.0000   1.0000   1.0000   1.0000
     1.0000   1.0000   1.0000   1.0000   0.0000   0.0000   0.0000   0.0000
     0.0000   0.0000   0.0000   0.0000

          k =-0.0884-0.2652 0.2652 (  3273 PWs)   bands (ev):

   -14.5736 -14.5736 -14.5480 -14.5479 -14.4952 -14.4951 -14.4644 -14.4643
   -13.6107 -13.6107 -13.5239 -13.5238 -13.4866 -13.4866 -13.3923 -13.3923
   -13.3562 -13.3562 -13.3162 -13.3162  -1.9700  -1.9700   2.8852   2.8852
     5.5913   5.5913   6.8703   6.8703   8.6649   8.6649  10.6594  10.6594
    10.9155  10.9155  12.1536  12.1536

     occupation numbers 
     1.0000   1.0000   1.0000   1.0000   1.0000   1.0000   1.0000   1.0000
     1.0000   1.0000   1.0000   1.0000   1.0000   1.0000   1.0000   1.0000
     1.0000   1.0000   1.0000   1.0000   1.0000   1.0000   1.0000   1.0000
     1.0000   1.0000   1.0000   1.0000   0.0000   0.0000   0.0000   0.0000
     0.0000   0.0000   0.0000   0.0000

          k =-0.0442-0.2210 0.2210 (  3270 PWs)   bands (ev):

   -14.5720 -14.5719 -14.5537 -14.5537 -14.4892 -14.4892 -14.4672 -14.4672
   -13.6232 -13.6232 -13.5113 -13.5113 -13.4806 -13.4806 -13.3943 -13.3943
   -13.3659 -13.3658 -13.3122 -13.3122  -2.2481  -2.2481   3.6133   3.6133
     5.8538   5.8538   7.1087   7.1087   8.7129   8.7129  10.4013  10.4013
    10.6622  10.6622  11.7591  11.7591

     occupation numbers 
     1.0000   1.0000   1.0000   1.0000   1.0000   1.0000   1.0000   1.0000
     1.0000   1.0000   1.0000   1.0000   1.0000   1.0000   1.0000   1.0000
     1.0000   1.0000   1.0000   1.0000   1.0000   1.0000   1.0000   1.0000
     1.0000   1.0000   1.0000   1.0000   0.0000   0.0000   0.0000   0.0000
     0.0000   0.0000   0.0000   0.0000

          k = 0.0000-0.1768 0.1768 (  3279 PWs)   bands (ev):

   -14.5704 -14.5704 -14.5584 -14.5584 -14.4845 -14.4845 -14.4700 -14.4699
   -13.6341 -13.6341 -13.4981 -13.4980 -13.4755 -13.4754 -13.3964 -13.3964
   -13.3774 -13.3774 -13.3082 -13.3082  -2.4700  -2.4700   4.3172   4.3172
     6.2468   6.2468   7.3169   7.3169   8.6424   8.6425  10.1358  10.1358
    10.3407  10.3407  11.4278  11.4278

     occupation numbers 
     1.0000   1.0000   1.0000   1.0000   1.0000   1.0000   1.0000   1.0000
     1.0000   1.0000   1.0000   1.0000   1.0000   1.0000   1.0000   1.0000
     1.0000   1.0000   1.0000   1.0000   1.0000   1.0000   1.0000   1.0000
     1.0000   1.0000   1.0000   1.0000   0.0000   0.0000   0.0000   0.0000
     0.0000   0.0000   0.0000   0.0000

          k = 0.2652 0.0000 0.0000 (  3271 PWs)   bands (ev):

   -14.5677 -14.5677 -14.5610 -14.5610 -14.4823 -14.4823 -14.4719 -14.4719
   -13.6310 -13.6310 -13.5029 -13.5029 -13.4754 -13.4754 -13.3878 -13.3878
   -13.3841 -13.3841 -13.3074 -13.3074  -2.4168  -2.4168   4.3016   4.3016
     6.3571   6.3571   6.5257   6.5257   8.8648   8.8648   9.5908   9.5908
    11.4466  11.4466  11.4682  11.4682

     occupation numbers 
     1.0000   1.0000   1.0000   1.0000   1.0000   1.0000   1.0000   1.0000
     1.0000   1.0000   1.0000   1.0000   1.0000   1.0000   1.0000   1.0000
     1.0000   1.0000   1.0000   1.0000   1.0000   1.0000   1.0000   1.0000
     1.0000   1.0000   1.0000   1.0000   0.0000   0.0000   0.0000   0.0000
     0.0000   0.0000   0.0000   0.0000

          k = 0.3094 0.0442-0.0442 (  3260 PWs)   bands (ev):

   -14.5685 -14.5685 -14.5581 -14.5581 -14.4849 -14.4849 -14.4702 -14.4702
   -13.6221 -13.6221 -13.5129 -13.5129 -13.4796 -13.4796 -13.3888 -13.3888
   -13.3738 -13.3737 -13.3093 -13.3093  -2.2369  -2.2369   3.7592   3.7592
     6.1080   6.1080   6.2885   6.2885   8.8512   8.8512   9.6678   9.6678
    11.7651  11.7651  11.8337  11.8337

     occupation numbers 
     1.0000   1.0000   1.0000   1.0000   1.0000   1.0000   1.0000   1.0000
     1.0000   1.0000   1.0000   1.0000   1.0000   1.0000   1.0000   1.0000
     1.0000   1.0000   1.0000   1.0000   1.0000   1.0000   1.0000   1.0000
     1.0000   1.0000   1.0000   1.0000   0.0000   0.0000   0.0000   0.0000
     0.0000   0.0000   0.0000   0.0000

          k = 0.3536 0.0884-0.0884 (  3273 PWs)   bands (ev):

   -14.5704 -14.5704 -14.5535 -14.5534 -14.4899 -14.4898 -14.4676 -14.4676
   -13.6113 -13.6113 -13.5234 -13.5234 -13.4844 -13.4844 -13.3920 -13.3920
   -13.3630 -13.3630 -13.3114 -13.3114  -1.9935  -1.9935   3.1206   3.1206
     5.7999   5.7999   6.1001   6.1001   8.9742   8.9742   9.7801   9.7802
    11.7902  11.7902  12.0659  12.0659

     occupation numbers 
     1.0000   1.0000   1.0000   1.0000   1.0000   1.0000   1.0000   1.0000
     1.0000   1.0000   1.0000   1.0000   1.0000   1.0000   1.0000   1.0000
     1.0000   1.0000   1.0000   1.0000   1.0000   1.0000   1.0000   1.0000
     1.0000   1.0000   1.0000   1.0000   0.0000   0.0000   0.0000   0.0000
     0.0000   0.0000   0.0000   0.0000

          k = 0.3977 0.1326-0.1326 (  3273 PWs)   bands (ev):

   -14.5723 -14.5723 -14.5478 -14.5477 -14.4957 -14.4956 -14.4646 -14.4645
   -13.5997 -13.5997 -13.5329 -13.5328 -13.4888 -13.4888 -13.3958 -13.3958
   -13.3544 -13.3543 -13.3123 -13.3123  -1.6989  -1.6989   2.4712   2.4712
     5.4811   5.4811   5.9843   5.9843   8.9824   8.9824  10.1380  10.1380
    11.7669  11.7669  12.1362  12.1362

     occupation numbers 
     1.0000   1.0000   1.0000   1.0000   1.0000   1.0000   1.0000   1.0000
     1.0000   1.0000   1.0000   1.0000   1.0000   1.0000   1.0000   1.0000
     1.0000   1.0000   1.0000   1.0000   1.0000   1.0000   1.0000   1.0000
     1.0000   1.0000   1.0000   1.0000   0.0000   0.0000   0.0000   0.0000
     0.0000   0.0000   0.0000   0.0000

          k = 0.4419 0.1768-0.1768 (  3268 PWs)   bands (ev):

   -14.5739 -14.5739 -14.5419 -14.5418 -14.5017 -14.5016 -14.4617 -14.4617
   -13.5889 -13.5889 -13.5403 -13.5402 -13.4927 -13.4927 -13.3999 -13.3998
   -13.3490 -13.3489 -13.3117 -13.3117  -1.3807  -1.3807   1.8796   1.8796
     5.2017   5.2017   5.9404   5.9404   8.9224   8.9224  10.5457  10.5457
    11.9140  11.9140  12.1053  12.1053

     occupation numbers 
     1.0000   1.0000   1.0000   1.0000   1.0000   1.0000   1.0000   1.0000
     1.0000   1.0000   1.0000   1.0000   1.0000   1.0000   1.0000   1.0000
     1.0000   1.0000   1.0000   1.0000   1.0000   1.0000   1.0000   1.0000
     1.0000   1.0000   1.0000   1.0000   0.0000   0.0000   0.0000   0.0000
     0.0000   0.0000   0.0000   0.0000

          k =-0.2210-0.4861 0.4861 (  3266 PWs)   bands (ev):

   -14.5751 -14.5751 -14.5363 -14.5361 -14.5075 -14.5073 -14.4596 -14.4596
   -13.5811 -13.5811 -13.5449 -13.5448 -13.4955 -13.4955 -13.4033 -13.4033
   -13.3463 -13.3462 -13.3103 -13.3103  -1.1027  -1.1027   1.4325   1.4325
     4.9862   4.9862   5.9665   5.9665   8.8751   8.8751  10.7788  10.7788
    11.9061  11.9061  12.4993  12.4993

     occupation numbers 
     1.0000   1.0000   1.0000   1.0000   1.0000   1.0000   1.0000   1.0000
     1.0000   1.0000   1.0000   1.0000   1.0000   1.0000   1.0000   1.0000
     1.0000   1.0000   1.0000   1.0000   1.0000   1.0000   1.0000   1.0000
     1.0000   1.0000   1.0000   1.0000   0.0000   0.0000   0.0000   0.0000
     0.0000   0.0000   0.0000   0.0000

          k =-0.1768-0.4419 0.4419 (  3258 PWs)   bands (ev):

   -14.5757 -14.5757 -14.5329 -14.5326 -14.5111 -14.5108 -14.4584 -14.4584
   -13.5786 -13.5786 -13.5462 -13.5461 -13.4960 -13.4959 -13.4055 -13.4054
   -13.3451 -13.3450 -13.3096 -13.3096  -0.9876  -0.9876   1.2636   1.2636
     4.8476   4.8476   6.0597   6.0597   8.8646   8.8646  10.8910  10.8910
    11.7481  11.7481  13.1894  13.1894

     occupation numbers 
     1.0000   1.0000   1.0000   1.0000   1.0000   1.0000   1.0000   1.0000
     1.0000   1.0000   1.0000   1.0000   1.0000   1.0000   1.0000   1.0000
     1.0000   1.0000   1.0000   1.0000   1.0000   1.0000   1.0000   1.0000
     1.0000   1.0000   1.0000   1.0000   0.0000   0.0000   0.0000   0.0000
     0.0000   0.0000   0.0000   0.0000

          k =-0.1326-0.3977 0.3977 (  3262 PWs)   bands (ev):

   -14.5759 -14.5759 -14.5337 -14.5334 -14.5104 -14.5101 -14.4585 -14.4585
   -13.5822 -13.5821 -13.5444 -13.5444 -13.4938 -13.4938 -13.4060 -13.4060
   -13.3447 -13.3447 -13.3104 -13.3104  -1.1174  -1.1174   1.4563   1.4563
     4.7969   4.7969   6.2140   6.2140   8.8916   8.8916  10.9884  10.9884
    11.5626  11.5626  13.3544  13.3545

     occupation numbers 
     1.0000   1.0000   1.0000   1.0000   1.0000   1.0000   1.0000   1.0000
     1.0000   1.0000   1.0000   1.0000   1.0000   1.0000   1.0000   1.0000
     1.0000   1.0000   1.0000   1.0000   1.0000   1.0000   1.0000   1.0000
     1.0000   1.0000   1.0000   1.0000   0.0000   0.0000   0.0000   0.0000
     0.0000   0.0000   0.0000   0.0000

          k =-0.0884-0.3536 0.3536 (  3263 PWs)   bands (ev):

   -14.5754 -14.5754 -14.5381 -14.5379 -14.5060 -14.5058 -14.4596 -14.4596
   -13.5902 -13.5902 -13.5397 -13.5397 -13.4901 -13.4900 -13.4047 -13.4047
   -13.3454 -13.3454 -13.3124 -13.3124  -1.4002  -1.4002   1.9097   1.9097
     4.8479   4.8479   6.4194   6.4194   8.9425   8.9425  11.0952  11.0952
    11.3404  11.3404  12.6493  12.6493

     occupation numbers 
     1.0000   1.0000   1.0000   1.0000   1.0000   1.0000   1.0000   1.0000
     1.0000   1.0000   1.0000   1.0000   1.0000   1.0000   1.0000   1.0000
     1.0000   1.0000   1.0000   1.0000   1.0000   1.0000   1.0000   1.0000
     1.0000   1.0000   1.0000   1.0000   0.0000   0.0000   0.0000   0.0000
     0.0000   0.0000   0.0000   0.0000

          k =-0.0442-0.3094 0.3094 (  3275 PWs)   bands (ev):

   -14.5746 -14.5746 -14.5437 -14.5436 -14.5004 -14.5003 -14.4616 -14.4616
   -13.6010 -13.6010 -13.5325 -13.5324 -13.4862 -13.4862 -13.4019 -13.4019
   -13.3488 -13.3487 -13.3143 -13.3143  -1.7172  -1.7172   2.4820   2.4820
     5.0221   5.0221   6.6589   6.6589   8.9835   8.9835  11.0288  11.0288
    11.1744  11.1744  11.9841  11.9841

     occupation numbers 
     1.0000   1.0000   1.0000   1.0000   1.0000   1.0000   1.0000   1.0000
     1.0000   1.0000   1.0000   1.0000   1.0000   1.0000   1.0000   1.0000
     1.0000   1.0000   1.0000   1.0000   1.0000   1.0000   1.0000   1.0000
     1.0000   1.0000   1.0000   1.0000   0.0000   0.0000   0.0000   0.0000
     0.0000   0.0000   0.0000   0.0000

          k = 0.0000-0.2652 0.2652 (  3280 PWs)   bands (ev):

   -14.5734 -14.5734 -14.5491 -14.5491 -14.4945 -14.4945 -14.4644 -14.4644
   -13.6126 -13.6126 -13.5227 -13.5227 -13.4829 -13.4829 -13.3982 -13.3982
   -13.3558 -13.3558 -13.3142 -13.3142  -2.0085  -2.0085   3.0738   3.0738
     5.3499   5.3499   6.9038   6.9038   8.9418   8.9418  10.7083  10.7083
    10.9269  10.9269  11.7683  11.7683

     occupation numbers 
     1.0000   1.0000   1.0000   1.0000   1.0000   1.0000   1.0000   1.0000
     1.0000   1.0000   1.0000   1.0000   1.0000   1.0000   1.0000   1.0000
     1.0000   1.0000   1.0000   1.0000   1.0000   1.0000   1.0000   1.0000
     1.0000   1.0000   1.0000   1.0000   0.0000   0.0000   0.0000   0.0000
     0.0000   0.0000   0.0000   0.0000

          k = 0.3536 0.0000 0.0000 (  3263 PWs)   bands (ev):

   -14.5675 -14.5675 -14.5579 -14.5579 -14.4852 -14.4852 -14.4706 -14.4706
   -13.6148 -13.6148 -13.5204 -13.5204 -13.4824 -13.4824 -13.3890 -13.3890
   -13.3691 -13.3691 -13.3096 -13.3096  -2.0782  -2.0782   3.3993   3.3993
     5.9450   5.9450   6.0620   6.0620   8.5706   8.5706   9.6834   9.6834
    12.2692  12.2693  12.3235  12.3235

     occupation numbers 
     1.0000   1.0000   1.0000   1.0000   1.0000   1.0000   1.0000   1.0000
     1.0000   1.0000   1.0000   1.0000   1.0000   1.0000   1.0000   1.0000
     1.0000   1.0000   1.0000   1.0000   1.0000   1.0000   1.0000   1.0000
     1.0000   1.0000   1.0000   1.0000   0.0000   0.0000   0.0000   0.0000
     0.0000   0.0000   0.0000   0.0000

          k = 0.3977 0.0442-0.0442 (  3275 PWs)   bands (ev):

   -14.5683 -14.5682 -14.5554 -14.5554 -14.4880 -14.4880 -14.4693 -14.4693
   -13.6053 -13.6053 -13.5288 -13.5288 -13.4854 -13.4854 -13.3943 -13.3943
   -13.3604 -13.3604 -13.3103 -13.3103  -1.8539  -1.8539   2.9016   2.9016
     5.7055   5.7056   5.8636   5.8636   8.5968   8.5968   9.6161   9.6161
    12.4074  12.4074  12.6576  12.6576

     occupation numbers 
     1.0000   1.0000   1.0000   1.0000   1.0000   1.0000   1.0000   1.0000
     1.0000   1.0000   1.0000   1.0000   1.0000   1.0000   1.0000   1.0000
     1.0000   1.0000   1.0000   1.0000   1.0000   1.0000   1.0000   1.0000
     1.0000   1.0000   1.0000   1.0000   0.0000   0.0000   0.0000   0.0000
     0.0000   0.0000   0.0000   0.0000

          k = 0.4419 0.0884-0.0884 (  3268 PWs)   bands (ev):

   -14.5700 -14.5699 -14.5509 -14.5508 -14.4925 -14.4924 -14.4665 -14.4665
   -13.5951 -13.5951 -13.5363 -13.5363 -13.4877 -13.4876 -13.4018 -13.4018
   -13.3521 -13.3521 -13.3098 -13.3098  -1.5731  -1.5731   2.3522   2.3522
     5.3644   5.3644   5.7377   5.7377   8.7583   8.7583   9.7390   9.7390
    12.2597  12.2597  12.8151  12.8151

     occupation numbers 
     1.0000   1.0000   1.0000   1.0000   1.0000   1.0000   1.0000   1.0000
     1.0000   1.0000   1.0000   1.0000   1.0000   1.0000   1.0000   1.0000
     1.0000   1.0000   1.0000   1.0000   1.0000   1.0000   1.0000   1.0000
     1.0000   1.0000   1.0000   1.0000   0.0000   0.0000   0.0000   0.0000
     0.0000   0.0000   0.0000   0.0000

          k = 0.4861 0.1326-0.1326 (  3263 PWs)   bands (ev):

   -14.5718 -14.5717 -14.5457 -14.5456 -14.4979 -14.4978 -14.4633 -14.4633
   -13.5862 -13.5862 -13.5412 -13.5411 -13.4895 -13.4894 -13.4099 -13.4099
   -13.3469 -13.3469 -13.3077 -13.3077  -1.2558  -1.2558   1.8150   1.8150
     5.0124   5.0124   5.6882   5.6882   8.8203   8.8203  10.2083  10.2083
    12.1153  12.1153  12.7912  12.7912

     occupation numbers 
     1.0000   1.0000   1.0000   1.0000   1.0000   1.0000   1.0000   1.0000
     1.0000   1.0000   1.0000   1.0000   1.0000   1.0000   1.0000   1.0000
     1.0000   1.0000   1.0000   1.0000   1.0000   1.0000   1.0000   1.0000
     1.0000   1.0000   1.0000   1.0000   0.0000   0.0000   0.0000   0.0000
     0.0000   0.0000   0.0000   0.0000

          k =-0.1768-0.5303 0.5303 (  3259 PWs)   bands (ev):

   -14.5734 -14.5734 -14.5407 -14.5406 -14.5034 -14.5032 -14.4604 -14.4604
   -13.5809 -13.5809 -13.5423 -13.5422 -13.4909 -13.4908 -13.4170 -13.4170
[...]

     occupation numbers 
     1.0000   1.0000   1.0000   1.0000   1.0000   1.0000   1.0000   1.0000
     1.0000   1.0000   1.0000   1.0000   1.0000   1.0000   1.0000   1.0000
     1.0000   1.0000   1.0000   1.0000   1.0000   1.0000   1.0000   1.0000
     1.0000   1.0000   1.0000   1.0000   0.0000   0.0000   0.0000   0.0000
     0.0000   0.0000   0.0000   0.0000

          k =-0.1326-0.3977 0.5745 (  3257 PWs)   bands (ev):

   -14.5746 -14.5745 -14.5371 -14.5368 -14.5079 -14.5076 -14.4578 -14.4577
   -13.5804 -13.5804 -13.5382 -13.5381 -13.4891 -13.4890 -13.4278 -13.4277
   -13.3450 -13.3450 -13.2995 -13.2995  -0.6733  -0.6733   1.0491   1.0491
     4.4632   4.4632   5.5004   5.5004   9.5777   9.5777  10.8116  10.8116
    12.1173  12.1173  12.9087  12.9087

     occupation numbers 
     1.0000   1.0000   1.0000   1.0000   1.0000   1.0000   1.0000   1.0000
     1.0000   1.0000   1.0000   1.0000   1.0000   1.0000   1.0000   1.0000
     1.0000   1.0000   1.0000   1.0000   1.0000   1.0000   1.0000   1.0000
     1.0000   1.0000   1.0000   1.0000   0.0000   0.0000   0.0000   0.0000
     0.0000   0.0000   0.0000   0.0000

          k =-0.0884-0.3536 0.5303 (  3262 PWs)   bands (ev):

   -14.5749 -14.5748 -14.5366 -14.5362 -14.5087 -14.5083 -14.4575 -14.4575
   -13.5811 -13.5811 -13.5383 -13.5383 -13.4886 -13.4886 -13.4274 -13.4273
   -13.3451 -13.3451 -13.2999 -13.2998  -0.7320  -0.7320   1.1235   1.1235
     4.4270   4.4270   5.5743   5.5743   9.6401   9.6401  10.7818  10.7818
    12.1953  12.1953  12.8765  12.8765

     occupation numbers 
     1.0000   1.0000   1.0000   1.0000   1.0000   1.0000   1.0000   1.0000
     1.0000   1.0000   1.0000   1.0000   1.0000   1.0000   1.0000   1.0000
     1.0000   1.0000   1.0000   1.0000   1.0000   1.0000   1.0000   1.0000
     1.0000   1.0000   1.0000   1.0000   0.0000   0.0000   0.0000   0.0000
     0.0000   0.0000   0.0000   0.0000

          k =-0.0442-0.3094 0.4861 (  3261 PWs)   bands (ev):

   -14.5747 -14.5746 -14.5382 -14.5379 -14.5068 -14.5065 -14.4583 -14.4583
   -13.5836 -13.5835 -13.5396 -13.5396 -13.4877 -13.4877 -13.4221 -13.4220
   -13.3454 -13.3454 -13.3026 -13.3026  -0.9944  -0.9944   1.4664   1.4664
     4.5002   4.5002   5.7275   5.7275   9.7092   9.7092  10.6809  10.6809
    11.5602  11.5602  13.1134  13.1134

     occupation numbers 
     1.0000   1.0000   1.0000   1.0000   1.0000   1.0000   1.0000   1.0000
     1.0000   1.0000   1.0000   1.0000   1.0000   1.0000   1.0000   1.0000
     1.0000   1.0000   1.0000   1.0000   1.0000   1.0000   1.0000   1.0000
     1.0000   1.0000   1.0000   1.0000   0.0000   0.0000   0.0000   0.0000
     0.0000   0.0000   0.0000   0.0000

          k = 0.0000-0.2652 0.4419 (  3258 PWs)   bands (ev):

   -14.5741 -14.5741 -14.5414 -14.5412 -14.5031 -14.5029 -14.4600 -14.4600
   -13.5890 -13.5889 -13.5389 -13.5389 -13.4872 -13.4872 -13.4131 -13.4131
   -13.3466 -13.3466 -13.3069 -13.3069  -1.3136  -1.3136   1.9116   1.9116
     4.7060   4.7060   5.9330   5.9330   9.7218   9.7218  10.3391  10.3391
    11.3394  11.3394  12.8684  12.8684

     occupation numbers 
     1.0000   1.0000   1.0000   1.0000   1.0000   1.0000   1.0000   1.0000
     1.0000   1.0000   1.0000   1.0000   1.0000   1.0000   1.0000   1.0000
     1.0000   1.0000   1.0000   1.0000   1.0000   1.0000   1.0000   1.0000
     1.0000   1.0000   1.0000   1.0000   0.0000   0.0000   0.0000   0.0000
     0.0000   0.0000   0.0000   0.0000

          k =-0.1768-0.5303 0.7071 (  3264 PWs)   bands (ev):

   -14.5708 -14.5708 -14.5466 -14.5465 -14.4973 -14.4971 -14.4635 -14.4635
   -13.5820 -13.5820 -13.5424 -13.5424 -13.4862 -13.4862 -13.4218 -13.4218
   -13.3438 -13.3437 -13.3044 -13.3044  -1.0062  -1.0062   1.5180   1.5180
     4.8833   4.8833   5.3687   5.3687   9.2229   9.2230   9.6753   9.6753
    12.1291  12.1291  13.8793  13.8793

     occupation numbers 
     1.0000   1.0000   1.0000   1.0000   1.0000   1.0000   1.0000   1.0000
     1.0000   1.0000   1.0000   1.0000   1.0000   1.0000   1.0000   1.0000
     1.0000   1.0000   1.0000   1.0000   1.0000   1.0000   1.0000   1.0000
     1.0000   1.0000   1.0000   1.0000   0.0000   0.0000   0.0000   0.0000
     0.0000   0.0000   0.0000   0.0000

          k =-0.1326-0.4861 0.6629 (  3267 PWs)   bands (ev):

   -14.5720 -14.5719 -14.5438 -14.5436 -14.5009 -14.5006 -14.4611 -14.4610
   -13.5802 -13.5801 -13.5399 -13.5398 -13.4842 -13.4842 -13.4327 -13.4326
   -13.3432 -13.3432 -13.3001 -13.3001  -0.6813  -0.6813   1.1106   1.1106
     4.6386   4.6386   5.2368   5.2368   9.4206   9.4206  10.1554  10.1554
    11.9359  11.9359  13.8298  13.8298

     occupation numbers 
     1.0000   1.0000   1.0000   1.0000   1.0000   1.0000   1.0000   1.0000
     1.0000   1.0000   1.0000   1.0000   1.0000   1.0000   1.0000   1.0000
     1.0000   1.0000   1.0000   1.0000   1.0000   1.0000   1.0000   1.0000
     1.0000   1.0000   1.0000   1.0000   0.0000   0.0000   0.0000   0.0000
     0.0000   0.0000   0.0000   0.0000

          k =-0.0884-0.4419 0.6187 (  3264 PWs)   bands (ev):

   -14.5731 -14.5731 -14.5410 -14.5407 -14.5042 -14.5039 -14.4589 -14.4588
   -13.5804 -13.5804 -13.5361 -13.5360 -13.4826 -13.4825 -13.4402 -13.4401
   -13.3438 -13.3438 -13.2968 -13.2968  -0.4248  -0.4248   0.8159   0.8159
     4.4282   4.4282   5.2249   5.2249   9.4956   9.4956  10.9194  10.9194
    11.8107  11.8107  13.1997  13.1997

     occupation numbers 
     1.0000   1.0000   1.0000   1.0000   1.0000   1.0000   1.0000   1.0000
     1.0000   1.0000   1.0000   1.0000   1.0000   1.0000   1.0000   1.0000
     1.0000   1.0000   1.0000   1.0000   1.0000   1.0000   1.0000   1.0000
     1.0000   1.0000   1.0000   1.0000   0.0000   0.0000   0.0000   0.0000
     0.0000   0.0000   0.0000   0.0000

          k =-0.0442-0.3977 0.5745 (  3258 PWs)   bands (ev):

   -14.5740 -14.5740 -14.5387 -14.5384 -14.5068 -14.5064 -14.4575 -14.4575
   -13.5811 -13.5811 -13.5345 -13.5345 -13.4829 -13.4827 -13.4409 -13.4407
   -13.3445 -13.3444 -13.2959 -13.2958  -0.4251  -0.4251   0.8193   0.8193
     4.3082   4.3082   5.3192   5.3192   9.5919   9.5919  11.3927  11.3927
    12.0624  12.0624  12.4085  12.4085

     occupation numbers 
     1.0000   1.0000   1.0000   1.0000   1.0000   1.0000   1.0000   1.0000
     1.0000   1.0000   1.0000   1.0000   1.0000   1.0000   1.0000   1.0000
     1.0000   1.0000   1.0000   1.0000   1.0000   1.0000   1.0000   1.0000
     1.0000   1.0000   1.0000   1.0000   0.0000   0.0000   0.0000   0.0000
     0.0000   0.0000   0.0000   0.0000

          k = 0.0000-0.3536 0.5303 (  3259 PWs)   bands (ev):

   -14.5745 -14.5745 -14.5377 -14.5373 -14.5078 -14.5074 -14.4573 -14.4573
   -13.5818 -13.5818 -13.5366 -13.5365 -13.4850 -13.4849 -13.4340 -13.4339
   -13.3449 -13.3449 -13.2979 -13.2979  -0.6767  -0.6767   1.1036   1.1036
     4.3225   4.3225   5.4962   5.4962   9.6969   9.6969  11.2304  11.2304
    11.6536  11.6536  12.9517  12.9517

     occupation numbers 
     1.0000   1.0000   1.0000   1.0000   1.0000   1.0000   1.0000   1.0000
     1.0000   1.0000   1.0000   1.0000   1.0000   1.0000   1.0000   1.0000
     1.0000   1.0000   1.0000   1.0000   1.0000   1.0000   1.0000   1.0000
     1.0000   1.0000   1.0000   1.0000   0.0000   0.0000   0.0000   0.0000
     0.0000   0.0000   0.0000   0.0000

          k =-0.0884-0.5303 0.7071 (  3270 PWs)   bands (ev):

   -14.5698 -14.5698 -14.5473 -14.5471 -14.4967 -14.4965 -14.4639 -14.4638
   -13.5775 -13.5775 -13.5426 -13.5425 -13.4784 -13.4783 -13.4409 -13.4408
   -13.3393 -13.3393 -13.3011 -13.3011  -0.4471  -0.4471   0.8301   0.8301
     4.7963   4.7963   5.0657   5.0657   9.1879   9.1880   9.4618   9.4618
    12.8508  12.8508  14.1812  14.1813

     occupation numbers 
     1.0000   1.0000   1.0000   1.0000   1.0000   1.0000   1.0000   1.0000
     1.0000   1.0000   1.0000   1.0000   1.0000   1.0000   1.0000   1.0000
     1.0000   1.0000   1.0000   1.0000   1.0000   1.0000   1.0000   1.0000
     1.0000   1.0000   1.0000   1.0000   0.0000   0.0000   0.0000   0.0000
     0.0000   0.0000   0.0000   0.0000

          k =-0.0442-0.4861 0.6629 (  3263 PWs)   bands (ev):

   -14.5712 -14.5712 -14.5447 -14.5444 -14.5001 -14.4998 -14.4611 -14.4610
   -13.5790 -13.5790 -13.5375 -13.5374 -13.4747 -13.4745 -13.4500 -13.4497
   -13.3412 -13.3411 -13.2971 -13.2970  -0.1434  -0.1434   0.5123   0.5123
     4.5752   4.5752   5.0158   5.0158   9.3626   9.3626  10.0776  10.0776
    12.6514  12.6514  13.4250  13.4250

     occupation numbers 
     1.0000   1.0000   1.0000   1.0000   1.0000   1.0000   1.0000   1.0000
     1.0000   1.0000   1.0000   1.0000   1.0000   1.0000   1.0000   1.0000
     1.0000   1.0000   1.0000   1.0000   1.0000   1.0000   1.0000   1.0000
     1.0000   1.0000   1.0000   1.0000   0.0000   0.0000   0.0000   0.0000
     0.0000   0.0000   0.0000   0.0000

          k = 0.0000-0.4419 0.6187 (  3255 PWs)   bands (ev):

   -14.5727 -14.5726 -14.5417 -14.5414 -14.5036 -14.5032 -14.4588 -14.4587
   -13.5805 -13.5804 -13.5341 -13.5340 -13.4766 -13.4764 -13.4500 -13.4497
   -13.3432 -13.3431 -13.2949 -13.2949  -0.1417  -0.1417   0.5215   0.5215
     4.3724   4.3724   5.1232   5.1232   9.4683   9.4683  10.9403  10.9403
    12.4379  12.4379  12.5490  12.5490

     occupation numbers 
     1.0000   1.0000   1.0000   1.0000   1.0000   1.0000   1.0000   1.0000
     1.0000   1.0000   1.0000   1.0000   1.0000   1.0000   1.0000   1.0000
     1.0000   1.0000   1.0000   1.0000   1.0000   1.0000   1.0000   1.0000
     1.0000   1.0000   1.0000   1.0000   0.0000   0.0000   0.0000   0.0000
     0.0000   0.0000   0.0000   0.0000

          k =-0.7071 0.1768 0.0000 (  3272 PWs)   bands (ev):

   -14.5692 -14.5692 -14.5479 -14.5477 -14.4962 -14.4960 -14.4642 -14.4641
   -13.5768 -13.5768 -13.5418 -13.5418 -13.4684 -13.4680 -13.4550 -13.4547
   -13.3377 -13.3377 -13.3000 -13.2999   0.1527   0.1528   0.1870   0.1871
     4.7949   4.7949   4.9356   4.9356   9.2118   9.2118   9.3451   9.3451
    13.5398  13.5398  13.7072  13.7072

     occupation numbers 
     1.0000   1.0000   1.0000   1.0000   1.0000   1.0000   1.0000   1.0000
     1.0000   1.0000   1.0000   1.0000   1.0000   1.0000   1.0000   1.0000
     1.0000   1.0000   1.0000   1.0000   1.0000   1.0000   1.0000   1.0000
     1.0000   1.0000   1.0000   1.0000   0.0000   0.0000   0.0000   0.0000
     0.0000   0.0000   0.0000   0.0000

          k =-0.1768-0.4419 0.7071 (  3259 PWs)   bands (ev):

   -14.5734 -14.5734 -14.5412 -14.5409 -14.5037 -14.5035 -14.4593 -14.4593
   -13.5822 -13.5822 -13.5389 -13.5389 -13.4862 -13.4862 -13.4275 -13.4275
   -13.3451 -13.3450 -13.3005 -13.3004  -0.8612  -0.8612   1.3320   1.3320
     4.5561   4.5561   5.4039   5.4039  10.0378  10.0378  10.2768  10.2769
    11.2927  11.2927  13.6037  13.6037

     occupation numbers 
     1.0000   1.0000   1.0000   1.0000   1.0000   1.0000   1.0000   1.0000
     1.0000   1.0000   1.0000   1.0000   1.0000   1.0000   1.0000   1.0000
     1.0000   1.0000   1.0000   1.0000   1.0000   1.0000   1.0000   1.0000
     1.0000   1.0000   1.0000   1.0000   0.0000   0.0000   0.0000   0.0000
     0.0000   0.0000   0.0000   0.0000

          k =-0.1326-0.3977 0.6629 (  3265 PWs)   bands (ev):

   -14.5739 -14.5738 -14.5397 -14.5394 -14.5058 -14.5055 -14.4580 -14.4579
   -13.5814 -13.5813 -13.5357 -13.5356 -13.4844 -13.4843 -13.4371 -13.4370
   -13.3450 -13.3449 -13.2968 -13.2968  -0.5575  -0.5575   0.9728   0.9728
     4.4193   4.4193   5.2370   5.2370  10.1213  10.1213  10.7178  10.7178
    11.4286  11.4286  13.0782  13.0782

     occupation numbers 
     1.0000   1.0000   1.0000   1.0000   1.0000   1.0000   1.0000   1.0000
     1.0000   1.0000   1.0000   1.0000   1.0000   1.0000   1.0000   1.0000
     1.0000   1.0000   1.0000   1.0000   1.0000   1.0000   1.0000   1.0000
     1.0000   1.0000   1.0000   1.0000   0.0000   0.0000   0.0000   0.0000
     0.0000   0.0000   0.0000   0.0000

          k =-0.0884-0.3536 0.6187 (  3262 PWs)   bands (ev):

   -14.5740 -14.5739 -14.5391 -14.5388 -14.5065 -14.5061 -14.4575 -14.4575
   -13.5813 -13.5812 -13.5339 -13.5338 -13.4835 -13.4834 -13.4408 -13.4407
   -13.3451 -13.3451 -13.2954 -13.2953  -0.4089  -0.4089   0.8044   0.8044
     4.3760   4.3761   5.1761   5.1761  10.1283  10.1283  10.8029  10.8029
    12.0284  12.0284  12.3371  12.3371

     occupation numbers 
     1.0000   1.0000   1.0000   1.0000   1.0000   1.0000   1.0000   1.0000
     1.0000   1.0000   1.0000   1.0000   1.0000   1.0000   1.0000   1.0000
     1.0000   1.0000   1.0000   1.0000   1.0000   1.0000   1.0000   1.0000
     1.0000   1.0000   1.0000   1.0000   0.0000   0.0000   0.0000   0.0000
     0.0000   0.0000   0.0000   0.0000

          k =-0.0884-0.4419 0.7071 (  3271 PWs)   bands (ev):

   -14.5726 -14.5725 -14.5426 -14.5423 -14.5028 -14.5025 -14.4594 -14.4593
   -13.5806 -13.5806 -13.5354 -13.5354 -13.4799 -13.4797 -13.4446 -13.4444
   -13.3437 -13.3436 -13.2960 -13.2960  -0.3553  -0.3553   0.7562   0.7562
     4.5369   4.5369   4.9876   4.9876  10.0500  10.0500  10.2682  10.2682
    11.7372  11.7373  13.2486  13.2486

     occupation numbers 
     1.0000   1.0000   1.0000   1.0000   1.0000   1.0000   1.0000   1.0000
     1.0000   1.0000   1.0000   1.0000   1.0000   1.0000   1.0000   1.0000
     1.0000   1.0000   1.0000   1.0000   1.0000   1.0000   1.0000   1.0000
     1.0000   1.0000   1.0000   1.0000   0.0000   0.0000   0.0000   0.0000
     0.0000   0.0000   0.0000   0.0000

          k =-0.0442-0.3977 0.6629 (  3259 PWs)   bands (ev):

   -14.5730 -14.5730 -14.5413 -14.5410 -14.5044 -14.5040 -14.4580 -14.4580
   -13.5814 -13.5813 -13.5319 -13.5319 -13.4768 -13.4766 -13.4514 -13.4512
   -13.3445 -13.3444 -13.2935 -13.2935  -0.1201  -0.1201   0.5137   0.5137
     4.4473   4.4473   4.9025   4.9025  10.2147  10.2147  10.9601  10.9601
    11.6363  11.6363  12.3224  12.3224

     occupation numbers 
     1.0000   1.0000   1.0000   1.0000   1.0000   1.0000   1.0000   1.0000
     1.0000   1.0000   1.0000   1.0000   1.0000   1.0000   1.0000   1.0000
     1.0000   1.0000   1.0000   1.0000   1.0000   1.0000   1.0000   1.0000
     1.0000   1.0000   1.0000   1.0000   0.0000   0.0000   0.0000   0.0000
     0.0000   0.0000   0.0000   0.0000

          k =-0.0000-0.3536 0.6187 (  3257 PWs)   bands (ev):

   -14.5735 -14.5735 -14.5403 -14.5399 -14.5055 -14.5051 -14.4575 -14.4574
   -13.5815 -13.5815 -13.5321 -13.5320 -13.4793 -13.4791 -13.4480 -13.4478
   -13.3449 -13.3448 -13.2938 -13.2938  -0.2487  -0.2487   0.6498   0.6498
     4.3820   4.3820   5.0096   5.0096  10.2928  10.2928  11.1370  11.1370
    11.5232  11.5232  12.2107  12.2107

     occupation numbers 
     1.0000   1.0000   1.0000   1.0000   1.0000   1.0000   1.0000   1.0000
     1.0000   1.0000   1.0000   1.0000   1.0000   1.0000   1.0000   1.0000
     1.0000   1.0000   1.0000   1.0000   1.0000   1.0000   1.0000   1.0000
     1.0000   1.0000   1.0000   1.0000   0.0000   0.0000   0.0000   0.0000
     0.0000   0.0000   0.0000   0.0000

          k =-0.7071 0.2652 0.0000 (  3258 PWs)   bands (ev):

   -14.5720 -14.5720 -14.5433 -14.5430 -14.5020 -14.5017 -14.4594 -14.4593
   -13.5805 -13.5805 -13.5335 -13.5335 -13.4718 -13.4715 -13.4563 -13.4559
   -13.3430 -13.3429 -13.2942 -13.2942   0.1665   0.1665   0.2122   0.2122
     4.6037   4.6037   4.7715   4.7715  10.0465  10.0465  10.2297  10.2298
    12.4088  12.4088  12.5248  12.5248

     occupation numbers 
     1.0000   1.0000   1.0000   1.0000   1.0000   1.0000   1.0000   1.0000
     1.0000   1.0000   1.0000   1.0000   1.0000   1.0000   1.0000   1.0000
     1.0000   1.0000   1.0000   1.0000   1.0000   1.0000   1.0000   1.0000
     1.0000   1.0000   1.0000   1.0000   0.0000   0.0000   0.0000   0.0000
     0.0000   0.0000   0.0000   0.0000

          k =-0.7071 0.3536 0.0000 (  3268 PWs)   bands (ev):

   -14.5732 -14.5731 -14.5416 -14.5413 -14.5044 -14.5040 -14.4577 -14.4577
   -13.5818 -13.5818 -13.5304 -13.5303 -13.4732 -13.4729 -13.4573 -13.4569
   -13.3449 -13.3448 -13.2924 -13.2924   0.1726   0.1726   0.2225   0.2226
     4.5321   4.5321   4.7081   4.7081  10.7338  10.7338  11.0528  11.0529
    11.5970  11.5970  11.6190  11.6190

     occupation numbers 
     1.0000   1.0000   1.0000   1.0000   1.0000   1.0000   1.0000   1.0000
     1.0000   1.0000   1.0000   1.0000   1.0000   1.0000   1.0000   1.0000
     1.0000   1.0000   1.0000   1.0000   1.0000   1.0000   1.0000   1.0000
     1.0000   1.0000   1.0000   1.0000   0.0000   0.0000   0.0000   0.0000
     0.0000   0.0000   0.0000   0.0000

     the Fermi energy is     7.6203 ev

!    total energy              =    -885.86285406 Ry
     Harris-Foulkes estimate   =    -885.86285406 Ry
     estimated scf accuracy    <       0.00000003 Ry

     total all-electron energy =    -24716.562604 Ry

     The total energy is the sum of the following terms:

     one-electron contribution =    -148.94407523 Ry
     hartree contribution      =      93.71945101 Ry
     xc contribution           =     -96.17327165 Ry
     ewald contribution        =    -170.59904351 Ry
     one-center paw contrib.   =    -563.86591461 Ry
     smearing contrib. (-TS)   =      -0.00000006 Ry

     convergence has been achieved in   6 iterations

     Writing output data file Sn.save
 
     init_run     :      5.10s CPU      5.34s WALL (       1 calls)
     electrons    :    120.37s CPU    125.26s WALL (       1 calls)

     Called by init_run:
     wfcinit      :      4.67s CPU      4.81s WALL (       1 calls)
     potinit      :      0.13s CPU      0.15s WALL (       1 calls)

     Called by electrons:
     c_bands      :    100.86s CPU    105.25s WALL (       7 calls)
     sum_band     :     18.38s CPU     18.77s WALL (       7 calls)
     v_of_rho     :      0.04s CPU      0.04s WALL (       7 calls)
     v_h          :      0.00s CPU      0.00s WALL (       7 calls)
     v_xc         :      0.04s CPU      0.04s WALL (       7 calls)
     newd         :      0.34s CPU      0.37s WALL (       7 calls)
     PAW_pot      :      0.87s CPU      0.93s WALL (       7 calls)
     mix_rho      :      0.02s CPU      0.02s WALL (       7 calls)

     Called by c_bands:
     init_us_2    :      0.21s CPU      0.31s WALL (    2175 calls)
     cegterg      :     96.16s CPU    100.28s WALL (    1015 calls)

     Called by sum_band:
     sum_band:bec :      2.24s CPU      2.28s WALL (    1015 calls)
     addusdens    :      0.13s CPU      0.17s WALL (       7 calls)

     Called by *egterg:
     h_psi        :     76.57s CPU     78.48s WALL (    3517 calls)
     s_psi        :      2.19s CPU      2.20s WALL (    3517 calls)
     g_psi        :      0.16s CPU      0.16s WALL (    2357 calls)
     cdiaghg      :      9.08s CPU      9.28s WALL (    3227 calls)
     cegterg:over :      5.83s CPU      5.85s WALL (    2357 calls)
     cegterg:upda :      1.36s CPU      1.37s WALL (    2357 calls)
     cegterg:last :      0.71s CPU      0.71s WALL (    1015 calls)

     Called by h_psi:
     h_psi:vloc   :     69.49s CPU     71.34s WALL (    3517 calls)
     h_psi:vnl    :      6.92s CPU      6.97s WALL (    3517 calls)
     add_vuspsi   :      2.42s CPU      2.43s WALL (    3517 calls)

     General routines
     calbec       :      5.99s CPU      6.04s WALL (    4532 calls)
     fft          :      0.06s CPU      0.06s WALL (     135 calls)
     fftw         :     79.05s CPU     81.10s WALL (  459860 calls)
     davcio       :      0.02s CPU      0.17s WALL (     145 calls)
 
     Parallel routines
     fft_scatter  :     53.16s CPU     54.67s WALL (  459995 calls)

     PAW routines
     PAW_pot      :      0.87s CPU      0.93s WALL (       7 calls)
     PAW_symme    :      0.03s CPU      0.03s WALL (      14 calls)
 
     PWSCF        :  2m 6.70s CPU     2m12.10s WALL

 
   This run was terminated on:   0: 1:36   9Mar2020            

=------------------------------------------------------------------------------=
   JOB DONE.
=------------------------------------------------------------------------------=
