
     Program PWSCF v.5.4.0 starts on 21Feb2020 at  0:51:58 

     This program is part of the open-source Quantum ESPRESSO suite
     for quantum simulation of materials; please cite
         "P. Giannozzi et al., J. Phys.:Condens. Matter 21 395502 (2009);
          URL http://www.quantum-espresso.org", 
     in publications or presentations arising from this work. More details at
     http://www.quantum-espresso.org/quote

     Parallel version (MPI & OpenMP), running on      16 processor cores
     Number of MPI processes:                16
     Threads/MPI process:                     1
     R & G space division:  proc/nbgrp/npool/nimage =      16
     Waiting for input...
     Reading input from standard input
Warning: card &IONS ignored
Warning: card / ignored
Warning: card &CELL ignored
Warning: card / ignored

     Current dimensions of program PWSCF are:
     Max number of different atomic species (ntypx) = 10
     Max number of k-points (npk) =  40000
     Max angular momentum in pseudopotentials (lmaxx) =  3

     Subspace diagonalization in iterative solution of the eigenvalue problem:
     a serial algorithm will be used

 
     Parallelization info
     --------------------
     sticks:   dense  smooth     PW     G-vecs:    dense   smooth      PW
     Min         162     162     46                 5516     5516     831
     Max         165     165     47                 5518     5518     834
     Sum        2611    2611    745                88275    88275   13323
 

     Title: 
     Sn                                                                         


     bravais-lattice index     =            0
     lattice parameter (alat)  =       8.8993  a.u.
     unit-cell volume          =     498.3785 (a.u.)^3
     number of atoms/cell      =            2
     number of atomic types    =            1
     number of electrons       =        28.00
     number of Kohn-Sham states=           18
     kinetic-energy cutoff     =     120.0000  Ry
     charge density cutoff     =     480.0000  Ry
     convergence threshold     =      1.0E-06
     mixing beta               =       0.7000
     number of iterations used =            8  plain     mixing
     Exchange-correlation      = PBE ( 1  4  3  4 0 0)

     celldm(1)=   8.899346  celldm(2)=   0.000000  celldm(3)=   0.000000
     celldm(4)=   0.000000  celldm(5)=   0.000000  celldm(6)=   0.000000

     crystal axes: (cart. coord. in units of alat)
               a(1) = (   0.000000   0.707107   0.707107 )  
               a(2) = (   0.707107   0.000000   0.707107 )  
               a(3) = (   0.707107   0.707107   0.000000 )  

     reciprocal axes: (cart. coord. in units 2 pi/alat)
               b(1) = ( -0.707107  0.707107  0.707107 )  
               b(2) = (  0.707107 -0.707107  0.707107 )  
               b(3) = (  0.707107  0.707107 -0.707107 )  


     PseudoPot. # 1 for Sn read from file:
     ../PseudopotentialDatabase/Sn_ONCV_PBE_FR-1.1.upf
     MD5 check sum: 6dd2180f739ea5ae1610ead5e1628a0e
     Pseudo is Norm-conserving, Zval = 14.0
     Generated using ONCVPSP code by D. R. Hamann
     Using radial grid of  602 points,  6 beta functions with: 
                l(1) =   0
                l(2) =   0
                l(3) =   1
                l(4) =   1
                l(5) =   2
                l(6) =   2

     atomic species   valence    mass     pseudopotential
        Sn            14.00   118.71000     Sn( 1.00)

     48 Sym. Ops., with inversion, found (24 have fractional translation)


                                    s                        frac. trans.

      isym =  1     identity                                     

 cryst.   s( 1) = (     1          0          0      )
                  (     0          1          0      )
                  (     0          0          1      )

 cart.    s( 1) = (  1.0000000  0.0000000  0.0000000 )
                  (  0.0000000  1.0000000  0.0000000 )
                  (  0.0000000  0.0000000  1.0000000 )


      isym =  2     180 deg rotation - cart. axis [0,0,1]        

 cryst.   s( 2) = (     0          1         -1      )
                  (     1          0         -1      )
                  (     0          0         -1      )

 cart.    s( 2) = ( -1.0000000  0.0000000  0.0000000 )
                  (  0.0000000 -1.0000000  0.0000000 )
                  (  0.0000000  0.0000000  1.0000000 )


      isym =  3     180 deg rotation - cart. axis [0,1,0]        

 cryst.   s( 3) = (     0         -1          1      )
                  (     0         -1          0      )
                  (     1         -1          0      )

 cart.    s( 3) = ( -1.0000000  0.0000000  0.0000000 )
                  (  0.0000000  1.0000000  0.0000000 )
                  (  0.0000000  0.0000000 -1.0000000 )


      isym =  4     180 deg rotation - cart. axis [1,0,0]        

 cryst.   s( 4) = (    -1          0          0      )
                  (    -1          0          1      )
                  (    -1          1          0      )

 cart.    s( 4) = (  1.0000000  0.0000000  0.0000000 )
                  (  0.0000000 -1.0000000  0.0000000 )
                  (  0.0000000  0.0000000 -1.0000000 )


      isym =  5     180 deg rotation - cart. axis [1,1,0]        

 cryst.   s( 5) = (    -1          0          1      )    f =( -0.2500000 )
                  (     0         -1          1      )       ( -0.2500000 )
                  (     0          0          1      )       ( -0.2500000 )

 cart.    s( 5) = (  0.0000000  1.0000000  0.0000000 )    f =( -0.3535534 )
                  (  1.0000000  0.0000000  0.0000000 )       ( -0.3535534 )
                  (  0.0000000  0.0000000 -1.0000000 )       ( -0.3535534 )


      isym =  6     180 deg rotation - cart. axis [1,-1,0]       

 cryst.   s( 6) = (     0         -1          0      )    f =( -0.2500000 )
                  (    -1          0          0      )       ( -0.2500000 )
                  (     0          0         -1      )       ( -0.2500000 )

 cart.    s( 6) = (  0.0000000 -1.0000000  0.0000000 )    f =( -0.3535534 )
                  ( -1.0000000  0.0000000  0.0000000 )       ( -0.3535534 )
                  (  0.0000000  0.0000000 -1.0000000 )       ( -0.3535534 )


      isym =  7      90 deg rotation - cart. axis [0,0,-1]       

 cryst.   s( 7) = (     0          1          0      )    f =( -0.2500000 )
                  (     0          1         -1      )       ( -0.2500000 )
                  (    -1          1          0      )       ( -0.2500000 )

 cart.    s( 7) = (  0.0000000  1.0000000  0.0000000 )    f =( -0.3535534 )
                  ( -1.0000000  0.0000000  0.0000000 )       ( -0.3535534 )
                  (  0.0000000  0.0000000  1.0000000 )       ( -0.3535534 )


      isym =  8      90 deg rotation - cart. axis [0,0,1]        

 cryst.   s( 8) = (     1          0         -1      )    f =( -0.2500000 )
                  (     1          0          0      )       ( -0.2500000 )
                  (     1         -1          0      )       ( -0.2500000 )

 cart.    s( 8) = (  0.0000000 -1.0000000  0.0000000 )    f =( -0.3535534 )
                  (  1.0000000  0.0000000  0.0000000 )       ( -0.3535534 )
                  (  0.0000000  0.0000000  1.0000000 )       ( -0.3535534 )


      isym =  9     180 deg rotation - cart. axis [1,0,1]        

 cryst.   s( 9) = (    -1          1          0      )    f =( -0.2500000 )
                  (     0          1          0      )       ( -0.2500000 )
                  (     0          1         -1      )       ( -0.2500000 )

 cart.    s( 9) = (  0.0000000  0.0000000  1.0000000 )    f =( -0.3535534 )
                  (  0.0000000 -1.0000000  0.0000000 )       ( -0.3535534 )
                  (  1.0000000  0.0000000  0.0000000 )       ( -0.3535534 )


      isym = 10     180 deg rotation - cart. axis [-1,0,1]       

 cryst.   s(10) = (     0          0         -1      )    f =( -0.2500000 )
                  (     0         -1          0      )       ( -0.2500000 )
                  (    -1          0          0      )       ( -0.2500000 )

 cart.    s(10) = (  0.0000000  0.0000000 -1.0000000 )    f =( -0.3535534 )
                  (  0.0000000 -1.0000000  0.0000000 )       ( -0.3535534 )
                  ( -1.0000000  0.0000000  0.0000000 )       ( -0.3535534 )


      isym = 11      90 deg rotation - cart. axis [0,1,0]        

 cryst.   s(11) = (     0          0          1      )    f =( -0.2500000 )
                  (    -1          0          1      )       ( -0.2500000 )
                  (     0         -1          1      )       ( -0.2500000 )

 cart.    s(11) = (  0.0000000  0.0000000  1.0000000 )    f =( -0.3535534 )
                  (  0.0000000  1.0000000  0.0000000 )       ( -0.3535534 )
                  ( -1.0000000  0.0000000  0.0000000 )       ( -0.3535534 )


      isym = 12      90 deg rotation - cart. axis [0,-1,0]       

 cryst.   s(12) = (     1         -1          0      )    f =( -0.2500000 )
                  (     1          0         -1      )       ( -0.2500000 )
                  (     1          0          0      )       ( -0.2500000 )

 cart.    s(12) = (  0.0000000  0.0000000 -1.0000000 )    f =( -0.3535534 )
                  (  0.0000000  1.0000000  0.0000000 )       ( -0.3535534 )
                  (  1.0000000  0.0000000  0.0000000 )       ( -0.3535534 )


      isym = 13     180 deg rotation - cart. axis [0,1,1]        

 cryst.   s(13) = (     1          0          0      )    f =( -0.2500000 )
                  (     1         -1          0      )       ( -0.2500000 )
                  (     1          0         -1      )       ( -0.2500000 )

 cart.    s(13) = ( -1.0000000  0.0000000  0.0000000 )    f =( -0.3535534 )
                  (  0.0000000  0.0000000  1.0000000 )       ( -0.3535534 )
                  (  0.0000000  1.0000000  0.0000000 )       ( -0.3535534 )


      isym = 14     180 deg rotation - cart. axis [0,1,-1]       

 cryst.   s(14) = (    -1          0          0      )    f =( -0.2500000 )
                  (     0          0         -1      )       ( -0.2500000 )
                  (     0         -1          0      )       ( -0.2500000 )

 cart.    s(14) = ( -1.0000000  0.0000000  0.0000000 )    f =( -0.3535534 )
                  (  0.0000000  0.0000000 -1.0000000 )       ( -0.3535534 )
                  (  0.0000000 -1.0000000  0.0000000 )       ( -0.3535534 )


      isym = 15      90 deg rotation - cart. axis [-1,0,0]       

 cryst.   s(15) = (     0         -1          1      )    f =( -0.2500000 )
                  (     0          0          1      )       ( -0.2500000 )
                  (    -1          0          1      )       ( -0.2500000 )

 cart.    s(15) = (  1.0000000  0.0000000  0.0000000 )    f =( -0.3535534 )
                  (  0.0000000  0.0000000  1.0000000 )       ( -0.3535534 )
                  (  0.0000000 -1.0000000  0.0000000 )       ( -0.3535534 )


      isym = 16      90 deg rotation - cart. axis [1,0,0]        

 cryst.   s(16) = (     0          1         -1      )    f =( -0.2500000 )
                  (    -1          1          0      )       ( -0.2500000 )
                  (     0          1          0      )       ( -0.2500000 )

 cart.    s(16) = (  1.0000000  0.0000000  0.0000000 )    f =( -0.3535534 )
                  (  0.0000000  0.0000000 -1.0000000 )       ( -0.3535534 )
                  (  0.0000000  1.0000000  0.0000000 )       ( -0.3535534 )


      isym = 17     120 deg rotation - cart. axis [-1,-1,-1]     

 cryst.   s(17) = (     0          0          1      )
                  (     1          0          0      )
                  (     0          1          0      )

 cart.    s(17) = (  0.0000000  1.0000000  0.0000000 )
                  (  0.0000000  0.0000000  1.0000000 )
                  (  1.0000000  0.0000000  0.0000000 )


      isym = 18     120 deg rotation - cart. axis [-1,1,1]       

 cryst.   s(18) = (     1         -1          0      )
                  (     0         -1          1      )
                  (     0         -1          0      )

 cart.    s(18) = (  0.0000000 -1.0000000  0.0000000 )
                  (  0.0000000  0.0000000  1.0000000 )
                  ( -1.0000000  0.0000000  0.0000000 )


      isym = 19     120 deg rotation - cart. axis [1,1,-1]       

 cryst.   s(19) = (    -1          1          0      )
                  (    -1          0          0      )
                  (    -1          0          1      )

 cart.    s(19) = (  0.0000000  1.0000000  0.0000000 )
                  (  0.0000000  0.0000000 -1.0000000 )
                  ( -1.0000000  0.0000000  0.0000000 )


      isym = 20     120 deg rotation - cart. axis [1,-1,1]       

 cryst.   s(20) = (     0          0         -1      )
                  (     0          1         -1      )
                  (     1          0         -1      )

 cart.    s(20) = (  0.0000000 -1.0000000  0.0000000 )
                  (  0.0000000  0.0000000 -1.0000000 )
                  (  1.0000000  0.0000000  0.0000000 )


      isym = 21     120 deg rotation - cart. axis [1,1,1]        

 cryst.   s(21) = (     0          1          0      )
                  (     0          0          1      )
                  (     1          0          0      )

 cart.    s(21) = (  0.0000000  0.0000000  1.0000000 )
                  (  1.0000000  0.0000000  0.0000000 )
                  (  0.0000000  1.0000000  0.0000000 )


      isym = 22     120 deg rotation - cart. axis [-1,1,-1]      

 cryst.   s(22) = (    -1          0          1      )
                  (    -1          1          0      )
                  (    -1          0          0      )

 cart.    s(22) = (  0.0000000  0.0000000  1.0000000 )
                  ( -1.0000000  0.0000000  0.0000000 )
                  (  0.0000000 -1.0000000  0.0000000 )


      isym = 23     120 deg rotation - cart. axis [1,-1,-1]      

 cryst.   s(23) = (     1          0         -1      )
                  (     0          0         -1      )
                  (     0          1         -1      )

 cart.    s(23) = (  0.0000000  0.0000000 -1.0000000 )
                  ( -1.0000000  0.0000000  0.0000000 )
                  (  0.0000000  1.0000000  0.0000000 )


      isym = 24     120 deg rotation - cart. axis [-1,-1,1]      

 cryst.   s(24) = (     0         -1          0      )
                  (     1         -1          0      )
                  (     0         -1          1      )

 cart.    s(24) = (  0.0000000  0.0000000 -1.0000000 )
                  (  1.0000000  0.0000000  0.0000000 )
                  (  0.0000000 -1.0000000  0.0000000 )


      isym = 25     inversion                                    

 cryst.   s(25) = (    -1          0          0      )    f =( -0.2500000 )
                  (     0         -1          0      )       ( -0.2500000 )
                  (     0          0         -1      )       ( -0.2500000 )

 cart.    s(25) = ( -1.0000000  0.0000000  0.0000000 )    f =( -0.3535534 )
                  (  0.0000000 -1.0000000  0.0000000 )       ( -0.3535534 )
                  (  0.0000000  0.0000000 -1.0000000 )       ( -0.3535534 )


      isym = 26     inv. 180 deg rotation - cart. axis [0,0,1]   

 cryst.   s(26) = (     0         -1          1      )    f =( -0.2500000 )
                  (    -1          0          1      )       ( -0.2500000 )
                  (     0          0          1      )       ( -0.2500000 )

 cart.    s(26) = (  1.0000000  0.0000000  0.0000000 )    f =( -0.3535534 )
                  (  0.0000000  1.0000000  0.0000000 )       ( -0.3535534 )
                  (  0.0000000  0.0000000 -1.0000000 )       ( -0.3535534 )


      isym = 27     inv. 180 deg rotation - cart. axis [0,1,0]   

 cryst.   s(27) = (     0          1         -1      )    f =( -0.2500000 )
                  (     0          1          0      )       ( -0.2500000 )
                  (    -1          1          0      )       ( -0.2500000 )

 cart.    s(27) = (  1.0000000  0.0000000  0.0000000 )    f =( -0.3535534 )
                  (  0.0000000 -1.0000000  0.0000000 )       ( -0.3535534 )
                  (  0.0000000  0.0000000  1.0000000 )       ( -0.3535534 )


      isym = 28     inv. 180 deg rotation - cart. axis [1,0,0]   

 cryst.   s(28) = (     1          0          0      )    f =( -0.2500000 )
                  (     1          0         -1      )       ( -0.2500000 )
                  (     1         -1          0      )       ( -0.2500000 )

 cart.    s(28) = ( -1.0000000  0.0000000  0.0000000 )    f =( -0.3535534 )
                  (  0.0000000  1.0000000  0.0000000 )       ( -0.3535534 )
                  (  0.0000000  0.0000000  1.0000000 )       ( -0.3535534 )


      isym = 29     inv. 180 deg rotation - cart. axis [1,1,0]   

 cryst.   s(29) = (     1          0         -1      )
                  (     0          1         -1      )
                  (     0          0         -1      )

 cart.    s(29) = (  0.0000000 -1.0000000  0.0000000 )
                  ( -1.0000000  0.0000000  0.0000000 )
                  (  0.0000000  0.0000000  1.0000000 )


      isym = 30     inv. 180 deg rotation - cart. axis [1,-1,0]  

 cryst.   s(30) = (     0          1          0      )
                  (     1          0          0      )
                  (     0          0          1      )

 cart.    s(30) = (  0.0000000  1.0000000  0.0000000 )
                  (  1.0000000  0.0000000  0.0000000 )
                  (  0.0000000  0.0000000  1.0000000 )


      isym = 31     inv.  90 deg rotation - cart. axis [0,0,-1]  

 cryst.   s(31) = (     0         -1          0      )
                  (     0         -1          1      )
                  (     1         -1          0      )

 cart.    s(31) = (  0.0000000 -1.0000000  0.0000000 )
                  (  1.0000000  0.0000000  0.0000000 )
                  (  0.0000000  0.0000000 -1.0000000 )


      isym = 32     inv.  90 deg rotation - cart. axis [0,0,1]   

 cryst.   s(32) = (    -1          0          1      )
                  (    -1          0          0      )
                  (    -1          1          0      )

 cart.    s(32) = (  0.0000000  1.0000000  0.0000000 )
                  ( -1.0000000  0.0000000  0.0000000 )
                  (  0.0000000  0.0000000 -1.0000000 )


      isym = 33     inv. 180 deg rotation - cart. axis [1,0,1]   

 cryst.   s(33) = (     1         -1          0      )
                  (     0         -1          0      )
                  (     0         -1          1      )

 cart.    s(33) = (  0.0000000  0.0000000 -1.0000000 )
                  (  0.0000000  1.0000000  0.0000000 )
                  ( -1.0000000  0.0000000  0.0000000 )


      isym = 34     inv. 180 deg rotation - cart. axis [-1,0,1]  

 cryst.   s(34) = (     0          0          1      )
                  (     0          1          0      )
                  (     1          0          0      )

 cart.    s(34) = (  0.0000000  0.0000000  1.0000000 )
                  (  0.0000000  1.0000000  0.0000000 )
                  (  1.0000000  0.0000000  0.0000000 )


      isym = 35     inv.  90 deg rotation - cart. axis [0,1,0]   

 cryst.   s(35) = (     0          0         -1      )
                  (     1          0         -1      )
                  (     0          1         -1      )

 cart.    s(35) = (  0.0000000  0.0000000 -1.0000000 )
                  (  0.0000000 -1.0000000  0.0000000 )
                  (  1.0000000  0.0000000  0.0000000 )


      isym = 36     inv.  90 deg rotation - cart. axis [0,-1,0]  

 cryst.   s(36) = (    -1          1          0      )
                  (    -1          0          1      )
                  (    -1          0          0      )

 cart.    s(36) = (  0.0000000  0.0000000  1.0000000 )
                  (  0.0000000 -1.0000000  0.0000000 )
                  ( -1.0000000  0.0000000  0.0000000 )


      isym = 37     inv. 180 deg rotation - cart. axis [0,1,1]   

 cryst.   s(37) = (    -1          0          0      )
                  (    -1          1          0      )
                  (    -1          0          1      )

 cart.    s(37) = (  1.0000000  0.0000000  0.0000000 )
                  (  0.0000000  0.0000000 -1.0000000 )
                  (  0.0000000 -1.0000000  0.0000000 )


      isym = 38     inv. 180 deg rotation - cart. axis [0,1,-1]  

 cryst.   s(38) = (     1          0          0      )
                  (     0          0          1      )
                  (     0          1          0      )

 cart.    s(38) = (  1.0000000  0.0000000  0.0000000 )
                  (  0.0000000  0.0000000  1.0000000 )
                  (  0.0000000  1.0000000  0.0000000 )


      isym = 39     inv.  90 deg rotation - cart. axis [-1,0,0]  

 cryst.   s(39) = (     0          1         -1      )
                  (     0          0         -1      )
                  (     1          0         -1      )

 cart.    s(39) = ( -1.0000000  0.0000000  0.0000000 )
                  (  0.0000000  0.0000000 -1.0000000 )
                  (  0.0000000  1.0000000  0.0000000 )


      isym = 40     inv.  90 deg rotation - cart. axis [1,0,0]   

 cryst.   s(40) = (     0         -1          1      )
                  (     1         -1          0      )
                  (     0         -1          0      )

 cart.    s(40) = ( -1.0000000  0.0000000  0.0000000 )
                  (  0.0000000  0.0000000  1.0000000 )
                  (  0.0000000 -1.0000000  0.0000000 )


      isym = 41     inv. 120 deg rotation - cart. axis [-1,-1,-1]

 cryst.   s(41) = (     0          0         -1      )    f =( -0.2500000 )
                  (    -1          0          0      )       ( -0.2500000 )
                  (     0         -1          0      )       ( -0.2500000 )

 cart.    s(41) = (  0.0000000 -1.0000000  0.0000000 )    f =( -0.3535534 )
                  (  0.0000000  0.0000000 -1.0000000 )       ( -0.3535534 )
                  ( -1.0000000  0.0000000  0.0000000 )       ( -0.3535534 )


      isym = 42     inv. 120 deg rotation - cart. axis [-1,1,1]  

 cryst.   s(42) = (    -1          1          0      )    f =( -0.2500000 )
                  (     0          1         -1      )       ( -0.2500000 )
                  (     0          1          0      )       ( -0.2500000 )

 cart.    s(42) = (  0.0000000  1.0000000  0.0000000 )    f =( -0.3535534 )
                  (  0.0000000  0.0000000 -1.0000000 )       ( -0.3535534 )
                  (  1.0000000  0.0000000  0.0000000 )       ( -0.3535534 )


      isym = 43     inv. 120 deg rotation - cart. axis [1,1,-1]  

 cryst.   s(43) = (     1         -1          0      )    f =( -0.2500000 )
                  (     1          0          0      )       ( -0.2500000 )
                  (     1          0         -1      )       ( -0.2500000 )

 cart.    s(43) = (  0.0000000 -1.0000000  0.0000000 )    f =( -0.3535534 )
                  (  0.0000000  0.0000000  1.0000000 )       ( -0.3535534 )
                  (  1.0000000  0.0000000  0.0000000 )       ( -0.3535534 )


      isym = 44     inv. 120 deg rotation - cart. axis [1,-1,1]  

 cryst.   s(44) = (     0          0          1      )    f =( -0.2500000 )
                  (     0         -1          1      )       ( -0.2500000 )
                  (    -1          0          1      )       ( -0.2500000 )

 cart.    s(44) = (  0.0000000  1.0000000  0.0000000 )    f =( -0.3535534 )
                  (  0.0000000  0.0000000  1.0000000 )       ( -0.3535534 )
                  ( -1.0000000  0.0000000  0.0000000 )       ( -0.3535534 )


      isym = 45     inv. 120 deg rotation - cart. axis [1,1,1]   

 cryst.   s(45) = (     0         -1          0      )    f =( -0.2500000 )
                  (     0          0         -1      )       ( -0.2500000 )
                  (    -1          0          0      )       ( -0.2500000 )

 cart.    s(45) = (  0.0000000  0.0000000 -1.0000000 )    f =( -0.3535534 )
                  ( -1.0000000  0.0000000  0.0000000 )       ( -0.3535534 )
                  (  0.0000000 -1.0000000  0.0000000 )       ( -0.3535534 )


      isym = 46     inv. 120 deg rotation - cart. axis [-1,1,-1] 

 cryst.   s(46) = (     1          0         -1      )    f =( -0.2500000 )
                  (     1         -1          0      )       ( -0.2500000 )
                  (     1          0          0      )       ( -0.2500000 )

 cart.    s(46) = (  0.0000000  0.0000000 -1.0000000 )    f =( -0.3535534 )
                  (  1.0000000  0.0000000  0.0000000 )       ( -0.3535534 )
                  (  0.0000000  1.0000000  0.0000000 )       ( -0.3535534 )


      isym = 47     inv. 120 deg rotation - cart. axis [1,-1,-1] 

 cryst.   s(47) = (    -1          0          1      )    f =( -0.2500000 )
                  (     0          0          1      )       ( -0.2500000 )
                  (     0         -1          1      )       ( -0.2500000 )

 cart.    s(47) = (  0.0000000  0.0000000  1.0000000 )    f =( -0.3535534 )
                  (  1.0000000  0.0000000  0.0000000 )       ( -0.3535534 )
                  (  0.0000000 -1.0000000  0.0000000 )       ( -0.3535534 )


      isym = 48     inv. 120 deg rotation - cart. axis [-1,-1,1] 

 cryst.   s(48) = (     0          1          0      )    f =( -0.2500000 )
                  (    -1          1          0      )       ( -0.2500000 )
                  (     0          1         -1      )       ( -0.2500000 )

 cart.    s(48) = (  0.0000000  0.0000000  1.0000000 )    f =( -0.3535534 )
                  ( -1.0000000  0.0000000  0.0000000 )       ( -0.3535534 )
                  (  0.0000000  1.0000000  0.0000000 )       ( -0.3535534 )


   Cartesian axes

     site n.     atom                  positions (alat units)
         1           Sn  tau(   1) = (   0.0000000   0.0000000   0.0000000  )
         2           Sn  tau(   2) = (   0.3535534   0.3535534   0.3535534  )

   Crystallographic axes

     site n.     atom                  positions (cryst. coord.)
         1           Sn  tau(   1) = (  0.0000000  0.0000000  0.0000000  )
         2           Sn  tau(   2) = (  0.2500000  0.2500000  0.2500000  )

     number of k points=   120  gaussian smearing, width (Ry)=  0.0100
                       cart. coord. in units 2pi/alat
        k(    1) = (   0.0000000   0.0000000   0.0000000), wk =   0.0005926
        k(    2) = (   0.0471405   0.0471405  -0.0471405), wk =   0.0047407
        k(    3) = (   0.0942809   0.0942809  -0.0942809), wk =   0.0047407
        k(    4) = (   0.1414214   0.1414214  -0.1414214), wk =   0.0047407
        k(    5) = (   0.1885618   0.1885618  -0.1885618), wk =   0.0047407
        k(    6) = (   0.2357023   0.2357023  -0.2357023), wk =   0.0047407
        k(    7) = (   0.2828427   0.2828427  -0.2828427), wk =   0.0047407
        k(    8) = (   0.3299832   0.3299832  -0.3299832), wk =   0.0047407
        k(    9) = (   0.0942809   0.0000000   0.0000000), wk =   0.0035556
        k(   10) = (   0.1414214   0.0471405  -0.0471405), wk =   0.0142222
        k(   11) = (   0.1885618   0.0942809  -0.0942809), wk =   0.0142222
        k(   12) = (   0.2357023   0.1414214  -0.1414214), wk =   0.0142222
        k(   13) = (   0.2828427   0.1885618  -0.1885618), wk =   0.0142222
        k(   14) = (   0.3299832   0.2357023  -0.2357023), wk =   0.0142222
        k(   15) = (   0.3771236   0.2828427  -0.2828427), wk =   0.0142222
        k(   16) = (  -0.2828427  -0.3771236   0.3771236), wk =   0.0142222
        k(   17) = (  -0.2357023  -0.3299832   0.3299832), wk =   0.0142222
        k(   18) = (  -0.1885618  -0.2828427   0.2828427), wk =   0.0142222
        k(   19) = (  -0.1414214  -0.2357023   0.2357023), wk =   0.0142222
        k(   20) = (  -0.0942809  -0.1885618   0.1885618), wk =   0.0142222
        k(   21) = (  -0.0471405  -0.1414214   0.1414214), wk =   0.0142222
        k(   22) = (   0.0000000  -0.0942809   0.0942809), wk =   0.0071111
        k(   23) = (   0.1885618   0.0000000   0.0000000), wk =   0.0035556
        k(   24) = (   0.2357023   0.0471405  -0.0471405), wk =   0.0142222
        k(   25) = (   0.2828427   0.0942809  -0.0942809), wk =   0.0142222
        k(   26) = (   0.3299832   0.1414214  -0.1414214), wk =   0.0142222
        k(   27) = (   0.3771236   0.1885618  -0.1885618), wk =   0.0142222
        k(   28) = (   0.4242641   0.2357023  -0.2357023), wk =   0.0142222
        k(   29) = (  -0.2357023  -0.4242641   0.4242641), wk =   0.0142222
        k(   30) = (  -0.1885618  -0.3771236   0.3771236), wk =   0.0142222
        k(   31) = (  -0.1414214  -0.3299832   0.3299832), wk =   0.0142222
        k(   32) = (  -0.0942809  -0.2828427   0.2828427), wk =   0.0142222
        k(   33) = (  -0.0471405  -0.2357023   0.2357023), wk =   0.0142222
        k(   34) = (   0.0000000  -0.1885618   0.1885618), wk =   0.0071111
        k(   35) = (   0.2828427   0.0000000   0.0000000), wk =   0.0035556
        k(   36) = (   0.3299832   0.0471405  -0.0471405), wk =   0.0142222
        k(   37) = (   0.3771236   0.0942809  -0.0942809), wk =   0.0142222
        k(   38) = (   0.4242641   0.1414214  -0.1414214), wk =   0.0142222
        k(   39) = (   0.4714045   0.1885618  -0.1885618), wk =   0.0142222
        k(   40) = (  -0.1885618  -0.4714045   0.4714045), wk =   0.0142222
        k(   41) = (  -0.1414214  -0.4242641   0.4242641), wk =   0.0142222
        k(   42) = (  -0.0942809  -0.3771236   0.3771236), wk =   0.0142222
        k(   43) = (  -0.0471405  -0.3299832   0.3299832), wk =   0.0142222
        k(   44) = (   0.0000000  -0.2828427   0.2828427), wk =   0.0071111
        k(   45) = (   0.3771236   0.0000000   0.0000000), wk =   0.0035556
        k(   46) = (   0.4242641   0.0471405  -0.0471405), wk =   0.0142222
        k(   47) = (   0.4714045   0.0942809  -0.0942809), wk =   0.0142222
        k(   48) = (   0.5185450   0.1414214  -0.1414214), wk =   0.0142222
        k(   49) = (  -0.1414214  -0.5185450   0.5185450), wk =   0.0142222
        k(   50) = (  -0.0942809  -0.4714045   0.4714045), wk =   0.0142222
        k(   51) = (  -0.0471405  -0.4242641   0.4242641), wk =   0.0142222
        k(   52) = (  -0.0000000  -0.3771236   0.3771236), wk =   0.0071111
        k(   53) = (   0.4714045   0.0000000   0.0000000), wk =   0.0035556
        k(   54) = (   0.5185450   0.0471405  -0.0471405), wk =   0.0142222
        k(   55) = (   0.5656854   0.0942809  -0.0942809), wk =   0.0142222
        k(   56) = (  -0.0942809  -0.5656854   0.5656854), wk =   0.0142222
        k(   57) = (  -0.0471405  -0.5185450   0.5185450), wk =   0.0142222
        k(   58) = (  -0.0000000  -0.4714045   0.4714045), wk =   0.0071111
        k(   59) = (   0.5656854   0.0000000   0.0000000), wk =   0.0035556
        k(   60) = (   0.6128259   0.0471405  -0.0471405), wk =   0.0142222
        k(   61) = (  -0.0471405  -0.6128259   0.6128259), wk =   0.0142222
        k(   62) = (   0.0000000  -0.5656854   0.5656854), wk =   0.0071111
        k(   63) = (   0.6599663   0.0000000   0.0000000), wk =   0.0035556
        k(   64) = (   0.0000000  -0.6599663   0.6599663), wk =   0.0071111
        k(   65) = (   0.1885618   0.0942809  -0.0000000), wk =   0.0142222
        k(   66) = (   0.2357023   0.1414214  -0.0471405), wk =   0.0284444
        k(   67) = (   0.2828427   0.1885618  -0.0942809), wk =   0.0284444
        k(   68) = (   0.3299832   0.2357023  -0.1414214), wk =   0.0284444
        k(   69) = (   0.3771236   0.2828427  -0.1885618), wk =   0.0284444
        k(   70) = (  -0.2828427  -0.3771236   0.4714045), wk =   0.0284444
        k(   71) = (   0.2828427   0.0942809   0.0000000), wk =   0.0142222
        k(   72) = (   0.3299832   0.1414214  -0.0471405), wk =   0.0284444
        k(   73) = (   0.3771236   0.1885618  -0.0942809), wk =   0.0284444
        k(   74) = (   0.4242641   0.2357023  -0.1414214), wk =   0.0284444
        k(   75) = (  -0.2357023  -0.4242641   0.5185450), wk =   0.0284444
        k(   76) = (  -0.1885618  -0.3771236   0.4714045), wk =   0.0284444
        k(   77) = (  -0.1414214  -0.3299832   0.4242641), wk =   0.0284444
        k(   78) = (  -0.0942809  -0.2828427   0.3771236), wk =   0.0284444
        k(   79) = (  -0.0471405  -0.2357023   0.3299832), wk =   0.0284444
        k(   80) = (   0.0000000  -0.1885618   0.2828427), wk =   0.0142222
        k(   81) = (   0.3771236   0.0942809   0.0000000), wk =   0.0142222
        k(   82) = (   0.4242641   0.1414214  -0.0471405), wk =   0.0284444
        k(   83) = (   0.4714045   0.1885618  -0.0942809), wk =   0.0284444
        k(   84) = (  -0.1885618  -0.4714045   0.5656854), wk =   0.0284444
        k(   85) = (  -0.1414214  -0.4242641   0.5185450), wk =   0.0284444
        k(   86) = (  -0.0942809  -0.3771236   0.4714045), wk =   0.0284444
        k(   87) = (  -0.0471405  -0.3299832   0.4242641), wk =   0.0284444
        k(   88) = (   0.0000000  -0.2828427   0.3771236), wk =   0.0142222
        k(   89) = (   0.4714045   0.0942809  -0.0000000), wk =   0.0142222
        k(   90) = (   0.5185450   0.1414214  -0.0471405), wk =   0.0284444
        k(   91) = (  -0.1414214  -0.5185450   0.6128259), wk =   0.0284444
        k(   92) = (  -0.0942809  -0.4714045   0.5656854), wk =   0.0284444
        k(   93) = (  -0.0471405  -0.4242641   0.5185450), wk =   0.0284444
        k(   94) = (  -0.0000000  -0.3771236   0.4714045), wk =   0.0142222
        k(   95) = (   0.5656854   0.0942809   0.0000000), wk =   0.0142222
        k(   96) = (  -0.0942809  -0.5656854   0.6599663), wk =   0.0284444
        k(   97) = (  -0.0471405  -0.5185450   0.6128259), wk =   0.0284444
        k(   98) = (   0.0000000  -0.4714045   0.5656854), wk =   0.0142222
        k(   99) = (  -0.0471405  -0.6128259   0.7071068), wk =   0.0142222
        k(  100) = (   0.0000000  -0.5656854   0.6599663), wk =   0.0142222
        k(  101) = (   0.3771236   0.1885618  -0.0000000), wk =   0.0142222
        k(  102) = (   0.4242641   0.2357023  -0.0471405), wk =   0.0284444
        k(  103) = (  -0.2357023  -0.4242641   0.6128259), wk =   0.0284444
        k(  104) = (  -0.1885618  -0.3771236   0.5656854), wk =   0.0284444
        k(  105) = (   0.4714045   0.1885618  -0.0000000), wk =   0.0142222
        k(  106) = (  -0.1885618  -0.4714045   0.6599663), wk =   0.0284444
        k(  107) = (  -0.1414214  -0.4242641   0.6128259), wk =   0.0284444
        k(  108) = (  -0.0942809  -0.3771236   0.5656854), wk =   0.0284444
        k(  109) = (  -0.0471405  -0.3299832   0.5185450), wk =   0.0284444
        k(  110) = (   0.0000000  -0.2828427   0.4714045), wk =   0.0142222
        k(  111) = (  -0.1414214  -0.5185450   0.7071068), wk =   0.0142222
        k(  112) = (  -0.0942809  -0.4714045   0.6599663), wk =   0.0284444
        k(  113) = (  -0.0471405  -0.4242641   0.6128259), wk =   0.0284444
        k(  114) = (   0.0000000  -0.3771236   0.5656854), wk =   0.0142222
        k(  115) = (  -0.0471405  -0.5185450   0.7071068), wk =   0.0142222
        k(  116) = (   0.0000000  -0.4714045   0.6599663), wk =   0.0142222
        k(  117) = (  -0.1414214  -0.4242641   0.7071068), wk =   0.0142222
        k(  118) = (  -0.0942809  -0.3771236   0.6599663), wk =   0.0284444
        k(  119) = (  -0.0471405  -0.4242641   0.7071068), wk =   0.0142222
        k(  120) = (  -0.0000000  -0.3771236   0.6599663), wk =   0.0142222

                       cryst. coord.
        k(    1) = (   0.0000000   0.0000000   0.0000000), wk =   0.0005926
        k(    2) = (   0.0000000   0.0000000   0.0666667), wk =   0.0047407
        k(    3) = (   0.0000000   0.0000000   0.1333333), wk =   0.0047407
        k(    4) = (   0.0000000   0.0000000   0.2000000), wk =   0.0047407
        k(    5) = (   0.0000000   0.0000000   0.2666667), wk =   0.0047407
        k(    6) = (   0.0000000   0.0000000   0.3333333), wk =   0.0047407
        k(    7) = (   0.0000000   0.0000000   0.4000000), wk =   0.0047407
        k(    8) = (   0.0000000   0.0000000   0.4666667), wk =   0.0047407
        k(    9) = (   0.0000000   0.0666667   0.0666667), wk =   0.0035556
        k(   10) = (   0.0000000   0.0666667   0.1333333), wk =   0.0142222
        k(   11) = (   0.0000000   0.0666667   0.2000000), wk =   0.0142222
        k(   12) = (   0.0000000   0.0666667   0.2666667), wk =   0.0142222
        k(   13) = (   0.0000000   0.0666667   0.3333333), wk =   0.0142222
        k(   14) = (   0.0000000   0.0666667   0.4000000), wk =   0.0142222
        k(   15) = (   0.0000000   0.0666667   0.4666667), wk =   0.0142222
        k(   16) = (   0.0000000   0.0666667  -0.4666667), wk =   0.0142222
        k(   17) = (   0.0000000   0.0666667  -0.4000000), wk =   0.0142222
        k(   18) = (   0.0000000   0.0666667  -0.3333333), wk =   0.0142222
        k(   19) = (   0.0000000   0.0666667  -0.2666667), wk =   0.0142222
        k(   20) = (   0.0000000   0.0666667  -0.2000000), wk =   0.0142222
        k(   21) = (   0.0000000   0.0666667  -0.1333333), wk =   0.0142222
        k(   22) = (   0.0000000   0.0666667  -0.0666667), wk =   0.0071111
        k(   23) = (   0.0000000   0.1333333   0.1333333), wk =   0.0035556
        k(   24) = (   0.0000000   0.1333333   0.2000000), wk =   0.0142222
        k(   25) = (   0.0000000   0.1333333   0.2666667), wk =   0.0142222
        k(   26) = (   0.0000000   0.1333333   0.3333333), wk =   0.0142222
        k(   27) = (   0.0000000   0.1333333   0.4000000), wk =   0.0142222
        k(   28) = (   0.0000000   0.1333333   0.4666667), wk =   0.0142222
        k(   29) = (   0.0000000   0.1333333  -0.4666667), wk =   0.0142222
        k(   30) = (   0.0000000   0.1333333  -0.4000000), wk =   0.0142222
        k(   31) = (   0.0000000   0.1333333  -0.3333333), wk =   0.0142222
        k(   32) = (   0.0000000   0.1333333  -0.2666667), wk =   0.0142222
        k(   33) = (   0.0000000   0.1333333  -0.2000000), wk =   0.0142222
        k(   34) = (   0.0000000   0.1333333  -0.1333333), wk =   0.0071111
        k(   35) = (   0.0000000   0.2000000   0.2000000), wk =   0.0035556
        k(   36) = (   0.0000000   0.2000000   0.2666667), wk =   0.0142222
        k(   37) = (   0.0000000   0.2000000   0.3333333), wk =   0.0142222
        k(   38) = (   0.0000000   0.2000000   0.4000000), wk =   0.0142222
        k(   39) = (   0.0000000   0.2000000   0.4666667), wk =   0.0142222
        k(   40) = (   0.0000000   0.2000000  -0.4666667), wk =   0.0142222
        k(   41) = (   0.0000000   0.2000000  -0.4000000), wk =   0.0142222
        k(   42) = (   0.0000000   0.2000000  -0.3333333), wk =   0.0142222
        k(   43) = (   0.0000000   0.2000000  -0.2666667), wk =   0.0142222
        k(   44) = (   0.0000000   0.2000000  -0.2000000), wk =   0.0071111
        k(   45) = (   0.0000000   0.2666667   0.2666667), wk =   0.0035556
        k(   46) = (   0.0000000   0.2666667   0.3333333), wk =   0.0142222
        k(   47) = (   0.0000000   0.2666667   0.4000000), wk =   0.0142222
        k(   48) = (   0.0000000   0.2666667   0.4666667), wk =   0.0142222
        k(   49) = (   0.0000000   0.2666667  -0.4666667), wk =   0.0142222
        k(   50) = (   0.0000000   0.2666667  -0.4000000), wk =   0.0142222
        k(   51) = (   0.0000000   0.2666667  -0.3333333), wk =   0.0142222
        k(   52) = (   0.0000000   0.2666667  -0.2666667), wk =   0.0071111
        k(   53) = (   0.0000000   0.3333333   0.3333333), wk =   0.0035556
        k(   54) = (   0.0000000   0.3333333   0.4000000), wk =   0.0142222
        k(   55) = (   0.0000000   0.3333333   0.4666667), wk =   0.0142222
        k(   56) = (   0.0000000   0.3333333  -0.4666667), wk =   0.0142222
        k(   57) = (   0.0000000   0.3333333  -0.4000000), wk =   0.0142222
        k(   58) = (   0.0000000   0.3333333  -0.3333333), wk =   0.0071111
        k(   59) = (   0.0000000   0.4000000   0.4000000), wk =   0.0035556
        k(   60) = (   0.0000000   0.4000000   0.4666667), wk =   0.0142222
        k(   61) = (   0.0000000   0.4000000  -0.4666667), wk =   0.0142222
        k(   62) = (   0.0000000   0.4000000  -0.4000000), wk =   0.0071111
        k(   63) = (   0.0000000   0.4666667   0.4666667), wk =   0.0035556
        k(   64) = (   0.0000000   0.4666667  -0.4666667), wk =   0.0071111
        k(   65) = (   0.0666667   0.1333333   0.2000000), wk =   0.0142222
        k(   66) = (   0.0666667   0.1333333   0.2666667), wk =   0.0284444
        k(   67) = (   0.0666667   0.1333333   0.3333333), wk =   0.0284444
        k(   68) = (   0.0666667   0.1333333   0.4000000), wk =   0.0284444
        k(   69) = (   0.0666667   0.1333333   0.4666667), wk =   0.0284444
        k(   70) = (   0.0666667   0.1333333  -0.4666667), wk =   0.0284444
        k(   71) = (   0.0666667   0.2000000   0.2666667), wk =   0.0142222
        k(   72) = (   0.0666667   0.2000000   0.3333333), wk =   0.0284444
        k(   73) = (   0.0666667   0.2000000   0.4000000), wk =   0.0284444
        k(   74) = (   0.0666667   0.2000000   0.4666667), wk =   0.0284444
        k(   75) = (   0.0666667   0.2000000  -0.4666667), wk =   0.0284444
        k(   76) = (   0.0666667   0.2000000  -0.4000000), wk =   0.0284444
        k(   77) = (   0.0666667   0.2000000  -0.3333333), wk =   0.0284444
        k(   78) = (   0.0666667   0.2000000  -0.2666667), wk =   0.0284444
        k(   79) = (   0.0666667   0.2000000  -0.2000000), wk =   0.0284444
        k(   80) = (   0.0666667   0.2000000  -0.1333333), wk =   0.0142222
        k(   81) = (   0.0666667   0.2666667   0.3333333), wk =   0.0142222
        k(   82) = (   0.0666667   0.2666667   0.4000000), wk =   0.0284444
        k(   83) = (   0.0666667   0.2666667   0.4666667), wk =   0.0284444
        k(   84) = (   0.0666667   0.2666667  -0.4666667), wk =   0.0284444
        k(   85) = (   0.0666667   0.2666667  -0.4000000), wk =   0.0284444
        k(   86) = (   0.0666667   0.2666667  -0.3333333), wk =   0.0284444
        k(   87) = (   0.0666667   0.2666667  -0.2666667), wk =   0.0284444
        k(   88) = (   0.0666667   0.2666667  -0.2000000), wk =   0.0142222
        k(   89) = (   0.0666667   0.3333333   0.4000000), wk =   0.0142222
        k(   90) = (   0.0666667   0.3333333   0.4666667), wk =   0.0284444
        k(   91) = (   0.0666667   0.3333333  -0.4666667), wk =   0.0284444
        k(   92) = (   0.0666667   0.3333333  -0.4000000), wk =   0.0284444
        k(   93) = (   0.0666667   0.3333333  -0.3333333), wk =   0.0284444
        k(   94) = (   0.0666667   0.3333333  -0.2666667), wk =   0.0142222
        k(   95) = (   0.0666667   0.4000000   0.4666667), wk =   0.0142222
        k(   96) = (   0.0666667   0.4000000  -0.4666667), wk =   0.0284444
        k(   97) = (   0.0666667   0.4000000  -0.4000000), wk =   0.0284444
        k(   98) = (   0.0666667   0.4000000  -0.3333333), wk =   0.0142222
        k(   99) = (   0.0666667   0.4666667  -0.4666667), wk =   0.0142222
        k(  100) = (   0.0666667   0.4666667  -0.4000000), wk =   0.0142222
        k(  101) = (   0.1333333   0.2666667   0.4000000), wk =   0.0142222
        k(  102) = (   0.1333333   0.2666667   0.4666667), wk =   0.0284444
        k(  103) = (   0.1333333   0.2666667  -0.4666667), wk =   0.0284444
        k(  104) = (   0.1333333   0.2666667  -0.4000000), wk =   0.0284444
        k(  105) = (   0.1333333   0.3333333   0.4666667), wk =   0.0142222
        k(  106) = (   0.1333333   0.3333333  -0.4666667), wk =   0.0284444
        k(  107) = (   0.1333333   0.3333333  -0.4000000), wk =   0.0284444
        k(  108) = (   0.1333333   0.3333333  -0.3333333), wk =   0.0284444
        k(  109) = (   0.1333333   0.3333333  -0.2666667), wk =   0.0284444
        k(  110) = (   0.1333333   0.3333333  -0.2000000), wk =   0.0142222
        k(  111) = (   0.1333333   0.4000000  -0.4666667), wk =   0.0142222
        k(  112) = (   0.1333333   0.4000000  -0.4000000), wk =   0.0284444
        k(  113) = (   0.1333333   0.4000000  -0.3333333), wk =   0.0284444
        k(  114) = (   0.1333333   0.4000000  -0.2666667), wk =   0.0142222
        k(  115) = (   0.1333333   0.4666667  -0.4000000), wk =   0.0142222
        k(  116) = (   0.1333333   0.4666667  -0.3333333), wk =   0.0142222
        k(  117) = (   0.2000000   0.4000000  -0.4000000), wk =   0.0142222
        k(  118) = (   0.2000000   0.4000000  -0.3333333), wk =   0.0284444
        k(  119) = (   0.2000000   0.4666667  -0.3333333), wk =   0.0142222
        k(  120) = (   0.2000000   0.4666667  -0.2666667), wk =   0.0142222

     Dense  grid:    88275 G-vectors     FFT dimensions: (  64,  64,  64)

     Largest allocated arrays     est. size (Mb)     dimensions
        Kohn-Sham Wavefunctions         0.19 Mb     (     705,   18)
        NL pseudopotentials             0.39 Mb     (     705,   36)
        Each V/rho on FFT grid          0.25 Mb     (   16384)
        Each G-vector array             0.04 Mb     (    5517)
        G-vector shells                 0.00 Mb     (     625)
     Largest temporary arrays     est. size (Mb)     dimensions
        Auxiliary wavefunctions         0.77 Mb     (     705,   72)
        Each subspace H/S matrix        0.08 Mb     (      72,   72)
        Each <psi_i|beta_j> matrix      0.01 Mb     (      36,   18)
        Arrays for rho mixing           2.00 Mb     (   16384,    8)

     Initial potential from superposition of free atoms

     starting charge   27.82601, renormalised to   28.00000
     Starting wfc are random

     total cpu time spent up to now is       34.6 secs

     Self-consistent Calculation

     iteration #  1     ecut=   120.00 Ry     beta=0.70
     Davidson diagonalization with overlap
     ethr =  1.00E-02,  avg # of iterations =  7.0

     total cpu time spent up to now is      214.7 secs

     total energy              =    -233.14079682 Ry
     Harris-Foulkes estimate   =    -234.57580510 Ry
     estimated scf accuracy    <       2.29078674 Ry

     iteration #  2     ecut=   120.00 Ry     beta=0.70
     Davidson diagonalization with overlap
     ethr =  8.18E-03,  avg # of iterations =  2.0

     total cpu time spent up to now is      303.7 secs

     total energy              =    -233.44540875 Ry
     Harris-Foulkes estimate   =    -233.46946213 Ry
     estimated scf accuracy    <       0.06210479 Ry

     iteration #  3     ecut=   120.00 Ry     beta=0.70
     Davidson diagonalization with overlap
     ethr =  2.22E-04,  avg # of iterations =  2.2

     total cpu time spent up to now is      362.1 secs

     total energy              =    -233.44829607 Ry
     Harris-Foulkes estimate   =    -233.44913322 Ry
     estimated scf accuracy    <       0.00284182 Ry

     iteration #  4     ecut=   120.00 Ry     beta=0.70
     Davidson diagonalization with overlap
     ethr =  1.01E-05,  avg # of iterations =  2.0

     total cpu time spent up to now is      399.6 secs

     total energy              =    -233.44844240 Ry
     Harris-Foulkes estimate   =    -233.44844017 Ry
     estimated scf accuracy    <       0.00002903 Ry

     iteration #  5     ecut=   120.00 Ry     beta=0.70
     Davidson diagonalization with overlap
     ethr =  1.04E-07,  avg # of iterations =  2.4

     total cpu time spent up to now is      459.5 secs

     End of self-consistent calculation

          k = 0.0000 0.0000 0.0000 ( 11017 PWs)   bands (ev):

   -12.3733 -12.3733 -12.3733 -12.3216 -12.3216 -12.1093 -12.1093 -12.1093
   -12.0995 -12.0995  -2.3995   5.2269   8.6188   8.6188   8.6188  10.8767
    10.8767  10.8768

     occupation numbers 
     1.0000   1.0000   1.0000   1.0000   1.0000   1.0000   1.0000   1.0000
     1.0000   1.0000   1.0000   1.0000   0.0007   0.0007   0.0007   0.0000
     0.0000   0.0000

          k = 0.0471 0.0471-0.0471 ( 11041 PWs)   bands (ev):

   -12.3756 -12.3756 -12.3725 -12.3183 -12.3183 -12.1150 -12.1150 -12.1103
   -12.0943 -12.0943  -2.3618   5.0395   8.5388   8.5388   8.5886  10.9706
    10.9797  10.9797

     occupation numbers 
     1.0000   1.0000   1.0000   1.0000   1.0000   1.0000   1.0000   1.0000
     1.0000   1.0000   1.0000   1.0000   0.0095   0.0095   0.0021   0.0000
     0.0000   0.0000

          k = 0.0943 0.0943-0.0943 ( 11068 PWs)   bands (ev):

   -12.3809 -12.3809 -12.3703 -12.3105 -12.3105 -12.1238 -12.1238 -12.1134
   -12.0871 -12.0871  -2.2497   4.5534   8.3437   8.3437   8.4687  11.2335
    11.2335  11.3050

     occupation numbers 
     1.0000   1.0000   1.0000   1.0000   1.0000   1.0000   1.0000   1.0000
     1.0000   1.0000   1.0000   1.0000   0.3752   0.3752   0.0530   0.0000
     0.0000   0.0000

          k = 0.1414 0.1414-0.1414 ( 11086 PWs)   bands (ev):

   -12.3867 -12.3867 -12.3669 -12.3012 -12.3012 -12.1321 -12.1321 -12.1179
   -12.0810 -12.0810  -2.0680   3.9091   8.1103   8.1103   8.2725  11.5338
    11.5338  11.8874

     occupation numbers 
     1.0000   1.0000   1.0000   1.0000   1.0000   1.0000   1.0000   1.0000
     1.0000   1.0000   1.0000   1.0000   0.9825   0.9825   0.6635   0.0000
     0.0000   0.0000

          k = 0.1886 0.1886-0.1886 ( 11062 PWs)   bands (ev):

   -12.3916 -12.3916 -12.3630 -12.2926 -12.2926 -12.1388 -12.1388 -12.1232
   -12.0764 -12.0764  -1.8262   3.2189   7.8899   7.8899   8.0637  11.7951
    11.7951  12.6484

     occupation numbers 
     1.0000   1.0000   1.0000   1.0000   1.0000   1.0000   1.0000   1.0000
     1.0000   1.0000   1.0000   1.0000   1.0000   1.0000   0.9952   0.0000
     0.0000   0.0000

          k = 0.2357 0.2357-0.2357 ( 11072 PWs)   bands (ev):

   -12.3952 -12.3952 -12.3591 -12.2858 -12.2858 -12.1436 -12.1436 -12.1284
   -12.0732 -12.0732  -1.5449   2.5641   7.7099   7.7099   7.8869  11.9730
    11.9730  13.5162

     occupation numbers 
     1.0000   1.0000   1.0000   1.0000   1.0000   1.0000   1.0000   1.0000
     1.0000   1.0000   1.0000   1.0000   1.0000   1.0000   1.0000   0.0000
     0.0000   0.0000

          k = 0.2828 0.2828-0.2828 ( 11081 PWs)   bands (ev):

   -12.3975 -12.3975 -12.3560 -12.2815 -12.2815 -12.1464 -12.1464 -12.1325
   -12.0713 -12.0713  -1.2673   2.0225   7.5842   7.5842   7.7626  12.0681
    12.0681  14.3210

     occupation numbers 
     1.0000   1.0000   1.0000   1.0000   1.0000   1.0000   1.0000   1.0000
     1.0000   1.0000   1.0000   1.0000   1.0000   1.0000   1.0000   0.0000
     0.0000   0.0000

          k = 0.3300 0.3300-0.3300 ( 11066 PWs)   bands (ev):

   -12.3986 -12.3986 -12.3542 -12.2794 -12.2794 -12.1476 -12.1476 -12.1348
   -12.0704 -12.0704  -1.0777   1.6969   7.5198   7.5198   7.6991  12.1055
    12.1056  14.5150

     occupation numbers 
     1.0000   1.0000   1.0000   1.0000   1.0000   1.0000   1.0000   1.0000
     1.0000   1.0000   1.0000   1.0000   1.0000   1.0000   1.0000   0.0000
     0.0000   0.0000

          k = 0.0943 0.0000 0.0000 ( 11062 PWs)   bands (ev):

   -12.3751 -12.3751 -12.3748 -12.3191 -12.3152 -12.1244 -12.1067 -12.1067
   -12.1019 -12.0902  -2.3491   4.9843   8.4000   8.4000   8.8359  10.6846
    11.1585  11.1585

     occupation numbers 
     1.0000   1.0000   1.0000   1.0000   1.0000   1.0000   1.0000   1.0000
     1.0000   1.0000   1.0000   1.0000   0.1832   0.1832   0.0000   0.0000
     0.0000   0.0000

          k = 0.1414 0.0471-0.0471 ( 11073 PWs)   bands (ev):

   -12.3807 -12.3787 -12.3727 -12.3140 -12.3072 -12.1349 -12.1133 -12.1067
   -12.0957 -12.0846  -2.2615   4.6144   8.1654   8.1768   8.9455  10.6617
    11.4605  11.4905

     occupation numbers 
     1.0000   1.0000   1.0000   1.0000   1.0000   1.0000   1.0000   1.0000
     1.0000   1.0000   1.0000   1.0000   0.9376   0.9217   0.0000   0.0000
     0.0000   0.0000

          k = 0.1886 0.0943-0.0943 ( 11087 PWs)   bands (ev):

   -12.3874 -12.3840 -12.3687 -12.3059 -12.2974 -12.1444 -12.1221 -12.1105
   -12.0882 -12.0784  -2.1023   4.0428   7.8675   7.9387   8.8925  10.9005
    11.7878  11.9587

     occupation numbers 
     1.0000   1.0000   1.0000   1.0000   1.0000   1.0000   1.0000   1.0000
     1.0000   1.0000   1.0000   1.0000   1.0000   1.0000   0.0000   0.0000
     0.0000   0.0000

          k = 0.2357 0.1414-0.1414 ( 11086 PWs)   bands (ev):

   -12.3935 -12.3892 -12.3636 -12.2972 -12.2880 -12.1520 -12.1302 -12.1167
   -12.0820 -12.0729  -1.8790   3.3850   7.5657   7.7278   8.7486  11.2628
    12.0595  12.5337

     occupation numbers 
     1.0000   1.0000   1.0000   1.0000   1.0000   1.0000   1.0000   1.0000
     1.0000   1.0000   1.0000   1.0000   1.0000   1.0000   0.0000   0.0000
     0.0000   0.0000

          k = 0.2828 0.1886-0.1886 ( 11076 PWs)   bands (ev):

   -12.3982 -12.3935 -12.3581 -12.2894 -12.2808 -12.1565 -12.1371 -12.1240
   -12.0771 -12.0688  -1.6075   2.7291   7.3046   7.5664   8.5866  11.5919
    12.2280  13.2086

     occupation numbers 
     1.0000   1.0000   1.0000   1.0000   1.0000   1.0000   1.0000   1.0000
     1.0000   1.0000   1.0000   1.0000   1.0000   1.0000   0.0022   0.0000
     0.0000   0.0000

          k = 0.3300 0.2357-0.2357 ( 11065 PWs)   bands (ev):

   -12.4014 -12.3966 -12.3530 -12.2831 -12.2768 -12.1575 -12.1429 -12.1310
   -12.0734 -12.0663  -1.3211   2.1516   7.1044   7.4659   8.4482  11.8156
    12.2911  13.9349

     occupation numbers 
     1.0000   1.0000   1.0000   1.0000   1.0000   1.0000   1.0000   1.0000
     1.0000   1.0000   1.0000   1.0000   1.0000   1.0000   0.0801   0.0000
     0.0000   0.0000

          k = 0.3771 0.2828-0.2828 ( 11063 PWs)   bands (ev):

   -12.4029 -12.3987 -12.3495 -12.2786 -12.2759 -12.1551 -12.1476 -12.1367
   -12.0706 -12.0654  -1.0890   1.7461   6.9737   7.4312   8.3535  11.9510
    12.2777  14.4402

     occupation numbers 
     1.0000   1.0000   1.0000   1.0000   1.0000   1.0000   1.0000   1.0000
     1.0000   1.0000   1.0000   1.0000   1.0000   1.0000   0.3371   0.0000
     0.0000   0.0000

          k =-0.2828-0.3771 0.3771 ( 11073 PWs)   bands (ev):

   -12.4029 -12.3998 -12.3483 -12.2774 -12.2759 -12.1512 -12.1503 -12.1401
   -12.0687 -12.0661  -1.0180   1.6311   6.9165   7.4634   8.3117  12.0358
    12.2167  14.5471

     occupation numbers 
     1.0000   1.0000   1.0000   1.0000   1.0000   1.0000   1.0000   1.0000
     1.0000   1.0000   1.0000   1.0000   1.0000   1.0000   0.5060   0.0000
     0.0000   0.0000

          k =-0.2357-0.3300 0.3300 ( 11061 PWs)   bands (ev):

   -12.4014 -12.3998 -12.3497 -12.2808 -12.2754 -12.1534 -12.1461 -12.1385
   -12.0684 -12.0678  -1.1546   1.8560   6.9355   7.5601   8.3251  12.0830
    12.1176  14.3618

     occupation numbers 
     1.0000   1.0000   1.0000   1.0000   1.0000   1.0000   1.0000   1.0000
     1.0000   1.0000   1.0000   1.0000   1.0000   1.0000   0.4506   0.0000
     0.0000   0.0000

          k =-0.1886-0.2828 0.2828 ( 11083 PWs)   bands (ev):

   -12.3985 -12.3984 -12.3534 -12.2857 -12.2779 -12.1531 -12.1438 -12.1312
   -12.0722 -12.0683  -1.4157   2.3317   7.0331   7.7155   8.3906  11.9699
    12.0671  13.7091

     occupation numbers 
     1.0000   1.0000   1.0000   1.0000   1.0000   1.0000   1.0000   1.0000
     1.0000   1.0000   1.0000   1.0000   1.0000   1.0000   0.2102   0.0000
     0.0000   0.0000

          k =-0.1414-0.2357 0.2357 ( 11077 PWs)   bands (ev):

   -12.3957 -12.3941 -12.3585 -12.2921 -12.2836 -12.1498 -12.1403 -12.1223
   -12.0774 -12.0702  -1.7026   2.9437   7.2106   7.9187   8.4974  11.7568
    11.9195  12.9728

     occupation numbers 
     1.0000   1.0000   1.0000   1.0000   1.0000   1.0000   1.0000   1.0000
     1.0000   1.0000   1.0000   1.0000   1.0000   1.0000   0.0277   0.0000
     0.0000   0.0000

          k =-0.0943-0.1886 0.1886 ( 11078 PWs)   bands (ev):

   -12.3914 -12.3885 -12.3640 -12.2999 -12.2921 -12.1435 -12.1349 -12.1136
   -12.0841 -12.0739  -1.9604   3.6072   7.4678   8.1502   8.6199  11.4834
    11.5820  12.3868

     occupation numbers 
     1.0000   1.0000   1.0000   1.0000   1.0000   1.0000   1.0000   1.0000
     1.0000   1.0000   1.0000   1.0000   1.0000   0.9548   0.0007   0.0000
     0.0000   0.0000

          k =-0.0471-0.1414 0.1414 ( 11087 PWs)   bands (ev):

   -12.3859 -12.3823 -12.3689 -12.3082 -12.3022 -12.1350 -12.1278 -12.1063
   -12.0919 -12.0793  -2.1634   4.2448   7.7982   8.3737   8.7068  11.1879
    11.2002  11.9027

     occupation numbers 
     1.0000   1.0000   1.0000   1.0000   1.0000   1.0000   1.0000   1.0000
     1.0000   1.0000   1.0000   1.0000   1.0000   0.2645   0.0000   0.0000
     0.0000   0.0000

          k = 0.0000-0.0943 0.0943 ( 11067 PWs)   bands (ev):

   -12.3800 -12.3770 -12.3720 -12.3153 -12.3118 -12.1251 -12.1200 -12.1041
   -12.0973 -12.0862  -2.2991   4.7617   8.1792   8.5269   8.6919  10.9623
    11.0000  11.4226

     occupation numbers 
     1.0000   1.0000   1.0000   1.0000   1.0000   1.0000   1.0000   1.0000
     1.0000   1.0000   1.0000   1.0000   0.9180   0.0131   0.0000   0.0000
     0.0000   0.0000

          k = 0.1886 0.0000 0.0000 ( 11078 PWs)   bands (ev):

   -12.3802 -12.3802 -12.3768 -12.3118 -12.2990 -12.1481 -12.1089 -12.0997
   -12.0997 -12.0836  -2.1983   4.3985   7.9415   7.9415   9.3191  10.2958
    11.8030  11.8030

     occupation numbers 
     1.0000   1.0000   1.0000   1.0000   1.0000   1.0000   1.0000   1.0000
     1.0000   1.0000   1.0000   1.0000   0.9999   0.9999   0.0000   0.0000
     0.0000   0.0000

          k = 0.2357 0.0471-0.0471 ( 11093 PWs)   bands (ev):

   -12.3869 -12.3843 -12.3730 -12.3052 -12.2885 -12.1604 -12.1169 -12.0997
   -12.0924 -12.0794  -2.0623   3.9600   7.6507   7.7006   9.4687  10.2697
    12.1691  12.2134

     occupation numbers 
     1.0000   1.0000   1.0000   1.0000   1.0000   1.0000   1.0000   1.0000
     1.0000   1.0000   1.0000   1.0000   1.0000   1.0000   0.0000   0.0000
     0.0000   0.0000

          k = 0.2828 0.0943-0.0943 ( 11083 PWs)   bands (ev):

   -12.3946 -12.3892 -12.3660 -12.2968 -12.2781 -12.1705 -12.1262 -12.1064
   -12.0850 -12.0723  -1.8591   3.3934   7.3003   7.4929   9.4303  10.5543
    12.4774  12.6333

     occupation numbers 
     1.0000   1.0000   1.0000   1.0000   1.0000   1.0000   1.0000   1.0000
     1.0000   1.0000   1.0000   1.0000   1.0000   1.0000   0.0000   0.0000
     0.0000   0.0000

          k = 0.3300 0.1414-0.1414 ( 11096 PWs)   bands (ev):

   -12.4015 -12.3937 -12.3575 -12.2882 -12.2701 -12.1770 -12.1351 -12.1162
   -12.0786 -12.0656  -1.6007   2.7854   6.9617   7.3395   9.3007  10.9904
    12.6699  13.0021

     occupation numbers 
     1.0000   1.0000   1.0000   1.0000   1.0000   1.0000   1.0000   1.0000
     1.0000   1.0000   1.0000   1.0000   1.0000   1.0000   0.0000   0.0000
     0.0000   0.0000

          k = 0.3771 0.1886-0.1886 ( 11067 PWs)   bands (ev):

   -12.4067 -12.3974 -12.3489 -12.2804 -12.2658 -12.1788 -12.1434 -12.1267
   -12.0733 -12.0605  -1.3125   2.2120   6.6804   7.2514   9.1591  11.4033
    12.7326  13.3993

     occupation numbers 
     1.0000   1.0000   1.0000   1.0000   1.0000   1.0000   1.0000   1.0000
     1.0000   1.0000   1.0000   1.0000   1.0000   1.0000   0.0000   0.0000
     0.0000   0.0000

          k = 0.4243 0.2357-0.2357 ( 11053 PWs)   bands (ev):

   -12.4101 -12.4002 -12.3415 -12.2737 -12.2658 -12.1756 -12.1511 -12.1362
   -12.0690 -12.0574  -1.0492   1.7590   6.4752   7.2332   9.0433  11.6931
    12.6923  13.8899

     occupation numbers 
     1.0000   1.0000   1.0000   1.0000   1.0000   1.0000   1.0000   1.0000
     1.0000   1.0000   1.0000   1.0000   1.0000   1.0000   0.0000   0.0000
     0.0000   0.0000

          k =-0.2357-0.4243 0.4243 ( 11065 PWs)   bands (ev):

   -12.4112 -12.4020 -12.3371 -12.2694 -12.2686 -12.1680 -12.1578 -12.1434
   -12.0659 -12.0568  -0.9121   1.5447   6.3549   7.2853   8.9692  11.8758
    12.5841  14.2949

     occupation numbers 
     1.0000   1.0000   1.0000   1.0000   1.0000   1.0000   1.0000   1.0000
     1.0000   1.0000   1.0000   1.0000   1.0000   1.0000   0.0000   0.0000
     0.0000   0.0000

          k =-0.1886-0.3771 0.3771 ( 11070 PWs)   bands (ev):

   -12.4102 -12.4027 -12.3367 -12.2751 -12.2659 -12.1626 -12.1572 -12.1473
   -12.0640 -12.0588  -0.9877   1.6614   6.3257   7.4040   8.9409  11.9997
    12.4267  14.2239

     occupation numbers 
     1.0000   1.0000   1.0000   1.0000   1.0000   1.0000   1.0000   1.0000
     1.0000   1.0000   1.0000   1.0000   1.0000   1.0000   0.0000   0.0000
     0.0000   0.0000

          k =-0.1414-0.3300 0.3300 ( 11061 PWs)   bands (ev):

   -12.4069 -12.4022 -12.3405 -12.2816 -12.2668 -12.1642 -12.1491 -12.1432
   -12.0636 -12.0633  -1.2246   2.0533   6.3943   7.5811   8.9527  12.0620
    12.2185  13.6588

     occupation numbers 
     1.0000   1.0000   1.0000   1.0000   1.0000   1.0000   1.0000   1.0000
     1.0000   1.0000   1.0000   1.0000   1.0000   1.0000   0.0000   0.0000
     0.0000   0.0000

          k =-0.0943-0.2828 0.2828 ( 11064 PWs)   bands (ev):

   -12.4017 -12.4001 -12.3475 -12.2884 -12.2719 -12.1616 -12.1468 -12.1296
   -12.0704 -12.0648  -1.5126   2.5951   6.5694   7.8021   8.9854  11.9534
    11.9677  13.0840

     occupation numbers 
     1.0000   1.0000   1.0000   1.0000   1.0000   1.0000   1.0000   1.0000
     1.0000   1.0000   1.0000   1.0000   1.0000   1.0000   0.0000   0.0000
     0.0000   0.0000

          k =-0.0471-0.2357 0.2357 ( 11088 PWs)   bands (ev):

   -12.3965 -12.3950 -12.3560 -12.2954 -12.2806 -12.1551 -12.1423 -12.1163
   -12.0795 -12.0678  -1.7837   3.1905   6.8607   8.0412   8.9969  11.6388
    11.6486  12.7372

     occupation numbers 
     1.0000   1.0000   1.0000   1.0000   1.0000   1.0000   1.0000   1.0000
     1.0000   1.0000   1.0000   1.0000   1.0000   0.9976   0.0000   0.0000
     0.0000   0.0000

          k = 0.0000-0.1886 0.1886 ( 11095 PWs)   bands (ev):

   -12.3915 -12.3878 -12.3638 -12.3023 -12.2914 -12.1458 -12.1357 -12.1056
   -12.0896 -12.0727  -2.0056   3.7645   7.2742   8.2539   8.9181  11.3081
    11.3654  12.4084

     occupation numbers 
     1.0000   1.0000   1.0000   1.0000   1.0000   1.0000   1.0000   1.0000
     1.0000   1.0000   1.0000   1.0000   1.0000   0.7309   0.0000   0.0000
     0.0000   0.0000

          k = 0.2828 0.0000 0.0000 ( 11066 PWs)   bands (ev):

   -12.3872 -12.3872 -12.3757 -12.2999 -12.2768 -12.1758 -12.1203 -12.0897
   -12.0897 -12.0833  -1.9490   3.6642   7.4569   7.4569   9.7908   9.9155
    12.5880  12.5880

     occupation numbers 
     1.0000   1.0000   1.0000   1.0000   1.0000   1.0000   1.0000   1.0000
     1.0000   1.0000   1.0000   1.0000   1.0000   1.0000   0.0000   0.0000
     0.0000   0.0000

          k = 0.3300 0.0471-0.0471 ( 11081 PWs)   bands (ev):

   -12.3938 -12.3914 -12.3699 -12.2919 -12.2650 -12.1891 -12.1285 -12.0953
   -12.0834 -12.0760  -1.7666   3.2165   7.1655   7.2464   9.8325   9.9870
    12.9463  12.9591

     occupation numbers 
     1.0000   1.0000   1.0000   1.0000   1.0000   1.0000   1.0000   1.0000
     1.0000   1.0000   1.0000   1.0000   1.0000   1.0000   0.0000   0.0000
     0.0000   0.0000

          k = 0.3771 0.0943-0.0943 ( 11089 PWs)   bands (ev):

   -12.4021 -12.3956 -12.3596 -12.2829 -12.2551 -12.1989 -12.1380 -12.1075
   -12.0769 -12.0662  -1.5239   2.6927   6.7991   7.0913   9.7469  10.3714
    13.0997  13.2109

     occupation numbers 
     1.0000   1.0000   1.0000   1.0000   1.0000   1.0000   1.0000   1.0000
     1.0000   1.0000   1.0000   1.0000   1.0000   1.0000   0.0000   0.0000
     0.0000   0.0000

          k = 0.4243 0.1414-0.1414 ( 11082 PWs)   bands (ev):

   -12.4094 -12.3994 -12.3477 -12.2740 -12.2493 -12.2035 -12.1479 -12.1212
   -12.0712 -12.0579  -1.2397   2.1622   6.4458   7.0035   9.6268  10.9074
    13.1635  13.3095

     occupation numbers 
     1.0000   1.0000   1.0000   1.0000   1.0000   1.0000   1.0000   1.0000
     1.0000   1.0000   1.0000   1.0000   1.0000   1.0000   0.0000   0.0000
     0.0000   0.0000

          k = 0.4714 0.1886-0.1886 ( 11064 PWs)   bands (ev):

   -12.4150 -12.4024 -12.3363 -12.2656 -12.2490 -12.2019 -12.1575 -12.1341
   -12.0664 -12.0520  -0.9558   1.7000   6.1596   6.9881   9.5180  11.4343
    13.2711  13.3367

     occupation numbers 
     1.0000   1.0000   1.0000   1.0000   1.0000   1.0000   1.0000   1.0000
     1.0000   1.0000   1.0000   1.0000   1.0000   1.0000   0.0000   0.0000
     0.0000   0.0000

          k =-0.1886-0.4714 0.4714 ( 11066 PWs)   bands (ev):

   -12.4181 -12.4045 -12.3279 -12.2586 -12.2540 -12.1945 -12.1664 -12.1440
   -12.0628 -12.0489  -0.7611   1.4149   5.9658   7.0458   9.4414  11.8156
    13.1339  13.6836

     occupation numbers 
     1.0000   1.0000   1.0000   1.0000   1.0000   1.0000   1.0000   1.0000
     1.0000   1.0000   1.0000   1.0000   1.0000   1.0000   0.0000   0.0000
     0.0000   0.0000

          k =-0.1414-0.4243 0.4243 ( 11061 PWs)   bands (ev):

   -12.4184 -12.4056 -12.3242 -12.2627 -12.2540 -12.1826 -12.1732 -12.1494
   -12.0605 -12.0491  -0.7721   1.4307   5.8788   7.1725   9.3998  12.0476
    12.9247  13.8843

     occupation numbers 
     1.0000   1.0000   1.0000   1.0000   1.0000   1.0000   1.0000   1.0000
     1.0000   1.0000   1.0000   1.0000   1.0000   1.0000   0.0000   0.0000
     0.0000   0.0000

          k =-0.0943-0.3771 0.3771 ( 11055 PWs)   bands (ev):

   -12.4158 -12.4055 -12.3263 -12.2728 -12.2538 -12.1759 -12.1678 -12.1499
   -12.0598 -12.0528  -0.9798   1.7354   5.9115   7.3590   9.3805  12.1909
    12.6508  13.4929

     occupation numbers 
     1.0000   1.0000   1.0000   1.0000   1.0000   1.0000   1.0000   1.0000
     1.0000   1.0000   1.0000   1.0000   1.0000   1.0000   0.0000   0.0000
     0.0000   0.0000

          k =-0.0471-0.3300 0.3300 ( 11070 PWs)   bands (ev):

   -12.4106 -12.4040 -12.3339 -12.2819 -12.2591 -12.1731 -12.1555 -12.1431
   -12.0607 -12.0598  -1.2655   2.1956   6.0779   7.5886   9.3497  12.1859
    12.3179  12.9887

     occupation numbers 
     1.0000   1.0000   1.0000   1.0000   1.0000   1.0000   1.0000   1.0000
     1.0000   1.0000   1.0000   1.0000   1.0000   1.0000   0.0000   0.0000
     0.0000   0.0000

          k = 0.0000-0.2828 0.2828 ( 11073 PWs)   bands (ev):

   -12.4032 -12.4009 -12.3448 -12.2893 -12.2689 -12.1655 -12.1488 -12.1288
   -12.0694 -12.0634  -1.5462   2.7035   6.3922   7.8320   9.2444  11.8970
    11.9591  12.8306

     occupation numbers 
     1.0000   1.0000   1.0000   1.0000   1.0000   1.0000   1.0000   1.0000
     1.0000   1.0000   1.0000   1.0000   1.0000   1.0000   0.0000   0.0000
     0.0000   0.0000

          k = 0.3771 0.0000 0.0000 ( 11086 PWs)   bands (ev):

   -12.3948 -12.3948 -12.3698 -12.2841 -12.2511 -12.2059 -12.1355 -12.0896
   -12.0787 -12.0787  -1.6042   2.8814   7.0295   7.0295   9.6207  10.0369
    13.4155  13.4155

     occupation numbers 
     1.0000   1.0000   1.0000   1.0000   1.0000   1.0000   1.0000   1.0000
     1.0000   1.0000   1.0000   1.0000   1.0000   1.0000   0.0000   0.0000
     0.0000   0.0000

          k = 0.4243 0.0471-0.0471 ( 11097 PWs)   bands (ev):

   -12.4009 -12.3986 -12.3617 -12.2748 -12.2387 -12.2195 -12.1449 -12.1006
   -12.0731 -12.0692  -1.3784   2.4489   6.7620   6.8665   9.6515  10.0788
    13.6078  13.7608

     occupation numbers 
     1.0000   1.0000   1.0000   1.0000   1.0000   1.0000   1.0000   1.0000
     1.0000   1.0000   1.0000   1.0000   1.0000   1.0000   0.0000   0.0000
     0.0000   0.0000

          k = 0.4714 0.0943-0.0943 ( 11070 PWs)   bands (ev):

   -12.4089 -12.4020 -12.3485 -12.2650 -12.2318 -12.2262 -12.1552 -12.1161
   -12.0679 -12.0590  -1.1026   1.9812   6.4023   6.7708   9.7094  10.3769
    13.5105  13.9345

     occupation numbers 
     1.0000   1.0000   1.0000   1.0000   1.0000   1.0000   1.0000   1.0000
     1.0000   1.0000   1.0000   1.0000   1.0000   1.0000   0.0000   0.0000
     0.0000   0.0000

          k = 0.5185 0.1414-0.1414 ( 11056 PWs)   bands (ev):

   -12.4161 -12.4048 -12.3341 -12.2555 -12.2346 -12.2226 -12.1660 -12.1320
   -12.0634 -12.0506  -0.8072   1.5402   6.0545   6.7488   9.6627  10.9759
    13.4051  13.9299

     occupation numbers 
     1.0000   1.0000   1.0000   1.0000   1.0000   1.0000   1.0000   1.0000
     1.0000   1.0000   1.0000   1.0000   1.0000   1.0000   0.0000   0.0000
     0.0000   0.0000

          k =-0.1414-0.5185 0.5185 ( 11070 PWs)   bands (ev):

   -12.4213 -12.4068 -12.3222 -12.2468 -12.2356 -12.2204 -12.1763 -12.1445
   -12.0600 -12.0450  -0.5658   1.2168   5.7853   6.8015   9.6195  11.6465
    13.3922  13.7814

     occupation numbers 
     1.0000   1.0000   1.0000   1.0000   1.0000   1.0000   1.0000   1.0000
     1.0000   1.0000   1.0000   1.0000   1.0000   1.0000   0.0000   0.0000
     0.0000   0.0000

          k =-0.0943-0.4714 0.4714 ( 11074 PWs)   bands (ev):

   -12.4235 -12.4079 -12.3158 -12.2432 -12.2408 -12.2111 -12.1845 -12.1513
   -12.0579 -12.0429  -0.5151   1.1536   5.6309   6.9255   9.6010  12.1954
    13.4580  13.5228

     occupation numbers 
     1.0000   1.0000   1.0000   1.0000   1.0000   1.0000   1.0000   1.0000
     1.0000   1.0000   1.0000   1.0000   1.0000   1.0000   0.0000   0.0000
     0.0000   0.0000

          k =-0.0471-0.4243 0.4243 ( 11064 PWs)   bands (ev):

   -12.4223 -12.4079 -12.3158 -12.2575 -12.2406 -12.1933 -12.1872 -12.1528
   -12.0572 -12.0448  -0.6964   1.3872   5.6157   7.1115   9.5893  12.5172
    13.1724  13.2658

     occupation numbers 
     1.0000   1.0000   1.0000   1.0000   1.0000   1.0000   1.0000   1.0000
     1.0000   1.0000   1.0000   1.0000   1.0000   1.0000   0.0000   0.0000
     0.0000   0.0000

          k =-0.0000-0.3771 0.3771 ( 11072 PWs)   bands (ev):

   -12.4178 -12.4066 -12.3221 -12.2717 -12.2476 -12.1825 -12.1726 -12.1505
   -12.0581 -12.0506  -0.9795   1.7737   5.7599   7.3424   9.5331  12.5615
    12.7529  12.9029

     occupation numbers 
     1.0000   1.0000   1.0000   1.0000   1.0000   1.0000   1.0000   1.0000
     1.0000   1.0000   1.0000   1.0000   1.0000   1.0000   0.0000   0.0000
     0.0000   0.0000

          k = 0.4714 0.0000 0.0000 ( 11078 PWs)   bands (ev):

   -12.4017 -12.4017 -12.3587 -12.2651 -12.2369 -12.2234 -12.1540 -12.1021
   -12.0686 -12.0686  -1.1685   2.0963   6.6923   6.6923   9.4372   9.9980
    14.2243  14.2243

     occupation numbers 
     1.0000   1.0000   1.0000   1.0000   1.0000   1.0000   1.0000   1.0000
     1.0000   1.0000   1.0000   1.0000   1.0000   1.0000   0.0000   0.0000
     0.0000   0.0000

          k = 0.5185 0.0471-0.0471 ( 11057 PWs)   bands (ev):

   -12.4068 -12.4046 -12.3481 -12.2547 -12.2500 -12.2111 -12.1645 -12.1143
   -12.0642 -12.0615  -0.9034   1.6901   6.4629   6.5840   9.5145   9.9884
    14.2621  14.5120

     occupation numbers 
     1.0000   1.0000   1.0000   1.0000   1.0000   1.0000   1.0000   1.0000
     1.0000   1.0000   1.0000   1.0000   1.0000   1.0000   0.0000   0.0000
     0.0000   0.0000

          k = 0.5657 0.0943-0.0943 ( 11037 PWs)   bands (ev):

   -12.4140 -12.4069 -12.3327 -12.2572 -12.2442 -12.2037 -12.1757 -12.1311
   -12.0606 -12.0527  -0.6038   1.2828   6.1292   6.5495   9.6002  10.3352
    14.0636  14.5779

     occupation numbers 
     1.0000   1.0000   1.0000   1.0000   1.0000   1.0000   1.0000   1.0000
     1.0000   1.0000   1.0000   1.0000   1.0000   1.0000   0.0000   0.0000
     0.0000   0.0000

          k =-0.0943-0.5657 0.5657 ( 11054 PWs)   bands (ev):

   -12.4205 -12.4086 -12.3184 -12.2557 -12.2344 -12.2047 -12.1869 -12.1460
   -12.0579 -12.0454  -0.3267   0.9459   5.8109   6.5908   9.6030  11.0115
    13.8574  14.4373

     occupation numbers 
     1.0000   1.0000   1.0000   1.0000   1.0000   1.0000   1.0000   1.0000
     1.0000   1.0000   1.0000   1.0000   1.0000   1.0000   0.0000   0.0000
     0.0000   0.0000

          k =-0.0471-0.5185 0.5185 ( 11055 PWs)   bands (ev):

   -12.4246 -12.4094 -12.3109 -12.2422 -12.2275 -12.2171 -12.1957 -12.1533
   -12.0563 -12.0411  -0.2297   0.8381   5.5894   6.7052   9.6162  11.7929
    13.6292  14.1292

     occupation numbers 
     1.0000   1.0000   1.0000   1.0000   1.0000   1.0000   1.0000   1.0000
     1.0000   1.0000   1.0000   1.0000   1.0000   1.0000   0.0000   0.0000
     0.0000   0.0000

          k =-0.0000-0.4714 0.4714 ( 11082 PWs)   bands (ev):

   -12.4254 -12.4092 -12.3107 -12.2373 -12.2298 -12.2194 -12.1957 -12.1544
   -12.0561 -12.0408  -0.4102   1.0475   5.5136   6.8841   9.6326  12.4700
    13.3067  13.6907

     occupation numbers 
     1.0000   1.0000   1.0000   1.0000   1.0000   1.0000   1.0000   1.0000
     1.0000   1.0000   1.0000   1.0000   1.0000   1.0000   0.0000   0.0000
     0.0000   0.0000

          k = 0.5657 0.0000 0.0000 ( 11054 PWs)   bands (ev):

   -12.4068 -12.4068 -12.3424 -12.2674 -12.2437 -12.1951 -12.1750 -12.1199
   -12.0609 -12.0609  -0.6479   1.3347   6.4609   6.4609   9.3727   9.7972
    14.9331  14.9332

     occupation numbers 
     1.0000   1.0000   1.0000   1.0000   1.0000   1.0000   1.0000   1.0000
     1.0000   1.0000   1.0000   1.0000   1.0000   1.0000   0.0000   0.0000
     0.0000   0.0000

          k = 0.6128 0.0471-0.0471 ( 11039 PWs)   bands (ev):

   -12.4107 -12.4085 -12.3295 -12.2793 -12.2325 -12.1864 -12.1836 -12.1336
   -12.0583 -12.0559  -0.3491   0.9610   6.2797   6.4107   9.4808   9.8101
    14.8895  15.1043

     occupation numbers 
     1.0000   1.0000   1.0000   1.0000   1.0000   1.0000   1.0000   1.0000
     1.0000   1.0000   1.0000   1.0000   1.0000   1.0000   0.0000   0.0000
     0.0000   0.0000

          k =-0.0471-0.6128 0.6128 ( 11041 PWs)   bands (ev):

   -12.4168 -12.4096 -12.3142 -12.2824 -12.2218 -12.1980 -12.1802 -12.1494
   -12.0566 -12.0491  -0.0465   0.6239   5.9903   6.4368   9.5392  10.2754
    14.5939  14.9975

     occupation numbers 
     1.0000   1.0000   1.0000   1.0000   1.0000   1.0000   1.0000   1.0000
     1.0000   1.0000   1.0000   1.0000   1.0000   1.0000   0.0000   0.0000
     0.0000   0.0000

          k = 0.0000-0.5657 0.5657 ( 11062 PWs)   bands (ev):

   -12.4221 -12.4099 -12.3087 -12.2680 -12.2169 -12.2044 -12.1938 -12.1548
   -12.0559 -12.0435   0.0270   0.5542   5.7283   6.5374   9.5734  11.0127
    14.1624  14.6497

     occupation numbers 
     1.0000   1.0000   1.0000   1.0000   1.0000   1.0000   1.0000   1.0000
     1.0000   1.0000   1.0000   1.0000   1.0000   1.0000   0.0000   0.0000
     0.0000   0.0000

          k = 0.6600 0.0000 0.0000 ( 11010 PWs)   bands (ev):

   -12.4095 -12.4095 -12.3212 -12.2959 -12.2208 -12.1976 -12.1676 -12.1421
   -12.0568 -12.0568  -0.0504   0.6144   6.3435   6.3435   9.4247   9.5786
    15.3866  15.3867

     occupation numbers 
     1.0000   1.0000   1.0000   1.0000   1.0000   1.0000   1.0000   1.0000
     1.0000   1.0000   1.0000   1.0000   1.0000   1.0000   0.0000   0.0000
     0.0000   0.0000

          k = 0.0000-0.6600 0.6600 ( 11016 PWs)   bands (ev):

   -12.4121 -12.4099 -12.3089 -12.3035 -12.2101 -12.2087 -12.1599 -12.1546
   -12.0562 -12.0539   0.2475   0.3055   6.2181   6.3523   9.5014   9.7071
    15.1959  15.3454

     occupation numbers 
     1.0000   1.0000   1.0000   1.0000   1.0000   1.0000   1.0000   1.0000
     1.0000   1.0000   1.0000   1.0000   1.0000   1.0000   0.0000   0.0000
     0.0000   0.0000

          k = 0.1886 0.0943-0.0000 ( 11104 PWs)   bands (ev):

   -12.3857 -12.3823 -12.3708 -12.3088 -12.2979 -12.1463 -12.1196 -12.0999
   -12.0970 -12.0793  -2.1499   4.2179   7.7223   8.0986   9.1227  10.6097
    11.6598  12.0022

     occupation numbers 
     1.0000   1.0000   1.0000   1.0000   1.0000   1.0000   1.0000   1.0000
     1.0000   1.0000   1.0000   1.0000   1.0000   0.9871   0.0000   0.0000
     0.0000   0.0000

          k = 0.2357 0.1414-0.0471 ( 11089 PWs)   bands (ev):

   -12.3919 -12.3881 -12.3652 -12.3011 -12.2875 -12.1564 -12.1277 -12.1072
   -12.0875 -12.0733  -1.9687   3.6656   7.3148   7.9341   9.1508  10.8269
    11.9641  12.4474

     occupation numbers 
     1.0000   1.0000   1.0000   1.0000   1.0000   1.0000   1.0000   1.0000
     1.0000   1.0000   1.0000   1.0000   1.0000   1.0000   0.0000   0.0000
     0.0000   0.0000

          k = 0.2828 0.1886-0.0943 ( 11076 PWs)   bands (ev):

   -12.3979 -12.3936 -12.3579 -12.2931 -12.2781 -12.1638 -12.1351 -12.1175
   -12.0791 -12.0681  -1.7273   3.0478   6.9839   7.7326   9.0730  11.2010
    12.2667  12.8323

     occupation numbers 
     1.0000   1.0000   1.0000   1.0000   1.0000   1.0000   1.0000   1.0000
     1.0000   1.0000   1.0000   1.0000   1.0000   1.0000   0.0000   0.0000
     0.0000   0.0000

          k = 0.3300 0.2357-0.1414 ( 11081 PWs)   bands (ev):

   -12.4030 -12.3977 -12.3503 -12.2857 -12.2715 -12.1677 -12.1411 -12.1287
   -12.0727 -12.0641  -1.4455   2.4422   6.7393   7.5488   8.9640  11.5590
    12.4267  13.3149

     occupation numbers 
     1.0000   1.0000   1.0000   1.0000   1.0000   1.0000   1.0000   1.0000
     1.0000   1.0000   1.0000   1.0000   1.0000   1.0000   0.0000   0.0000
     0.0000   0.0000

          k = 0.3771 0.2828-0.1886 ( 11061 PWs)   bands (ev):

   -12.4067 -12.4002 -12.3440 -12.2793 -12.2688 -12.1672 -12.1464 -12.1387
   -12.0685 -12.0613  -1.1655   1.9285   6.5796   7.4137   8.8726  11.7902
    12.4674  13.9068

     occupation numbers 
     1.0000   1.0000   1.0000   1.0000   1.0000   1.0000   1.0000   1.0000
     1.0000   1.0000   1.0000   1.0000   1.0000   1.0000   0.0000   0.0000
     0.0000   0.0000

          k =-0.2828-0.3771 0.4714 ( 11076 PWs)   bands (ev):

   -12.4086 -12.4015 -12.3404 -12.2743 -12.2695 -12.1633 -12.1532 -12.1436
   -12.0666 -12.0598  -0.9725   1.6137   6.5011   7.3427   8.8223  11.8906
    12.4698  14.3612

     occupation numbers 
     1.0000   1.0000   1.0000   1.0000   1.0000   1.0000   1.0000   1.0000
     1.0000   1.0000   1.0000   1.0000   1.0000   1.0000   0.0000   0.0000
     0.0000   0.0000

          k = 0.2828 0.0943 0.0000 ( 11081 PWs)   bands (ev):

   -12.3916 -12.3895 -12.3688 -12.2983 -12.2773 -12.1732 -12.1239 -12.1007
   -12.0869 -12.0751  -1.9035   3.5285   7.2474   7.5756   9.6455  10.2343
    12.4854  12.6260

     occupation numbers 
     1.0000   1.0000   1.0000   1.0000   1.0000   1.0000   1.0000   1.0000
     1.0000   1.0000   1.0000   1.0000   1.0000   1.0000   0.0000   0.0000
     0.0000   0.0000

          k = 0.3300 0.1414-0.0471 ( 11087 PWs)   bands (ev):

   -12.3987 -12.3948 -12.3601 -12.2901 -12.2668 -12.1834 -12.1327 -12.1104
   -12.0786 -12.0684  -1.6806   2.9990   6.8608   7.4100   9.6601  10.5095
    12.7998  12.8631

     occupation numbers 
     1.0000   1.0000   1.0000   1.0000   1.0000   1.0000   1.0000   1.0000
     1.0000   1.0000   1.0000   1.0000   1.0000   1.0000   0.0000   0.0000
     0.0000   0.0000

          k = 0.3771 0.1886-0.0943 ( 11077 PWs)   bands (ev):

   -12.4058 -12.3988 -12.3495 -12.2817 -12.2591 -12.1896 -12.1414 -12.1229
   -12.0718 -12.0615  -1.4083   2.4422   6.5371   7.2483   9.5718  10.9711
    12.9008  13.1252

     occupation numbers 
     1.0000   1.0000   1.0000   1.0000   1.0000   1.0000   1.0000   1.0000
     1.0000   1.0000   1.0000   1.0000   1.0000   1.0000   0.0000   0.0000
     0.0000   0.0000

          k = 0.4243 0.2357-0.1414 ( 11061 PWs)   bands (ev):

   -12.4115 -12.4019 -12.3393 -12.2738 -12.2558 -12.1906 -12.1502 -12.1350
   -12.0670 -12.0558  -1.1185   1.9299   6.2899   7.1384   9.4701  11.4142
    12.9407  13.4101

     occupation numbers 
     1.0000   1.0000   1.0000   1.0000   1.0000   1.0000   1.0000   1.0000
     1.0000   1.0000   1.0000   1.0000   1.0000   1.0000   0.0000   0.0000
     0.0000   0.0000

          k =-0.2357-0.4243 0.5185 ( 11047 PWs)   bands (ev):

   -12.4150 -12.4039 -12.3316 -12.2671 -12.2570 -12.1864 -12.1591 -12.1438
   -12.0639 -12.0524  -0.8804   1.5572   6.1259   7.1007   9.3936  11.7000
    12.9406  13.7904

     occupation numbers 
     1.0000   1.0000   1.0000   1.0000   1.0000   1.0000   1.0000   1.0000
     1.0000   1.0000   1.0000   1.0000   1.0000   1.0000   0.0000   0.0000
     0.0000   0.0000

          k =-0.1886-0.3771 0.4714 ( 11062 PWs)   bands (ev):

[...]
    13.1528  13.3501

     occupation numbers 
     1.0000   1.0000   1.0000   1.0000   1.0000   1.0000   1.0000   1.0000
     1.0000   1.0000   1.0000   1.0000   1.0000   1.0000   0.0000   0.0000
     0.0000   0.0000

          k = 0.4243 0.1414-0.0471 ( 11076 PWs)   bands (ev):

   -12.4057 -12.4012 -12.3512 -12.2744 -12.2430 -12.2122 -12.1466 -12.1157
   -12.0691 -12.0624  -1.3038   2.3035   6.4872   6.9536   9.9055  10.3637
    13.1214  13.6460

     occupation numbers 
     1.0000   1.0000   1.0000   1.0000   1.0000   1.0000   1.0000   1.0000
     1.0000   1.0000   1.0000   1.0000   1.0000   1.0000   0.0000   0.0000
     0.0000   0.0000

          k = 0.4714 0.1886-0.0943 ( 11072 PWs)   bands (ev):

   -12.4132 -12.4043 -12.3378 -12.2653 -12.2382 -12.2159 -12.1568 -12.1305
   -12.0643 -12.0540  -1.0118   1.8254   6.1687   6.8523   9.8202  10.9370
    13.0637  13.7670

     occupation numbers 
     1.0000   1.0000   1.0000   1.0000   1.0000   1.0000   1.0000   1.0000
     1.0000   1.0000   1.0000   1.0000   1.0000   1.0000   0.0000   0.0000
     0.0000   0.0000

          k =-0.1886-0.4714 0.5657 ( 11060 PWs)   bands (ev):

   -12.4186 -12.4065 -12.3259 -12.2571 -12.2393 -12.2130 -12.1672 -12.1431
   -12.0608 -12.0480  -0.7405   1.4308   5.9181   6.8277   9.7529  11.5080
    13.1261  13.7285

     occupation numbers 
     1.0000   1.0000   1.0000   1.0000   1.0000   1.0000   1.0000   1.0000
     1.0000   1.0000   1.0000   1.0000   1.0000   1.0000   0.0000   0.0000
     0.0000   0.0000

          k =-0.1414-0.4243 0.5185 ( 11056 PWs)   bands (ev):

   -12.4213 -12.4078 -12.3185 -12.2525 -12.2432 -12.2055 -12.1759 -12.1506
   -12.0585 -12.0453  -0.6023   1.2454   5.7627   6.8837   9.7161  11.8919
    13.3200  13.5957

     occupation numbers 
     1.0000   1.0000   1.0000   1.0000   1.0000   1.0000   1.0000   1.0000
     1.0000   1.0000   1.0000   1.0000   1.0000   1.0000   0.0000   0.0000
     0.0000   0.0000

          k =-0.0943-0.3771 0.4714 ( 11057 PWs)   bands (ev):

   -12.4208 -12.4081 -12.3174 -12.2593 -12.2435 -12.1966 -12.1770 -12.1529
   -12.0576 -12.0463  -0.6977   1.3726   5.7223   7.0136   9.7028  12.0469
    13.1676  13.5535

     occupation numbers 
     1.0000   1.0000   1.0000   1.0000   1.0000   1.0000   1.0000   1.0000
     1.0000   1.0000   1.0000   1.0000   1.0000   1.0000   0.0000   0.0000
     0.0000   0.0000

          k =-0.0471-0.3300 0.4243 ( 11054 PWs)   bands (ev):

   -12.4172 -12.4072 -12.3229 -12.2703 -12.2463 -12.1916 -12.1644 -12.1512
   -12.0580 -12.0511  -0.9522   1.7299   5.8137   7.2024   9.6849  11.9720
    12.8741  13.3013

     occupation numbers 
     1.0000   1.0000   1.0000   1.0000   1.0000   1.0000   1.0000   1.0000
     1.0000   1.0000   1.0000   1.0000   1.0000   1.0000   0.0000   0.0000
     0.0000   0.0000

          k = 0.0000-0.2828 0.3771 ( 11058 PWs)   bands (ev):

   -12.4109 -12.4049 -12.3337 -12.2798 -12.2547 -12.1848 -12.1489 -12.1444
   -12.0600 -12.0593  -1.2442   2.1785   6.0524   7.4226   9.6049  11.6392
    12.8128  12.9275

     occupation numbers 
     1.0000   1.0000   1.0000   1.0000   1.0000   1.0000   1.0000   1.0000
     1.0000   1.0000   1.0000   1.0000   1.0000   1.0000   0.0000   0.0000
     0.0000   0.0000

          k = 0.4714 0.0943-0.0000 ( 11075 PWs)   bands (ev):

   -12.4041 -12.4041 -12.3523 -12.2650 -12.2329 -12.2263 -12.1547 -12.1110
   -12.0658 -12.0644  -1.1339   2.0383   6.5233   6.7152   9.7333  10.0750
    13.6673  14.1782

     occupation numbers 
     1.0000   1.0000   1.0000   1.0000   1.0000   1.0000   1.0000   1.0000
     1.0000   1.0000   1.0000   1.0000   1.0000   1.0000   0.0000   0.0000
     0.0000   0.0000

          k = 0.5185 0.1414-0.0471 ( 11051 PWs)   bands (ev):

   -12.4117 -12.4068 -12.3378 -12.2550 -12.2416 -12.2173 -12.1655 -12.1270
   -12.0612 -12.0556  -0.8457   1.6082   6.2143   6.6044   9.8500  10.3570
    13.5251  14.3815

     occupation numbers 
     1.0000   1.0000   1.0000   1.0000   1.0000   1.0000   1.0000   1.0000
     1.0000   1.0000   1.0000   1.0000   1.0000   1.0000   0.0000   0.0000
     0.0000   0.0000

          k =-0.1414-0.5185 0.6128 ( 11046 PWs)   bands (ev):

   -12.4186 -12.4089 -12.3226 -12.2459 -12.2434 -12.2141 -12.1767 -12.1428
   -12.0580 -12.0477  -0.5521   1.2184   5.9054   6.5787   9.8311  10.9964
    13.3838  14.3118

     occupation numbers 
     1.0000   1.0000   1.0000   1.0000   1.0000   1.0000   1.0000   1.0000
     1.0000   1.0000   1.0000   1.0000   1.0000   1.0000   0.0000   0.0000
     0.0000   0.0000

          k =-0.0943-0.4714 0.5657 ( 11062 PWs)   bands (ev):

   -12.4232 -12.4101 -12.3121 -12.2402 -12.2349 -12.2194 -12.1870 -12.1530
   -12.0560 -12.0427  -0.3557   0.9802   5.6722   6.6382   9.8224  11.7108
    13.3105  13.9990

     occupation numbers 
     1.0000   1.0000   1.0000   1.0000   1.0000   1.0000   1.0000   1.0000
     1.0000   1.0000   1.0000   1.0000   1.0000   1.0000   0.0000   0.0000
     0.0000   0.0000

          k =-0.0471-0.4243 0.5185 ( 11064 PWs)   bands (ev):

   -12.4247 -12.4103 -12.3091 -12.2412 -12.2287 -12.2202 -12.1918 -12.1561
   -12.0551 -12.0415  -0.4099   1.0462   5.5610   6.7739   9.8291  12.2650
    13.2564  13.5889

     occupation numbers 
     1.0000   1.0000   1.0000   1.0000   1.0000   1.0000   1.0000   1.0000
     1.0000   1.0000   1.0000   1.0000   1.0000   1.0000   0.0000   0.0000
     0.0000   0.0000

          k =-0.0000-0.3771 0.4714 ( 11050 PWs)   bands (ev):

   -12.4226 -12.4094 -12.3130 -12.2563 -12.2350 -12.2046 -12.1836 -12.1547
   -12.0557 -12.0444  -0.6588   1.3509   5.6018   6.9708   9.8106  12.3489
    12.9509  13.4888

     occupation numbers 
     1.0000   1.0000   1.0000   1.0000   1.0000   1.0000   1.0000   1.0000
     1.0000   1.0000   1.0000   1.0000   1.0000   1.0000   0.0000   0.0000
     0.0000   0.0000

          k = 0.5657 0.0943 0.0000 ( 11049 PWs)   bands (ev):

   -12.4092 -12.4090 -12.3363 -12.2627 -12.2439 -12.1990 -12.1755 -12.1270
   -12.0583 -12.0581  -0.6226   1.3063   6.3208   6.4368   9.6463   9.9531
    14.2807  14.8565

     occupation numbers 
     1.0000   1.0000   1.0000   1.0000   1.0000   1.0000   1.0000   1.0000
     1.0000   1.0000   1.0000   1.0000   1.0000   1.0000   0.0000   0.0000
     0.0000   0.0000

          k =-0.0943-0.5657 0.6600 ( 11042 PWs)   bands (ev):

   -12.4156 -12.4106 -12.3199 -12.2692 -12.2333 -12.1922 -12.1871 -12.1439
   -12.0558 -12.0505  -0.3164   0.9335   6.0500   6.3852   9.7737  10.3072
    14.1012  14.8262

     occupation numbers 
     1.0000   1.0000   1.0000   1.0000   1.0000   1.0000   1.0000   1.0000
     1.0000   1.0000   1.0000   1.0000   1.0000   1.0000   0.0000   0.0000
     0.0000   0.0000

          k =-0.0471-0.5185 0.6128 ( 11054 PWs)   bands (ev):

   -12.4215 -12.4115 -12.3072 -12.2647 -12.2240 -12.1987 -12.1957 -12.1562
   -12.0544 -12.0441  -0.0743   0.6670   5.7679   6.4402   9.7943  11.0160
    13.8849  14.4249

     occupation numbers 
     1.0000   1.0000   1.0000   1.0000   1.0000   1.0000   1.0000   1.0000
     1.0000   1.0000   1.0000   1.0000   1.0000   1.0000   0.0000   0.0000
     0.0000   0.0000

          k = 0.0000-0.4714 0.5657 ( 11055 PWs)   bands (ev):

   -12.4248 -12.4114 -12.3051 -12.2458 -12.2244 -12.2121 -12.2013 -12.1583
   -12.0541 -12.0408  -0.1380   0.7420   5.5861   6.5747   9.8256  11.7935
    13.5663  13.9171

     occupation numbers 
     1.0000   1.0000   1.0000   1.0000   1.0000   1.0000   1.0000   1.0000
     1.0000   1.0000   1.0000   1.0000   1.0000   1.0000   0.0000   0.0000
     0.0000   0.0000

          k =-0.0471-0.6128 0.7071 ( 11041 PWs)   bands (ev):

   -12.4118 -12.4117 -12.3155 -12.2906 -12.2212 -12.1980 -12.1725 -12.1480
   -12.0544 -12.0544  -0.0380   0.6092   6.2373   6.2761   9.6693   9.7860
    14.8780  15.1529

     occupation numbers 
     1.0000   1.0000   1.0000   1.0000   1.0000   1.0000   1.0000   1.0000
     1.0000   1.0000   1.0000   1.0000   1.0000   1.0000   0.0000   0.0000
     0.0000   0.0000

          k = 0.0000-0.5657 0.6600 ( 11039 PWs)   bands (ev):

   -12.4170 -12.4120 -12.3035 -12.2889 -12.2123 -12.2080 -12.1738 -12.1596
   -12.0539 -12.0487   0.1965   0.3716   5.9954   6.3104   9.7476  10.2753
    14.5667  14.7715

     occupation numbers 
     1.0000   1.0000   1.0000   1.0000   1.0000   1.0000   1.0000   1.0000
     1.0000   1.0000   1.0000   1.0000   1.0000   1.0000   0.0000   0.0000
     0.0000   0.0000

          k = 0.3771 0.1886-0.0000 ( 11087 PWs)   bands (ev):

   -12.4033 -12.4022 -12.3489 -12.2822 -12.2557 -12.1941 -12.1408 -12.1228
   -12.0685 -12.0637  -1.4415   2.5336   6.4413   7.2743   9.8475  10.6821
    12.8546  13.1725

     occupation numbers 
     1.0000   1.0000   1.0000   1.0000   1.0000   1.0000   1.0000   1.0000
     1.0000   1.0000   1.0000   1.0000   1.0000   1.0000   0.0000   0.0000
     0.0000   0.0000

          k = 0.4243 0.2357-0.0471 ( 11070 PWs)   bands (ev):

   -12.4110 -12.4055 -12.3361 -12.2739 -12.2471 -12.2011 -12.1497 -12.1376
   -12.0618 -12.0573  -1.1589   2.0482   6.1250   7.0980   9.8969  11.0913
    12.8174  13.4812

     occupation numbers 
     1.0000   1.0000   1.0000   1.0000   1.0000   1.0000   1.0000   1.0000
     1.0000   1.0000   1.0000   1.0000   1.0000   1.0000   0.0000   0.0000
     0.0000   0.0000

          k =-0.2357-0.4243 0.6128 ( 11057 PWs)   bands (ev):

   -12.4168 -12.4075 -12.3248 -12.2655 -12.2432 -12.2030 -12.1611 -12.1482
   -12.0590 -12.0506  -0.8713   1.6084   5.9188   6.9486   9.8759  11.5123
    12.9268  13.6486

     occupation numbers 
     1.0000   1.0000   1.0000   1.0000   1.0000   1.0000   1.0000   1.0000
     1.0000   1.0000   1.0000   1.0000   1.0000   1.0000   0.0000   0.0000
     0.0000   0.0000

          k =-0.1886-0.3771 0.5657 ( 11056 PWs)   bands (ev):

   -12.4199 -12.4085 -12.3183 -12.2586 -12.2438 -12.2011 -12.1715 -12.1528
   -12.0578 -12.0469  -0.6649   1.3207   5.8180   6.8654   9.8537  11.7195
    13.2221  13.6427

     occupation numbers 
     1.0000   1.0000   1.0000   1.0000   1.0000   1.0000   1.0000   1.0000
     1.0000   1.0000   1.0000   1.0000   1.0000   1.0000   0.0000   0.0000
     0.0000   0.0000

          k = 0.4714 0.1886-0.0000 ( 11064 PWs)   bands (ev):

   -12.4101 -12.4078 -12.3375 -12.2653 -12.2323 -12.2225 -12.1566 -12.1305
   -12.0590 -12.0587  -1.0324   1.8756   6.1724   6.7864  10.2052  10.4613
    12.9887  14.0359

     occupation numbers 
     1.0000   1.0000   1.0000   1.0000   1.0000   1.0000   1.0000   1.0000
     1.0000   1.0000   1.0000   1.0000   1.0000   1.0000   0.0000   0.0000
     0.0000   0.0000

          k =-0.1886-0.4714 0.6600 ( 11048 PWs)   bands (ev):

   -12.4168 -12.4105 -12.3224 -12.2561 -12.2300 -12.2236 -12.1681 -12.1457
   -12.0559 -12.0503  -0.7359   1.4576   5.9183   6.6352  10.2320  10.9936
    12.8854  14.1605

     occupation numbers 
     1.0000   1.0000   1.0000   1.0000   1.0000   1.0000   1.0000   1.0000
     1.0000   1.0000   1.0000   1.0000   1.0000   1.0000   0.0000   0.0000
     0.0000   0.0000

          k =-0.1414-0.4243 0.6128 ( 11038 PWs)   bands (ev):

   -12.4216 -12.4119 -12.3106 -12.2483 -12.2305 -12.2213 -12.1798 -12.1560
   -12.0541 -12.0446  -0.4809   1.1305   5.7399   6.5631  10.2173  11.5519
    12.9515  13.9217

     occupation numbers 
     1.0000   1.0000   1.0000   1.0000   1.0000   1.0000   1.0000   1.0000
     1.0000   1.0000   1.0000   1.0000   1.0000   1.0000   0.0000   0.0000
     0.0000   0.0000

          k =-0.0943-0.3771 0.5657 ( 11047 PWs)   bands (ev):

   -12.4233 -12.4123 -12.3062 -12.2465 -12.2279 -12.2210 -12.1856 -12.1595
   -12.0534 -12.0428  -0.4094   1.0440   5.6542   6.5902  10.2130  11.8317
    13.2061  13.5108

     occupation numbers 
     1.0000   1.0000   1.0000   1.0000   1.0000   1.0000   1.0000   1.0000
     1.0000   1.0000   1.0000   1.0000   1.0000   1.0000   0.0000   0.0000
     0.0000   0.0000

          k =-0.0471-0.3300 0.5185 ( 11048 PWs)   bands (ev):

   -12.4216 -12.4116 -12.3105 -12.2540 -12.2298 -12.2166 -12.1786 -12.1572
   -12.0539 -12.0451  -0.5854   1.2613   5.6803   6.7089  10.2021  11.7598
    12.8619  13.7766

     occupation numbers 
     1.0000   1.0000   1.0000   1.0000   1.0000   1.0000   1.0000   1.0000
     1.0000   1.0000   1.0000   1.0000   1.0000   1.0000   0.0000   0.0000
     0.0000   0.0000

          k = 0.0000-0.2828 0.4714 ( 11041 PWs)   bands (ev):

   -12.4170 -12.4096 -12.3216 -12.2647 -12.2362 -12.2107 -12.1625 -12.1506
   -12.0559 -12.0510  -0.8705   1.6357   5.8348   6.8937  10.1259  11.4031
    12.7315  13.7925

     occupation numbers 
     1.0000   1.0000   1.0000   1.0000   1.0000   1.0000   1.0000   1.0000
     1.0000   1.0000   1.0000   1.0000   1.0000   1.0000   0.0000   0.0000
     0.0000   0.0000

          k =-0.1414-0.5185 0.7071 ( 11041 PWs)   bands (ev):

   -12.4147 -12.4127 -12.3216 -12.2507 -12.2449 -12.2078 -12.1770 -12.1435
   -12.0534 -12.0523  -0.5496   1.2231   6.0281   6.4018  10.3293  10.3336
    13.3690  14.5868

     occupation numbers 
     1.0000   1.0000   1.0000   1.0000   1.0000   1.0000   1.0000   1.0000
     1.0000   1.0000   1.0000   1.0000   1.0000   1.0000   0.0000   0.0000
     0.0000   0.0000

          k =-0.0943-0.4714 0.6600 ( 11038 PWs)   bands (ev):

   -12.4202 -12.4145 -12.3053 -12.2543 -12.2351 -12.2037 -12.1893 -12.1588
   -12.0513 -12.0456  -0.2586   0.8806   5.8278   6.3028  10.3256  11.0098
    13.2233  14.2535

     occupation numbers 
     1.0000   1.0000   1.0000   1.0000   1.0000   1.0000   1.0000   1.0000
     1.0000   1.0000   1.0000   1.0000   1.0000   1.0000   0.0000   0.0000
     0.0000   0.0000

          k =-0.0471-0.4243 0.6128 ( 11043 PWs)   bands (ev):

   -12.4238 -12.4148 -12.2972 -12.2476 -12.2293 -12.2096 -12.1979 -12.1653
   -12.0507 -12.0418  -0.1233   0.7329   5.6593   6.3452  10.3376  11.6970
    13.1514  13.6408

     occupation numbers 
     1.0000   1.0000   1.0000   1.0000   1.0000   1.0000   1.0000   1.0000
     1.0000   1.0000   1.0000   1.0000   1.0000   1.0000   0.0000   0.0000
     0.0000   0.0000

          k = 0.0000-0.3771 0.5657 ( 11055 PWs)   bands (ev):

   -12.4243 -12.4139 -12.3003 -12.2392 -12.2324 -12.2173 -12.1948 -12.1631
   -12.0515 -12.0416  -0.2955   0.9261   5.5972   6.4922  10.3279  12.0159
    12.9497  13.5163

     occupation numbers 
     1.0000   1.0000   1.0000   1.0000   1.0000   1.0000   1.0000   1.0000
     1.0000   1.0000   1.0000   1.0000   1.0000   1.0000   0.0000   0.0000
     0.0000   0.0000

          k =-0.0471-0.5185 0.7071 ( 11028 PWs)   bands (ev):

   -12.4167 -12.4160 -12.3013 -12.2774 -12.2225 -12.1995 -12.1838 -12.1618
   -12.0497 -12.0491  -0.0039   0.5917   6.0167   6.1419  10.2943  10.3161
    13.9471  14.4912

     occupation numbers 
     1.0000   1.0000   1.0000   1.0000   1.0000   1.0000   1.0000   1.0000
     1.0000   1.0000   1.0000   1.0000   1.0000   1.0000   0.0000   0.0000
     0.0000   0.0000

          k = 0.0000-0.4714 0.6600 ( 11038 PWs)   bands (ev):

   -12.4213 -12.4161 -12.2915 -12.2709 -12.2164 -12.2085 -12.1892 -12.1703
   -12.0494 -12.0442   0.1476   0.4414   5.8156   6.1708  10.3311  11.0232
    13.7195  13.8344

     occupation numbers 
     1.0000   1.0000   1.0000   1.0000   1.0000   1.0000   1.0000   1.0000
     1.0000   1.0000   1.0000   1.0000   1.0000   1.0000   0.0000   0.0000
     0.0000   0.0000

          k =-0.1414-0.4243 0.7071 ( 11058 PWs)   bands (ev):

   -12.4206 -12.4147 -12.3061 -12.2458 -12.2374 -12.2153 -12.1824 -12.1596
   -12.0508 -12.0459  -0.4367   1.0920   5.7569   6.4153  10.6027  11.2260
    12.7754  14.0636

     occupation numbers 
     1.0000   1.0000   1.0000   1.0000   1.0000   1.0000   1.0000   1.0000
     1.0000   1.0000   1.0000   1.0000   1.0000   1.0000   0.0000   0.0000
     0.0000   0.0000

          k =-0.0943-0.3771 0.6600 ( 11042 PWs)   bands (ev):

   -12.4232 -12.4164 -12.2946 -12.2440 -12.2347 -12.2110 -12.1946 -12.1681
   -12.0491 -12.0425  -0.1890   0.8093   5.6843   6.2794  10.7076  11.6135
    12.8631  13.5368

     occupation numbers 
     1.0000   1.0000   1.0000   1.0000   1.0000   1.0000   1.0000   1.0000
     1.0000   1.0000   1.0000   1.0000   1.0000   1.0000   0.0000   0.0000
     0.0000   0.0000

          k =-0.0471-0.4243 0.7071 ( 11039 PWs)   bands (ev):

   -12.4212 -12.4190 -12.2863 -12.2630 -12.2250 -12.2035 -12.1942 -12.1749
   -12.0464 -12.0444   0.0441   0.5579   5.8284   6.0510  10.9155  11.0865
    13.0957  13.6350

     occupation numbers 
     1.0000   1.0000   1.0000   1.0000   1.0000   1.0000   1.0000   1.0000
     1.0000   1.0000   1.0000   1.0000   1.0000   1.0000   0.0000   0.0000
     0.0000   0.0000

          k =-0.0000-0.3771 0.6600 ( 11045 PWs)   bands (ev):

   -12.4229 -12.4190 -12.2819 -12.2587 -12.2234 -12.2085 -12.1969 -12.1777
   -12.0463 -12.0425   0.0967   0.5064   5.7531   6.0617  10.9487  11.5503
    12.9930  13.1815

     occupation numbers 
     1.0000   1.0000   1.0000   1.0000   1.0000   1.0000   1.0000   1.0000
     1.0000   1.0000   1.0000   1.0000   1.0000   1.0000   0.0000   0.0000
     0.0000   0.0000

     the Fermi energy is     8.3131 ev

!    total energy              =    -233.44844665 Ry
     Harris-Foulkes estimate   =    -233.44844682 Ry
     estimated scf accuracy    <       0.00000043 Ry

     The total energy is the sum of the following terms:

     one-electron contribution =     -95.31686816 Ry
     hartree contribution      =      58.35706475 Ry
     xc contribution           =     -28.70697412 Ry
     ewald contribution        =    -167.78134157 Ry
     smearing contrib. (-TS)   =      -0.00032756 Ry

     convergence has been achieved in   5 iterations

     Writing output data file Sn.save
 
     init_run     :     17.90s CPU     31.06s WALL (       1 calls)
     electrons    :    215.24s CPU    425.37s WALL (       1 calls)

     Called by init_run:
     wfcinit      :     17.10s CPU     29.98s WALL (       1 calls)
     potinit      :      0.54s CPU      0.54s WALL (       1 calls)

     Called by electrons:
     c_bands      :    190.42s CPU    377.36s WALL (       5 calls)
     sum_band     :     24.07s CPU     46.67s WALL (       5 calls)
     v_of_rho     :      0.83s CPU      1.04s WALL (       6 calls)
     v_h          :      0.14s CPU      0.14s WALL (       6 calls)
     v_xc         :      0.70s CPU      0.90s WALL (       6 calls)
     mix_rho      :      0.04s CPU      0.06s WALL (       5 calls)

     Called by c_bands:
     init_us_2    :      0.30s CPU      0.60s WALL (    1320 calls)
     cegterg      :    186.41s CPU    369.40s WALL (     600 calls)

     Called by sum_band:

     Called by *egterg:
     h_psi        :    176.34s CPU    345.36s WALL (    2595 calls)
     g_psi        :      0.12s CPU      0.23s WALL (    1875 calls)
     cdiaghg      :      8.51s CPU     17.53s WALL (    2475 calls)
     cegterg:over :      8.51s CPU     16.74s WALL (    1875 calls)
     cegterg:upda :      0.47s CPU      0.89s WALL (    1875 calls)
     cegterg:last :      0.24s CPU      0.37s WALL (     783 calls)

     Called by h_psi:
     h_psi:vloc   :    169.67s CPU    332.34s WALL (    2595 calls)
     h_psi:vnl    :      6.57s CPU     12.85s WALL (    2595 calls)
     add_vuspsi   :      0.37s CPU      0.66s WALL (    2595 calls)

     General routines
     calbec       :      6.19s CPU     12.18s WALL (    2595 calls)
     fft          :      0.73s CPU      0.92s WALL (      65 calls)
     fftw         :    191.25s CPU    374.17s WALL (   85792 calls)
     davcio       :      0.01s CPU      0.20s WALL (     120 calls)
 
     Parallel routines
     fft_scatter  :    182.04s CPU    354.31s WALL (   85857 calls)
 
     PWSCF        :  3m56.54s CPU     7m43.58s WALL

 
   This run was terminated on:   0:59:41  21Feb2020            

=------------------------------------------------------------------------------=
   JOB DONE.
=------------------------------------------------------------------------------=
