
     Program PWSCF v.5.4.0 starts on 17Mar2020 at 11:38:49 

     This program is part of the open-source Quantum ESPRESSO suite
     for quantum simulation of materials; please cite
         "P. Giannozzi et al., J. Phys.:Condens. Matter 21 395502 (2009);
          URL http://www.quantum-espresso.org", 
     in publications or presentations arising from this work. More details at
     http://www.quantum-espresso.org/quote

     Parallel version (MPI & OpenMP), running on      16 processor cores
     Number of MPI processes:                16
     Threads/MPI process:                     1
     R & G space division:  proc/nbgrp/npool/nimage =      16
     Waiting for input...
     Reading input from standard input
Warning: card &IONS ignored
Warning: card / ignored
Warning: card &CELL ignored
Warning: card / ignored

     Current dimensions of program PWSCF are:
     Max number of different atomic species (ntypx) = 10
     Max number of k-points (npk) =  40000
     Max angular momentum in pseudopotentials (lmaxx) =  3
               file Sn.rel-pbe-dn-rrkjus_psl.1.0.0.UPF: wavefunction(s)  5S 4D 4D renormalized

     Subspace diagonalization in iterative solution of the eigenvalue problem:
     a serial algorithm will be used

 
     Parallelization info
     --------------------
     sticks:   dense  smooth     PW     G-vecs:    dense   smooth      PW
     Min         138     138     39                 4302     4302     650
     Max         139     139     40                 4306     4306     652
     Sum        2221    2221    637                68873    68873   10417
 

     Title: 
     Sn                                                                         


     bravais-lattice index     =            0
     lattice parameter (alat)  =       8.9127  a.u.
     unit-cell volume          =     500.6268 (a.u.)^3
     number of atoms/cell      =            2
     number of atomic types    =            1
     number of electrons       =        28.00
     number of Kohn-Sham states=           36
     kinetic-energy cutoff     =     101.0000  Ry
     charge density cutoff     =     404.0000  Ry
     convergence threshold     =      1.0E-06
     mixing beta               =       0.7000
     number of iterations used =            8  plain     mixing
     Exchange-correlation      = PBE ( 1  4  3  4 0 0)
     Non magnetic calculation with spin-orbit


     celldm(1)=   8.912709  celldm(2)=   0.000000  celldm(3)=   0.000000
     celldm(4)=   0.000000  celldm(5)=   0.000000  celldm(6)=   0.000000

     crystal axes: (cart. coord. in units of alat)
               a(1) = (   0.000000   0.707107   0.707107 )  
               a(2) = (   0.707107   0.000000   0.707107 )  
               a(3) = (   0.707107   0.707107   0.000000 )  

     reciprocal axes: (cart. coord. in units 2 pi/alat)
               b(1) = ( -0.707107  0.707107  0.707107 )  
               b(2) = (  0.707107 -0.707107  0.707107 )  
               b(3) = (  0.707107  0.707107 -0.707107 )  


     PseudoPot. # 1 for Sn read from file:
     ../PseudopotentialDatabase/Sn.rel-pbe-dn-rrkjus_psl.1.0.0.UPF
     MD5 check sum: e9415cc9ba1036dfb73502962f03961a
     Pseudo is Ultrasoft + core correction, Zval = 14.0
     Generated using "atomic" code by A. Dal Corso  v.6.3
     Using radial grid of 1243 points, 10 beta functions with: 
                l(1) =   0
                l(2) =   0
                l(3) =   1
                l(4) =   1
                l(5) =   1
                l(6) =   1
                l(7) =   2
                l(8) =   2
                l(9) =   2
               l(10) =   2
     Q(r) pseudized with 0 coefficients 


     atomic species   valence    mass     pseudopotential
        Sn            14.00   118.71000     Sn( 1.00)

     48 Sym. Ops., with inversion, found (24 have fractional translation)


                                    s                        frac. trans.

      isym =  1     identity                                     

 cryst.   s( 1) = (     1          0          0      )
                  (     0          1          0      )
                  (     0          0          1      )

 cart.    s( 1) = (  1.0000000  0.0000000  0.0000000 )
                  (  0.0000000  1.0000000  0.0000000 )
                  (  0.0000000  0.0000000  1.0000000 )


      isym =  2     180 deg rotation - cart. axis [0,0,1]        

 cryst.   s( 2) = (     0          1         -1      )
                  (     1          0         -1      )
                  (     0          0         -1      )

 cart.    s( 2) = ( -1.0000000  0.0000000  0.0000000 )
                  (  0.0000000 -1.0000000  0.0000000 )
                  (  0.0000000  0.0000000  1.0000000 )


      isym =  3     180 deg rotation - cart. axis [0,1,0]        

 cryst.   s( 3) = (     0         -1          1      )
                  (     0         -1          0      )
                  (     1         -1          0      )

 cart.    s( 3) = ( -1.0000000  0.0000000  0.0000000 )
                  (  0.0000000  1.0000000  0.0000000 )
                  (  0.0000000  0.0000000 -1.0000000 )


      isym =  4     180 deg rotation - cart. axis [1,0,0]        

 cryst.   s( 4) = (    -1          0          0      )
                  (    -1          0          1      )
                  (    -1          1          0      )

 cart.    s( 4) = (  1.0000000  0.0000000  0.0000000 )
                  (  0.0000000 -1.0000000  0.0000000 )
                  (  0.0000000  0.0000000 -1.0000000 )


      isym =  5     180 deg rotation - cart. axis [1,1,0]        

 cryst.   s( 5) = (    -1          0          1      )    f =( -0.2500000 )
                  (     0         -1          1      )       ( -0.2500000 )
                  (     0          0          1      )       ( -0.2500000 )

 cart.    s( 5) = (  0.0000000  1.0000000  0.0000000 )    f =( -0.3535534 )
                  (  1.0000000  0.0000000  0.0000000 )       ( -0.3535534 )
                  (  0.0000000  0.0000000 -1.0000000 )       ( -0.3535534 )


      isym =  6     180 deg rotation - cart. axis [1,-1,0]       

 cryst.   s( 6) = (     0         -1          0      )    f =( -0.2500000 )
                  (    -1          0          0      )       ( -0.2500000 )
                  (     0          0         -1      )       ( -0.2500000 )

 cart.    s( 6) = (  0.0000000 -1.0000000  0.0000000 )    f =( -0.3535534 )
                  ( -1.0000000  0.0000000  0.0000000 )       ( -0.3535534 )
                  (  0.0000000  0.0000000 -1.0000000 )       ( -0.3535534 )


      isym =  7      90 deg rotation - cart. axis [0,0,-1]       

 cryst.   s( 7) = (     0          1          0      )    f =( -0.2500000 )
                  (     0          1         -1      )       ( -0.2500000 )
                  (    -1          1          0      )       ( -0.2500000 )

 cart.    s( 7) = (  0.0000000  1.0000000  0.0000000 )    f =( -0.3535534 )
                  ( -1.0000000  0.0000000  0.0000000 )       ( -0.3535534 )
                  (  0.0000000  0.0000000  1.0000000 )       ( -0.3535534 )


      isym =  8      90 deg rotation - cart. axis [0,0,1]        

 cryst.   s( 8) = (     1          0         -1      )    f =( -0.2500000 )
                  (     1          0          0      )       ( -0.2500000 )
                  (     1         -1          0      )       ( -0.2500000 )

 cart.    s( 8) = (  0.0000000 -1.0000000  0.0000000 )    f =( -0.3535534 )
                  (  1.0000000  0.0000000  0.0000000 )       ( -0.3535534 )
                  (  0.0000000  0.0000000  1.0000000 )       ( -0.3535534 )


      isym =  9     180 deg rotation - cart. axis [1,0,1]        

 cryst.   s( 9) = (    -1          1          0      )    f =( -0.2500000 )
                  (     0          1          0      )       ( -0.2500000 )
                  (     0          1         -1      )       ( -0.2500000 )

 cart.    s( 9) = (  0.0000000  0.0000000  1.0000000 )    f =( -0.3535534 )
                  (  0.0000000 -1.0000000  0.0000000 )       ( -0.3535534 )
                  (  1.0000000  0.0000000  0.0000000 )       ( -0.3535534 )


      isym = 10     180 deg rotation - cart. axis [-1,0,1]       

 cryst.   s(10) = (     0          0         -1      )    f =( -0.2500000 )
                  (     0         -1          0      )       ( -0.2500000 )
                  (    -1          0          0      )       ( -0.2500000 )

 cart.    s(10) = (  0.0000000  0.0000000 -1.0000000 )    f =( -0.3535534 )
                  (  0.0000000 -1.0000000  0.0000000 )       ( -0.3535534 )
                  ( -1.0000000  0.0000000  0.0000000 )       ( -0.3535534 )


      isym = 11      90 deg rotation - cart. axis [0,1,0]        

 cryst.   s(11) = (     0          0          1      )    f =( -0.2500000 )
                  (    -1          0          1      )       ( -0.2500000 )
                  (     0         -1          1      )       ( -0.2500000 )

 cart.    s(11) = (  0.0000000  0.0000000  1.0000000 )    f =( -0.3535534 )
                  (  0.0000000  1.0000000  0.0000000 )       ( -0.3535534 )
                  ( -1.0000000  0.0000000  0.0000000 )       ( -0.3535534 )


      isym = 12      90 deg rotation - cart. axis [0,-1,0]       

 cryst.   s(12) = (     1         -1          0      )    f =( -0.2500000 )
                  (     1          0         -1      )       ( -0.2500000 )
                  (     1          0          0      )       ( -0.2500000 )

 cart.    s(12) = (  0.0000000  0.0000000 -1.0000000 )    f =( -0.3535534 )
                  (  0.0000000  1.0000000  0.0000000 )       ( -0.3535534 )
                  (  1.0000000  0.0000000  0.0000000 )       ( -0.3535534 )


      isym = 13     180 deg rotation - cart. axis [0,1,1]        

 cryst.   s(13) = (     1          0          0      )    f =( -0.2500000 )
                  (     1         -1          0      )       ( -0.2500000 )
                  (     1          0         -1      )       ( -0.2500000 )

 cart.    s(13) = ( -1.0000000  0.0000000  0.0000000 )    f =( -0.3535534 )
                  (  0.0000000  0.0000000  1.0000000 )       ( -0.3535534 )
                  (  0.0000000  1.0000000  0.0000000 )       ( -0.3535534 )


      isym = 14     180 deg rotation - cart. axis [0,1,-1]       

 cryst.   s(14) = (    -1          0          0      )    f =( -0.2500000 )
                  (     0          0         -1      )       ( -0.2500000 )
                  (     0         -1          0      )       ( -0.2500000 )

 cart.    s(14) = ( -1.0000000  0.0000000  0.0000000 )    f =( -0.3535534 )
                  (  0.0000000  0.0000000 -1.0000000 )       ( -0.3535534 )
                  (  0.0000000 -1.0000000  0.0000000 )       ( -0.3535534 )


      isym = 15      90 deg rotation - cart. axis [-1,0,0]       

 cryst.   s(15) = (     0         -1          1      )    f =( -0.2500000 )
                  (     0          0          1      )       ( -0.2500000 )
                  (    -1          0          1      )       ( -0.2500000 )

 cart.    s(15) = (  1.0000000  0.0000000  0.0000000 )    f =( -0.3535534 )
                  (  0.0000000  0.0000000  1.0000000 )       ( -0.3535534 )
                  (  0.0000000 -1.0000000  0.0000000 )       ( -0.3535534 )


      isym = 16      90 deg rotation - cart. axis [1,0,0]        

 cryst.   s(16) = (     0          1         -1      )    f =( -0.2500000 )
                  (    -1          1          0      )       ( -0.2500000 )
                  (     0          1          0      )       ( -0.2500000 )

 cart.    s(16) = (  1.0000000  0.0000000  0.0000000 )    f =( -0.3535534 )
                  (  0.0000000  0.0000000 -1.0000000 )       ( -0.3535534 )
                  (  0.0000000  1.0000000  0.0000000 )       ( -0.3535534 )


      isym = 17     120 deg rotation - cart. axis [-1,-1,-1]     

 cryst.   s(17) = (     0          0          1      )
                  (     1          0          0      )
                  (     0          1          0      )

 cart.    s(17) = (  0.0000000  1.0000000  0.0000000 )
                  (  0.0000000  0.0000000  1.0000000 )
                  (  1.0000000  0.0000000  0.0000000 )


      isym = 18     120 deg rotation - cart. axis [-1,1,1]       

 cryst.   s(18) = (     1         -1          0      )
                  (     0         -1          1      )
                  (     0         -1          0      )

 cart.    s(18) = (  0.0000000 -1.0000000  0.0000000 )
                  (  0.0000000  0.0000000  1.0000000 )
                  ( -1.0000000  0.0000000  0.0000000 )


      isym = 19     120 deg rotation - cart. axis [1,1,-1]       

 cryst.   s(19) = (    -1          1          0      )
                  (    -1          0          0      )
                  (    -1          0          1      )

 cart.    s(19) = (  0.0000000  1.0000000  0.0000000 )
                  (  0.0000000  0.0000000 -1.0000000 )
                  ( -1.0000000  0.0000000  0.0000000 )


      isym = 20     120 deg rotation - cart. axis [1,-1,1]       

 cryst.   s(20) = (     0          0         -1      )
                  (     0          1         -1      )
                  (     1          0         -1      )

 cart.    s(20) = (  0.0000000 -1.0000000  0.0000000 )
                  (  0.0000000  0.0000000 -1.0000000 )
                  (  1.0000000  0.0000000  0.0000000 )


      isym = 21     120 deg rotation - cart. axis [1,1,1]        

 cryst.   s(21) = (     0          1          0      )
                  (     0          0          1      )
                  (     1          0          0      )

 cart.    s(21) = (  0.0000000  0.0000000  1.0000000 )
                  (  1.0000000  0.0000000  0.0000000 )
                  (  0.0000000  1.0000000  0.0000000 )


      isym = 22     120 deg rotation - cart. axis [-1,1,-1]      

 cryst.   s(22) = (    -1          0          1      )
                  (    -1          1          0      )
                  (    -1          0          0      )

 cart.    s(22) = (  0.0000000  0.0000000  1.0000000 )
                  ( -1.0000000  0.0000000  0.0000000 )
                  (  0.0000000 -1.0000000  0.0000000 )


      isym = 23     120 deg rotation - cart. axis [1,-1,-1]      

 cryst.   s(23) = (     1          0         -1      )
                  (     0          0         -1      )
                  (     0          1         -1      )

 cart.    s(23) = (  0.0000000  0.0000000 -1.0000000 )
                  ( -1.0000000  0.0000000  0.0000000 )
                  (  0.0000000  1.0000000  0.0000000 )


      isym = 24     120 deg rotation - cart. axis [-1,-1,1]      

 cryst.   s(24) = (     0         -1          0      )
                  (     1         -1          0      )
                  (     0         -1          1      )

 cart.    s(24) = (  0.0000000  0.0000000 -1.0000000 )
                  (  1.0000000  0.0000000  0.0000000 )
                  (  0.0000000 -1.0000000  0.0000000 )


      isym = 25     inversion                                    

 cryst.   s(25) = (    -1          0          0      )    f =( -0.2500000 )
                  (     0         -1          0      )       ( -0.2500000 )
                  (     0          0         -1      )       ( -0.2500000 )

 cart.    s(25) = ( -1.0000000  0.0000000  0.0000000 )    f =( -0.3535534 )
                  (  0.0000000 -1.0000000  0.0000000 )       ( -0.3535534 )
                  (  0.0000000  0.0000000 -1.0000000 )       ( -0.3535534 )


      isym = 26     inv. 180 deg rotation - cart. axis [0,0,1]   

 cryst.   s(26) = (     0         -1          1      )    f =( -0.2500000 )
                  (    -1          0          1      )       ( -0.2500000 )
                  (     0          0          1      )       ( -0.2500000 )

 cart.    s(26) = (  1.0000000  0.0000000  0.0000000 )    f =( -0.3535534 )
                  (  0.0000000  1.0000000  0.0000000 )       ( -0.3535534 )
                  (  0.0000000  0.0000000 -1.0000000 )       ( -0.3535534 )


      isym = 27     inv. 180 deg rotation - cart. axis [0,1,0]   

 cryst.   s(27) = (     0          1         -1      )    f =( -0.2500000 )
                  (     0          1          0      )       ( -0.2500000 )
                  (    -1          1          0      )       ( -0.2500000 )

 cart.    s(27) = (  1.0000000  0.0000000  0.0000000 )    f =( -0.3535534 )
                  (  0.0000000 -1.0000000  0.0000000 )       ( -0.3535534 )
                  (  0.0000000  0.0000000  1.0000000 )       ( -0.3535534 )


      isym = 28     inv. 180 deg rotation - cart. axis [1,0,0]   

 cryst.   s(28) = (     1          0          0      )    f =( -0.2500000 )
                  (     1          0         -1      )       ( -0.2500000 )
                  (     1         -1          0      )       ( -0.2500000 )

 cart.    s(28) = ( -1.0000000  0.0000000  0.0000000 )    f =( -0.3535534 )
                  (  0.0000000  1.0000000  0.0000000 )       ( -0.3535534 )
                  (  0.0000000  0.0000000  1.0000000 )       ( -0.3535534 )


      isym = 29     inv. 180 deg rotation - cart. axis [1,1,0]   

 cryst.   s(29) = (     1          0         -1      )
                  (     0          1         -1      )
                  (     0          0         -1      )

 cart.    s(29) = (  0.0000000 -1.0000000  0.0000000 )
                  ( -1.0000000  0.0000000  0.0000000 )
                  (  0.0000000  0.0000000  1.0000000 )


      isym = 30     inv. 180 deg rotation - cart. axis [1,-1,0]  

 cryst.   s(30) = (     0          1          0      )
                  (     1          0          0      )
                  (     0          0          1      )

 cart.    s(30) = (  0.0000000  1.0000000  0.0000000 )
                  (  1.0000000  0.0000000  0.0000000 )
                  (  0.0000000  0.0000000  1.0000000 )


      isym = 31     inv.  90 deg rotation - cart. axis [0,0,-1]  

 cryst.   s(31) = (     0         -1          0      )
                  (     0         -1          1      )
                  (     1         -1          0      )

 cart.    s(31) = (  0.0000000 -1.0000000  0.0000000 )
                  (  1.0000000  0.0000000  0.0000000 )
                  (  0.0000000  0.0000000 -1.0000000 )


      isym = 32     inv.  90 deg rotation - cart. axis [0,0,1]   

 cryst.   s(32) = (    -1          0          1      )
                  (    -1          0          0      )
                  (    -1          1          0      )

 cart.    s(32) = (  0.0000000  1.0000000  0.0000000 )
                  ( -1.0000000  0.0000000  0.0000000 )
                  (  0.0000000  0.0000000 -1.0000000 )


      isym = 33     inv. 180 deg rotation - cart. axis [1,0,1]   

 cryst.   s(33) = (     1         -1          0      )
                  (     0         -1          0      )
                  (     0         -1          1      )

 cart.    s(33) = (  0.0000000  0.0000000 -1.0000000 )
                  (  0.0000000  1.0000000  0.0000000 )
                  ( -1.0000000  0.0000000  0.0000000 )


      isym = 34     inv. 180 deg rotation - cart. axis [-1,0,1]  

 cryst.   s(34) = (     0          0          1      )
                  (     0          1          0      )
                  (     1          0          0      )

 cart.    s(34) = (  0.0000000  0.0000000  1.0000000 )
                  (  0.0000000  1.0000000  0.0000000 )
                  (  1.0000000  0.0000000  0.0000000 )


      isym = 35     inv.  90 deg rotation - cart. axis [0,1,0]   

 cryst.   s(35) = (     0          0         -1      )
                  (     1          0         -1      )
                  (     0          1         -1      )

 cart.    s(35) = (  0.0000000  0.0000000 -1.0000000 )
                  (  0.0000000 -1.0000000  0.0000000 )
                  (  1.0000000  0.0000000  0.0000000 )


      isym = 36     inv.  90 deg rotation - cart. axis [0,-1,0]  

 cryst.   s(36) = (    -1          1          0      )
                  (    -1          0          1      )
                  (    -1          0          0      )

 cart.    s(36) = (  0.0000000  0.0000000  1.0000000 )
                  (  0.0000000 -1.0000000  0.0000000 )
                  ( -1.0000000  0.0000000  0.0000000 )


      isym = 37     inv. 180 deg rotation - cart. axis [0,1,1]   

 cryst.   s(37) = (    -1          0          0      )
                  (    -1          1          0      )
                  (    -1          0          1      )

 cart.    s(37) = (  1.0000000  0.0000000  0.0000000 )
                  (  0.0000000  0.0000000 -1.0000000 )
                  (  0.0000000 -1.0000000  0.0000000 )


      isym = 38     inv. 180 deg rotation - cart. axis [0,1,-1]  

 cryst.   s(38) = (     1          0          0      )
                  (     0          0          1      )
                  (     0          1          0      )

 cart.    s(38) = (  1.0000000  0.0000000  0.0000000 )
                  (  0.0000000  0.0000000  1.0000000 )
                  (  0.0000000  1.0000000  0.0000000 )


      isym = 39     inv.  90 deg rotation - cart. axis [-1,0,0]  

 cryst.   s(39) = (     0          1         -1      )
                  (     0          0         -1      )
                  (     1          0         -1      )

 cart.    s(39) = ( -1.0000000  0.0000000  0.0000000 )
                  (  0.0000000  0.0000000 -1.0000000 )
                  (  0.0000000  1.0000000  0.0000000 )


      isym = 40     inv.  90 deg rotation - cart. axis [1,0,0]   

 cryst.   s(40) = (     0         -1          1      )
                  (     1         -1          0      )
                  (     0         -1          0      )

 cart.    s(40) = ( -1.0000000  0.0000000  0.0000000 )
                  (  0.0000000  0.0000000  1.0000000 )
                  (  0.0000000 -1.0000000  0.0000000 )


      isym = 41     inv. 120 deg rotation - cart. axis [-1,-1,-1]

 cryst.   s(41) = (     0          0         -1      )    f =( -0.2500000 )
                  (    -1          0          0      )       ( -0.2500000 )
                  (     0         -1          0      )       ( -0.2500000 )

 cart.    s(41) = (  0.0000000 -1.0000000  0.0000000 )    f =( -0.3535534 )
                  (  0.0000000  0.0000000 -1.0000000 )       ( -0.3535534 )
                  ( -1.0000000  0.0000000  0.0000000 )       ( -0.3535534 )


      isym = 42     inv. 120 deg rotation - cart. axis [-1,1,1]  

 cryst.   s(42) = (    -1          1          0      )    f =( -0.2500000 )
                  (     0          1         -1      )       ( -0.2500000 )
                  (     0          1          0      )       ( -0.2500000 )

 cart.    s(42) = (  0.0000000  1.0000000  0.0000000 )    f =( -0.3535534 )
                  (  0.0000000  0.0000000 -1.0000000 )       ( -0.3535534 )
                  (  1.0000000  0.0000000  0.0000000 )       ( -0.3535534 )


      isym = 43     inv. 120 deg rotation - cart. axis [1,1,-1]  

 cryst.   s(43) = (     1         -1          0      )    f =( -0.2500000 )
                  (     1          0          0      )       ( -0.2500000 )
                  (     1          0         -1      )       ( -0.2500000 )

 cart.    s(43) = (  0.0000000 -1.0000000  0.0000000 )    f =( -0.3535534 )
                  (  0.0000000  0.0000000  1.0000000 )       ( -0.3535534 )
                  (  1.0000000  0.0000000  0.0000000 )       ( -0.3535534 )


      isym = 44     inv. 120 deg rotation - cart. axis [1,-1,1]  

 cryst.   s(44) = (     0          0          1      )    f =( -0.2500000 )
                  (     0         -1          1      )       ( -0.2500000 )
                  (    -1          0          1      )       ( -0.2500000 )

 cart.    s(44) = (  0.0000000  1.0000000  0.0000000 )    f =( -0.3535534 )
                  (  0.0000000  0.0000000  1.0000000 )       ( -0.3535534 )
                  ( -1.0000000  0.0000000  0.0000000 )       ( -0.3535534 )


      isym = 45     inv. 120 deg rotation - cart. axis [1,1,1]   

 cryst.   s(45) = (     0         -1          0      )    f =( -0.2500000 )
                  (     0          0         -1      )       ( -0.2500000 )
                  (    -1          0          0      )       ( -0.2500000 )

 cart.    s(45) = (  0.0000000  0.0000000 -1.0000000 )    f =( -0.3535534 )
                  ( -1.0000000  0.0000000  0.0000000 )       ( -0.3535534 )
                  (  0.0000000 -1.0000000  0.0000000 )       ( -0.3535534 )


      isym = 46     inv. 120 deg rotation - cart. axis [-1,1,-1] 

 cryst.   s(46) = (     1          0         -1      )    f =( -0.2500000 )
                  (     1         -1          0      )       ( -0.2500000 )
                  (     1          0          0      )       ( -0.2500000 )

 cart.    s(46) = (  0.0000000  0.0000000 -1.0000000 )    f =( -0.3535534 )
                  (  1.0000000  0.0000000  0.0000000 )       ( -0.3535534 )
                  (  0.0000000  1.0000000  0.0000000 )       ( -0.3535534 )


      isym = 47     inv. 120 deg rotation - cart. axis [1,-1,-1] 

 cryst.   s(47) = (    -1          0          1      )    f =( -0.2500000 )
                  (     0          0          1      )       ( -0.2500000 )
                  (     0         -1          1      )       ( -0.2500000 )

 cart.    s(47) = (  0.0000000  0.0000000  1.0000000 )    f =( -0.3535534 )
                  (  1.0000000  0.0000000  0.0000000 )       ( -0.3535534 )
                  (  0.0000000 -1.0000000  0.0000000 )       ( -0.3535534 )


      isym = 48     inv. 120 deg rotation - cart. axis [-1,-1,1] 

 cryst.   s(48) = (     0          1          0      )    f =( -0.2500000 )
                  (    -1          1          0      )       ( -0.2500000 )
                  (     0          1         -1      )       ( -0.2500000 )

 cart.    s(48) = (  0.0000000  0.0000000  1.0000000 )    f =( -0.3535534 )
                  ( -1.0000000  0.0000000  0.0000000 )       ( -0.3535534 )
                  (  0.0000000  1.0000000  0.0000000 )       ( -0.3535534 )


   Cartesian axes

     site n.     atom                  positions (alat units)
         1           Sn  tau(   1) = (   0.0000000   0.0000000   0.0000000  )
         2           Sn  tau(   2) = (   0.3535534   0.3535534   0.3535534  )

   Crystallographic axes

     site n.     atom                  positions (cryst. coord.)
         1           Sn  tau(   1) = (  0.0000000  0.0000000  0.0000000  )
         2           Sn  tau(   2) = (  0.2500000  0.2500000  0.2500000  )

     number of k points=   145  gaussian smearing, width (Ry)=  0.0001
                       cart. coord. in units 2pi/alat
        k(    1) = (   0.0000000   0.0000000   0.0000000), wk =   0.0002441
        k(    2) = (   0.0441942   0.0441942  -0.0441942), wk =   0.0019531
        k(    3) = (   0.0883883   0.0883883  -0.0883883), wk =   0.0019531
        k(    4) = (   0.1325825   0.1325825  -0.1325825), wk =   0.0019531
        k(    5) = (   0.1767767   0.1767767  -0.1767767), wk =   0.0019531
        k(    6) = (   0.2209709   0.2209709  -0.2209709), wk =   0.0019531
        k(    7) = (   0.2651650   0.2651650  -0.2651650), wk =   0.0019531
        k(    8) = (   0.3093592   0.3093592  -0.3093592), wk =   0.0019531
        k(    9) = (  -0.3535534  -0.3535534   0.3535534), wk =   0.0009766
        k(   10) = (   0.0883883   0.0000000   0.0000000), wk =   0.0014648
        k(   11) = (   0.1325825   0.0441942  -0.0441942), wk =   0.0058594
        k(   12) = (   0.1767767   0.0883883  -0.0883883), wk =   0.0058594
        k(   13) = (   0.2209709   0.1325825  -0.1325825), wk =   0.0058594
        k(   14) = (   0.2651650   0.1767767  -0.1767767), wk =   0.0058594
        k(   15) = (   0.3093592   0.2209709  -0.2209709), wk =   0.0058594
        k(   16) = (   0.3535534   0.2651650  -0.2651650), wk =   0.0058594
        k(   17) = (  -0.3093592  -0.3977476   0.3977476), wk =   0.0058594
        k(   18) = (  -0.2651650  -0.3535534   0.3535534), wk =   0.0058594
        k(   19) = (  -0.2209709  -0.3093592   0.3093592), wk =   0.0058594
        k(   20) = (  -0.1767767  -0.2651650   0.2651650), wk =   0.0058594
        k(   21) = (  -0.1325825  -0.2209709   0.2209709), wk =   0.0058594
        k(   22) = (  -0.0883883  -0.1767767   0.1767767), wk =   0.0058594
        k(   23) = (  -0.0441942  -0.1325825   0.1325825), wk =   0.0058594
        k(   24) = (   0.0000000  -0.0883883   0.0883883), wk =   0.0029297
        k(   25) = (   0.1767767   0.0000000   0.0000000), wk =   0.0014648
        k(   26) = (   0.2209709   0.0441942  -0.0441942), wk =   0.0058594
        k(   27) = (   0.2651650   0.0883883  -0.0883883), wk =   0.0058594
        k(   28) = (   0.3093592   0.1325825  -0.1325825), wk =   0.0058594
        k(   29) = (   0.3535534   0.1767767  -0.1767767), wk =   0.0058594
        k(   30) = (   0.3977476   0.2209709  -0.2209709), wk =   0.0058594
        k(   31) = (  -0.2651650  -0.4419417   0.4419417), wk =   0.0058594
        k(   32) = (  -0.2209709  -0.3977476   0.3977476), wk =   0.0058594
        k(   33) = (  -0.1767767  -0.3535534   0.3535534), wk =   0.0058594
        k(   34) = (  -0.1325825  -0.3093592   0.3093592), wk =   0.0058594
        k(   35) = (  -0.0883883  -0.2651650   0.2651650), wk =   0.0058594
        k(   36) = (  -0.0441942  -0.2209709   0.2209709), wk =   0.0058594
        k(   37) = (   0.0000000  -0.1767767   0.1767767), wk =   0.0029297
        k(   38) = (   0.2651650   0.0000000   0.0000000), wk =   0.0014648
        k(   39) = (   0.3093592   0.0441942  -0.0441942), wk =   0.0058594
        k(   40) = (   0.3535534   0.0883883  -0.0883883), wk =   0.0058594
        k(   41) = (   0.3977476   0.1325825  -0.1325825), wk =   0.0058594
        k(   42) = (   0.4419417   0.1767767  -0.1767767), wk =   0.0058594
        k(   43) = (  -0.2209709  -0.4861359   0.4861359), wk =   0.0058594
        k(   44) = (  -0.1767767  -0.4419417   0.4419417), wk =   0.0058594
        k(   45) = (  -0.1325825  -0.3977476   0.3977476), wk =   0.0058594
        k(   46) = (  -0.0883883  -0.3535534   0.3535534), wk =   0.0058594
        k(   47) = (  -0.0441942  -0.3093592   0.3093592), wk =   0.0058594
        k(   48) = (   0.0000000  -0.2651650   0.2651650), wk =   0.0029297
        k(   49) = (   0.3535534   0.0000000   0.0000000), wk =   0.0014648
        k(   50) = (   0.3977476   0.0441942  -0.0441942), wk =   0.0058594
        k(   51) = (   0.4419417   0.0883883  -0.0883883), wk =   0.0058594
        k(   52) = (   0.4861359   0.1325825  -0.1325825), wk =   0.0058594
        k(   53) = (  -0.1767767  -0.5303301   0.5303301), wk =   0.0058594
        k(   54) = (  -0.1325825  -0.4861359   0.4861359), wk =   0.0058594
        k(   55) = (  -0.0883883  -0.4419417   0.4419417), wk =   0.0058594
        k(   56) = (  -0.0441942  -0.3977476   0.3977476), wk =   0.0058594
        k(   57) = (   0.0000000  -0.3535534   0.3535534), wk =   0.0029297
        k(   58) = (   0.4419417   0.0000000   0.0000000), wk =   0.0014648
        k(   59) = (   0.4861359   0.0441942  -0.0441942), wk =   0.0058594
        k(   60) = (   0.5303301   0.0883883  -0.0883883), wk =   0.0058594
        k(   61) = (  -0.1325825  -0.5745243   0.5745243), wk =   0.0058594
        k(   62) = (  -0.0883883  -0.5303301   0.5303301), wk =   0.0058594
        k(   63) = (  -0.0441942  -0.4861359   0.4861359), wk =   0.0058594
        k(   64) = (   0.0000000  -0.4419417   0.4419417), wk =   0.0029297
        k(   65) = (   0.5303301   0.0000000   0.0000000), wk =   0.0014648
        k(   66) = (   0.5745243   0.0441942  -0.0441942), wk =   0.0058594
        k(   67) = (  -0.0883883  -0.6187184   0.6187184), wk =   0.0058594
        k(   68) = (  -0.0441942  -0.5745243   0.5745243), wk =   0.0058594
        k(   69) = (   0.0000000  -0.5303301   0.5303301), wk =   0.0029297
        k(   70) = (   0.6187184   0.0000000   0.0000000), wk =   0.0014648
        k(   71) = (  -0.0441942  -0.6629126   0.6629126), wk =   0.0058594
        k(   72) = (   0.0000000  -0.6187184   0.6187184), wk =   0.0029297
        k(   73) = (  -0.7071068   0.0000000   0.0000000), wk =   0.0007324
        k(   74) = (   0.1767767   0.0883883   0.0000000), wk =   0.0058594
        k(   75) = (   0.2209709   0.1325825  -0.0441942), wk =   0.0117188
        k(   76) = (   0.2651650   0.1767767  -0.0883883), wk =   0.0117188
        k(   77) = (   0.3093592   0.2209709  -0.1325825), wk =   0.0117188
        k(   78) = (   0.3535534   0.2651650  -0.1767767), wk =   0.0117188
        k(   79) = (  -0.3093592  -0.3977476   0.4861359), wk =   0.0117188
        k(   80) = (  -0.2651650  -0.3535534   0.4419417), wk =   0.0058594
        k(   81) = (   0.2651650   0.0883883   0.0000000), wk =   0.0058594
        k(   82) = (   0.3093592   0.1325825  -0.0441942), wk =   0.0117188
        k(   83) = (   0.3535534   0.1767767  -0.0883883), wk =   0.0117188
        k(   84) = (   0.3977476   0.2209709  -0.1325825), wk =   0.0117188
        k(   85) = (  -0.2651650  -0.4419417   0.5303301), wk =   0.0117188
        k(   86) = (  -0.2209709  -0.3977476   0.4861359), wk =   0.0117188
        k(   87) = (  -0.1767767  -0.3535534   0.4419417), wk =   0.0117188
        k(   88) = (  -0.1325825  -0.3093592   0.3977476), wk =   0.0117188
        k(   89) = (  -0.0883883  -0.2651650   0.3535534), wk =   0.0117188
        k(   90) = (  -0.0441942  -0.2209709   0.3093592), wk =   0.0117188
        k(   91) = (   0.0000000  -0.1767767   0.2651650), wk =   0.0058594
        k(   92) = (   0.3535534   0.0883883   0.0000000), wk =   0.0058594
        k(   93) = (   0.3977476   0.1325825  -0.0441942), wk =   0.0117188
        k(   94) = (   0.4419417   0.1767767  -0.0883883), wk =   0.0117188
        k(   95) = (  -0.2209709  -0.4861359   0.5745243), wk =   0.0117188
        k(   96) = (  -0.1767767  -0.4419417   0.5303301), wk =   0.0117188
        k(   97) = (  -0.1325825  -0.3977476   0.4861359), wk =   0.0117188
        k(   98) = (  -0.0883883  -0.3535534   0.4419417), wk =   0.0117188
        k(   99) = (  -0.0441942  -0.3093592   0.3977476), wk =   0.0117188
        k(  100) = (   0.0000000  -0.2651650   0.3535534), wk =   0.0058594
        k(  101) = (   0.4419417   0.0883883   0.0000000), wk =   0.0058594
        k(  102) = (   0.4861359   0.1325825  -0.0441942), wk =   0.0117188
        k(  103) = (  -0.1767767  -0.5303301   0.6187184), wk =   0.0117188
        k(  104) = (  -0.1325825  -0.4861359   0.5745243), wk =   0.0117188
        k(  105) = (  -0.0883883  -0.4419417   0.5303301), wk =   0.0117188
        k(  106) = (  -0.0441942  -0.3977476   0.4861359), wk =   0.0117188
        k(  107) = (   0.0000000  -0.3535534   0.4419417), wk =   0.0058594
        k(  108) = (   0.5303301   0.0883883   0.0000000), wk =   0.0058594
        k(  109) = (  -0.1325825  -0.5745243   0.6629126), wk =   0.0117188
        k(  110) = (  -0.0883883  -0.5303301   0.6187184), wk =   0.0117188
        k(  111) = (  -0.0441942  -0.4861359   0.5745243), wk =   0.0117188
        k(  112) = (   0.0000000  -0.4419417   0.5303301), wk =   0.0058594
        k(  113) = (  -0.0883883  -0.6187184   0.7071068), wk =   0.0058594
        k(  114) = (  -0.0441942  -0.5745243   0.6629126), wk =   0.0117188
        k(  115) = (  -0.0000000  -0.5303301   0.6187184), wk =   0.0058594
        k(  116) = (  -0.7071068   0.0883883   0.0000000), wk =   0.0029297
        k(  117) = (   0.3535534   0.1767767   0.0000000), wk =   0.0058594
        k(  118) = (   0.3977476   0.2209709  -0.0441942), wk =   0.0117188
        k(  119) = (  -0.2651650  -0.4419417   0.6187184), wk =   0.0117188
        k(  120) = (  -0.2209709  -0.3977476   0.5745243), wk =   0.0117188
        k(  121) = (  -0.1767767  -0.3535534   0.5303301), wk =   0.0058594
        k(  122) = (   0.4419417   0.1767767   0.0000000), wk =   0.0058594
        k(  123) = (  -0.2209709  -0.4861359   0.6629126), wk =   0.0117188
        k(  124) = (  -0.1767767  -0.4419417   0.6187184), wk =   0.0117188
        k(  125) = (  -0.1325825  -0.3977476   0.5745243), wk =   0.0117188
        k(  126) = (  -0.0883883  -0.3535534   0.5303301), wk =   0.0117188
        k(  127) = (  -0.0441942  -0.3093592   0.4861359), wk =   0.0117188
        k(  128) = (   0.0000000  -0.2651650   0.4419417), wk =   0.0058594
        k(  129) = (  -0.1767767  -0.5303301   0.7071068), wk =   0.0058594
        k(  130) = (  -0.1325825  -0.4861359   0.6629126), wk =   0.0117188
        k(  131) = (  -0.0883883  -0.4419417   0.6187184), wk =   0.0117188
        k(  132) = (  -0.0441942  -0.3977476   0.5745243), wk =   0.0117188
        k(  133) = (   0.0000000  -0.3535534   0.5303301), wk =   0.0058594
        k(  134) = (  -0.0883883  -0.5303301   0.7071068), wk =   0.0058594
        k(  135) = (  -0.0441942  -0.4861359   0.6629126), wk =   0.0117188
        k(  136) = (   0.0000000  -0.4419417   0.6187184), wk =   0.0058594
        k(  137) = (  -0.7071068   0.1767767   0.0000000), wk =   0.0029297
        k(  138) = (  -0.1767767  -0.4419417   0.7071068), wk =   0.0058594
        k(  139) = (  -0.1325825  -0.3977476   0.6629126), wk =   0.0117188
        k(  140) = (  -0.0883883  -0.3535534   0.6187184), wk =   0.0058594
        k(  141) = (  -0.0883883  -0.4419417   0.7071068), wk =   0.0058594
        k(  142) = (  -0.0441942  -0.3977476   0.6629126), wk =   0.0117188
        k(  143) = (  -0.0000000  -0.3535534   0.6187184), wk =   0.0058594
        k(  144) = (  -0.7071068   0.2651650   0.0000000), wk =   0.0029297
        k(  145) = (  -0.7071068   0.3535534   0.0000000), wk =   0.0014648

                       cryst. coord.
        k(    1) = (   0.0000000   0.0000000   0.0000000), wk =   0.0002441
        k(    2) = (   0.0000000   0.0000000   0.0625000), wk =   0.0019531
        k(    3) = (   0.0000000   0.0000000   0.1250000), wk =   0.0019531
        k(    4) = (   0.0000000   0.0000000   0.1875000), wk =   0.0019531
        k(    5) = (   0.0000000   0.0000000   0.2500000), wk =   0.0019531
        k(    6) = (   0.0000000   0.0000000   0.3125000), wk =   0.0019531
        k(    7) = (   0.0000000   0.0000000   0.3750000), wk =   0.0019531
        k(    8) = (   0.0000000   0.0000000   0.4375000), wk =   0.0019531
        k(    9) = (   0.0000000   0.0000000  -0.5000000), wk =   0.0009766
        k(   10) = (   0.0000000   0.0625000   0.0625000), wk =   0.0014648
        k(   11) = (   0.0000000   0.0625000   0.1250000), wk =   0.0058594
        k(   12) = (   0.0000000   0.0625000   0.1875000), wk =   0.0058594
        k(   13) = (   0.0000000   0.0625000   0.2500000), wk =   0.0058594
        k(   14) = (   0.0000000   0.0625000   0.3125000), wk =   0.0058594
        k(   15) = (   0.0000000   0.0625000   0.3750000), wk =   0.0058594
        k(   16) = (   0.0000000   0.0625000   0.4375000), wk =   0.0058594
        k(   17) = (   0.0000000   0.0625000  -0.5000000), wk =   0.0058594
        k(   18) = (   0.0000000   0.0625000  -0.4375000), wk =   0.0058594
        k(   19) = (   0.0000000   0.0625000  -0.3750000), wk =   0.0058594
        k(   20) = (   0.0000000   0.0625000  -0.3125000), wk =   0.0058594
        k(   21) = (   0.0000000   0.0625000  -0.2500000), wk =   0.0058594
        k(   22) = (   0.0000000   0.0625000  -0.1875000), wk =   0.0058594
        k(   23) = (   0.0000000   0.0625000  -0.1250000), wk =   0.0058594
        k(   24) = (   0.0000000   0.0625000  -0.0625000), wk =   0.0029297
        k(   25) = (   0.0000000   0.1250000   0.1250000), wk =   0.0014648
        k(   26) = (   0.0000000   0.1250000   0.1875000), wk =   0.0058594
        k(   27) = (   0.0000000   0.1250000   0.2500000), wk =   0.0058594
        k(   28) = (   0.0000000   0.1250000   0.3125000), wk =   0.0058594
        k(   29) = (   0.0000000   0.1250000   0.3750000), wk =   0.0058594
        k(   30) = (   0.0000000   0.1250000   0.4375000), wk =   0.0058594
        k(   31) = (   0.0000000   0.1250000  -0.5000000), wk =   0.0058594
        k(   32) = (   0.0000000   0.1250000  -0.4375000), wk =   0.0058594
        k(   33) = (   0.0000000   0.1250000  -0.3750000), wk =   0.0058594
        k(   34) = (   0.0000000   0.1250000  -0.3125000), wk =   0.0058594
        k(   35) = (   0.0000000   0.1250000  -0.2500000), wk =   0.0058594
        k(   36) = (   0.0000000   0.1250000  -0.1875000), wk =   0.0058594
        k(   37) = (   0.0000000   0.1250000  -0.1250000), wk =   0.0029297
        k(   38) = (   0.0000000   0.1875000   0.1875000), wk =   0.0014648
        k(   39) = (   0.0000000   0.1875000   0.2500000), wk =   0.0058594
        k(   40) = (   0.0000000   0.1875000   0.3125000), wk =   0.0058594
        k(   41) = (   0.0000000   0.1875000   0.3750000), wk =   0.0058594
        k(   42) = (   0.0000000   0.1875000   0.4375000), wk =   0.0058594
        k(   43) = (   0.0000000   0.1875000  -0.5000000), wk =   0.0058594
        k(   44) = (   0.0000000   0.1875000  -0.4375000), wk =   0.0058594
        k(   45) = (   0.0000000   0.1875000  -0.3750000), wk =   0.0058594
        k(   46) = (   0.0000000   0.1875000  -0.3125000), wk =   0.0058594
        k(   47) = (   0.0000000   0.1875000  -0.2500000), wk =   0.0058594
        k(   48) = (   0.0000000   0.1875000  -0.1875000), wk =   0.0029297
        k(   49) = (   0.0000000   0.2500000   0.2500000), wk =   0.0014648
        k(   50) = (   0.0000000   0.2500000   0.3125000), wk =   0.0058594
        k(   51) = (   0.0000000   0.2500000   0.3750000), wk =   0.0058594
        k(   52) = (   0.0000000   0.2500000   0.4375000), wk =   0.0058594
        k(   53) = (   0.0000000   0.2500000  -0.5000000), wk =   0.0058594
        k(   54) = (   0.0000000   0.2500000  -0.4375000), wk =   0.0058594
        k(   55) = (   0.0000000   0.2500000  -0.3750000), wk =   0.0058594
        k(   56) = (   0.0000000   0.2500000  -0.3125000), wk =   0.0058594
        k(   57) = (   0.0000000   0.2500000  -0.2500000), wk =   0.0029297
        k(   58) = (   0.0000000   0.3125000   0.3125000), wk =   0.0014648
        k(   59) = (   0.0000000   0.3125000   0.3750000), wk =   0.0058594
        k(   60) = (   0.0000000   0.3125000   0.4375000), wk =   0.0058594
        k(   61) = (   0.0000000   0.3125000  -0.5000000), wk =   0.0058594
        k(   62) = (   0.0000000   0.3125000  -0.4375000), wk =   0.0058594
        k(   63) = (   0.0000000   0.3125000  -0.3750000), wk =   0.0058594
        k(   64) = (   0.0000000   0.3125000  -0.3125000), wk =   0.0029297
        k(   65) = (   0.0000000   0.3750000   0.3750000), wk =   0.0014648
        k(   66) = (   0.0000000   0.3750000   0.4375000), wk =   0.0058594
        k(   67) = (   0.0000000   0.3750000  -0.5000000), wk =   0.0058594
        k(   68) = (   0.0000000   0.3750000  -0.4375000), wk =   0.0058594
        k(   69) = (   0.0000000   0.3750000  -0.3750000), wk =   0.0029297
        k(   70) = (   0.0000000   0.4375000   0.4375000), wk =   0.0014648
        k(   71) = (   0.0000000   0.4375000  -0.5000000), wk =   0.0058594
        k(   72) = (   0.0000000   0.4375000  -0.4375000), wk =   0.0029297
        k(   73) = (   0.0000000  -0.5000000  -0.5000000), wk =   0.0007324
        k(   74) = (   0.0625000   0.1250000   0.1875000), wk =   0.0058594
        k(   75) = (   0.0625000   0.1250000   0.2500000), wk =   0.0117188
        k(   76) = (   0.0625000   0.1250000   0.3125000), wk =   0.0117188
        k(   77) = (   0.0625000   0.1250000   0.3750000), wk =   0.0117188
        k(   78) = (   0.0625000   0.1250000   0.4375000), wk =   0.0117188
        k(   79) = (   0.0625000   0.1250000  -0.5000000), wk =   0.0117188
        k(   80) = (   0.0625000   0.1250000  -0.4375000), wk =   0.0058594
        k(   81) = (   0.0625000   0.1875000   0.2500000), wk =   0.0058594
        k(   82) = (   0.0625000   0.1875000   0.3125000), wk =   0.0117188
        k(   83) = (   0.0625000   0.1875000   0.3750000), wk =   0.0117188
        k(   84) = (   0.0625000   0.1875000   0.4375000), wk =   0.0117188
        k(   85) = (   0.0625000   0.1875000  -0.5000000), wk =   0.0117188
        k(   86) = (   0.0625000   0.1875000  -0.4375000), wk =   0.0117188
        k(   87) = (   0.0625000   0.1875000  -0.3750000), wk =   0.0117188
        k(   88) = (   0.0625000   0.1875000  -0.3125000), wk =   0.0117188
        k(   89) = (   0.0625000   0.1875000  -0.2500000), wk =   0.0117188
        k(   90) = (   0.0625000   0.1875000  -0.1875000), wk =   0.0117188
        k(   91) = (   0.0625000   0.1875000  -0.1250000), wk =   0.0058594
        k(   92) = (   0.0625000   0.2500000   0.3125000), wk =   0.0058594
        k(   93) = (   0.0625000   0.2500000   0.3750000), wk =   0.0117188
        k(   94) = (   0.0625000   0.2500000   0.4375000), wk =   0.0117188
        k(   95) = (   0.0625000   0.2500000  -0.5000000), wk =   0.0117188
        k(   96) = (   0.0625000   0.2500000  -0.4375000), wk =   0.0117188
        k(   97) = (   0.0625000   0.2500000  -0.3750000), wk =   0.0117188
        k(   98) = (   0.0625000   0.2500000  -0.3125000), wk =   0.0117188
        k(   99) = (   0.0625000   0.2500000  -0.2500000), wk =   0.0117188
        k(  100) = (   0.0625000   0.2500000  -0.1875000), wk =   0.0058594
        k(  101) = (   0.0625000   0.3125000   0.3750000), wk =   0.0058594
        k(  102) = (   0.0625000   0.3125000   0.4375000), wk =   0.0117188
        k(  103) = (   0.0625000   0.3125000  -0.5000000), wk =   0.0117188
        k(  104) = (   0.0625000   0.3125000  -0.4375000), wk =   0.0117188
        k(  105) = (   0.0625000   0.3125000  -0.3750000), wk =   0.0117188
        k(  106) = (   0.0625000   0.3125000  -0.3125000), wk =   0.0117188
        k(  107) = (   0.0625000   0.3125000  -0.2500000), wk =   0.0058594
        k(  108) = (   0.0625000   0.3750000   0.4375000), wk =   0.0058594
        k(  109) = (   0.0625000   0.3750000  -0.5000000), wk =   0.0117188
        k(  110) = (   0.0625000   0.3750000  -0.4375000), wk =   0.0117188
        k(  111) = (   0.0625000   0.3750000  -0.3750000), wk =   0.0117188
        k(  112) = (   0.0625000   0.3750000  -0.3125000), wk =   0.0058594
        k(  113) = (   0.0625000   0.4375000  -0.5000000), wk =   0.0058594
        k(  114) = (   0.0625000   0.4375000  -0.4375000), wk =   0.0117188
        k(  115) = (   0.0625000   0.4375000  -0.3750000), wk =   0.0058594
        k(  116) = (   0.0625000  -0.5000000  -0.4375000), wk =   0.0029297
        k(  117) = (   0.1250000   0.2500000   0.3750000), wk =   0.0058594
        k(  118) = (   0.1250000   0.2500000   0.4375000), wk =   0.0117188
        k(  119) = (   0.1250000   0.2500000  -0.5000000), wk =   0.0117188
        k(  120) = (   0.1250000   0.2500000  -0.4375000), wk =   0.0117188
        k(  121) = (   0.1250000   0.2500000  -0.3750000), wk =   0.0058594
        k(  122) = (   0.1250000   0.3125000   0.4375000), wk =   0.0058594
        k(  123) = (   0.1250000   0.3125000  -0.5000000), wk =   0.0117188
        k(  124) = (   0.1250000   0.3125000  -0.4375000), wk =   0.0117188
        k(  125) = (   0.1250000   0.3125000  -0.3750000), wk =   0.0117188
        k(  126) = (   0.1250000   0.3125000  -0.3125000), wk =   0.0117188
        k(  127) = (   0.1250000   0.3125000  -0.2500000), wk =   0.0117188
        k(  128) = (   0.1250000   0.3125000  -0.1875000), wk =   0.0058594
        k(  129) = (   0.1250000   0.3750000  -0.5000000), wk =   0.0058594
        k(  130) = (   0.1250000   0.3750000  -0.4375000), wk =   0.0117188
        k(  131) = (   0.1250000   0.3750000  -0.3750000), wk =   0.0117188
        k(  132) = (   0.1250000   0.3750000  -0.3125000), wk =   0.0117188
        k(  133) = (   0.1250000   0.3750000  -0.2500000), wk =   0.0058594
        k(  134) = (   0.1250000   0.4375000  -0.4375000), wk =   0.0058594
        k(  135) = (   0.1250000   0.4375000  -0.3750000), wk =   0.0117188
        k(  136) = (   0.1250000   0.4375000  -0.3125000), wk =   0.0058594
        k(  137) = (   0.1250000  -0.5000000  -0.3750000), wk =   0.0029297
        k(  138) = (   0.1875000   0.3750000  -0.4375000), wk =   0.0058594
        k(  139) = (   0.1875000   0.3750000  -0.3750000), wk =   0.0117188
        k(  140) = (   0.1875000   0.3750000  -0.3125000), wk =   0.0058594
        k(  141) = (   0.1875000   0.4375000  -0.3750000), wk =   0.0058594
        k(  142) = (   0.1875000   0.4375000  -0.3125000), wk =   0.0117188
        k(  143) = (   0.1875000   0.4375000  -0.2500000), wk =   0.0058594
        k(  144) = (   0.1875000  -0.5000000  -0.3125000), wk =   0.0029297
        k(  145) = (   0.2500000  -0.5000000  -0.2500000), wk =   0.0014648

     Dense  grid:    68873 G-vectors     FFT dimensions: (  60,  60,  60)

     Largest allocated arrays     est. size (Mb)     dimensions
        Kohn-Sham Wavefunctions         0.60 Mb     (    1088,   36)
        NL pseudopotentials             0.56 Mb     (     544,   68)
        Each V/rho on FFT grid          0.22 Mb     (   14400)
        Each G-vector array             0.03 Mb     (    4303)
        G-vector shells                 0.00 Mb     (     527)
     Largest temporary arrays     est. size (Mb)     dimensions
        Auxiliary wavefunctions         2.39 Mb     (    1088,  144)
        Each subspace H/S matrix        0.32 Mb     (     144,  144)
        Each <psi_i|beta_j> matrix      0.07 Mb     (      68,   2,   36)
        Arrays for rho mixing           1.76 Mb     (   14400,    8)

     Initial potential from superposition of free atoms

     starting charge   27.99781, renormalised to   28.00000
     Starting wfc are   36 randomized atomic wfcs

     total cpu time spent up to now is        9.4 secs

     Self-consistent Calculation

     iteration #  1     ecut=   101.00 Ry     beta=0.70
     Davidson diagonalization with overlap
     ethr =  1.00E-02,  avg # of iterations =  3.5

     Threshold (ethr) on eigenvalues was too large:
     Diagonalizing with lowered threshold

     Davidson diagonalization with overlap
     ethr =  5.69E-05,  avg # of iterations =  3.4

     total cpu time spent up to now is       70.0 secs

     total energy              =    -325.85679328 Ry
     Harris-Foulkes estimate   =    -325.85881766 Ry
     estimated scf accuracy    <       0.01885551 Ry

     iteration #  2     ecut=   101.00 Ry     beta=0.70
     Davidson diagonalization with overlap
     ethr =  6.73E-05,  avg # of iterations =  1.0

     total cpu time spent up to now is       93.8 secs

     total energy              =    -325.85737587 Ry
     Harris-Foulkes estimate   =    -325.85748781 Ry
     estimated scf accuracy    <       0.00151004 Ry

     iteration #  3     ecut=   101.00 Ry     beta=0.70
     Davidson diagonalization with overlap
     ethr =  5.39E-06,  avg # of iterations =  2.3

     total cpu time spent up to now is      125.5 secs

     total energy              =    -325.85758846 Ry
     Harris-Foulkes estimate   =    -325.85762824 Ry
     estimated scf accuracy    <       0.00008160 Ry

     iteration #  4     ecut=   101.00 Ry     beta=0.70
     Davidson diagonalization with overlap
     ethr =  2.91E-07,  avg # of iterations =  2.0

     total cpu time spent up to now is      155.1 secs

     total energy              =    -325.85760890 Ry
     Harris-Foulkes estimate   =    -325.85760717 Ry
     estimated scf accuracy    <       0.00000288 Ry

     iteration #  5     ecut=   101.00 Ry     beta=0.70
     Davidson diagonalization with overlap
     ethr =  1.03E-08,  avg # of iterations =  2.0

     total cpu time spent up to now is      181.5 secs

     End of self-consistent calculation

          k = 0.0000 0.0000 0.0000 (  8609 PWs)   bands (ev):

   -15.1260 -15.1260 -15.1260 -15.1260 -15.0463 -15.0463 -15.0463 -15.0463
   -14.1995 -14.1995 -14.0311 -14.0311 -14.0311 -14.0311 -13.9938 -13.9938
   -13.9938 -13.9938 -13.8903 -13.8903  -3.1711  -3.1711   5.7241   5.7241
     6.5509   6.5509   7.1991   7.1991   7.1991   7.1991   8.7331   8.7331
     9.2030   9.2030   9.2030   9.2030

     occupation numbers 
     1.0000   1.0000   1.0000   1.0000   1.0000   1.0000   1.0000   1.0000
     1.0000   1.0000   1.0000   1.0000   1.0000   1.0000   1.0000   1.0000
     1.0000   1.0000   1.0000   1.0000   1.0000   1.0000   1.0000   1.0000
     1.0000   1.0000   0.0000   0.0000   0.0000   0.0000   0.0000   0.0000
     0.0000   0.0000   0.0000   0.0000

          k = 0.0442 0.0442-0.0442 (  8585 PWs)   bands (ev):

   -15.1264 -15.1264 -15.1253 -15.1253 -15.0470 -15.0470 -15.0458 -15.0458
   -14.1977 -14.1977 -14.0361 -14.0361 -14.0342 -14.0342 -13.9905 -13.9905
   -13.9895 -13.9895 -13.8912 -13.8912  -3.1363  -3.1363   5.3153   5.3153
     6.5971   6.5971   7.1243   7.1243   7.2604   7.2604   8.8901   8.8901
     9.2855   9.2855   9.2999   9.2999

     occupation numbers 
     1.0000   1.0000   1.0000   1.0000   1.0000   1.0000   1.0000   1.0000
     1.0000   1.0000   1.0000   1.0000   1.0000   1.0000   1.0000   1.0000
     1.0000   1.0000   1.0000   1.0000   1.0000   1.0000   1.0000   1.0000
     1.0000   1.0000   0.0000   0.0000   0.0000   0.0000   0.0000   0.0000
     0.0000   0.0000   0.0000   0.0000

          k = 0.0884 0.0884-0.0884 (  8585 PWs)   bands (ev):

   -15.1275 -15.1275 -15.1230 -15.1230 -15.0492 -15.0492 -15.0443 -15.0443
   -14.1926 -14.1926 -14.0471 -14.0471 -14.0413 -14.0413 -13.9829 -13.9829
   -13.9805 -13.9805 -13.8940 -13.8940  -3.0328  -3.0328   4.5524   4.5524
     6.4903   6.4903   6.9425   6.9425   7.3078   7.3078   9.2166   9.2166
     9.5371   9.5371   9.6398   9.6398

     occupation numbers 
     1.0000   1.0000   1.0000   1.0000   1.0000   1.0000   1.0000   1.0000
     1.0000   1.0000   1.0000   1.0000   1.0000   1.0000   1.0000   1.0000
     1.0000   1.0000   1.0000   1.0000   1.0000   1.0000   1.0000   1.0000
     1.0000   1.0000   1.0000   1.0000   0.0000   0.0000   0.0000   0.0000
     0.0000   0.0000   0.0000   0.0000

          k = 0.1326 0.1326-0.1326 (  8582 PWs)   bands (ev):

   -15.1290 -15.1290 -15.1194 -15.1194 -15.0527 -15.0527 -15.0423 -15.0423
   -14.1845 -14.1845 -14.0601 -14.0601 -14.0492 -14.0492 -13.9741 -13.9741
   -13.9707 -13.9707 -13.8983 -13.8983  -2.8636  -2.8636   3.7244   3.7244
     6.2948   6.2948   6.7241   6.7241   7.2291   7.2291   9.5030   9.5030
     9.8115   9.8115  10.3074  10.3075

     occupation numbers 
     1.0000   1.0000   1.0000   1.0000   1.0000   1.0000   1.0000   1.0000
     1.0000   1.0000   1.0000   1.0000   1.0000   1.0000   1.0000   1.0000
     1.0000   1.0000   1.0000   1.0000   1.0000   1.0000   1.0000   1.0000
     1.0000   1.0000   1.0000   1.0000   0.0000   0.0000   0.0000   0.0000
     0.0000   0.0000   0.0000   0.0000

          k = 0.1768 0.1768-0.1768 (  8591 PWs)   bands (ev):

   -15.1306 -15.1306 -15.1146 -15.1146 -15.0574 -15.0574 -15.0399 -15.0399
   -14.1743 -14.1743 -14.0735 -14.0735 -14.0567 -14.0567 -13.9656 -13.9656
   -13.9613 -13.9613 -13.9039 -13.9039  -2.6349  -2.6349   2.9144   2.9144
     6.0945   6.0945   6.5152   6.5152   7.0903   7.0903   9.7349   9.7349
    10.0340  10.0340  11.1155  11.1155

     occupation numbers 
     1.0000   1.0000   1.0000   1.0000   1.0000   1.0000   1.0000   1.0000
     1.0000   1.0000   1.0000   1.0000   1.0000   1.0000   1.0000   1.0000
     1.0000   1.0000   1.0000   1.0000   1.0000   1.0000   1.0000   1.0000
     1.0000   1.0000   1.0000   1.0000   0.0000   0.0000   0.0000   0.0000
     0.0000   0.0000   0.0000   0.0000

          k = 0.2210 0.2210-0.2210 (  8588 PWs)   bands (ev):

   -15.1321 -15.1321 -15.1090 -15.1090 -15.0628 -15.0628 -15.0378 -15.0378
   -14.1626 -14.1626 -14.0867 -14.0867 -14.0630 -14.0630 -13.9583 -13.9583
   -13.9528 -13.9528 -13.9103 -13.9103  -2.3599  -2.3599   2.1673   2.1673
     5.9225   5.9225   6.3391   6.3391   6.9512   6.9512   9.8850   9.8850
    10.1599  10.1599  11.9763  11.9763

     occupation numbers 
     1.0000   1.0000   1.0000   1.0000   1.0000   1.0000   1.0000   1.0000
     1.0000   1.0000   1.0000   1.0000   1.0000   1.0000   1.0000   1.0000
     1.0000   1.0000   1.0000   1.0000   1.0000   1.0000   1.0000   1.0000
     1.0000   1.0000   1.0000   1.0000   0.1250   0.1250   0.0000   0.0000
     0.0000   0.0000   0.0000   0.0000

          k = 0.2652 0.2652-0.2652 (  8589 PWs)   bands (ev):

   -15.1333 -15.1333 -15.1030 -15.1030 -15.0686 -15.0686 -15.0360 -15.0360
   -14.1503 -14.1503 -14.0993 -14.0993 -14.0677 -14.0677 -13.9528 -13.9528
   -13.9452 -13.9452 -13.9172 -13.9172  -2.0664  -2.0664   1.5278   1.5278
     5.7932   5.7932   6.2077   6.2077   6.8405   6.8405   9.9554   9.9554
    10.2031  10.2031  12.6304  12.6305

     occupation numbers 
     1.0000   1.0000   1.0000   1.0000   1.0000   1.0000   1.0000   1.0000
     1.0000   1.0000   1.0000   1.0000   1.0000   1.0000   1.0000   1.0000
     1.0000   1.0000   1.0000   1.0000   1.0000   1.0000   1.0000   1.0000
     1.0000   1.0000   1.0000   1.0000   1.0000   1.0000   0.0000   0.0000
     0.0000   0.0000   0.0000   0.0000

          k = 0.3094 0.3094-0.3094 (  8604 PWs)   bands (ev):

   -15.1341 -15.1341 -15.0975 -15.0975 -15.0740 -15.0740 -15.0349 -15.0349
   -14.1382 -14.1382 -14.1112 -14.1112 -14.0706 -14.0706 -13.9494 -13.9494
   -13.9382 -13.9382 -13.9240 -13.9240  -1.8148  -1.8148   1.0654   1.0654
     5.7134   5.7134   6.1270   6.1270   6.7708   6.7708   9.9776   9.9776
    10.2063  10.2063  12.6534  12.6534

     occupation numbers 
     1.0000   1.0000   1.0000   1.0000   1.0000   1.0000   1.0000   1.0000
     1.0000   1.0000   1.0000   1.0000   1.0000   1.0000   1.0000   1.0000
     1.0000   1.0000   1.0000   1.0000   1.0000   1.0000   1.0000   1.0000
     1.0000   1.0000   1.0000   1.0000   1.0000   1.0000   0.0000   0.0000
     0.0000   0.0000   0.0000   0.0000

          k =-0.3536-0.3536 0.3536 (  8604 PWs)   bands (ev):

   -15.1343 -15.1343 -15.0949 -15.0949 -15.0766 -15.0766 -15.0345 -15.0345
   -14.1300 -14.1300 -14.1193 -14.1193 -14.0715 -14.0715 -13.9482 -13.9482
   -13.9330 -13.9330 -13.9292 -13.9292  -1.7083  -1.7083   0.8882   0.8882
     5.6865   5.6865   6.0998   6.0998   6.7471   6.7471   9.9813   9.9813
    10.2034  10.2034  12.6282  12.6282

     occupation numbers 
     1.0000   1.0000   1.0000   1.0000   1.0000   1.0000   1.0000   1.0000
     1.0000   1.0000   1.0000   1.0000   1.0000   1.0000   1.0000   1.0000
     1.0000   1.0000   1.0000   1.0000   1.0000   1.0000   1.0000   1.0000
     1.0000   1.0000   1.0000   1.0000   1.0000   1.0000   0.0000   0.0000
     0.0000   0.0000   0.0000   0.0000

          k = 0.0884 0.0000 0.0000 (  8581 PWs)   bands (ev):

   -15.1261 -15.1261 -15.1254 -15.1254 -15.0470 -15.0470 -15.0459 -15.0459
   -14.1971 -14.1971 -14.0385 -14.0385 -14.0341 -14.0341 -13.9898 -13.9898
   -13.9881 -13.9881 -13.8915 -13.8915  -3.1247  -3.1247   5.2347   5.2347
     6.5297   6.5297   6.9439   6.9439   7.5174   7.5174   8.8075   8.8075
     9.2991   9.2991   9.4338   9.4338

     occupation numbers 
     1.0000   1.0000   1.0000   1.0000   1.0000   1.0000   1.0000   1.0000
     1.0000   1.0000   1.0000   1.0000   1.0000   1.0000   1.0000   1.0000
     1.0000   1.0000   1.0000   1.0000   1.0000   1.0000   1.0000   1.0000
     1.0000   1.0000   1.0000   1.0000   0.0000   0.0000   0.0000   0.0000
     0.0000   0.0000   0.0000   0.0000

          k = 0.1326 0.0442-0.0442 (  8583 PWs)   bands (ev):

   -15.1269 -15.1269 -15.1238 -15.1238 -15.0486 -15.0486 -15.0448 -15.0448
   -14.1931 -14.1931 -14.0474 -14.0474 -14.0390 -14.0390 -13.9845 -13.9845
   -13.9808 -13.9808 -13.8935 -13.8935  -3.0439  -3.0439   4.6692   4.6692
     6.3904   6.3904   6.7333   6.7333   7.7204   7.7204   8.8742   8.8742
     9.5851   9.5851   9.7353   9.7353

     occupation numbers 
     1.0000   1.0000   1.0000   1.0000   1.0000   1.0000   1.0000   1.0000
     1.0000   1.0000   1.0000   1.0000   1.0000   1.0000   1.0000   1.0000
     1.0000   1.0000   1.0000   1.0000   1.0000   1.0000   1.0000   1.0000
     1.0000   1.0000   1.0000   1.0000   0.0000   0.0000   0.0000   0.0000
     0.0000   0.0000   0.0000   0.0000

          k = 0.1768 0.0884-0.0884 (  8585 PWs)   bands (ev):

   -15.1283 -15.1283 -15.1206 -15.1206 -15.0517 -15.0517 -15.0429 -15.0429
   -14.1860 -14.1860 -14.0591 -14.0591 -14.0461 -14.0461 -13.9779 -13.9779
   -13.9708 -13.9708 -13.8972 -13.8972  -2.8962  -2.8962   3.9170   3.9170
     6.1856   6.1856   6.5149   6.5149   7.7159   7.7159   9.1173   9.1173
     9.9184   9.9184  10.2472  10.2472

     occupation numbers 
     1.0000   1.0000   1.0000   1.0000   1.0000   1.0000   1.0000   1.0000
     1.0000   1.0000   1.0000   1.0000   1.0000   1.0000   1.0000   1.0000
     1.0000   1.0000   1.0000   1.0000   1.0000   1.0000   1.0000   1.0000
     1.0000   1.0000   1.0000   1.0000   0.0000   0.0000   0.0000   0.0000
     0.0000   0.0000   0.0000   0.0000

          k = 0.2210 0.1326-0.1326 (  8591 PWs)   bands (ev):

   -15.1300 -15.1300 -15.1162 -15.1162 -15.0560 -15.0560 -15.0406 -15.0406
   -14.1765 -14.1765 -14.0717 -14.0717 -14.0534 -14.0534 -13.9714 -13.9714
   -13.9606 -13.9606 -13.9020 -13.9020  -2.6863  -2.6863   3.1304   3.1304
     5.9699   5.9699   6.2972   6.2972   7.5988   7.5988   9.4225   9.4225
    10.1734  10.1734  10.8842  10.8842

     occupation numbers 
     1.0000   1.0000   1.0000   1.0000   1.0000   1.0000   1.0000   1.0000
     1.0000   1.0000   1.0000   1.0000   1.0000   1.0000   1.0000   1.0000
     1.0000   1.0000   1.0000   1.0000   1.0000   1.0000   1.0000   1.0000
     1.0000   1.0000   1.0000   1.0000   0.0000   0.0000   0.0000   0.0000
     0.0000   0.0000   0.0000   0.0000

          k = 0.2652 0.1768-0.1768 (  8585 PWs)   bands (ev):

   -15.1315 -15.1315 -15.1108 -15.1108 -15.0612 -15.0612 -15.0383 -15.0383
   -14.1654 -14.1654 -14.0841 -14.0841 -14.0600 -14.0600 -13.9655 -13.9655
   -13.9514 -13.9514 -13.9076 -13.9076  -2.4246  -2.4246   2.3777   2.3777
     5.7751   5.7751   6.1110   6.1110   7.4554   7.4554   9.6764   9.6764
    10.3138  10.3138  11.5594  11.5594

     occupation numbers 
     1.0000   1.0000   1.0000   1.0000   1.0000   1.0000   1.0000   1.0000
     1.0000   1.0000   1.0000   1.0000   1.0000   1.0000   1.0000   1.0000
     1.0000   1.0000   1.0000   1.0000   1.0000   1.0000   1.0000   1.0000
     1.0000   1.0000   1.0000   1.0000   0.0000   0.0000   0.0000   0.0000
     0.0000   0.0000   0.0000   0.0000

          k = 0.3094 0.2210-0.2210 (  8585 PWs)   bands (ev):

   -15.1329 -15.1329 -15.1049 -15.1049 -15.0670 -15.0670 -15.0363 -15.0363
   -14.1535 -14.1535 -14.0961 -14.0961 -14.0653 -14.0653 -13.9608 -13.9608
   -13.9436 -13.9436 -13.9133 -13.9133  -2.1324  -2.1324   1.7080   1.7080
     5.6148   5.6148   5.9764   5.9764   7.3277   7.3277   9.8332   9.8332
    10.3462  10.3462  12.2227  12.2227

     occupation numbers 
     1.0000   1.0000   1.0000   1.0000   1.0000   1.0000   1.0000   1.0000
     1.0000   1.0000   1.0000   1.0000   1.0000   1.0000   1.0000   1.0000
     1.0000   1.0000   1.0000   1.0000   1.0000   1.0000   1.0000   1.0000
     1.0000   1.0000   1.0000   1.0000   0.0000   0.0000   0.0000   0.0000
     0.0000   0.0000   0.0000   0.0000

          k = 0.3536 0.2652-0.2652 (  8590 PWs)   bands (ev):

   -15.1338 -15.1338 -15.0991 -15.0991 -15.0727 -15.0727 -15.0349 -15.0349
   -14.1418 -14.1418 -14.1073 -14.1073 -14.0689 -14.0689 -13.9575 -13.9575
   -13.9377 -13.9377 -13.9184 -13.9184  -1.8566  -1.8566   1.1822   1.1822
     5.4963   5.4963   5.9022   5.9022   7.2345   7.2345   9.9177   9.9177
    10.3157  10.3157  12.6487  12.6487

     occupation numbers 
     1.0000   1.0000   1.0000   1.0000   1.0000   1.0000   1.0000   1.0000
     1.0000   1.0000   1.0000   1.0000   1.0000   1.0000   1.0000   1.0000
     1.0000   1.0000   1.0000   1.0000   1.0000   1.0000   1.0000   1.0000
     1.0000   1.0000   1.0000   1.0000   0.0000   0.0000   0.0000   0.0000
     0.0000   0.0000   0.0000   0.0000

          k =-0.3094-0.3977 0.3977 (  8607 PWs)   bands (ev):

   -15.1342 -15.1342 -15.0951 -15.0951 -15.0766 -15.0766 -15.0342 -15.0342
   -14.1322 -14.1322 -14.1165 -14.1165 -14.0706 -14.0706 -13.9560 -13.9560
   -13.9342 -13.9342 -13.9216 -13.9216  -1.6886  -1.6886   0.8994   0.8994
     5.4256   5.4256   5.8902   5.8902   7.1843   7.1843   9.9698   9.9698
    10.2671  10.2671  12.7411  12.7411

     occupation numbers 
     1.0000   1.0000   1.0000   1.0000   1.0000   1.0000   1.0000   1.0000
     1.0000   1.0000   1.0000   1.0000   1.0000   1.0000   1.0000   1.0000
     1.0000   1.0000   1.0000   1.0000   1.0000   1.0000   1.0000   1.0000
     1.0000   1.0000   1.0000   1.0000   0.0000   0.0000   0.0000   0.0000
     0.0000   0.0000   0.0000   0.0000

          k =-0.2652-0.3536 0.3536 (  8601 PWs)   bands (ev):

   -15.1342 -15.1342 -15.0960 -15.0960 -15.0758 -15.0758 -15.0343 -15.0343
   -14.1349 -14.1349 -14.1139 -14.1139 -14.0702 -14.0702 -13.9566 -13.9566
   -13.9347 -13.9347 -13.9210 -13.9210  -1.7256  -1.7256   0.9596   0.9596
     5.4075   5.4075   5.9382   5.9382   7.1800   7.1800  10.0043  10.0043
    10.2301  10.2301  12.7538  12.7538

     occupation numbers 
     1.0000   1.0000   1.0000   1.0000   1.0000   1.0000   1.0000   1.0000
     1.0000   1.0000   1.0000   1.0000   1.0000   1.0000   1.0000   1.0000
     1.0000   1.0000   1.0000   1.0000   1.0000   1.0000   1.0000   1.0000
     1.0000   1.0000   1.0000   1.0000   0.0000   0.0000   0.0000   0.0000
     0.0000   0.0000   0.0000   0.0000

          k =-0.2210-0.3094 0.3094 (  8589 PWs)   bands (ev):

   -15.1336 -15.1336 -15.1008 -15.1008 -15.0710 -15.0710 -15.0352 -15.0352
   -14.1456 -14.1456 -14.1037 -14.1037 -14.0678 -14.0678 -13.9590 -13.9590
   -13.9388 -13.9388 -13.9170 -13.9170  -1.9427  -1.9427   1.3374   1.3374
     5.4453   5.4453   6.0421   6.0421   7.2213   7.2213   9.9988   9.9988
    10.2201  10.2201  12.6419  12.6419

     occupation numbers 
     1.0000   1.0000   1.0000   1.0000   1.0000   1.0000   1.0000   1.0000
     1.0000   1.0000   1.0000   1.0000   1.0000   1.0000   1.0000   1.0000
     1.0000   1.0000   1.0000   1.0000   1.0000   1.0000   1.0000   1.0000
     1.0000   1.0000   1.0000   1.0000   0.0000   0.0000   0.0000   0.0000
     0.0000   0.0000   0.0000   0.0000

          k =-0.1768-0.2652 0.2652 (  8602 PWs)   bands (ev):

   -15.1325 -15.1325 -15.1067 -15.1067 -15.0652 -15.0652 -15.0368 -15.0368
   -14.1575 -14.1575 -14.0922 -14.0922 -14.0635 -14.0635 -13.9631 -13.9631
   -13.9452 -13.9452 -13.9116 -13.9116  -2.2317  -2.2317   1.9199   1.9199
     5.5413   5.5413   6.1954   6.1954   7.3034   7.3034   9.9235   9.9235
    10.2097  10.2097  12.0783  12.0783

     occupation numbers 
     1.0000   1.0000   1.0000   1.0000   1.0000   1.0000   1.0000   1.0000
     1.0000   1.0000   1.0000   1.0000   1.0000   1.0000   1.0000   1.0000
     1.0000   1.0000   1.0000   1.0000   1.0000   1.0000   1.0000   1.0000
     1.0000   1.0000   1.0000   1.0000   0.0000   0.0000   0.0000   0.0000
     0.0000   0.0000   0.0000   0.0000

          k =-0.1326-0.2210 0.2210 (  8591 PWs)   bands (ev):

   -15.1311 -15.1311 -15.1125 -15.1125 -15.0596 -15.0596 -15.0389 -15.0389
   -14.1693 -14.1693 -14.0801 -14.0801 -14.0577 -14.0577 -13.9683 -13.9683
   -13.9533 -13.9533 -13.9058 -13.9058  -2.5171  -2.5171   2.6218   2.6218
     5.6959   5.6959   6.3877   6.3877   7.4144   7.4144   9.7656   9.7656
    10.1149  10.1149  11.3535  11.3535

     occupation numbers 
     1.0000   1.0000   1.0000   1.0000   1.0000   1.0000   1.0000   1.0000
     1.0000   1.0000   1.0000   1.0000   1.0000   1.0000   1.0000   1.0000
     1.0000   1.0000   1.0000   1.0000   1.0000   1.0000   1.0000   1.0000
     1.0000   1.0000   1.0000   1.0000   0.0000   0.0000   0.0000   0.0000
     0.0000   0.0000   0.0000   0.0000

          k =-0.0884-0.1768 0.1768 (  8593 PWs)   bands (ev):

   -15.1296 -15.1296 -15.1175 -15.1175 -15.0547 -15.0547 -15.0412 -15.0412
   -14.1800 -14.1800 -14.0675 -14.0675 -14.0508 -14.0508 -13.9746 -13.9746
   -13.9629 -13.9629 -13.9004 -13.9004  -2.7631  -2.7631   3.3884   3.3884
     5.9076   5.9076   6.6018   6.6018   7.5260   7.5260   9.5324   9.5325
     9.8620   9.8620  10.7017  10.7017

     occupation numbers 
     1.0000   1.0000   1.0000   1.0000   1.0000   1.0000   1.0000   1.0000
     1.0000   1.0000   1.0000   1.0000   1.0000   1.0000   1.0000   1.0000
     1.0000   1.0000   1.0000   1.0000   1.0000   1.0000   1.0000   1.0000
     1.0000   1.0000   1.0000   1.0000   0.0000   0.0000   0.0000   0.0000
     0.0000   0.0000   0.0000   0.0000

          k =-0.0442-0.1326 0.1326 (  8594 PWs)   bands (ev):

   -15.1280 -15.1280 -15.1215 -15.1215 -15.0508 -15.0508 -15.0434 -15.0434
   -14.1887 -14.1887 -14.0549 -14.0549 -14.0437 -14.0437 -13.9811 -13.9811
   -13.9732 -13.9732 -13.8959 -13.8959  -2.9529  -2.9529   4.1659   4.1659
     6.1697   6.1697   6.8077   6.8077   7.5761   7.5761   9.2655   9.2655
     9.5176   9.5176  10.1371  10.1371

     occupation numbers 
     1.0000   1.0000   1.0000   1.0000   1.0000   1.0000   1.0000   1.0000
     1.0000   1.0000   1.0000   1.0000   1.0000   1.0000   1.0000   1.0000
     1.0000   1.0000   1.0000   1.0000   1.0000   1.0000   1.0000   1.0000
     1.0000   1.0000   1.0000   1.0000   0.0000   0.0000   0.0000   0.0000
     0.0000   0.0000   0.0000   0.0000

          k = 0.0000-0.0884 0.0884 (  8575 PWs)   bands (ev):

   -15.1269 -15.1269 -15.1242 -15.1242 -15.0482 -15.0482 -15.0450 -15.0450
   -14.1948 -14.1948 -14.0435 -14.0435 -14.0375 -14.0375 -13.9870 -13.9870
   -13.9831 -13.9831 -13.8927 -13.8927  -3.0786  -3.0786   4.8679   4.8679
     6.4512   6.4512   6.9700   6.9700   7.4699   7.4699   9.0236   9.0236
     9.3038   9.3038   9.6373   9.6373

     occupation numbers 
     1.0000   1.0000   1.0000   1.0000   1.0000   1.0000   1.0000   1.0000
     1.0000   1.0000   1.0000   1.0000   1.0000   1.0000   1.0000   1.0000
     1.0000   1.0000   1.0000   1.0000   1.0000   1.0000   1.0000   1.0000
     1.0000   1.0000   0.0000   0.0000   0.0000   0.0000   0.0000   0.0000
     0.0000   0.0000   0.0000   0.0000

          k = 0.1768 0.0000 0.0000 (  8588 PWs)   bands (ev):

   -15.1263 -15.1263 -15.1238 -15.1238 -15.0488 -15.0488 -15.0449 -15.0449
   -14.1903 -14.1903 -14.0534 -14.0534 -14.0407 -14.0407 -13.9802 -13.9802
   -13.9786 -13.9786 -13.8947 -13.8947  -2.9858  -2.9858   4.4202   4.4202
     6.1999   6.1999   6.4550   6.4550   8.1846   8.1846   8.5679   8.5679
     9.8865   9.8866   9.9900   9.9900

     occupation numbers 
     1.0000   1.0000   1.0000   1.0000   1.0000   1.0000   1.0000   1.0000
     1.0000   1.0000   1.0000   1.0000   1.0000   1.0000   1.0000   1.0000
     1.0000   1.0000   1.0000   1.0000   1.0000   1.0000   1.0000   1.0000
     1.0000   1.0000   1.0000   1.0000   0.0000   0.0000   0.0000   0.0000
     0.0000   0.0000   0.0000   0.0000

          k = 0.2210 0.0442-0.0442 (  8577 PWs)   bands (ev):

   -15.1272 -15.1272 -15.1215 -15.1215 -15.0510 -15.0510 -15.0436 -15.0436
   -14.1843 -14.1843 -14.0628 -14.0628 -14.0454 -14.0454 -13.9768 -13.9768
   -13.9702 -13.9702 -13.8973 -13.8973  -2.8599  -2.8599   3.8784   3.8784
     5.9803   5.9803   6.2134   6.2134   8.3308   8.3308   8.5969   8.5969
    10.2575  10.2575  10.3846  10.3846

     occupation numbers 
     1.0000   1.0000   1.0000   1.0000   1.0000   1.0000   1.0000   1.0000
     1.0000   1.0000   1.0000   1.0000   1.0000   1.0000   1.0000   1.0000
     1.0000   1.0000   1.0000   1.0000   1.0000   1.0000   1.0000   1.0000
     1.0000   1.0000   1.0000   1.0000   0.0000   0.0000   0.0000   0.0000
     0.0000   0.0000   0.0000   0.0000

          k = 0.2652 0.0884-0.0884 (  8575 PWs)   bands (ev):

   -15.1288 -15.1288 -15.1175 -15.1175 -15.0549 -15.0549 -15.0413 -15.0413
   -14.1758 -14.1758 -14.0737 -14.0737 -14.0510 -14.0510 -13.9741 -13.9741
   -13.9599 -13.9599 -13.9009 -13.9009  -2.6700  -2.6700   3.2039   3.2039
     5.7301   5.7301   5.9912   5.9912   8.2577   8.2577   8.8853   8.8853
    10.5534  10.5534  10.8069  10.8069

     occupation numbers 
     1.0000   1.0000   1.0000   1.0000   1.0000   1.0000   1.0000   1.0000
     1.0000   1.0000   1.0000   1.0000   1.0000   1.0000   1.0000   1.0000
     1.0000   1.0000   1.0000   1.0000   1.0000   1.0000   1.0000   1.0000
     1.0000   1.0000   1.0000   1.0000   0.0000   0.0000   0.0000   0.0000
     0.0000   0.0000   0.0000   0.0000

          k = 0.3094 0.1326-0.1326 (  8572 PWs)   bands (ev):

   -15.1305 -15.1305 -15.1126 -15.1126 -15.0598 -15.0598 -15.0388 -15.0388
   -14.1656 -14.1656 -14.0847 -14.0847 -14.0567 -14.0567 -13.9720 -13.9720
   -13.9502 -13.9502 -13.9048 -13.9048  -2.4238  -2.4238   2.5032   2.5032
     5.4749   5.4749   5.8142   5.8142   8.1232   8.1232   9.2577   9.2577
    10.7249  10.7249  11.1245  11.1245

     occupation numbers 
     1.0000   1.0000   1.0000   1.0000   1.0000   1.0000   1.0000   1.0000
     1.0000   1.0000   1.0000   1.0000   1.0000   1.0000   1.0000   1.0000
     1.0000   1.0000   1.0000   1.0000   1.0000   1.0000   1.0000   1.0000
     1.0000   1.0000   1.0000   1.0000   0.0000   0.0000   0.0000   0.0000
     0.0000   0.0000   0.0000   0.0000

          k = 0.3536 0.1768-0.1768 (  8590 PWs)   bands (ev):

   -15.1321 -15.1321 -15.1069 -15.1069 -15.0654 -15.0654 -15.0365 -15.0365
   -14.1546 -14.1546 -14.0950 -14.0950 -14.0618 -14.0618 -13.9705 -13.9705
   -13.9425 -13.9425 -13.9083 -13.9083  -2.1377  -2.1377   1.8429   1.8429
     5.2420   5.2420   5.7004   5.7004   7.9843   7.9843   9.5766   9.5766
    10.7631  10.7631  11.4807  11.4807

     occupation numbers 
     1.0000   1.0000   1.0000   1.0000   1.0000   1.0000   1.0000   1.0000
     1.0000   1.0000   1.0000   1.0000   1.0000   1.0000   1.0000   1.0000
     1.0000   1.0000   1.0000   1.0000   1.0000   1.0000   1.0000   1.0000
     1.0000   1.0000   1.0000   1.0000   0.0000   0.0000   0.0000   0.0000
     0.0000   0.0000   0.0000   0.0000

          k = 0.3977 0.2210-0.2210 (  8584 PWs)   bands (ev):

   -15.1332 -15.1332 -15.1011 -15.1011 -15.0712 -15.0712 -15.0347 -15.0347
   -14.1439 -14.1439 -14.1042 -14.1042 -14.0658 -14.0658 -13.9697 -13.9697
   -13.9373 -13.9373 -13.9106 -13.9106  -1.8473  -1.8473   1.2851   1.2851
     5.0518   5.0518   5.6521   5.6521   7.8705   7.8705   9.7745   9.7745
    10.7090  10.7090  11.9937  11.9938

     occupation numbers 
     1.0000   1.0000   1.0000   1.0000   1.0000   1.0000   1.0000   1.0000
     1.0000   1.0000   1.0000   1.0000   1.0000   1.0000   1.0000   1.0000
     1.0000   1.0000   1.0000   1.0000   1.0000   1.0000   1.0000   1.0000
     1.0000   1.0000   1.0000   1.0000   0.0000   0.0000   0.0000   0.0000
     0.0000   0.0000   0.0000   0.0000

          k =-0.2652-0.4419 0.4419 (  8593 PWs)   bands (ev):

   -15.1339 -15.1339 -15.0962 -15.0962 -15.0762 -15.0762 -15.0336 -15.0336
   -14.1355 -14.1355 -14.1114 -14.1114 -14.0681 -14.0681 -13.9696 -13.9696
   -13.9347 -13.9347 -13.9116 -13.9116  -1.6287  -1.6287   0.9198   0.9198
     4.9164   4.9164   5.6678   5.6678   7.7951   7.7951   9.8931   9.8931
    10.6114  10.6114  12.5561  12.5562

     occupation numbers 
     1.0000   1.0000   1.0000   1.0000   1.0000   1.0000   1.0000   1.0000
     1.0000   1.0000   1.0000   1.0000   1.0000   1.0000   1.0000   1.0000
     1.0000   1.0000   1.0000   1.0000   1.0000   1.0000   1.0000   1.0000
     1.0000   1.0000   1.0000   1.0000   0.0000   0.0000   0.0000   0.0000
     0.0000   0.0000   0.0000   0.0000

          k =-0.2210-0.3977 0.3977 (  8595 PWs)   bands (ev):

   -15.1341 -15.1341 -15.0948 -15.0948 -15.0777 -15.0777 -15.0332 -15.0332
   -14.1340 -14.1340 -14.1128 -14.1128 -14.0682 -14.0682 -13.9701 -13.9701
   -13.9339 -13.9339 -13.9118 -13.9118  -1.5933  -1.5933   0.8646   0.8646
     4.8436   4.8436   5.7444   5.7444   7.7631   7.7631   9.9894   9.9894
    10.4998  10.4998  12.8585  12.8585

     occupation numbers 
     1.0000   1.0000   1.0000   1.0000   1.0000   1.0000   1.0000   1.0000
     1.0000   1.0000   1.0000   1.0000   1.0000   1.0000   1.0000   1.0000
     1.0000   1.0000   1.0000   1.0000   1.0000   1.0000   1.0000   1.0000
     1.0000   1.0000   1.0000   1.0000   0.0000   0.0000   0.0000   0.0000
     0.0000   0.0000   0.0000   0.0000

          k =-0.1768-0.3536 0.3536 (  8589 PWs)   bands (ev):

   -15.1338 -15.1338 -15.0983 -15.0983 -15.0742 -15.0742 -15.0338 -15.0338
   -14.1410 -14.1410 -14.1069 -14.1069 -14.0661 -14.0661 -13.9712 -13.9712
   -13.9347 -13.9347 -13.9115 -13.9115  -1.7655  -1.7655   1.1440   1.1440
     4.8396   4.8396   5.8764   5.8764   7.7736   7.7736  10.0793  10.0793
    10.3828  10.3828  12.6059  12.6059

     occupation numbers 
     1.0000   1.0000   1.0000   1.0000   1.0000   1.0000   1.0000   1.0000
     1.0000   1.0000   1.0000   1.0000   1.0000   1.0000   1.0000   1.0000
     1.0000   1.0000   1.0000   1.0000   1.0000   1.0000   1.0000   1.0000
     1.0000   1.0000   1.0000   1.0000   0.0000   0.0000   0.0000   0.0000
     0.0000   0.0000   0.0000   0.0000

          k =-0.1326-0.3094 0.3094 (  8585 PWs)   bands (ev):

   -15.1330 -15.1330 -15.1038 -15.1038 -15.0687 -15.0687 -15.0351 -15.0351
   -14.1512 -14.1512 -14.0983 -14.0983 -14.0622 -14.0622 -13.9727 -13.9727
   -13.9379 -13.9379 -13.9099 -13.9099  -2.0438  -2.0438   1.6507   1.6507
     4.9111   4.9111   6.0554   6.0554   7.8191   7.8191  10.1027  10.1027
    10.2804  10.2804  11.9603  11.9603

     occupation numbers 
     1.0000   1.0000   1.0000   1.0000   1.0000   1.0000   1.0000   1.0000
     1.0000   1.0000   1.0000   1.0000   1.0000   1.0000   1.0000   1.0000
     1.0000   1.0000   1.0000   1.0000   1.0000   1.0000   1.0000   1.0000
     1.0000   1.0000   1.0000   1.0000   0.0000   0.0000   0.0000   0.0000
     0.0000   0.0000   0.0000   0.0000

          k =-0.0884-0.2652 0.2652 (  8583 PWs)   bands (ev):

   -15.1318 -15.1318 -15.1095 -15.1095 -15.0631 -15.0631 -15.0371 -15.0371
   -14.1622 -14.1622 -14.0885 -14.0885 -14.0573 -14.0573 -13.9746 -13.9746
   -13.9441 -13.9441 -13.9068 -13.9068  -2.3363  -2.3363   2.2783   2.2783
     5.0674   5.0674   6.2674   6.2674   7.8808   7.8808   9.9455   9.9455
    10.1933  10.1933  11.3556  11.3556

     occupation numbers 
     1.0000   1.0000   1.0000   1.0000   1.0000   1.0000   1.0000   1.0000
     1.0000   1.0000   1.0000   1.0000   1.0000   1.0000   1.0000   1.0000
     1.0000   1.0000   1.0000   1.0000   1.0000   1.0000   1.0000   1.0000
     1.0000   1.0000   1.0000   1.0000   0.0000   0.0000   0.0000   0.0000
     0.0000   0.0000   0.0000   0.0000

          k =-0.0442-0.2210 0.2210 (  8592 PWs)   bands (ev):

   -15.1304 -15.1304 -15.1146 -15.1146 -15.0580 -15.0580 -15.0394 -15.0394
   -14.1728 -14.1728 -14.0776 -14.0776 -14.0521 -14.0521 -13.9768 -13.9768
   -13.9528 -13.9528 -13.9029 -13.9029  -2.5973  -2.5973   2.9533   2.9533
     5.3227   5.3227   6.4892   6.4892   7.9150   7.9150   9.6950   9.6950
     9.9283   9.9283  10.9742  10.9742

     occupation numbers 
     1.0000   1.0000   1.0000   1.0000   1.0000   1.0000   1.0000   1.0000
     1.0000   1.0000   1.0000   1.0000   1.0000   1.0000   1.0000   1.0000
     1.0000   1.0000   1.0000   1.0000   1.0000   1.0000   1.0000   1.0000
     1.0000   1.0000   1.0000   1.0000   0.0000   0.0000   0.0000   0.0000
     0.0000   0.0000   0.0000   0.0000

          k = 0.0000-0.1768 0.1768 (  8595 PWs)   bands (ev):

   -15.1290 -15.1290 -15.1187 -15.1187 -15.0537 -15.0537 -15.0417 -15.0417
   -14.1819 -14.1819 -14.0661 -14.0661 -14.0473 -14.0473 -13.9792 -13.9792
   -13.9630 -13.9630 -13.8990 -13.8990  -2.8061  -2.8061   3.6076   3.6076
     5.6944   5.6944   6.6826   6.6826   7.8361   7.8361   9.4373   9.4373
     9.6256   9.6256  10.6351  10.6351

     occupation numbers 
     1.0000   1.0000   1.0000   1.0000   1.0000   1.0000   1.0000   1.0000
[...]

   -15.1321 -15.1321 -15.1011 -15.1011 -15.0728 -15.0728 -15.0331 -15.0331
   -14.1384 -14.1384 -14.1031 -14.1031 -14.0576 -14.0576 -14.0002 -14.0002
   -13.9339 -13.9339 -13.8966 -13.8966  -1.3046  -1.3046   0.7599   0.7599
     4.1382   4.1382   5.0145   5.0145   8.8100   8.8100   9.9123   9.9123
    10.8457  10.8457  12.3811  12.3811

     occupation numbers 
     1.0000   1.0000   1.0000   1.0000   1.0000   1.0000   1.0000   1.0000
     1.0000   1.0000   1.0000   1.0000   1.0000   1.0000   1.0000   1.0000
     1.0000   1.0000   1.0000   1.0000   1.0000   1.0000   1.0000   1.0000
     1.0000   1.0000   1.0000   1.0000   0.0000   0.0000   0.0000   0.0000
     0.0000   0.0000   0.0000   0.0000

          k =-0.1326-0.3977 0.5745 (  8581 PWs)   bands (ev):

   -15.1327 -15.1327 -15.0982 -15.0982 -15.0759 -15.0759 -15.0320 -15.0320
   -14.1374 -14.1374 -14.1021 -14.1021 -14.0575 -14.0575 -14.0037 -14.0037
   -13.9338 -13.9338 -13.8949 -13.8949  -1.1228  -1.1228   0.5263   0.5263
     4.0186   4.0186   4.9966   4.9966   8.8312   8.8312  10.0872  10.0872
    11.3501  11.3501  12.0636  12.0636

     occupation numbers 
     1.0000   1.0000   1.0000   1.0000   1.0000   1.0000   1.0000   1.0000
     1.0000   1.0000   1.0000   1.0000   1.0000   1.0000   1.0000   1.0000
     1.0000   1.0000   1.0000   1.0000   1.0000   1.0000   1.0000   1.0000
     1.0000   1.0000   1.0000   1.0000   0.0000   0.0000   0.0000   0.0000
     0.0000   0.0000   0.0000   0.0000

          k =-0.0884-0.3536 0.5303 (  8580 PWs)   bands (ev):

   -15.1330 -15.1330 -15.0976 -15.0976 -15.0765 -15.0765 -15.0317 -15.0317
   -14.1379 -14.1379 -14.1022 -14.1022 -14.0573 -14.0573 -14.0033 -14.0033
   -13.9339 -13.9339 -13.8952 -13.8952  -1.1774  -1.1774   0.5956   0.5956
     3.9861   3.9861   5.0650   5.0650   8.8751   8.8751  10.0809  10.0809
    11.4078  11.4078  12.0297  12.0297

     occupation numbers 
     1.0000   1.0000   1.0000   1.0000   1.0000   1.0000   1.0000   1.0000
     1.0000   1.0000   1.0000   1.0000   1.0000   1.0000   1.0000   1.0000
     1.0000   1.0000   1.0000   1.0000   1.0000   1.0000   1.0000   1.0000
     1.0000   1.0000   1.0000   1.0000   0.0000   0.0000   0.0000   0.0000
     0.0000   0.0000   0.0000   0.0000

          k =-0.0442-0.3094 0.4861 (  8581 PWs)   bands (ev):

   -15.1328 -15.1328 -15.0997 -15.0997 -15.0743 -15.0743 -15.0324 -15.0324
   -14.1399 -14.1399 -14.1029 -14.1029 -14.0570 -14.0570 -13.9988 -13.9988
   -13.9342 -13.9342 -13.8974 -13.8974  -1.4212  -1.4212   0.9149   0.9149
     4.0574   4.0574   5.2069   5.2069   8.9226   8.9226   9.9693   9.9693
    10.8490  10.8490  12.2368  12.2368

     occupation numbers 
     1.0000   1.0000   1.0000   1.0000   1.0000   1.0000   1.0000   1.0000
     1.0000   1.0000   1.0000   1.0000   1.0000   1.0000   1.0000   1.0000
     1.0000   1.0000   1.0000   1.0000   1.0000   1.0000   1.0000   1.0000
     1.0000   1.0000   1.0000   1.0000   0.0000   0.0000   0.0000   0.0000
     0.0000   0.0000   0.0000   0.0000

          k = 0.0000-0.2652 0.4419 (  8574 PWs)   bands (ev):

   -15.1322 -15.1322 -15.1033 -15.1033 -15.0704 -15.0704 -15.0339 -15.0339
   -14.1444 -14.1444 -14.1018 -14.1018 -14.0571 -14.0571 -13.9915 -13.9915
   -13.9353 -13.9353 -13.9007 -13.9007  -1.7194  -1.7194   1.3337   1.3337
     4.2513   4.2513   5.3971   5.3971   8.9131   8.9131   9.6263   9.6263
    10.6753  10.6753  12.0093  12.0093

     occupation numbers 
     1.0000   1.0000   1.0000   1.0000   1.0000   1.0000   1.0000   1.0000
     1.0000   1.0000   1.0000   1.0000   1.0000   1.0000   1.0000   1.0000
     1.0000   1.0000   1.0000   1.0000   1.0000   1.0000   1.0000   1.0000
     1.0000   1.0000   1.0000   1.0000   0.0000   0.0000   0.0000   0.0000
     0.0000   0.0000   0.0000   0.0000

          k =-0.1768-0.5303 0.7071 (  8565 PWs)   bands (ev):

   -15.1294 -15.1294 -15.1079 -15.1079 -15.0653 -15.0653 -15.0368 -15.0368
   -14.1390 -14.1390 -14.1046 -14.1046 -14.0555 -14.0555 -13.9994 -13.9994
   -13.9326 -13.9326 -13.8987 -13.8987  -1.4281  -1.4281   0.9527   0.9527
     4.4162   4.4162   4.8734   4.8734   8.5654   8.5654   8.9588   8.9588
    11.3596  11.3596  12.9591  12.9591

     occupation numbers 
     1.0000   1.0000   1.0000   1.0000   1.0000   1.0000   1.0000   1.0000
     1.0000   1.0000   1.0000   1.0000   1.0000   1.0000   1.0000   1.0000
     1.0000   1.0000   1.0000   1.0000   1.0000   1.0000   1.0000   1.0000
     1.0000   1.0000   1.0000   1.0000   0.0000   0.0000   0.0000   0.0000
     0.0000   0.0000   0.0000   0.0000

          k =-0.1326-0.4861 0.6629 (  8587 PWs)   bands (ev):

   -15.1305 -15.1305 -15.1046 -15.1046 -15.0691 -15.0691 -15.0347 -15.0347
   -14.1374 -14.1374 -14.1031 -14.1031 -14.0532 -14.0532 -14.0083 -14.0083
   -13.9321 -13.9321 -13.8953 -13.8953  -1.1242  -1.1242   0.5691   0.5691
     4.1886   4.1886   4.7512   4.7512   8.7370   8.7370   9.4230   9.4230
    11.1873  11.1873  12.9149  12.9149

     occupation numbers 
     1.0000   1.0000   1.0000   1.0000   1.0000   1.0000   1.0000   1.0000
     1.0000   1.0000   1.0000   1.0000   1.0000   1.0000   1.0000   1.0000
     1.0000   1.0000   1.0000   1.0000   1.0000   1.0000   1.0000   1.0000
     1.0000   1.0000   1.0000   1.0000   0.0000   0.0000   0.0000   0.0000
     0.0000   0.0000   0.0000   0.0000

          k =-0.0884-0.4419 0.6187 (  8587 PWs)   bands (ev):

   -15.1315 -15.1315 -15.1015 -15.1015 -15.0727 -15.0727 -15.0329 -15.0329
   -14.1376 -14.1376 -14.1003 -14.1003 -14.0514 -14.0514 -14.0144 -14.0144
   -13.9328 -13.9328 -13.8926 -13.8926  -0.8862  -0.8862   0.2938   0.2938
     3.9934   3.9934   4.7398   4.7398   8.7963   8.7963  10.1364  10.1364
    11.0886  11.0886  12.3445  12.3445

     occupation numbers 
     1.0000   1.0000   1.0000   1.0000   1.0000   1.0000   1.0000   1.0000
     1.0000   1.0000   1.0000   1.0000   1.0000   1.0000   1.0000   1.0000
     1.0000   1.0000   1.0000   1.0000   1.0000   1.0000   1.0000   1.0000
     1.0000   1.0000   1.0000   1.0000   0.0000   0.0000   0.0000   0.0000
     0.0000   0.0000   0.0000   0.0000

          k =-0.0442-0.3977 0.5745 (  8585 PWs)   bands (ev):

   -15.1323 -15.1323 -15.0991 -15.0991 -15.0753 -15.0753 -15.0318 -15.0318
   -14.1382 -14.1382 -14.0993 -14.0993 -14.0516 -14.0516 -14.0148 -14.0148
   -13.9335 -13.9335 -13.8919 -13.8919  -0.8882  -0.8882   0.2987   0.2987
     3.8824   3.8824   4.8273   4.8273   8.8730   8.8730  10.5952  10.5952
    11.2968  11.2968  11.6354  11.6354

     occupation numbers 
     1.0000   1.0000   1.0000   1.0000   1.0000   1.0000   1.0000   1.0000
     1.0000   1.0000   1.0000   1.0000   1.0000   1.0000   1.0000   1.0000
     1.0000   1.0000   1.0000   1.0000   1.0000   1.0000   1.0000   1.0000
     1.0000   1.0000   1.0000   1.0000   0.0000   0.0000   0.0000   0.0000
     0.0000   0.0000   0.0000   0.0000

          k = 0.0000-0.3536 0.5303 (  8579 PWs)   bands (ev):

   -15.1327 -15.1327 -15.0984 -15.0984 -15.0759 -15.0759 -15.0317 -15.0317
   -14.1386 -14.1386 -14.1008 -14.1008 -14.0540 -14.0540 -14.0088 -14.0088
   -13.9338 -13.9338 -13.8935 -13.8935  -1.1236  -1.1236   0.5675   0.5675
     3.8954   3.8954   4.9919   4.9919   8.9482   8.9482  10.4617  10.4617
    10.9275  10.9275  12.1058  12.1058

     occupation numbers 
     1.0000   1.0000   1.0000   1.0000   1.0000   1.0000   1.0000   1.0000
     1.0000   1.0000   1.0000   1.0000   1.0000   1.0000   1.0000   1.0000
     1.0000   1.0000   1.0000   1.0000   1.0000   1.0000   1.0000   1.0000
     1.0000   1.0000   1.0000   1.0000   0.0000   0.0000   0.0000   0.0000
     0.0000   0.0000   0.0000   0.0000

          k =-0.0884-0.5303 0.7071 (  8586 PWs)   bands (ev):

   -15.1286 -15.1286 -15.1079 -15.1079 -15.0653 -15.0653 -15.0369 -15.0369
   -14.1352 -14.1352 -14.1054 -14.1054 -14.0479 -14.0479 -14.0155 -14.0155
   -13.9288 -13.9288 -13.8961 -13.8961  -0.9018  -0.9018   0.3019   0.3019
     4.3349   4.3349   4.5917   4.5917   8.5303   8.5303   8.7849   8.7849
    12.0262  12.0262  13.2494  13.2494

     occupation numbers 
     1.0000   1.0000   1.0000   1.0000   1.0000   1.0000   1.0000   1.0000
     1.0000   1.0000   1.0000   1.0000   1.0000   1.0000   1.0000   1.0000
     1.0000   1.0000   1.0000   1.0000   1.0000   1.0000   1.0000   1.0000
     1.0000   1.0000   1.0000   1.0000   0.0000   0.0000   0.0000   0.0000
     0.0000   0.0000   0.0000   0.0000

          k =-0.0442-0.4861 0.6629 (  8582 PWs)   bands (ev):

   -15.1299 -15.1299 -15.1050 -15.1050 -15.0689 -15.0689 -15.0347 -15.0347
   -14.1366 -14.1366 -14.1016 -14.1016 -14.0442 -14.0442 -14.0231 -14.0231
   -13.9305 -13.9305 -13.8928 -13.8928  -0.6184  -0.6184   0.0024   0.0024
     4.1319   4.1319   4.5446   4.5446   8.6874   8.6874   9.3690   9.3690
    11.8443  11.8443  12.5626  12.5626

     occupation numbers 
     1.0000   1.0000   1.0000   1.0000   1.0000   1.0000   1.0000   1.0000
     1.0000   1.0000   1.0000   1.0000   1.0000   1.0000   1.0000   1.0000
     1.0000   1.0000   1.0000   1.0000   1.0000   1.0000   1.0000   1.0000
     1.0000   1.0000   1.0000   1.0000   0.0000   0.0000   0.0000   0.0000
     0.0000   0.0000   0.0000   0.0000

          k = 0.0000-0.4419 0.6187 (  8585 PWs)   bands (ev):

   -15.1312 -15.1312 -15.1019 -15.1019 -15.0724 -15.0724 -15.0328 -15.0328
   -14.1378 -14.1378 -14.0990 -14.0990 -14.0457 -14.0457 -14.0229 -14.0229
   -13.9323 -13.9323 -13.8911 -13.8911  -0.6205  -0.6205   0.0139   0.0139
     3.9445   3.9445   4.6443   4.6443   8.7773   8.7773  10.1740  10.1740
    11.6526  11.6526  11.7519  11.7519

     occupation numbers 
     1.0000   1.0000   1.0000   1.0000   1.0000   1.0000   1.0000   1.0000
     1.0000   1.0000   1.0000   1.0000   1.0000   1.0000   1.0000   1.0000
     1.0000   1.0000   1.0000   1.0000   1.0000   1.0000   1.0000   1.0000
     1.0000   1.0000   1.0000   1.0000   0.0000   0.0000   0.0000   0.0000
     0.0000   0.0000   0.0000   0.0000

          k =-0.7071 0.1768 0.0000 (  8580 PWs)   bands (ev):

   -15.1282 -15.1282 -15.1081 -15.1081 -15.0651 -15.0651 -15.0371 -15.0371
   -14.1346 -14.1346 -14.1051 -14.1051 -14.0385 -14.0385 -14.0278 -14.0278
   -13.9274 -13.9274 -13.8952 -13.8952  -0.3363  -0.3363  -0.3054  -0.3054
     4.3332   4.3332   4.4710   4.4710   8.5471   8.5471   8.6867   8.6867
    12.6670  12.6670  12.8291  12.8292

     occupation numbers 
     1.0000   1.0000   1.0000   1.0000   1.0000   1.0000   1.0000   1.0000
     1.0000   1.0000   1.0000   1.0000   1.0000   1.0000   1.0000   1.0000
     1.0000   1.0000   1.0000   1.0000   1.0000   1.0000   1.0000   1.0000
     1.0000   1.0000   1.0000   1.0000   0.0000   0.0000   0.0000   0.0000
     0.0000   0.0000   0.0000   0.0000

          k =-0.1768-0.4419 0.7071 (  8588 PWs)   bands (ev):

   -15.1317 -15.1317 -15.1023 -15.1023 -15.0717 -15.0717 -15.0333 -15.0333
   -14.1391 -14.1391 -14.1023 -14.1023 -14.0553 -14.0553 -14.0037 -14.0037
   -13.9339 -13.9339 -13.8956 -13.8956  -1.2943  -1.2943   0.7801   0.7801
     4.1119   4.1119   4.9071   4.9071   9.2606   9.2606   9.5383   9.5384
    10.6319  10.6319  12.6919  12.6919

     occupation numbers 
     1.0000   1.0000   1.0000   1.0000   1.0000   1.0000   1.0000   1.0000
     1.0000   1.0000   1.0000   1.0000   1.0000   1.0000   1.0000   1.0000
     1.0000   1.0000   1.0000   1.0000   1.0000   1.0000   1.0000   1.0000
     1.0000   1.0000   1.0000   1.0000   0.0000   0.0000   0.0000   0.0000
     0.0000   0.0000   0.0000   0.0000

          k =-0.1326-0.3977 0.6629 (  8581 PWs)   bands (ev):

   -15.1321 -15.1321 -15.1002 -15.1002 -15.0742 -15.0742 -15.0322 -15.0322
   -14.1384 -14.1384 -14.0999 -14.0999 -14.0531 -14.0531 -14.0116 -14.0116
   -13.9338 -13.9338 -13.8925 -13.8925  -1.0108  -1.0108   0.4416   0.4416
     3.9846   3.9846   4.7525   4.7525   9.3323   9.3323   9.9812   9.9813
    10.7419  10.7419  12.2316  12.2316

     occupation numbers 
     1.0000   1.0000   1.0000   1.0000   1.0000   1.0000   1.0000   1.0000
     1.0000   1.0000   1.0000   1.0000   1.0000   1.0000   1.0000   1.0000
     1.0000   1.0000   1.0000   1.0000   1.0000   1.0000   1.0000   1.0000
     1.0000   1.0000   1.0000   1.0000   0.0000   0.0000   0.0000   0.0000
     0.0000   0.0000   0.0000   0.0000

          k =-0.0884-0.3536 0.6187 (  8572 PWs)   bands (ev):

   -15.1322 -15.1322 -15.0993 -15.0993 -15.0752 -15.0752 -15.0318 -15.0318
   -14.1383 -14.1383 -14.0986 -14.0986 -14.0521 -14.0521 -14.0148 -14.0148
   -13.9339 -13.9339 -13.8914 -13.8914  -0.8729  -0.8729   0.2842   0.2842
     3.9441   3.9441   4.6960   4.6960   9.3373   9.3373  10.1000  10.1000
    11.2421  11.2421  11.5762  11.5762

     occupation numbers 
     1.0000   1.0000   1.0000   1.0000   1.0000   1.0000   1.0000   1.0000
     1.0000   1.0000   1.0000   1.0000   1.0000   1.0000   1.0000   1.0000
     1.0000   1.0000   1.0000   1.0000   1.0000   1.0000   1.0000   1.0000
     1.0000   1.0000   1.0000   1.0000   0.0000   0.0000   0.0000   0.0000
     0.0000   0.0000   0.0000   0.0000

          k =-0.0884-0.4419 0.7071 (  8588 PWs)   bands (ev):

   -15.1310 -15.1310 -15.1028 -15.1028 -15.0714 -15.0714 -15.0333 -15.0333
   -14.1379 -14.1379 -14.0997 -14.0997 -14.0488 -14.0488 -14.0182 -14.0182
   -13.9327 -13.9327 -13.8918 -13.8918  -0.8184  -0.8184   0.2321   0.2321
     4.0953   4.0953   4.5210   4.5210   9.3194   9.3194   9.5343   9.5343
    11.0106  11.0106  12.3977  12.3977

     occupation numbers 
     1.0000   1.0000   1.0000   1.0000   1.0000   1.0000   1.0000   1.0000
     1.0000   1.0000   1.0000   1.0000   1.0000   1.0000   1.0000   1.0000
     1.0000   1.0000   1.0000   1.0000   1.0000   1.0000   1.0000   1.0000
     1.0000   1.0000   1.0000   1.0000   0.0000   0.0000   0.0000   0.0000
     0.0000   0.0000   0.0000   0.0000

          k =-0.0442-0.3977 0.6629 (  8589 PWs)   bands (ev):

   -15.1315 -15.1315 -15.1012 -15.1012 -15.0734 -15.0734 -15.0322 -15.0322
   -14.1386 -14.1386 -14.0971 -14.0971 -14.0458 -14.0458 -14.0240 -14.0240
   -13.9335 -13.9335 -13.8898 -13.8898  -0.5989  -0.5989   0.0033   0.0033
     4.0133   4.0133   4.4417   4.4417   9.4614   9.4614  10.1700  10.1700
    10.9351  10.9351  11.5489  11.5489

     occupation numbers 
     1.0000   1.0000   1.0000   1.0000   1.0000   1.0000   1.0000   1.0000
     1.0000   1.0000   1.0000   1.0000   1.0000   1.0000   1.0000   1.0000
     1.0000   1.0000   1.0000   1.0000   1.0000   1.0000   1.0000   1.0000
     1.0000   1.0000   1.0000   1.0000   0.0000   0.0000   0.0000   0.0000
     0.0000   0.0000   0.0000   0.0000

          k =-0.0000-0.3536 0.6187 (  8584 PWs)   bands (ev):

   -15.1319 -15.1319 -15.1002 -15.1002 -15.0744 -15.0744 -15.0319 -15.0319
   -14.1387 -14.1387 -14.0972 -14.0972 -14.0481 -14.0481 -14.0210 -14.0210
   -13.9339 -13.9339 -13.8901 -13.8901  -0.7205  -0.7205   0.1329   0.1329
     3.9527   3.9527   4.5410   4.5410   9.5104   9.5104  10.3516  10.3516
    10.8225  10.8225  11.4566  11.4566

     occupation numbers 
     1.0000   1.0000   1.0000   1.0000   1.0000   1.0000   1.0000   1.0000
     1.0000   1.0000   1.0000   1.0000   1.0000   1.0000   1.0000   1.0000
     1.0000   1.0000   1.0000   1.0000   1.0000   1.0000   1.0000   1.0000
     1.0000   1.0000   1.0000   1.0000   0.0000   0.0000   0.0000   0.0000
     0.0000   0.0000   0.0000   0.0000

          k =-0.7071 0.2652 0.0000 (  8578 PWs)   bands (ev):

   -15.1307 -15.1307 -15.1032 -15.1032 -15.0711 -15.0711 -15.0333 -15.0333
   -14.1379 -14.1379 -14.0984 -14.0984 -14.0412 -14.0412 -14.0286 -14.0286
   -13.9322 -13.9322 -13.8905 -13.8905  -0.3253  -0.3253  -0.2842  -0.2842
     4.1570   4.1570   4.3212   4.3212   9.3184   9.3184   9.5148   9.5148
    11.6242  11.6242  11.7306  11.7306

     occupation numbers 
     1.0000   1.0000   1.0000   1.0000   1.0000   1.0000   1.0000   1.0000
     1.0000   1.0000   1.0000   1.0000   1.0000   1.0000   1.0000   1.0000
     1.0000   1.0000   1.0000   1.0000   1.0000   1.0000   1.0000   1.0000
     1.0000   1.0000   1.0000   1.0000   0.0000   0.0000   0.0000   0.0000
     0.0000   0.0000   0.0000   0.0000

          k =-0.7071 0.3536 0.0000 (  8552 PWs)   bands (ev):

   -15.1315 -15.1315 -15.1011 -15.1011 -15.0736 -15.0736 -15.0320 -15.0320
   -14.1390 -14.1390 -14.0957 -14.0957 -14.0422 -14.0422 -14.0291 -14.0291
   -13.9339 -13.9339 -13.8888 -13.8888  -0.3204  -0.3204  -0.2756  -0.2756
     4.0911   4.0911   4.2632   4.2632   9.9141   9.9141  10.2363  10.2363
    10.9126  10.9126  10.9338  10.9338

     occupation numbers 
     1.0000   1.0000   1.0000   1.0000   1.0000   1.0000   1.0000   1.0000
     1.0000   1.0000   1.0000   1.0000   1.0000   1.0000   1.0000   1.0000
     1.0000   1.0000   1.0000   1.0000   1.0000   1.0000   1.0000   1.0000
     1.0000   1.0000   1.0000   1.0000   0.0000   0.0000   0.0000   0.0000
     0.0000   0.0000   0.0000   0.0000

     the Fermi energy is     6.9501 ev

!    total energy              =    -325.85760939 Ry
     Harris-Foulkes estimate   =    -325.85760933 Ry
     estimated scf accuracy    <       0.00000010 Ry

     The total energy is the sum of the following terms:

     one-electron contribution =    -157.76652638 Ry
     hartree contribution      =      95.54352202 Ry
     xc contribution           =     -96.10480964 Ry
     ewald contribution        =    -167.52979533 Ry
     smearing contrib. (-TS)   =      -0.00000006 Ry

     convergence has been achieved in   5 iterations

     Writing output data file Sn.save
 
     init_run     :      7.79s CPU      8.64s WALL (       1 calls)
     electrons    :    156.01s CPU    172.10s WALL (       1 calls)

     Called by init_run:
     wfcinit      :      7.43s CPU      8.19s WALL (       1 calls)
     potinit      :      0.02s CPU      0.03s WALL (       1 calls)

     Called by electrons:
     c_bands      :    131.69s CPU    145.49s WALL (       6 calls)
     sum_band     :     23.86s CPU     26.04s WALL (       6 calls)
     v_of_rho     :      0.06s CPU      0.07s WALL (       6 calls)
     v_h          :      0.00s CPU      0.00s WALL (       6 calls)
     v_xc         :      0.06s CPU      0.06s WALL (       6 calls)
     newd         :      0.44s CPU      0.51s WALL (       6 calls)
     mix_rho      :      0.02s CPU      0.04s WALL (       6 calls)

     Called by c_bands:
     init_us_2    :      0.62s CPU      0.80s WALL (    1885 calls)
     cegterg      :    120.40s CPU    133.86s WALL (     870 calls)

     Called by sum_band:
     sum_band:bec :      1.94s CPU      2.01s WALL (     870 calls)
     addusdens    :      0.31s CPU      0.38s WALL (       6 calls)

     Called by *egterg:
     h_psi        :    102.04s CPU    112.81s WALL (    3086 calls)
     s_psi        :      3.63s CPU      3.65s WALL (    3086 calls)
     g_psi        :      0.35s CPU      0.35s WALL (    2071 calls)
     cdiaghg      :      7.23s CPU      7.39s WALL (    2796 calls)
     cegterg:over :      5.13s CPU      5.15s WALL (    2071 calls)
     cegterg:upda :      2.83s CPU      2.85s WALL (    2071 calls)
     cegterg:last :      1.45s CPU      1.46s WALL (     870 calls)

     Called by h_psi:
     h_psi:vloc   :     93.57s CPU    104.10s WALL (    3086 calls)
     h_psi:vnl    :      8.16s CPU      8.36s WALL (    3086 calls)
     add_vuspsi   :      3.89s CPU      3.95s WALL (    3086 calls)

     General routines
     calbec       :      5.81s CPU      5.99s WALL (    3956 calls)
     fft          :      0.07s CPU      0.08s WALL (     116 calls)
     fftw         :    104.71s CPU    116.39s WALL (  392132 calls)
     davcio       :      0.09s CPU      0.46s WALL (     145 calls)
 
     Parallel routines
     fft_scatter  :     53.17s CPU     59.04s WALL (  392248 calls)
 
     PWSCF        :  2m44.84s CPU     3m 2.28s WALL

 
   This run was terminated on:  11:41:52  17Mar2020            

=------------------------------------------------------------------------------=
   JOB DONE.
=------------------------------------------------------------------------------=
