
     Program PWSCF v.5.4.0 starts on 21Feb2020 at  0:52:48 

     This program is part of the open-source Quantum ESPRESSO suite
     for quantum simulation of materials; please cite
         "P. Giannozzi et al., J. Phys.:Condens. Matter 21 395502 (2009);
          URL http://www.quantum-espresso.org", 
     in publications or presentations arising from this work. More details at
     http://www.quantum-espresso.org/quote

     Parallel version (MPI & OpenMP), running on      16 processor cores
     Number of MPI processes:                16
     Threads/MPI process:                     1
     R & G space division:  proc/nbgrp/npool/nimage =      16
     Waiting for input...
     Reading input from standard input
Warning: card &IONS ignored
Warning: card / ignored
Warning: card &CELL ignored
Warning: card / ignored

     Current dimensions of program PWSCF are:
     Max number of different atomic species (ntypx) = 10
     Max number of k-points (npk) =  40000
     Max angular momentum in pseudopotentials (lmaxx) =  3

     Subspace diagonalization in iterative solution of the eigenvalue problem:
     a serial algorithm will be used

 
     Parallelization info
     --------------------
     sticks:   dense  smooth     PW     G-vecs:    dense   smooth      PW
     Min          80      80     23                 1931     1931     312
     Max          81      81     24                 1936     1936     316
     Sum        1285    1285    379                30923    30923    5029
 

     Title: 
     Sn                                                                         


     bravais-lattice index     =            0
     lattice parameter (alat)  =       8.8993  a.u.
     unit-cell volume          =     498.3785 (a.u.)^3
     number of atoms/cell      =            2
     number of atomic types    =            1
     number of electrons       =        28.00
     number of Kohn-Sham states=           18
     kinetic-energy cutoff     =      60.0000  Ry
     charge density cutoff     =     240.0000  Ry
     convergence threshold     =      1.0E-06
     mixing beta               =       0.7000
     number of iterations used =            8  plain     mixing
     Exchange-correlation      = PBE ( 1  4  3  4 0 0)

     celldm(1)=   8.899346  celldm(2)=   0.000000  celldm(3)=   0.000000
     celldm(4)=   0.000000  celldm(5)=   0.000000  celldm(6)=   0.000000

     crystal axes: (cart. coord. in units of alat)
               a(1) = (   0.000000   0.707107   0.707107 )  
               a(2) = (   0.707107   0.000000   0.707107 )  
               a(3) = (   0.707107   0.707107   0.000000 )  

     reciprocal axes: (cart. coord. in units 2 pi/alat)
               b(1) = ( -0.707107  0.707107  0.707107 )  
               b(2) = (  0.707107 -0.707107  0.707107 )  
               b(3) = (  0.707107  0.707107 -0.707107 )  


     PseudoPot. # 1 for Sn read from file:
     ../PseudopotentialDatabase/Sn_ONCV_PBE-1.0.upf
     MD5 check sum: 4ecdb67ea6112684f1b2ae1cab9d4ca6
     Pseudo is Norm-conserving, Zval = 14.0
     Generated using ONCVPSP code by D. R. Hamann
     Using radial grid of  602 points,  6 beta functions with: 
                l(1) =   0
                l(2) =   0
                l(3) =   1
                l(4) =   1
                l(5) =   2
                l(6) =   2

     atomic species   valence    mass     pseudopotential
        Sn            14.00   118.71000     Sn( 1.00)

     24 Sym. Ops. (no inversion) found
          (note: 24 additional sym.ops. were found but ignored
           their fractional translations are incommensurate with FFT grid)

                                    s                        frac. trans.

      isym =  1     identity                                     

 cryst.   s( 1) = (     1          0          0      )
                  (     0          1          0      )
                  (     0          0          1      )

 cart.    s( 1) = (  1.0000000  0.0000000  0.0000000 )
                  (  0.0000000  1.0000000  0.0000000 )
                  (  0.0000000  0.0000000  1.0000000 )


      isym =  2     180 deg rotation - cart. axis [0,0,1]        

 cryst.   s( 2) = (     0          1         -1      )
                  (     1          0         -1      )
                  (     0          0         -1      )

 cart.    s( 2) = ( -1.0000000  0.0000000  0.0000000 )
                  (  0.0000000 -1.0000000  0.0000000 )
                  (  0.0000000  0.0000000  1.0000000 )


      isym =  3     180 deg rotation - cart. axis [0,1,0]        

 cryst.   s( 3) = (     0         -1          1      )
                  (     0         -1          0      )
                  (     1         -1          0      )

 cart.    s( 3) = ( -1.0000000  0.0000000  0.0000000 )
                  (  0.0000000  1.0000000  0.0000000 )
                  (  0.0000000  0.0000000 -1.0000000 )


      isym =  4     180 deg rotation - cart. axis [1,0,0]        

 cryst.   s( 4) = (    -1          0          0      )
                  (    -1          0          1      )
                  (    -1          1          0      )

 cart.    s( 4) = (  1.0000000  0.0000000  0.0000000 )
                  (  0.0000000 -1.0000000  0.0000000 )
                  (  0.0000000  0.0000000 -1.0000000 )


      isym =  5     120 deg rotation - cart. axis [-1,-1,-1]     

 cryst.   s( 5) = (     0          0          1      )
                  (     1          0          0      )
                  (     0          1          0      )

 cart.    s( 5) = (  0.0000000  1.0000000  0.0000000 )
                  (  0.0000000  0.0000000  1.0000000 )
                  (  1.0000000  0.0000000  0.0000000 )


      isym =  6     120 deg rotation - cart. axis [-1,1,1]       

 cryst.   s( 6) = (     1         -1          0      )
                  (     0         -1          1      )
                  (     0         -1          0      )

 cart.    s( 6) = (  0.0000000 -1.0000000  0.0000000 )
                  (  0.0000000  0.0000000  1.0000000 )
                  ( -1.0000000  0.0000000  0.0000000 )


      isym =  7     120 deg rotation - cart. axis [1,1,-1]       

 cryst.   s( 7) = (    -1          1          0      )
                  (    -1          0          0      )
                  (    -1          0          1      )

 cart.    s( 7) = (  0.0000000  1.0000000  0.0000000 )
                  (  0.0000000  0.0000000 -1.0000000 )
                  ( -1.0000000  0.0000000  0.0000000 )


      isym =  8     120 deg rotation - cart. axis [1,-1,1]       

 cryst.   s( 8) = (     0          0         -1      )
                  (     0          1         -1      )
                  (     1          0         -1      )

 cart.    s( 8) = (  0.0000000 -1.0000000  0.0000000 )
                  (  0.0000000  0.0000000 -1.0000000 )
                  (  1.0000000  0.0000000  0.0000000 )


      isym =  9     120 deg rotation - cart. axis [1,1,1]        

 cryst.   s( 9) = (     0          1          0      )
                  (     0          0          1      )
                  (     1          0          0      )

 cart.    s( 9) = (  0.0000000  0.0000000  1.0000000 )
                  (  1.0000000  0.0000000  0.0000000 )
                  (  0.0000000  1.0000000  0.0000000 )


      isym = 10     120 deg rotation - cart. axis [-1,1,-1]      

 cryst.   s(10) = (    -1          0          1      )
                  (    -1          1          0      )
                  (    -1          0          0      )

 cart.    s(10) = (  0.0000000  0.0000000  1.0000000 )
                  ( -1.0000000  0.0000000  0.0000000 )
                  (  0.0000000 -1.0000000  0.0000000 )


      isym = 11     120 deg rotation - cart. axis [1,-1,-1]      

 cryst.   s(11) = (     1          0         -1      )
                  (     0          0         -1      )
                  (     0          1         -1      )

 cart.    s(11) = (  0.0000000  0.0000000 -1.0000000 )
                  ( -1.0000000  0.0000000  0.0000000 )
                  (  0.0000000  1.0000000  0.0000000 )


      isym = 12     120 deg rotation - cart. axis [-1,-1,1]      

 cryst.   s(12) = (     0         -1          0      )
                  (     1         -1          0      )
                  (     0         -1          1      )

 cart.    s(12) = (  0.0000000  0.0000000 -1.0000000 )
                  (  1.0000000  0.0000000  0.0000000 )
                  (  0.0000000 -1.0000000  0.0000000 )


      isym = 13     inv. 180 deg rotation - cart. axis [1,1,0]   

 cryst.   s(13) = (     1          0         -1      )
                  (     0          1         -1      )
                  (     0          0         -1      )

 cart.    s(13) = (  0.0000000 -1.0000000  0.0000000 )
                  ( -1.0000000  0.0000000  0.0000000 )
                  (  0.0000000  0.0000000  1.0000000 )


      isym = 14     inv. 180 deg rotation - cart. axis [1,-1,0]  

 cryst.   s(14) = (     0          1          0      )
                  (     1          0          0      )
                  (     0          0          1      )

 cart.    s(14) = (  0.0000000  1.0000000  0.0000000 )
                  (  1.0000000  0.0000000  0.0000000 )
                  (  0.0000000  0.0000000  1.0000000 )


      isym = 15     inv.  90 deg rotation - cart. axis [0,0,-1]  

 cryst.   s(15) = (     0         -1          0      )
                  (     0         -1          1      )
                  (     1         -1          0      )

 cart.    s(15) = (  0.0000000 -1.0000000  0.0000000 )
                  (  1.0000000  0.0000000  0.0000000 )
                  (  0.0000000  0.0000000 -1.0000000 )


      isym = 16     inv.  90 deg rotation - cart. axis [0,0,1]   

 cryst.   s(16) = (    -1          0          1      )
                  (    -1          0          0      )
                  (    -1          1          0      )

 cart.    s(16) = (  0.0000000  1.0000000  0.0000000 )
                  ( -1.0000000  0.0000000  0.0000000 )
                  (  0.0000000  0.0000000 -1.0000000 )


      isym = 17     inv. 180 deg rotation - cart. axis [1,0,1]   

 cryst.   s(17) = (     1         -1          0      )
                  (     0         -1          0      )
                  (     0         -1          1      )

 cart.    s(17) = (  0.0000000  0.0000000 -1.0000000 )
                  (  0.0000000  1.0000000  0.0000000 )
                  ( -1.0000000  0.0000000  0.0000000 )


      isym = 18     inv. 180 deg rotation - cart. axis [-1,0,1]  

 cryst.   s(18) = (     0          0          1      )
                  (     0          1          0      )
                  (     1          0          0      )

 cart.    s(18) = (  0.0000000  0.0000000  1.0000000 )
                  (  0.0000000  1.0000000  0.0000000 )
                  (  1.0000000  0.0000000  0.0000000 )


      isym = 19     inv.  90 deg rotation - cart. axis [0,1,0]   

 cryst.   s(19) = (     0          0         -1      )
                  (     1          0         -1      )
                  (     0          1         -1      )

 cart.    s(19) = (  0.0000000  0.0000000 -1.0000000 )
                  (  0.0000000 -1.0000000  0.0000000 )
                  (  1.0000000  0.0000000  0.0000000 )


      isym = 20     inv.  90 deg rotation - cart. axis [0,-1,0]  

 cryst.   s(20) = (    -1          1          0      )
                  (    -1          0          1      )
                  (    -1          0          0      )

 cart.    s(20) = (  0.0000000  0.0000000  1.0000000 )
                  (  0.0000000 -1.0000000  0.0000000 )
                  ( -1.0000000  0.0000000  0.0000000 )


      isym = 21     inv. 180 deg rotation - cart. axis [0,1,1]   

 cryst.   s(21) = (    -1          0          0      )
                  (    -1          1          0      )
                  (    -1          0          1      )

 cart.    s(21) = (  1.0000000  0.0000000  0.0000000 )
                  (  0.0000000  0.0000000 -1.0000000 )
                  (  0.0000000 -1.0000000  0.0000000 )


      isym = 22     inv. 180 deg rotation - cart. axis [0,1,-1]  

 cryst.   s(22) = (     1          0          0      )
                  (     0          0          1      )
                  (     0          1          0      )

 cart.    s(22) = (  1.0000000  0.0000000  0.0000000 )
                  (  0.0000000  0.0000000  1.0000000 )
                  (  0.0000000  1.0000000  0.0000000 )


      isym = 23     inv.  90 deg rotation - cart. axis [-1,0,0]  

 cryst.   s(23) = (     0          1         -1      )
                  (     0          0         -1      )
                  (     1          0         -1      )

 cart.    s(23) = ( -1.0000000  0.0000000  0.0000000 )
                  (  0.0000000  0.0000000 -1.0000000 )
                  (  0.0000000  1.0000000  0.0000000 )


      isym = 24     inv.  90 deg rotation - cart. axis [1,0,0]   

 cryst.   s(24) = (     0         -1          1      )
                  (     1         -1          0      )
                  (     0         -1          0      )

 cart.    s(24) = ( -1.0000000  0.0000000  0.0000000 )
                  (  0.0000000  0.0000000  1.0000000 )
                  (  0.0000000 -1.0000000  0.0000000 )


   Cartesian axes

     site n.     atom                  positions (alat units)
         1           Sn  tau(   1) = (   0.0000000   0.0000000   0.0000000  )
         2           Sn  tau(   2) = (   0.3535534   0.3535534   0.3535534  )

   Crystallographic axes

     site n.     atom                  positions (cryst. coord.)
         1           Sn  tau(   1) = (  0.0000000  0.0000000  0.0000000  )
         2           Sn  tau(   2) = (  0.2500000  0.2500000  0.2500000  )

     number of k points=   120  gaussian smearing, width (Ry)=  0.0100
                       cart. coord. in units 2pi/alat
        k(    1) = (   0.0000000   0.0000000   0.0000000), wk =   0.0005926
        k(    2) = (   0.0471405   0.0471405  -0.0471405), wk =   0.0047407
        k(    3) = (   0.0942809   0.0942809  -0.0942809), wk =   0.0047407
        k(    4) = (   0.1414214   0.1414214  -0.1414214), wk =   0.0047407
        k(    5) = (   0.1885618   0.1885618  -0.1885618), wk =   0.0047407
        k(    6) = (   0.2357023   0.2357023  -0.2357023), wk =   0.0047407
        k(    7) = (   0.2828427   0.2828427  -0.2828427), wk =   0.0047407
        k(    8) = (   0.3299832   0.3299832  -0.3299832), wk =   0.0047407
        k(    9) = (   0.0942809   0.0000000   0.0000000), wk =   0.0035556
        k(   10) = (   0.1414214   0.0471405  -0.0471405), wk =   0.0142222
        k(   11) = (   0.1885618   0.0942809  -0.0942809), wk =   0.0142222
        k(   12) = (   0.2357023   0.1414214  -0.1414214), wk =   0.0142222
        k(   13) = (   0.2828427   0.1885618  -0.1885618), wk =   0.0142222
        k(   14) = (   0.3299832   0.2357023  -0.2357023), wk =   0.0142222
        k(   15) = (   0.3771236   0.2828427  -0.2828427), wk =   0.0142222
        k(   16) = (  -0.2828427  -0.3771236   0.3771236), wk =   0.0142222
        k(   17) = (  -0.2357023  -0.3299832   0.3299832), wk =   0.0142222
        k(   18) = (  -0.1885618  -0.2828427   0.2828427), wk =   0.0142222
        k(   19) = (  -0.1414214  -0.2357023   0.2357023), wk =   0.0142222
        k(   20) = (  -0.0942809  -0.1885618   0.1885618), wk =   0.0142222
        k(   21) = (  -0.0471405  -0.1414214   0.1414214), wk =   0.0142222
        k(   22) = (   0.0000000  -0.0942809   0.0942809), wk =   0.0071111
        k(   23) = (   0.1885618   0.0000000   0.0000000), wk =   0.0035556
        k(   24) = (   0.2357023   0.0471405  -0.0471405), wk =   0.0142222
        k(   25) = (   0.2828427   0.0942809  -0.0942809), wk =   0.0142222
        k(   26) = (   0.3299832   0.1414214  -0.1414214), wk =   0.0142222
        k(   27) = (   0.3771236   0.1885618  -0.1885618), wk =   0.0142222
        k(   28) = (   0.4242641   0.2357023  -0.2357023), wk =   0.0142222
        k(   29) = (  -0.2357023  -0.4242641   0.4242641), wk =   0.0142222
        k(   30) = (  -0.1885618  -0.3771236   0.3771236), wk =   0.0142222
        k(   31) = (  -0.1414214  -0.3299832   0.3299832), wk =   0.0142222
        k(   32) = (  -0.0942809  -0.2828427   0.2828427), wk =   0.0142222
        k(   33) = (  -0.0471405  -0.2357023   0.2357023), wk =   0.0142222
        k(   34) = (   0.0000000  -0.1885618   0.1885618), wk =   0.0071111
        k(   35) = (   0.2828427   0.0000000   0.0000000), wk =   0.0035556
        k(   36) = (   0.3299832   0.0471405  -0.0471405), wk =   0.0142222
        k(   37) = (   0.3771236   0.0942809  -0.0942809), wk =   0.0142222
        k(   38) = (   0.4242641   0.1414214  -0.1414214), wk =   0.0142222
        k(   39) = (   0.4714045   0.1885618  -0.1885618), wk =   0.0142222
        k(   40) = (  -0.1885618  -0.4714045   0.4714045), wk =   0.0142222
        k(   41) = (  -0.1414214  -0.4242641   0.4242641), wk =   0.0142222
        k(   42) = (  -0.0942809  -0.3771236   0.3771236), wk =   0.0142222
        k(   43) = (  -0.0471405  -0.3299832   0.3299832), wk =   0.0142222
        k(   44) = (   0.0000000  -0.2828427   0.2828427), wk =   0.0071111
        k(   45) = (   0.3771236   0.0000000   0.0000000), wk =   0.0035556
        k(   46) = (   0.4242641   0.0471405  -0.0471405), wk =   0.0142222
        k(   47) = (   0.4714045   0.0942809  -0.0942809), wk =   0.0142222
        k(   48) = (   0.5185450   0.1414214  -0.1414214), wk =   0.0142222
        k(   49) = (  -0.1414214  -0.5185450   0.5185450), wk =   0.0142222
        k(   50) = (  -0.0942809  -0.4714045   0.4714045), wk =   0.0142222
        k(   51) = (  -0.0471405  -0.4242641   0.4242641), wk =   0.0142222
        k(   52) = (  -0.0000000  -0.3771236   0.3771236), wk =   0.0071111
        k(   53) = (   0.4714045   0.0000000   0.0000000), wk =   0.0035556
        k(   54) = (   0.5185450   0.0471405  -0.0471405), wk =   0.0142222
        k(   55) = (   0.5656854   0.0942809  -0.0942809), wk =   0.0142222
        k(   56) = (  -0.0942809  -0.5656854   0.5656854), wk =   0.0142222
        k(   57) = (  -0.0471405  -0.5185450   0.5185450), wk =   0.0142222
        k(   58) = (  -0.0000000  -0.4714045   0.4714045), wk =   0.0071111
        k(   59) = (   0.5656854   0.0000000   0.0000000), wk =   0.0035556
        k(   60) = (   0.6128259   0.0471405  -0.0471405), wk =   0.0142222
        k(   61) = (  -0.0471405  -0.6128259   0.6128259), wk =   0.0142222
        k(   62) = (   0.0000000  -0.5656854   0.5656854), wk =   0.0071111
        k(   63) = (   0.6599663   0.0000000   0.0000000), wk =   0.0035556
        k(   64) = (   0.0000000  -0.6599663   0.6599663), wk =   0.0071111
        k(   65) = (   0.1885618   0.0942809  -0.0000000), wk =   0.0142222
        k(   66) = (   0.2357023   0.1414214  -0.0471405), wk =   0.0284444
        k(   67) = (   0.2828427   0.1885618  -0.0942809), wk =   0.0284444
        k(   68) = (   0.3299832   0.2357023  -0.1414214), wk =   0.0284444
        k(   69) = (   0.3771236   0.2828427  -0.1885618), wk =   0.0284444
        k(   70) = (  -0.2828427  -0.3771236   0.4714045), wk =   0.0284444
        k(   71) = (   0.2828427   0.0942809   0.0000000), wk =   0.0142222
        k(   72) = (   0.3299832   0.1414214  -0.0471405), wk =   0.0284444
        k(   73) = (   0.3771236   0.1885618  -0.0942809), wk =   0.0284444
        k(   74) = (   0.4242641   0.2357023  -0.1414214), wk =   0.0284444
        k(   75) = (  -0.2357023  -0.4242641   0.5185450), wk =   0.0284444
        k(   76) = (  -0.1885618  -0.3771236   0.4714045), wk =   0.0284444
        k(   77) = (  -0.1414214  -0.3299832   0.4242641), wk =   0.0284444
        k(   78) = (  -0.0942809  -0.2828427   0.3771236), wk =   0.0284444
        k(   79) = (  -0.0471405  -0.2357023   0.3299832), wk =   0.0284444
        k(   80) = (   0.0000000  -0.1885618   0.2828427), wk =   0.0142222
        k(   81) = (   0.3771236   0.0942809   0.0000000), wk =   0.0142222
        k(   82) = (   0.4242641   0.1414214  -0.0471405), wk =   0.0284444
        k(   83) = (   0.4714045   0.1885618  -0.0942809), wk =   0.0284444
        k(   84) = (  -0.1885618  -0.4714045   0.5656854), wk =   0.0284444
        k(   85) = (  -0.1414214  -0.4242641   0.5185450), wk =   0.0284444
        k(   86) = (  -0.0942809  -0.3771236   0.4714045), wk =   0.0284444
        k(   87) = (  -0.0471405  -0.3299832   0.4242641), wk =   0.0284444
        k(   88) = (   0.0000000  -0.2828427   0.3771236), wk =   0.0142222
        k(   89) = (   0.4714045   0.0942809  -0.0000000), wk =   0.0142222
        k(   90) = (   0.5185450   0.1414214  -0.0471405), wk =   0.0284444
        k(   91) = (  -0.1414214  -0.5185450   0.6128259), wk =   0.0284444
        k(   92) = (  -0.0942809  -0.4714045   0.5656854), wk =   0.0284444
        k(   93) = (  -0.0471405  -0.4242641   0.5185450), wk =   0.0284444
        k(   94) = (  -0.0000000  -0.3771236   0.4714045), wk =   0.0142222
        k(   95) = (   0.5656854   0.0942809   0.0000000), wk =   0.0142222
        k(   96) = (  -0.0942809  -0.5656854   0.6599663), wk =   0.0284444
        k(   97) = (  -0.0471405  -0.5185450   0.6128259), wk =   0.0284444
        k(   98) = (   0.0000000  -0.4714045   0.5656854), wk =   0.0142222
        k(   99) = (  -0.0471405  -0.6128259   0.7071068), wk =   0.0142222
        k(  100) = (   0.0000000  -0.5656854   0.6599663), wk =   0.0142222
        k(  101) = (   0.3771236   0.1885618  -0.0000000), wk =   0.0142222
        k(  102) = (   0.4242641   0.2357023  -0.0471405), wk =   0.0284444
        k(  103) = (  -0.2357023  -0.4242641   0.6128259), wk =   0.0284444
        k(  104) = (  -0.1885618  -0.3771236   0.5656854), wk =   0.0284444
        k(  105) = (   0.4714045   0.1885618  -0.0000000), wk =   0.0142222
        k(  106) = (  -0.1885618  -0.4714045   0.6599663), wk =   0.0284444
        k(  107) = (  -0.1414214  -0.4242641   0.6128259), wk =   0.0284444
        k(  108) = (  -0.0942809  -0.3771236   0.5656854), wk =   0.0284444
        k(  109) = (  -0.0471405  -0.3299832   0.5185450), wk =   0.0284444
        k(  110) = (   0.0000000  -0.2828427   0.4714045), wk =   0.0142222
        k(  111) = (  -0.1414214  -0.5185450   0.7071068), wk =   0.0142222
        k(  112) = (  -0.0942809  -0.4714045   0.6599663), wk =   0.0284444
        k(  113) = (  -0.0471405  -0.4242641   0.6128259), wk =   0.0284444
        k(  114) = (   0.0000000  -0.3771236   0.5656854), wk =   0.0142222
        k(  115) = (  -0.0471405  -0.5185450   0.7071068), wk =   0.0142222
        k(  116) = (   0.0000000  -0.4714045   0.6599663), wk =   0.0142222
        k(  117) = (  -0.1414214  -0.4242641   0.7071068), wk =   0.0142222
        k(  118) = (  -0.0942809  -0.3771236   0.6599663), wk =   0.0284444
        k(  119) = (  -0.0471405  -0.4242641   0.7071068), wk =   0.0142222
        k(  120) = (  -0.0000000  -0.3771236   0.6599663), wk =   0.0142222

                       cryst. coord.
        k(    1) = (   0.0000000   0.0000000   0.0000000), wk =   0.0005926
        k(    2) = (   0.0000000   0.0000000   0.0666667), wk =   0.0047407
        k(    3) = (   0.0000000   0.0000000   0.1333333), wk =   0.0047407
        k(    4) = (   0.0000000   0.0000000   0.2000000), wk =   0.0047407
        k(    5) = (   0.0000000   0.0000000   0.2666667), wk =   0.0047407
        k(    6) = (   0.0000000   0.0000000   0.3333333), wk =   0.0047407
        k(    7) = (   0.0000000   0.0000000   0.4000000), wk =   0.0047407
        k(    8) = (   0.0000000   0.0000000   0.4666667), wk =   0.0047407
        k(    9) = (   0.0000000   0.0666667   0.0666667), wk =   0.0035556
        k(   10) = (   0.0000000   0.0666667   0.1333333), wk =   0.0142222
        k(   11) = (   0.0000000   0.0666667   0.2000000), wk =   0.0142222
        k(   12) = (   0.0000000   0.0666667   0.2666667), wk =   0.0142222
        k(   13) = (   0.0000000   0.0666667   0.3333333), wk =   0.0142222
        k(   14) = (   0.0000000   0.0666667   0.4000000), wk =   0.0142222
        k(   15) = (   0.0000000   0.0666667   0.4666667), wk =   0.0142222
        k(   16) = (   0.0000000   0.0666667  -0.4666667), wk =   0.0142222
        k(   17) = (   0.0000000   0.0666667  -0.4000000), wk =   0.0142222
        k(   18) = (   0.0000000   0.0666667  -0.3333333), wk =   0.0142222
        k(   19) = (   0.0000000   0.0666667  -0.2666667), wk =   0.0142222
        k(   20) = (   0.0000000   0.0666667  -0.2000000), wk =   0.0142222
        k(   21) = (   0.0000000   0.0666667  -0.1333333), wk =   0.0142222
        k(   22) = (   0.0000000   0.0666667  -0.0666667), wk =   0.0071111
        k(   23) = (   0.0000000   0.1333333   0.1333333), wk =   0.0035556
        k(   24) = (   0.0000000   0.1333333   0.2000000), wk =   0.0142222
        k(   25) = (   0.0000000   0.1333333   0.2666667), wk =   0.0142222
        k(   26) = (   0.0000000   0.1333333   0.3333333), wk =   0.0142222
        k(   27) = (   0.0000000   0.1333333   0.4000000), wk =   0.0142222
        k(   28) = (   0.0000000   0.1333333   0.4666667), wk =   0.0142222
        k(   29) = (   0.0000000   0.1333333  -0.4666667), wk =   0.0142222
        k(   30) = (   0.0000000   0.1333333  -0.4000000), wk =   0.0142222
        k(   31) = (   0.0000000   0.1333333  -0.3333333), wk =   0.0142222
        k(   32) = (   0.0000000   0.1333333  -0.2666667), wk =   0.0142222
        k(   33) = (   0.0000000   0.1333333  -0.2000000), wk =   0.0142222
        k(   34) = (   0.0000000   0.1333333  -0.1333333), wk =   0.0071111
        k(   35) = (   0.0000000   0.2000000   0.2000000), wk =   0.0035556
        k(   36) = (   0.0000000   0.2000000   0.2666667), wk =   0.0142222
        k(   37) = (   0.0000000   0.2000000   0.3333333), wk =   0.0142222
        k(   38) = (   0.0000000   0.2000000   0.4000000), wk =   0.0142222
        k(   39) = (   0.0000000   0.2000000   0.4666667), wk =   0.0142222
        k(   40) = (   0.0000000   0.2000000  -0.4666667), wk =   0.0142222
        k(   41) = (   0.0000000   0.2000000  -0.4000000), wk =   0.0142222
        k(   42) = (   0.0000000   0.2000000  -0.3333333), wk =   0.0142222
        k(   43) = (   0.0000000   0.2000000  -0.2666667), wk =   0.0142222
        k(   44) = (   0.0000000   0.2000000  -0.2000000), wk =   0.0071111
        k(   45) = (   0.0000000   0.2666667   0.2666667), wk =   0.0035556
        k(   46) = (   0.0000000   0.2666667   0.3333333), wk =   0.0142222
        k(   47) = (   0.0000000   0.2666667   0.4000000), wk =   0.0142222
        k(   48) = (   0.0000000   0.2666667   0.4666667), wk =   0.0142222
        k(   49) = (   0.0000000   0.2666667  -0.4666667), wk =   0.0142222
        k(   50) = (   0.0000000   0.2666667  -0.4000000), wk =   0.0142222
        k(   51) = (   0.0000000   0.2666667  -0.3333333), wk =   0.0142222
        k(   52) = (   0.0000000   0.2666667  -0.2666667), wk =   0.0071111
        k(   53) = (   0.0000000   0.3333333   0.3333333), wk =   0.0035556
        k(   54) = (   0.0000000   0.3333333   0.4000000), wk =   0.0142222
        k(   55) = (   0.0000000   0.3333333   0.4666667), wk =   0.0142222
        k(   56) = (   0.0000000   0.3333333  -0.4666667), wk =   0.0142222
        k(   57) = (   0.0000000   0.3333333  -0.4000000), wk =   0.0142222
        k(   58) = (   0.0000000   0.3333333  -0.3333333), wk =   0.0071111
        k(   59) = (   0.0000000   0.4000000   0.4000000), wk =   0.0035556
        k(   60) = (   0.0000000   0.4000000   0.4666667), wk =   0.0142222
        k(   61) = (   0.0000000   0.4000000  -0.4666667), wk =   0.0142222
        k(   62) = (   0.0000000   0.4000000  -0.4000000), wk =   0.0071111
        k(   63) = (   0.0000000   0.4666667   0.4666667), wk =   0.0035556
        k(   64) = (   0.0000000   0.4666667  -0.4666667), wk =   0.0071111
        k(   65) = (   0.0666667   0.1333333   0.2000000), wk =   0.0142222
        k(   66) = (   0.0666667   0.1333333   0.2666667), wk =   0.0284444
        k(   67) = (   0.0666667   0.1333333   0.3333333), wk =   0.0284444
        k(   68) = (   0.0666667   0.1333333   0.4000000), wk =   0.0284444
        k(   69) = (   0.0666667   0.1333333   0.4666667), wk =   0.0284444
        k(   70) = (   0.0666667   0.1333333  -0.4666667), wk =   0.0284444
        k(   71) = (   0.0666667   0.2000000   0.2666667), wk =   0.0142222
        k(   72) = (   0.0666667   0.2000000   0.3333333), wk =   0.0284444
        k(   73) = (   0.0666667   0.2000000   0.4000000), wk =   0.0284444
        k(   74) = (   0.0666667   0.2000000   0.4666667), wk =   0.0284444
        k(   75) = (   0.0666667   0.2000000  -0.4666667), wk =   0.0284444
        k(   76) = (   0.0666667   0.2000000  -0.4000000), wk =   0.0284444
        k(   77) = (   0.0666667   0.2000000  -0.3333333), wk =   0.0284444
        k(   78) = (   0.0666667   0.2000000  -0.2666667), wk =   0.0284444
        k(   79) = (   0.0666667   0.2000000  -0.2000000), wk =   0.0284444
        k(   80) = (   0.0666667   0.2000000  -0.1333333), wk =   0.0142222
        k(   81) = (   0.0666667   0.2666667   0.3333333), wk =   0.0142222
        k(   82) = (   0.0666667   0.2666667   0.4000000), wk =   0.0284444
        k(   83) = (   0.0666667   0.2666667   0.4666667), wk =   0.0284444
        k(   84) = (   0.0666667   0.2666667  -0.4666667), wk =   0.0284444
        k(   85) = (   0.0666667   0.2666667  -0.4000000), wk =   0.0284444
        k(   86) = (   0.0666667   0.2666667  -0.3333333), wk =   0.0284444
        k(   87) = (   0.0666667   0.2666667  -0.2666667), wk =   0.0284444
        k(   88) = (   0.0666667   0.2666667  -0.2000000), wk =   0.0142222
        k(   89) = (   0.0666667   0.3333333   0.4000000), wk =   0.0142222
        k(   90) = (   0.0666667   0.3333333   0.4666667), wk =   0.0284444
        k(   91) = (   0.0666667   0.3333333  -0.4666667), wk =   0.0284444
        k(   92) = (   0.0666667   0.3333333  -0.4000000), wk =   0.0284444
        k(   93) = (   0.0666667   0.3333333  -0.3333333), wk =   0.0284444
        k(   94) = (   0.0666667   0.3333333  -0.2666667), wk =   0.0142222
        k(   95) = (   0.0666667   0.4000000   0.4666667), wk =   0.0142222
        k(   96) = (   0.0666667   0.4000000  -0.4666667), wk =   0.0284444
        k(   97) = (   0.0666667   0.4000000  -0.4000000), wk =   0.0284444
        k(   98) = (   0.0666667   0.4000000  -0.3333333), wk =   0.0142222
        k(   99) = (   0.0666667   0.4666667  -0.4666667), wk =   0.0142222
        k(  100) = (   0.0666667   0.4666667  -0.4000000), wk =   0.0142222
        k(  101) = (   0.1333333   0.2666667   0.4000000), wk =   0.0142222
        k(  102) = (   0.1333333   0.2666667   0.4666667), wk =   0.0284444
        k(  103) = (   0.1333333   0.2666667  -0.4666667), wk =   0.0284444
        k(  104) = (   0.1333333   0.2666667  -0.4000000), wk =   0.0284444
        k(  105) = (   0.1333333   0.3333333   0.4666667), wk =   0.0142222
        k(  106) = (   0.1333333   0.3333333  -0.4666667), wk =   0.0284444
        k(  107) = (   0.1333333   0.3333333  -0.4000000), wk =   0.0284444
        k(  108) = (   0.1333333   0.3333333  -0.3333333), wk =   0.0284444
        k(  109) = (   0.1333333   0.3333333  -0.2666667), wk =   0.0284444
        k(  110) = (   0.1333333   0.3333333  -0.2000000), wk =   0.0142222
        k(  111) = (   0.1333333   0.4000000  -0.4666667), wk =   0.0142222
        k(  112) = (   0.1333333   0.4000000  -0.4000000), wk =   0.0284444
        k(  113) = (   0.1333333   0.4000000  -0.3333333), wk =   0.0284444
        k(  114) = (   0.1333333   0.4000000  -0.2666667), wk =   0.0142222
        k(  115) = (   0.1333333   0.4666667  -0.4000000), wk =   0.0142222
        k(  116) = (   0.1333333   0.4666667  -0.3333333), wk =   0.0142222
        k(  117) = (   0.2000000   0.4000000  -0.4000000), wk =   0.0142222
        k(  118) = (   0.2000000   0.4000000  -0.3333333), wk =   0.0284444
        k(  119) = (   0.2000000   0.4666667  -0.3333333), wk =   0.0142222
        k(  120) = (   0.2000000   0.4666667  -0.2666667), wk =   0.0142222

     Dense  grid:    30923 G-vectors     FFT dimensions: (  45,  45,  45)

     Largest allocated arrays     est. size (Mb)     dimensions
        Kohn-Sham Wavefunctions         0.07 Mb     (     256,   18)
        NL pseudopotentials             0.14 Mb     (     256,   36)
        Each V/rho on FFT grid          0.09 Mb     (    6075)
        Each G-vector array             0.01 Mb     (    1932)
        G-vector shells                 0.00 Mb     (     295)
     Largest temporary arrays     est. size (Mb)     dimensions
        Auxiliary wavefunctions         0.28 Mb     (     256,   72)
        Each subspace H/S matrix        0.08 Mb     (      72,   72)
        Each <psi_i|beta_j> matrix      0.01 Mb     (      36,   18)
        Arrays for rho mixing           0.74 Mb     (    6075,    8)

     Initial potential from superposition of free atoms

     starting charge   27.82674, renormalised to   28.00000
     Starting wfc are random

     total cpu time spent up to now is        2.5 secs

     Self-consistent Calculation

     iteration #  1     ecut=    60.00 Ry     beta=0.70
     Davidson diagonalization with overlap
     ethr =  1.00E-02,  avg # of iterations =  7.8

     Threshold (ethr) on eigenvalues was too large:
     Diagonalizing with lowered threshold

     Davidson diagonalization with overlap
     ethr =  1.15E-04,  avg # of iterations =  5.9

     total cpu time spent up to now is       31.6 secs

     total energy              =    -256.21679034 Ry
     Harris-Foulkes estimate   =    -256.22963508 Ry
     estimated scf accuracy    <       0.03193042 Ry

     iteration #  2     ecut=    60.00 Ry     beta=0.70
     Davidson diagonalization with overlap
     ethr =  1.14E-04,  avg # of iterations =  2.0

     total cpu time spent up to now is       38.8 secs

     total energy              =    -256.22123905 Ry
     Harris-Foulkes estimate   =    -256.22147895 Ry
     estimated scf accuracy    <       0.00184012 Ry

     iteration #  3     ecut=    60.00 Ry     beta=0.70
     Davidson diagonalization with overlap
     ethr =  6.57E-06,  avg # of iterations =  3.4

     total cpu time spent up to now is       45.7 secs

     total energy              =    -256.22141455 Ry
     Harris-Foulkes estimate   =    -256.22139669 Ry
     estimated scf accuracy    <       0.00010944 Ry

     iteration #  4     ecut=    60.00 Ry     beta=0.70
     Davidson diagonalization with overlap
     ethr =  3.91E-07,  avg # of iterations =  2.8

     total cpu time spent up to now is       52.3 secs

     End of self-consistent calculation

          k = 0.0000 0.0000 0.0000 (  3839 PWs)   bands (ev):

   -14.0568 -14.0568 -14.0568 -14.0076 -14.0076 -13.7575 -13.7575 -13.7575
   -13.7563 -13.7563  -2.5780   6.3614   7.6171   7.6171   7.6171   9.4222
     9.4245   9.6832

     occupation numbers 
     1.0000   1.0000   1.0000   1.0000   1.0000   1.0000   1.0000   1.0000
     1.0000   1.0000   1.0000   1.0000   0.1909   0.1909   0.1909   0.0000
     0.0000   0.0000

          k = 0.0471 0.0471-0.0471 (  3861 PWs)   bands (ev):

   -14.0598 -14.0598 -14.0559 -14.0036 -14.0036 -13.7684 -13.7684 -13.7586
   -13.7461 -13.7461  -2.5382   5.9136   7.5349   7.5349   7.8208   9.4220
     9.4242   9.7908

     occupation numbers 
     1.0000   1.0000   1.0000   1.0000   1.0000   1.0000   1.0000   1.0000
     1.0000   1.0000   1.0000   1.0000   0.4919   0.4919   0.0014   0.0000
     0.0000   0.0000

          k = 0.0943 0.0943-0.0943 (  3882 PWs)   bands (ev):

   -14.0662 -14.0662 -14.0532 -13.9944 -13.9944 -13.7797 -13.7797 -13.7618
   -13.7366 -13.7366  -2.4201   5.0804   7.3383   7.3383   7.9378   9.4219
     9.4241  10.0500

     occupation numbers 
     1.0000   1.0000   1.0000   1.0000   1.0000   1.0000   1.0000   1.0000
     1.0000   1.0000   1.0000   1.0000   0.9785   0.9785   0.0000   0.0000
     0.0000   0.0000

          k = 0.1414 0.1414-0.1414 (  3897 PWs)   bands (ev):

   -14.0729 -14.0729 -14.0492 -13.9837 -13.9837 -13.7900 -13.7900 -13.7666
   -13.7287 -13.7287  -2.2275   4.1891   7.1076   7.1076   7.8480   9.4217
     9.4240  10.3416

     occupation numbers 
     1.0000   1.0000   1.0000   1.0000   1.0000   1.0000   1.0000   1.0000
     1.0000   1.0000   1.0000   1.0000   1.0000   1.0000   0.0005   0.0000
     0.0000   0.0000

          k = 0.1886 0.1886-0.1886 (  3897 PWs)   bands (ev):

   -14.0785 -14.0785 -14.0445 -13.9739 -13.9739 -13.7986 -13.7986 -13.7722
   -13.7226 -13.7226  -1.9692   3.3310   6.8928   6.8928   7.6929   9.4217
     9.4240  10.5671

     occupation numbers 
     1.0000   1.0000   1.0000   1.0000   1.0000   1.0000   1.0000   1.0000
     1.0000   1.0000   1.0000   1.0000   1.0000   1.0000   0.0483   0.0000
     0.0000   0.0000

          k = 0.2357 0.2357-0.2357 (  3897 PWs)   bands (ev):

   -14.0825 -14.0825 -14.0399 -13.9664 -13.9664 -13.8048 -13.8048 -13.7777
   -13.7182 -13.7182  -1.6644   2.5584   6.7190   6.7190   7.5482   9.4216
     9.4240  10.6859

     occupation numbers 
     1.0000   1.0000   1.0000   1.0000   1.0000   1.0000   1.0000   1.0000
     1.0000   1.0000   1.0000   1.0000   1.0000   1.0000   0.4374   0.0000
     0.0000   0.0000

          k = 0.2828 0.2828-0.2828 (  3882 PWs)   bands (ev):

   -14.0850 -14.0850 -14.0362 -13.9615 -13.9615 -13.8086 -13.8086 -13.7820
   -13.7155 -13.7155  -1.3566   1.9316   6.5984   6.5984   7.4430   9.4219
     9.4241  10.7236

     occupation numbers 
     1.0000   1.0000   1.0000   1.0000   1.0000   1.0000   1.0000   1.0000
     1.0000   1.0000   1.0000   1.0000   1.0000   1.0000   0.8252   0.0000
     0.0000   0.0000

          k = 0.3300 0.3300-0.3300 (  3879 PWs)   bands (ev):

   -14.0861 -14.0861 -14.0341 -13.9592 -13.9592 -13.8103 -13.8103 -13.7845
   -13.7143 -13.7143  -1.1399   1.5535   6.5369   6.5369   7.3886   9.4219
     9.4242  10.7278

     occupation numbers 
     1.0000   1.0000   1.0000   1.0000   1.0000   1.0000   1.0000   1.0000
     1.0000   1.0000   1.0000   1.0000   1.0000   1.0000   0.9334   0.0000
     0.0000   0.0000

          k = 0.0943 0.0000 0.0000 (  3863 PWs)   bands (ev):

   -14.0593 -14.0589 -14.0589 -14.0048 -13.9996 -13.7785 -13.7590 -13.7546
   -13.7546 -13.7418  -2.5249   5.8279   7.3860   7.3860   8.1282   9.4217
     9.4242   9.5192

     occupation numbers 
     1.0000   1.0000   1.0000   1.0000   1.0000   1.0000   1.0000   1.0000
     1.0000   1.0000   1.0000   1.0000   0.9367   0.9367   0.0000   0.0000
     0.0000   0.0000

          k = 0.1414 0.0471-0.0471 (  3879 PWs)   bands (ev):

   -14.0661 -14.0632 -14.0564 -13.9989 -13.9901 -13.7908 -13.7688 -13.7549
   -13.7453 -13.7345  -2.4326   5.2111   7.1583   7.1888   8.3894   9.4232
     9.5226  10.2937

     occupation numbers 
     1.0000   1.0000   1.0000   1.0000   1.0000   1.0000   1.0000   1.0000
     1.0000   1.0000   1.0000   1.0000   1.0000   0.9998   0.0000   0.0000
     0.0000   0.0000

          k = 0.1886 0.0943-0.0943 (  3887 PWs)   bands (ev):

   -14.0739 -14.0694 -14.0517 -13.9895 -13.9787 -13.8022 -13.7797 -13.7595
   -13.7360 -13.7263  -2.2643   4.3983   6.9221   6.9472   8.3828   9.4217
     9.4241   9.7843

     occupation numbers 
     1.0000   1.0000   1.0000   1.0000   1.0000   1.0000   1.0000   1.0000
     1.0000   1.0000   1.0000   1.0000   1.0000   1.0000   0.0000   0.0000
     0.0000   0.0000

          k = 0.2357 0.1414-0.1414 (  3911 PWs)   bands (ev):

   -14.0808 -14.0754 -14.0456 -13.9795 -13.9681 -13.8113 -13.7895 -13.7665
   -13.7283 -13.7192  -2.0265   3.5606   6.6878   6.7172   8.2464   9.4215
     9.4239  10.1207

     occupation numbers 
     1.0000   1.0000   1.0000   1.0000   1.0000   1.0000   1.0000   1.0000
     1.0000   1.0000   1.0000   1.0000   1.0000   1.0000   0.0000   0.0000
     0.0000   0.0000

          k = 0.2828 0.1886-0.1886 (  3891 PWs)   bands (ev):

   -14.0861 -14.0803 -14.0391 -13.9707 -13.9602 -13.8171 -13.7980 -13.7745
   -13.7222 -13.7138  -1.7339   2.7748   6.4530   6.5634   8.0917   9.4217
     9.4241  10.3774

     occupation numbers 
     1.0000   1.0000   1.0000   1.0000   1.0000   1.0000   1.0000   1.0000
     1.0000   1.0000   1.0000   1.0000   1.0000   1.0000   0.0000   0.0000
     0.0000   0.0000

          k = 0.3300 0.2357-0.2357 (  3896 PWs)   bands (ev):

   -14.0895 -14.0839 -14.0331 -13.9636 -13.9558 -13.8190 -13.8049 -13.7821
   -13.7176 -13.7103  -1.4193   2.1022   6.2653   6.4702   7.9634   9.4217
     9.4240  10.5204

     occupation numbers 
     1.0000   1.0000   1.0000   1.0000   1.0000   1.0000   1.0000   1.0000
     1.0000   1.0000   1.0000   1.0000   1.0000   1.0000   0.0000   0.0000
     0.0000   0.0000

          k = 0.3771 0.2828-0.2828 (  3897 PWs)   bands (ev):

   -14.0911 -14.0863 -14.0289 -13.9584 -13.9550 -13.8172 -13.8104 -13.7880
   -13.7143 -13.7088  -1.1570   1.6314   6.1353   6.4415   7.8797   9.4217
     9.4240  10.6003

     occupation numbers 
     1.0000   1.0000   1.0000   1.0000   1.0000   1.0000   1.0000   1.0000
     1.0000   1.0000   1.0000   1.0000   1.0000   1.0000   0.0002   0.0000
     0.0000   0.0000

          k =-0.2828-0.3771 0.3771 (  3891 PWs)   bands (ev):

   -14.0910 -14.0875 -14.0274 -13.9569 -13.9552 -13.8143 -13.8130 -13.7909
   -13.7124 -13.7094  -1.0747   1.4967   6.0692   6.4775   7.8476   9.4218
     9.4240  10.6666

     occupation numbers 
     1.0000   1.0000   1.0000   1.0000   1.0000   1.0000   1.0000   1.0000
     1.0000   1.0000   1.0000   1.0000   1.0000   1.0000   0.0005   0.0000
     0.0000   0.0000

          k =-0.2357-0.3300 0.3300 (  3894 PWs)   bands (ev):

   -14.0892 -14.0877 -14.0290 -13.9609 -13.9546 -13.8163 -13.8083 -13.7891
   -13.7119 -13.7118  -1.2320   1.7593   6.0707   6.5757   7.8687   9.4229
    10.7345  10.7729

     occupation numbers 
     1.0000   1.0000   1.0000   1.0000   1.0000   1.0000   1.0000   1.0000
     1.0000   1.0000   1.0000   1.0000   1.0000   1.0000   0.0002   0.0000
     0.0000   0.0000

          k =-0.1886-0.2828 0.2828 (  3903 PWs)   bands (ev):

   -14.0864 -14.0859 -14.0334 -13.9664 -13.9572 -13.8153 -13.8040 -13.7827
   -13.7162 -13.7129  -1.5240   2.3108   6.1422   6.7304   7.9398   9.4217
     9.4239  10.6761

     occupation numbers 
     1.0000   1.0000   1.0000   1.0000   1.0000   1.0000   1.0000   1.0000
     1.0000   1.0000   1.0000   1.0000   1.0000   1.0000   0.0000   0.0000
     0.0000   0.0000

          k =-0.1414-0.2357 0.2357 (  3899 PWs)   bands (ev):

   -14.0834 -14.0809 -14.0395 -13.9736 -13.9635 -13.8108 -13.7987 -13.7739
   -13.7225 -13.7158  -1.8367   3.0279   6.2854   6.9313   8.0504   9.4217
     9.4240  10.5178

     occupation numbers 
     1.0000   1.0000   1.0000   1.0000   1.0000   1.0000   1.0000   1.0000
     1.0000   1.0000   1.0000   1.0000   1.0000   1.0000   0.0000   0.0000
     0.0000   0.0000

          k =-0.0943-0.1886 0.1886 (  3892 PWs)   bands (ev):

   -14.0786 -14.0746 -14.0460 -13.9824 -13.9730 -13.8029 -13.7917 -13.7648
   -13.7306 -13.7207  -2.1133   3.8344   6.5011   7.1600   8.1725   9.4217
     9.4241  10.2793

     occupation numbers 
     1.0000   1.0000   1.0000   1.0000   1.0000   1.0000   1.0000   1.0000
     1.0000   1.0000   1.0000   1.0000   1.0000   0.9999   0.0000   0.0000
     0.0000   0.0000

          k =-0.0471-0.1414 0.1414 (  3882 PWs)   bands (ev):

   -14.0723 -14.0673 -14.0518 -13.9918 -13.9845 -13.7925 -13.7829 -13.7567
   -13.7402 -13.7275  -2.3289   4.6663   6.7908   7.3812   8.2346   9.4218
     9.4241  10.0061

     occupation numbers 
     1.0000   1.0000   1.0000   1.0000   1.0000   1.0000   1.0000   1.0000
     1.0000   1.0000   1.0000   1.0000   1.0000   0.9427   0.0000   0.0000
     0.0000   0.0000

          k = 0.0000-0.0943 0.0943 (  3879 PWs)   bands (ev):

   -14.0652 -14.0611 -14.0556 -14.0001 -13.9957 -13.7806 -13.7734 -13.7517
   -13.7498 -13.7361  -2.4723   5.4259   7.1565   7.5313   8.1018   9.4218
     9.4241   9.8056

     occupation numbers 
     1.0000   1.0000   1.0000   1.0000   1.0000   1.0000   1.0000   1.0000
     1.0000   1.0000   1.0000   1.0000   1.0000   0.5071   0.0000   0.0000
     0.0000   0.0000

          k = 0.1886 0.0000 0.0000 (  3887 PWs)   bands (ev):

   -14.0647 -14.0647 -14.0624 -13.9965 -13.9801 -13.8055 -13.7670 -13.7466
   -13.7466 -13.7339  -2.3662   4.9446   6.9165   6.9165   8.8972   9.1662
     9.4225   9.4248

     occupation numbers 
     1.0000   1.0000   1.0000   1.0000   1.0000   1.0000   1.0000   1.0000
     1.0000   1.0000   1.0000   1.0000   1.0000   1.0000   0.0000   0.0000
     0.0000   0.0000

          k = 0.2357 0.0471-0.0471 (  3899 PWs)   bands (ev):

   -14.0731 -14.0695 -14.0575 -13.9890 -13.9678 -13.8194 -13.7755 -13.7477
   -13.7391 -13.7278  -2.2225   4.3609   6.6502   6.6760   9.0391   9.2035
     9.4226   9.4255

     occupation numbers 
     1.0000   1.0000   1.0000   1.0000   1.0000   1.0000   1.0000   1.0000
     1.0000   1.0000   1.0000   1.0000   1.0000   1.0000   0.0000   0.0000
     0.0000   0.0000

          k = 0.2828 0.0943-0.0943 (  3914 PWs)   bands (ev):

   -14.0820 -14.0752 -14.0492 -13.9794 -13.9561 -13.8310 -13.7859 -13.7561
   -13.7307 -13.7185  -2.0067   3.6416   6.3411   6.4728   8.9397   9.4202
     9.4238   9.5479

     occupation numbers 
     1.0000   1.0000   1.0000   1.0000   1.0000   1.0000   1.0000   1.0000
     1.0000   1.0000   1.0000   1.0000   1.0000   1.0000   0.0000   0.0000
     0.0000   0.0000

          k = 0.3300 0.1414-0.1414 (  3901 PWs)   bands (ev):

   -14.0898 -14.0804 -14.0393 -13.9696 -13.9470 -13.8386 -13.7962 -13.7673
   -13.7233 -13.7102  -1.7297   2.9061   6.0368   6.3259   8.7884   9.4217
     9.4241   9.9634

     occupation numbers 
     1.0000   1.0000   1.0000   1.0000   1.0000   1.0000   1.0000   1.0000
     1.0000   1.0000   1.0000   1.0000   1.0000   1.0000   0.0000   0.0000
     0.0000   0.0000

          k = 0.3771 0.1886-0.1886 (  3903 PWs)   bands (ev):

   -14.0958 -14.0846 -14.0291 -13.9606 -13.9424 -13.8410 -13.8057 -13.7793
   -13.7172 -13.7038  -1.4159   2.2325   5.7763   6.2447   8.6447   9.4217
     9.4240  10.2882

     occupation numbers 
     1.0000   1.0000   1.0000   1.0000   1.0000   1.0000   1.0000   1.0000
     1.0000   1.0000   1.0000   1.0000   1.0000   1.0000   0.0000   0.0000
     0.0000   0.0000

          k = 0.4243 0.2357-0.2357 (  3915 PWs)   bands (ev):

   -14.0994 -14.0879 -14.0204 -13.9529 -13.9428 -13.8376 -13.8144 -13.7901
   -13.7125 -13.7000  -1.1220   1.7050   5.5783   6.2329   8.5372   9.4216
     9.4239  10.4703

     occupation numbers 
     1.0000   1.0000   1.0000   1.0000   1.0000   1.0000   1.0000   1.0000
     1.0000   1.0000   1.0000   1.0000   1.0000   1.0000   0.0000   0.0000
     0.0000   0.0000

          k =-0.2357-0.4243 0.4243 (  3907 PWs)   bands (ev):

   -14.1007 -14.0901 -14.0149 -13.9473 -13.9470 -13.8291 -13.8217 -13.7984
   -13.7092 -13.6990  -0.9642   1.4532   5.4523   6.2903   8.4775   9.4217
     9.4240  10.5864

     occupation numbers 
     1.0000   1.0000   1.0000   1.0000   1.0000   1.0000   1.0000   1.0000
     1.0000   1.0000   1.0000   1.0000   1.0000   1.0000   0.0000   0.0000
     0.0000   0.0000

          k =-0.1886-0.3771 0.3771 (  3913 PWs)   bands (ev):

   -14.0994 -14.0911 -14.0142 -13.9542 -13.9437 -13.8267 -13.8172 -13.8028
   -13.7075 -13.7010  -1.0510   1.5899   5.4056   6.4128   8.4679   9.4217
     9.4239  10.6963

     occupation numbers 
     1.0000   1.0000   1.0000   1.0000   1.0000   1.0000   1.0000   1.0000
     1.0000   1.0000   1.0000   1.0000   1.0000   1.0000   0.0000   0.0000
     0.0000   0.0000

          k =-0.1414-0.3300 0.3300 (  3904 PWs)   bands (ev):

   -14.0956 -14.0907 -14.0185 -13.9619 -13.9445 -13.8279 -13.8072 -13.7991
   -13.7076 -13.7060  -1.3176   2.0461   5.4461   6.5926   8.5025   9.4217
     9.4241  10.8029

     occupation numbers 
     1.0000   1.0000   1.0000   1.0000   1.0000   1.0000   1.0000   1.0000
     1.0000   1.0000   1.0000   1.0000   1.0000   1.0000   0.0000   0.0000
     0.0000   0.0000

          k =-0.0943-0.2828 0.2828 (  3893 PWs)   bands (ev):

   -14.0896 -14.0886 -14.0268 -13.9695 -13.9501 -13.8243 -13.8038 -13.7849
   -13.7139 -13.7096  -1.6333   2.6773   5.5847   6.8151   8.5635   9.4218
     9.4242  10.7267

     occupation numbers 
     1.0000   1.0000   1.0000   1.0000   1.0000   1.0000   1.0000   1.0000
     1.0000   1.0000   1.0000   1.0000   1.0000   1.0000   0.0000   0.0000
     0.0000   0.0000

          k =-0.0471-0.2357 0.2357 (  3898 PWs)   bands (ev):

   -14.0846 -14.0819 -14.0368 -13.9773 -13.9599 -13.8163 -13.7986 -13.7702
   -13.7241 -13.7136  -1.9253   3.3810   5.8397   7.0550   8.6057   9.4218
     9.4242  10.4481

     occupation numbers 
     1.0000   1.0000   1.0000   1.0000   1.0000   1.0000   1.0000   1.0000
     1.0000   1.0000   1.0000   1.0000   1.0000   1.0000   0.0000   0.0000
     0.0000   0.0000

          k = 0.0000-0.1886 0.1886 (  3897 PWs)   bands (ev):

   -14.0789 -14.0736 -14.0460 -13.9852 -13.9721 -13.8051 -13.7913 -13.7585
   -13.7353 -13.7197  -2.1618   4.0729   6.2375   7.2671   8.5276   9.4217
     9.4241  10.1700

     occupation numbers 
     1.0000   1.0000   1.0000   1.0000   1.0000   1.0000   1.0000   1.0000
     1.0000   1.0000   1.0000   1.0000   1.0000   0.9971   0.0000   0.0000
     0.0000   0.0000

          k = 0.2828 0.0000 0.0000 (  3903 PWs)   bands (ev):

   -14.0728 -14.0728 -14.0616 -13.9831 -13.9541 -13.8366 -13.7798 -13.7354
   -13.7354 -13.7334  -2.1033   4.0270   6.4305   6.4305   8.8066   9.4054
     9.4228   9.4585

     occupation numbers 
     1.0000   1.0000   1.0000   1.0000   1.0000   1.0000   1.0000   1.0000
     1.0000   1.0000   1.0000   1.0000   1.0000   1.0000   0.0000   0.0000
     0.0000   0.0000

          k = 0.3300 0.0471-0.0471 (  3918 PWs)   bands (ev):

   -14.0808 -14.0776 -14.0547 -13.9740 -13.9404 -13.8516 -13.7890 -13.7447
   -13.7283 -13.7220  -1.9101   3.4903   6.1499   6.2225   8.8069   9.4166
     9.4228   9.5200

     occupation numbers 
     1.0000   1.0000   1.0000   1.0000   1.0000   1.0000   1.0000   1.0000
     1.0000   1.0000   1.0000   1.0000   1.0000   1.0000   0.0000   0.0000
     0.0000   0.0000

          k = 0.3771 0.0943-0.0943 (  3918 PWs)   bands (ev):

   -14.0904 -14.0825 -14.0425 -13.9638 -13.9292 -13.8626 -13.7998 -13.7586
   -13.7211 -13.7104  -1.6510   2.8699   5.7992   6.0721   8.9208   9.4204
     9.4232   9.6822

     occupation numbers 
     1.0000   1.0000   1.0000   1.0000   1.0000   1.0000   1.0000   1.0000
     1.0000   1.0000   1.0000   1.0000   1.0000   1.0000   0.0000   0.0000
     0.0000   0.0000

          k = 0.4243 0.1414-0.1414 (  3917 PWs)   bands (ev):

   -14.0988 -14.0869 -14.0286 -13.9535 -13.9227 -13.8679 -13.8109 -13.7741
   -13.7147 -13.7008  -1.3440   2.2521   5.4584   5.9896   8.8990   9.4214
     9.4237  10.1261

     occupation numbers 
     1.0000   1.0000   1.0000   1.0000   1.0000   1.0000   1.0000   1.0000
     1.0000   1.0000   1.0000   1.0000   1.0000   1.0000   0.0000   0.0000
     0.0000   0.0000

          k = 0.4714 0.1886-0.1886 (  3916 PWs)   bands (ev):

   -14.1051 -14.0904 -14.0154 -13.9439 -13.9226 -13.8660 -13.8217 -13.7890
   -13.7095 -13.6938  -1.0307   1.7172   5.1775   5.9796   8.8373   9.4216
     9.4238  10.5775

     occupation numbers 
     1.0000   1.0000   1.0000   1.0000   1.0000   1.0000   1.0000   1.0000
     1.0000   1.0000   1.0000   1.0000   1.0000   1.0000   0.0000   0.0000
     0.0000   0.0000

          k =-0.1886-0.4714 0.4714 (  3920 PWs)   bands (ev):

   -14.1085 -14.0930 -14.0054 -13.9357 -13.9286 -13.8574 -13.8315 -13.8006
   -13.7057 -13.6901  -0.8093   1.3841   4.9796   6.0421   8.8037   9.4216
     9.4238  10.8166

     occupation numbers 
     1.0000   1.0000   1.0000   1.0000   1.0000   1.0000   1.0000   1.0000
     1.0000   1.0000   1.0000   1.0000   1.0000   1.0000   0.0000   0.0000
     0.0000   0.0000

          k =-0.1414-0.4243 0.4243 (  3911 PWs)   bands (ev):

   -14.1088 -14.0944 -14.0006 -13.9391 -13.9303 -13.8432 -13.8388 -13.8076
   -13.7035 -13.6902  -0.8202   1.4007   4.8789   6.1730   8.8112   9.4217
     9.4240  10.9410

     occupation numbers 
     1.0000   1.0000   1.0000   1.0000   1.0000   1.0000   1.0000   1.0000
     1.0000   1.0000   1.0000   1.0000   1.0000   1.0000   0.0000   0.0000
     0.0000   0.0000

          k =-0.0943-0.3771 0.3771 (  3911 PWs)   bands (ev):

   -14.1058 -14.0945 -14.0024 -13.9514 -13.9299 -13.8413 -13.8249 -13.8099
   -13.7031 -13.6942  -1.0537   1.7524   4.8904   6.3633   8.8499   9.4217
     9.4242  11.0568

     occupation numbers 
     1.0000   1.0000   1.0000   1.0000   1.0000   1.0000   1.0000   1.0000
     1.0000   1.0000   1.0000   1.0000   1.0000   1.0000   0.0000   0.0000
     0.0000   0.0000

          k =-0.0471-0.3300 0.3300 (  3909 PWs)   bands (ev):

   -14.0997 -14.0929 -14.0109 -13.9622 -13.9358 -13.8375 -13.8091 -13.8044
   -13.7046 -13.7020  -1.3678   2.2772   5.0354   6.5966   8.8862   9.4217
     9.4243  11.1199

     occupation numbers 
     1.0000   1.0000   1.0000   1.0000   1.0000   1.0000   1.0000   1.0000
     1.0000   1.0000   1.0000   1.0000   1.0000   1.0000   0.0000   0.0000
     0.0000   0.0000

          k = 0.0000-0.2828 0.2828 (  3911 PWs)   bands (ev):

   -14.0913 -14.0895 -14.0237 -13.9706 -13.9467 -13.8285 -13.8048 -13.7854
   -13.7126 -13.7082  -1.6712   2.8475   5.3437   6.8438   8.8438   9.4217
     9.4244  10.7676

     occupation numbers 
     1.0000   1.0000   1.0000   1.0000   1.0000   1.0000   1.0000   1.0000
     1.0000   1.0000   1.0000   1.0000   1.0000   1.0000   0.0000   0.0000
     0.0000   0.0000

          k = 0.3771 0.0000 0.0000 (  3920 PWs)   bands (ev):

   -14.0816 -14.0816 -14.0552 -13.9652 -13.9242 -13.8704 -13.7971 -13.7404
   -13.7230 -13.7230  -1.7389   3.1216   6.0060   6.0060   8.5209   9.4169
     9.4227   9.5092

     occupation numbers 
     1.0000   1.0000   1.0000   1.0000   1.0000   1.0000   1.0000   1.0000
     1.0000   1.0000   1.0000   1.0000   1.0000   1.0000   0.0000   0.0000
     0.0000   0.0000

          k = 0.4243 0.0471-0.0471 (  3920 PWs)   bands (ev):

   -14.0887 -14.0859 -14.0457 -13.9546 -13.9100 -13.8856 -13.8076 -13.7520
   -13.7167 -13.7129  -1.4988   2.6305   5.7384   5.8458   8.5662   9.4098
     9.4226   9.4558

     occupation numbers 
     1.0000   1.0000   1.0000   1.0000   1.0000   1.0000   1.0000   1.0000
     1.0000   1.0000   1.0000   1.0000   1.0000   1.0000   0.0000   0.0000
     0.0000   0.0000

          k = 0.4714 0.0943-0.0943 (  3922 PWs)   bands (ev):

   -14.0980 -14.0898 -14.0303 -13.9435 -13.9014 -13.8939 -13.8193 -13.7692
   -13.7108 -13.7016  -1.2027   2.1014   5.3721   5.7539   8.7214   9.4203
     9.4232   9.6365

     occupation numbers 
     1.0000   1.0000   1.0000   1.0000   1.0000   1.0000   1.0000   1.0000
     1.0000   1.0000   1.0000   1.0000   1.0000   1.0000   0.0000   0.0000
     0.0000   0.0000

          k = 0.5185 0.1414-0.1414 (  3918 PWs)   bands (ev):

   -14.1063 -14.0931 -14.0137 -13.9325 -13.9034 -13.8908 -13.8313 -13.7872
   -13.7059 -13.6921  -0.8804   1.6038   5.0150   5.7358   8.7607   9.4214
     9.4236  10.2062

     occupation numbers 
     1.0000   1.0000   1.0000   1.0000   1.0000   1.0000   1.0000   1.0000
     1.0000   1.0000   1.0000   1.0000   1.0000   1.0000   0.0000   0.0000
     0.0000   0.0000

          k =-0.1414-0.5185 0.5185 (  3925 PWs)   bands (ev):

   -14.1122 -14.0955 -14.0000 -13.9226 -13.9056 -13.8870 -13.8428 -13.8018
   -13.7024 -13.6857  -0.6094   1.2347   4.7346   5.7923   8.7761   9.4214
     9.4237  10.9342

     occupation numbers 
     1.0000   1.0000   1.0000   1.0000   1.0000   1.0000   1.0000   1.0000
     1.0000   1.0000   1.0000   1.0000   1.0000   1.0000   0.0000   0.0000
     0.0000   0.0000

          k =-0.0943-0.4714 0.4714 (  3923 PWs)   bands (ev):

   -14.1147 -14.0970 -13.9924 -13.9156 -13.9154 -13.8751 -13.8517 -13.8101
   -13.7003 -13.6833  -0.5476   1.1573   4.5675   5.9198   8.8236   9.4215
     9.4238  11.4654

     occupation numbers 
     1.0000   1.0000   1.0000   1.0000   1.0000   1.0000   1.0000   1.0000
     1.0000   1.0000   1.0000   1.0000   1.0000   1.0000   0.0000   0.0000
     0.0000   0.0000

          k =-0.0471-0.4243 0.4243 (  3922 PWs)   bands (ev):

   -14.1133 -14.0971 -13.9916 -13.9327 -13.9151 -13.8543 -13.8541 -13.8126
   -13.6999 -13.6853  -0.7481   1.4168   4.5419   6.1095   8.8988   9.4215
     9.4239  11.6495

     occupation numbers 
     1.0000   1.0000   1.0000   1.0000   1.0000   1.0000   1.0000   1.0000
     1.0000   1.0000   1.0000   1.0000   1.0000   1.0000   0.0000   0.0000
     0.0000   0.0000

          k =-0.0000-0.3771 0.3771 (  3905 PWs)   bands (ev):

   -14.1081 -14.0958 -13.9978 -13.9500 -13.9229 -13.8486 -13.8295 -13.8115
   -13.7014 -13.6918  -1.0582   1.8371   4.6885   6.3449   8.9557   9.4218
     9.4244  11.5815

     occupation numbers 
     1.0000   1.0000   1.0000   1.0000   1.0000   1.0000   1.0000   1.0000
     1.0000   1.0000   1.0000   1.0000   1.0000   1.0000   0.0000   0.0000
     0.0000   0.0000

          k = 0.4714 0.0000 0.0000 (  3944 PWs)   bands (ev):

   -14.0894 -14.0894 -14.0427 -13.9436 -13.9052 -13.8923 -13.8180 -13.7543
   -13.7115 -13.7115  -1.2769   2.2455   5.6728   5.6728   8.3418   9.2097
     9.4218   9.4245

     occupation numbers 
     1.0000   1.0000   1.0000   1.0000   1.0000   1.0000   1.0000   1.0000
     1.0000   1.0000   1.0000   1.0000   1.0000   1.0000   0.0000   0.0000
     0.0000   0.0000

          k = 0.5185 0.0471-0.0471 (  3926 PWs)   bands (ev):

   -14.0954 -14.0928 -14.0305 -13.9318 -13.9199 -13.8782 -13.8299 -13.7678
   -13.7067 -13.7038  -0.9939   1.7976   5.4356   5.5668   8.4325   9.1298
     9.4219   9.4243

     occupation numbers 
     1.0000   1.0000   1.0000   1.0000   1.0000   1.0000   1.0000   1.0000
     1.0000   1.0000   1.0000   1.0000   1.0000   1.0000   0.0000   0.0000
     0.0000   0.0000

          k = 0.5657 0.0943-0.0943 (  3931 PWs)   bands (ev):

   -14.1038 -14.0955 -14.0128 -13.9279 -13.9199 -13.8698 -13.8425 -13.7866
   -13.7026 -13.6941  -0.6701   1.3504   5.0803   5.5349   8.5793   9.4096
     9.4226   9.4457

     occupation numbers 
     1.0000   1.0000   1.0000   1.0000   1.0000   1.0000   1.0000   1.0000
     1.0000   1.0000   1.0000   1.0000   1.0000   1.0000   0.0000   0.0000
     0.0000   0.0000

          k =-0.0943-0.5657 0.5657 (  3916 PWs)   bands (ev):

   -14.1113 -14.0975 -13.9963 -13.9258 -13.9086 -13.8708 -13.8550 -13.8037
   -13.6998 -13.6860  -0.3634   0.9779   4.7387   5.5788   8.6348   9.4214
     9.4236  10.1315

     occupation numbers 
     1.0000   1.0000   1.0000   1.0000   1.0000   1.0000   1.0000   1.0000
     1.0000   1.0000   1.0000   1.0000   1.0000   1.0000   0.0000   0.0000
     0.0000   0.0000

          k =-0.0471-0.5185 0.5185 (  3913 PWs)   bands (ev):

   -14.1160 -14.0985 -13.9877 -13.9102 -13.9007 -13.8849 -13.8646 -13.8125
   -13.6983 -13.6812  -0.2461   0.8497   4.4992   5.6957   8.7052   9.4215
     9.4237  11.0098

     occupation numbers 
     1.0000   1.0000   1.0000   1.0000   1.0000   1.0000   1.0000   1.0000
     1.0000   1.0000   1.0000   1.0000   1.0000   1.0000   0.0000   0.0000
     0.0000   0.0000

          k =-0.0000-0.4714 0.4714 (  3893 PWs)   bands (ev):

   -14.1168 -14.0985 -13.9869 -13.9085 -13.9031 -13.8838 -13.8642 -13.8140
   -13.6983 -13.6808  -0.4387   1.0693   4.4190   5.8778   8.8084   9.4218
     9.4241  11.8776

     occupation numbers 
     1.0000   1.0000   1.0000   1.0000   1.0000   1.0000   1.0000   1.0000
     1.0000   1.0000   1.0000   1.0000   1.0000   1.0000   0.0000   0.0000
     0.0000   0.0000

          k = 0.5657 0.0000 0.0000 (  3940 PWs)   bands (ev):

   -14.0953 -14.0953 -14.0242 -13.9395 -13.9194 -13.8599 -13.8418 -13.7743
   -13.7029 -13.7029  -0.7229   1.4112   5.4447   5.4447   8.2833   8.8450
     9.4216   9.4237

     occupation numbers 
     1.0000   1.0000   1.0000   1.0000   1.0000   1.0000   1.0000   1.0000
     1.0000   1.0000   1.0000   1.0000   1.0000   1.0000   0.0000   0.0000
     0.0000   0.0000

          k = 0.6128 0.0471-0.0471 (  3915 PWs)   bands (ev):

   -14.0999 -14.0973 -14.0095 -13.9528 -13.9068 -13.8546 -13.8467 -13.7898
   -13.7000 -13.6974  -0.4023   1.0060   5.2509   5.3960   8.4112   8.8228
     9.4218   9.4240

     occupation numbers 
     1.0000   1.0000   1.0000   1.0000   1.0000   1.0000   1.0000   1.0000
     1.0000   1.0000   1.0000   1.0000   1.0000   1.0000   0.0000   0.0000
     0.0000   0.0000

          k =-0.0471-0.6128 0.6128 (  3929 PWs)   bands (ev):

   -14.1069 -14.0986 -13.9920 -13.9561 -13.8945 -13.8676 -13.8427 -13.8077
   -13.6981 -13.6900  -0.0718   0.6411   4.9328   5.4235   8.5120   9.2890
     9.4221   9.4248

     occupation numbers 
     1.0000   1.0000   1.0000   1.0000   1.0000   1.0000   1.0000   1.0000
     1.0000   1.0000   1.0000   1.0000   1.0000   1.0000   0.0000   0.0000
     0.0000   0.0000

          k = 0.0000-0.5657 0.5657 (  3905 PWs)   bands (ev):

   -14.1130 -14.0990 -13.9857 -13.9394 -13.8889 -13.8746 -13.8580 -13.8141
   -13.6976 -13.6838   0.0236   0.5546   4.6451   5.5257   8.5885   9.4214
     9.4237  10.0899

     occupation numbers 
     1.0000   1.0000   1.0000   1.0000   1.0000   1.0000   1.0000   1.0000
     1.0000   1.0000   1.0000   1.0000   1.0000   1.0000   0.0000   0.0000
     0.0000   0.0000

          k = 0.6600 0.0000 0.0000 (  3920 PWs)   bands (ev):

   -14.0984 -14.0984 -14.0002 -13.9716 -13.8936 -13.8673 -13.8285 -13.7995
   -13.6983 -13.6983  -0.0840   0.6309   5.3291   5.3291   8.3509   8.5428
     9.4217   9.4237

     occupation numbers 
     1.0000   1.0000   1.0000   1.0000   1.0000   1.0000   1.0000   1.0000
     1.0000   1.0000   1.0000   1.0000   1.0000   1.0000   0.0000   0.0000
     0.0000   0.0000

          k = 0.0000-0.6600 0.6600 (  3933 PWs)   bands (ev):

   -14.1014 -14.0989 -13.9863 -13.9800 -13.8815 -13.8797 -13.8197 -13.8137
   -13.6976 -13.6951   0.2397   0.2968   5.1889   5.3385   8.4501   8.6668
     9.4216   9.4236

     occupation numbers 
     1.0000   1.0000   1.0000   1.0000   1.0000   1.0000   1.0000   1.0000
     1.0000   1.0000   1.0000   1.0000   1.0000   1.0000   0.0000   0.0000
     0.0000   0.0000

          k = 0.1886 0.0943-0.0000 (  3887 PWs)   bands (ev):

   -14.0720 -14.0671 -14.0545 -13.9928 -13.9791 -13.8039 -13.7758 -13.7508
   -13.7436 -13.7277  -2.3149   4.6661   6.6917   7.1277   8.6716   9.4208
     9.4241   9.4874

     occupation numbers 
     1.0000   1.0000   1.0000   1.0000   1.0000   1.0000   1.0000   1.0000
     1.0000   1.0000   1.0000   1.0000   1.0000   1.0000   0.0000   0.0000
     0.0000   0.0000

          k = 0.2357 0.1414-0.0471 (  3902 PWs)   bands (ev):

   -14.0792 -14.0740 -14.0479 -13.9841 -13.9672 -13.8156 -13.7854 -13.7584
   -13.7335 -13.7201  -2.1228   3.9539   6.3011   6.9691   8.7203   9.4215
     9.4241   9.7263

     occupation numbers 
     1.0000   1.0000   1.0000   1.0000   1.0000   1.0000   1.0000   1.0000
     1.0000   1.0000   1.0000   1.0000   1.0000   1.0000   0.0000   0.0000
     0.0000   0.0000

          k = 0.2828 0.1886-0.0943 (  3906 PWs)   bands (ev):

   -14.0859 -14.0804 -14.0392 -13.9749 -13.9567 -13.8245 -13.7943 -13.7694
   -13.7240 -13.7136  -1.8649   3.1972   6.0110   6.7625   8.6226   9.4218
     9.4241  10.0887

     occupation numbers 
     1.0000   1.0000   1.0000   1.0000   1.0000   1.0000   1.0000   1.0000
     1.0000   1.0000   1.0000   1.0000   1.0000   1.0000   0.0000   0.0000
     0.0000   0.0000

          k = 0.3300 0.2357-0.1414 (  3896 PWs)   bands (ev):

   -14.0915 -14.0852 -14.0302 -13.9665 -13.9495 -13.8293 -13.8019 -13.7813
   -13.7168 -13.7083  -1.5597   2.4811   5.8079   6.5696   8.5004   9.4218
     9.4242  10.3695

     occupation numbers 
     1.0000   1.0000   1.0000   1.0000   1.0000   1.0000   1.0000   1.0000
     1.0000   1.0000   1.0000   1.0000   1.0000   1.0000   0.0000   0.0000
     0.0000   0.0000

          k = 0.3771 0.2828-0.1886 (  3904 PWs)   bands (ev):

   -14.0955 -14.0881 -14.0227 -13.9592 -13.9466 -13.8293 -13.8090 -13.7915
   -13.7122 -13.7044  -1.2500   1.8833   5.6798   6.4254   8.4039   9.4217
     9.4240  10.5050

     occupation numbers 
     1.0000   1.0000   1.0000   1.0000   1.0000   1.0000   1.0000   1.0000
     1.0000   1.0000   1.0000   1.0000   1.0000   1.0000   0.0000   0.0000
     0.0000   0.0000

          k =-0.2828-0.3771 0.4714 (  3908 PWs)   bands (ev):

   -14.0976 -14.0895 -14.0185 -13.9533 -13.9477 -13.8252 -13.8163 -13.7972
   -13.7100 -13.7023  -1.0301   1.5156   5.6181   6.3488   8.3522   9.4217
     9.4239  10.5480

     occupation numbers 
     1.0000   1.0000   1.0000   1.0000   1.0000   1.0000   1.0000   1.0000
     1.0000   1.0000   1.0000   1.0000   1.0000   1.0000   0.0000   0.0000
     0.0000   0.0000

          k = 0.2828 0.0943 0.0000 (  3909 PWs)   bands (ev):

   -14.0786 -14.0754 -14.0528 -13.9812 -13.9549 -13.8339 -13.7834 -13.7502
   -13.7322 -13.7220  -2.0545   3.8371   6.2153   6.5823   9.1295   9.2811
     9.4226   9.4274

     occupation numbers 
     1.0000   1.0000   1.0000   1.0000   1.0000   1.0000   1.0000   1.0000
     1.0000   1.0000   1.0000   1.0000   1.0000   1.0000   0.0000   0.0000
     0.0000   0.0000

          k = 0.3300 0.1414-0.0471 (  3914 PWs)   bands (ev):

   -14.0866 -14.0817 -14.0426 -13.9717 -13.9430 -13.8455 -13.7933 -13.7613
   -13.7230 -13.7136  -1.8171   3.2039   5.8403   6.4198   9.1448   9.4199
     9.4239   9.5583

     occupation numbers 
     1.0000   1.0000   1.0000   1.0000   1.0000   1.0000   1.0000   1.0000
     1.0000   1.0000   1.0000   1.0000   1.0000   1.0000   0.0000   0.0000
     0.0000   0.0000

          k = 0.3771 0.1886-0.0943 (  3902 PWs)   bands (ev):

   -14.0947 -14.0864 -14.0302 -13.9621 -13.9344 -13.8527 -13.8034 -13.7753
   -13.7156 -13.7052  -1.5241   2.5496   5.5447   6.2509   9.0389   9.4217
     9.4245  10.0074

     occupation numbers 
     1.0000   1.0000   1.0000   1.0000   1.0000   1.0000   1.0000   1.0000
     1.0000   1.0000   1.0000   1.0000   1.0000   1.0000   0.0000   0.0000
     0.0000   0.0000

          k = 0.4243 0.2357-0.1414 (  3911 PWs)   bands (ev):

   -14.1011 -14.0899 -14.0183 -13.9531 -13.9309 -13.8539 -13.8134 -13.7891
   -13.7104 -13.6983  -1.2068   1.9543   5.3228   6.1334   8.9372   9.4217
     9.4242  10.3539

     occupation numbers 
     1.0000   1.0000   1.0000   1.0000   1.0000   1.0000   1.0000   1.0000
     1.0000   1.0000   1.0000   1.0000   1.0000   1.0000   0.0000   0.0000
     0.0000   0.0000

          k =-0.2357-0.4243 0.5185 (  3919 PWs)   bands (ev):

   -14.1050 -14.0922 -14.0092 -13.9453 -13.9327 -13.8490 -13.8232 -13.7995
   -13.7069 -13.6941  -0.9391   1.5204   5.1711   6.0927   8.8717   9.4217
     9.4241  10.5021

     occupation numbers 
     1.0000   1.0000   1.0000   1.0000   1.0000   1.0000   1.0000   1.0000
     1.0000   1.0000   1.0000   1.0000   1.0000   1.0000   0.0000   0.0000
     0.0000   0.0000

          k =-0.1886-0.3771 0.4714 (  3919 PWs)   bands (ev):

   -14.1060 -14.0934 -14.0050 -13.9432 -13.9350 -13.8417 -13.8290 -13.8051
   -13.7051 -13.6932  -0.8564   1.3971   5.0928   6.1339   8.8522   9.4217
     9.4241  10.5579

     occupation numbers 
     1.0000   1.0000   1.0000   1.0000   1.0000   1.0000   1.0000   1.0000
     1.0000   1.0000   1.0000   1.0000   1.0000   1.0000   0.0000   0.0000
     0.0000   0.0000

          k =-0.1414-0.3300 0.4243 (  3916 PWs)   bands (ev):

   -14.1039 -14.0934 -14.0069 -13.9508 -13.9334 -13.8425 -13.8199 -13.8058
   -13.7050 -13.6958  -1.0225   1.6502   5.0968   6.2510   8.8769   9.4217
     9.4242  10.5791

     occupation numbers 
     1.0000   1.0000   1.0000   1.0000   1.0000   1.0000   1.0000   1.0000
     1.0000   1.0000   1.0000   1.0000   1.0000   1.0000   0.0000   0.0000
     0.0000   0.0000

          k =-0.0943-0.2828 0.3771 (  3909 PWs)   bands (ev):

   -14.0990 -14.0920 -14.0147 -13.9598 -13.9357 -13.8426 -13.8081 -13.7986
   -13.7070 -13.7016  -1.3205   2.1531   5.1977   6.4293   8.9335   9.4218
     9.4244  10.5073

     occupation numbers 
     1.0000   1.0000   1.0000   1.0000   1.0000   1.0000   1.0000   1.0000
     1.0000   1.0000   1.0000   1.0000   1.0000   1.0000   0.0000   0.0000
     0.0000   0.0000

          k =-0.0471-0.2357 0.3300 (  3905 PWs)   bands (ev):

   -14.0917 -14.0889 -14.0262 -13.9683 -13.9432 -13.8374 -13.8013 -13.7828
   -13.7132 -13.7079  -1.6342   2.7653   5.4162   6.6436   8.9884   9.4219
     9.4247  10.2333

     occupation numbers 
     1.0000   1.0000   1.0000   1.0000   1.0000   1.0000   1.0000   1.0000
     1.0000   1.0000   1.0000   1.0000   1.0000   1.0000   0.0000   0.0000
     0.0000   0.0000

          k = 0.0000-0.1886 0.2828 (  3908 PWs)   bands (ev):

   -14.0849 -14.0823 -14.0383 -13.9765 -13.9545 -13.8278 -13.7938 -13.7677
   -13.7238 -13.7136  -1.9093   3.3908   5.7789   6.8486   8.9536   9.4216
     9.4245   9.8864

     occupation numbers 
     1.0000   1.0000   1.0000   1.0000   1.0000   1.0000   1.0000   1.0000
     1.0000   1.0000   1.0000   1.0000   1.0000   1.0000   0.0000   0.0000
     0.0000   0.0000

          k = 0.3771 0.0943 0.0000 (  3915 PWs)   bands (ev):

   -14.0856 -14.0843 -14.0469 -13.9645 -13.9264 -13.8667 -13.7985 -13.7527
   -13.7198 -13.7157  -1.6941   2.9999   5.8061   6.0900   8.8390   9.4180
     9.4228   9.5379

     occupation numbers 
     1.0000   1.0000   1.0000   1.0000   1.0000   1.0000   1.0000   1.0000
     1.0000   1.0000   1.0000   1.0000   1.0000   1.0000   0.0000   0.0000
     0.0000   0.0000

          k = 0.4243 0.1414-0.0471 (  3915 PWs)   bands (ev):

   -14.0944 -14.0891 -14.0331 -13.9540 -13.9153 -13.8776 -13.8095 -13.7680
   -13.7124 -13.7058  -1.4165   2.4482   5.4571   5.9396   9.0147   9.4204
     9.4233   9.6828

     occupation numbers 
     1.0000   1.0000   1.0000   1.0000   1.0000   1.0000   1.0000   1.0000
     1.0000   1.0000   1.0000   1.0000   1.0000   1.0000   0.0000   0.0000
     0.0000   0.0000

          k = 0.4714 0.1886-0.0943 (  3915 PWs)   bands (ev):

   -14.1030 -14.0926 -14.0175 -13.9436 -13.9098 -13.8818 -13.8210 -13.7849
   -13.7072 -13.6961  -1.0996   1.9045   5.1435   5.8338   9.0415   9.4215
     9.4239  10.1776

     occupation numbers 
     1.0000   1.0000   1.0000   1.0000   1.0000   1.0000   1.0000   1.0000
     1.0000   1.0000   1.0000   1.0000   1.0000   1.0000   0.0000   0.0000
     0.0000   0.0000

          k =-0.1886-0.4714 0.5657 (  3914 PWs)   bands (ev):

   -14.1092 -14.0952 -14.0037 -13.9340 -13.9112 -13.8784 -13.8325 -13.7996
   -13.7034 -13.6892  -0.7986   1.4534   4.8933   5.8086   9.0271   9.4217
     9.4241  10.7074

     occupation numbers 
     1.0000   1.0000   1.0000   1.0000   1.0000   1.0000   1.0000   1.0000
     1.0000   1.0000   1.0000   1.0000   1.0000   1.0000   0.0000   0.0000
     0.0000   0.0000

          k =-0.1414-0.4243 0.5185 (  3916 PWs)   bands (ev):

   -14.1122 -14.0968 -13.9950 -13.9282 -13.9166 -13.8693 -13.8419 -13.8088
   -13.7010 -13.6860  -0.6398   1.2372   4.7310   5.8677   9.0426   9.4218
     9.4242  10.9177

     occupation numbers 
     1.0000   1.0000   1.0000   1.0000   1.0000   1.0000   1.0000   1.0000
     1.0000   1.0000   1.0000   1.0000   1.0000   1.0000   0.0000   0.0000
     0.0000   0.0000

          k =-0.0943-0.3771 0.4714 (  3907 PWs)   bands (ev):

   -14.1116 -14.0973 -13.9932 -13.9354 -13.9179 -13.8600 -13.8414 -13.8121
   -13.7002 -13.6870  -0.7462   1.3814   4.6776   6.0031   9.0928   9.4218
     9.4245  10.9513

     occupation numbers 
     1.0000   1.0000   1.0000   1.0000   1.0000   1.0000   1.0000   1.0000
     1.0000   1.0000   1.0000   1.0000   1.0000   1.0000   0.0000   0.0000
     0.0000   0.0000

          k =-0.0471-0.3300 0.4243 (  3913 PWs)   bands (ev):

   -14.1074 -14.0964 -13.9989 -13.9487 -13.9211 -13.8560 -13.8245 -13.8109
   -13.7011 -13.6923  -1.0285   1.7843   4.7562   6.1991   9.1535   9.4219
     9.4250  10.8934

     occupation numbers 
     1.0000   1.0000   1.0000   1.0000   1.0000   1.0000   1.0000   1.0000
     1.0000   1.0000   1.0000   1.0000   1.0000   1.0000   0.0000   0.0000
     0.0000   0.0000

          k = 0.0000-0.2828 0.3771 (  3912 PWs)   bands (ev):

   -14.1001 -14.0939 -14.0111 -13.9599 -13.9304 -13.8485 -13.8079 -13.8020
   -13.7038 -13.7014  -1.3465   2.2788   4.9948   6.4289   9.1595   9.4218
     9.4252  10.5805

     occupation numbers 
     1.0000   1.0000   1.0000   1.0000   1.0000   1.0000   1.0000   1.0000
     1.0000   1.0000   1.0000   1.0000   1.0000   1.0000   0.0000   0.0000
     0.0000   0.0000

          k = 0.4714 0.0943-0.0000 (  3928 PWs)   bands (ev):

   -14.0924 -14.0922 -14.0349 -13.9436 -13.9007 -13.8957 -13.8187 -13.7636
   -13.7085 -13.7075  -1.2383   2.1759   5.4935   5.6934   8.6480   9.3536
     9.4223   9.4283

     occupation numbers 
     1.0000   1.0000   1.0000   1.0000   1.0000   1.0000   1.0000   1.0000
     1.0000   1.0000   1.0000   1.0000   1.0000   1.0000   0.0000   0.0000
     0.0000   0.0000

          k = 0.5185 0.1414-0.0471 (  3935 PWs)   bands (ev):

   -14.1012 -14.0955 -14.0182 -13.9321 -13.9104 -13.8856 -13.8309 -13.7816
   -13.7035 -13.6975  -0.9278   1.7009   5.1721   5.5786   8.8527   9.4195
     9.4230   9.5580

     occupation numbers 
     1.0000   1.0000   1.0000   1.0000   1.0000   1.0000   1.0000   1.0000
     1.0000   1.0000   1.0000   1.0000   1.0000   1.0000   0.0000   0.0000
     0.0000   0.0000

          k =-0.1414-0.5185 0.6128 (  3922 PWs)   bands (ev):

   -14.1091 -14.0978 -14.0008 -13.9212 -13.9128 -13.8819 -13.8434 -13.7996
   -13.7001 -13.6886  -0.6062   1.2689   4.8462   5.5534   8.9165   9.4214
     9.4237  10.1821

     occupation numbers 
     1.0000   1.0000   1.0000   1.0000   1.0000   1.0000   1.0000   1.0000
     1.0000   1.0000   1.0000   1.0000   1.0000   1.0000   0.0000   0.0000
     0.0000   0.0000

          k =-0.0943-0.4714 0.5657 (  3911 PWs)   bands (ev):

   -14.1144 -14.0993 -13.9887 -13.9130 -13.9044 -13.8877 -13.8547 -13.8118
   -13.6979 -13.6830  -0.3833   0.9988   4.5969   5.6158   8.9661   9.4217
     9.4239  10.9856

     occupation numbers 
     1.0000   1.0000   1.0000   1.0000   1.0000   1.0000   1.0000   1.0000
     1.0000   1.0000   1.0000   1.0000   1.0000   1.0000   0.0000   0.0000
     0.0000   0.0000

          k =-0.0471-0.4243 0.5185 (  3911 PWs)   bands (ev):

   -14.1160 -14.0997 -13.9849 -13.9142 -13.9007 -13.8853 -13.8595 -13.8159
   -13.6973 -13.6816  -0.4380   1.0657   4.4750   5.7560   9.0486   9.4217
     9.4241  11.5594

     occupation numbers 
     1.0000   1.0000   1.0000   1.0000   1.0000   1.0000   1.0000   1.0000
     1.0000   1.0000   1.0000   1.0000   1.0000   1.0000   0.0000   0.0000
     0.0000   0.0000

          k =-0.0000-0.3771 0.4714 (  3918 PWs)   bands (ev):

   -14.1136 -14.0988 -13.9884 -13.9317 -13.9084 -13.8692 -13.8478 -13.8148
   -13.6983 -13.6848  -0.7102   1.3928   4.5180   5.9591   9.1404   9.4218
     9.4247  11.4756

     occupation numbers 
     1.0000   1.0000   1.0000   1.0000   1.0000   1.0000   1.0000   1.0000
     1.0000   1.0000   1.0000   1.0000   1.0000   1.0000   0.0000   0.0000
     0.0000   0.0000

          k = 0.5657 0.0943 0.0000 (  3939 PWs)   bands (ev):

   -14.0981 -14.0979 -14.0170 -13.9341 -13.9196 -13.8644 -13.8422 -13.7820
   -13.7001 -13.7001  -0.6934   1.3802   5.2918   5.4100   8.5721   9.0487
     9.4217   9.4239

     occupation numbers 
     1.0000   1.0000   1.0000   1.0000   1.0000   1.0000   1.0000   1.0000
     1.0000   1.0000   1.0000   1.0000   1.0000   1.0000   0.0000   0.0000
     0.0000   0.0000

          k =-0.0943-0.5657 0.6600 (  3924 PWs)   bands (ev):

   -14.1056 -14.0998 -13.9982 -13.9413 -13.9075 -13.8567 -13.8552 -13.8012
   -13.6974 -13.6916  -0.3615   0.9766   4.9967   5.3570   8.7645   9.3642
     9.4226   9.4275

     occupation numbers 
     1.0000   1.0000   1.0000   1.0000   1.0000   1.0000   1.0000   1.0000
     1.0000   1.0000   1.0000   1.0000   1.0000   1.0000   0.0000   0.0000
     0.0000   0.0000

          k =-0.0471-0.5185 0.6128 (  3911 PWs)   bands (ev):

   -14.1124 -14.1008 -13.9838 -13.9358 -13.8967 -13.8678 -13.8608 -13.8156
   -13.6960 -13.6846  -0.0903   0.6828   4.6880   5.4144   8.8360   9.4214
     9.4237  10.1182

     occupation numbers 
     1.0000   1.0000   1.0000   1.0000   1.0000   1.0000   1.0000   1.0000
     1.0000   1.0000   1.0000   1.0000   1.0000   1.0000   0.0000   0.0000
     0.0000   0.0000

          k = 0.0000-0.4714 0.5657 (  3910 PWs)   bands (ev):

   -14.1162 -14.1008 -13.9811 -13.9140 -13.8966 -13.8798 -13.8708 -13.8183
   -13.6959 -13.6809  -0.1480   0.7534   4.4915   5.5521   8.9327   9.4217
     9.4239  11.0220

     occupation numbers 
     1.0000   1.0000   1.0000   1.0000   1.0000   1.0000   1.0000   1.0000
     1.0000   1.0000   1.0000   1.0000   1.0000   1.0000   0.0000   0.0000
     0.0000   0.0000

          k =-0.0471-0.6128 0.7071 (  3913 PWs)   bands (ev):

   -14.1011 -14.1010 -13.9935 -13.9655 -13.8939 -13.8677 -13.8340 -13.8060
   -13.6958 -13.6957  -0.0679   0.6276   5.2084   5.2475   8.6175   8.7821
     9.4218   9.4240

     occupation numbers 
     1.0000   1.0000   1.0000   1.0000   1.0000   1.0000   1.0000   1.0000
     1.0000   1.0000   1.0000   1.0000   1.0000   1.0000   0.0000   0.0000
     0.0000   0.0000

          k = 0.0000-0.5657 0.6600 (  3928 PWs)   bands (ev):

   -14.1072 -14.1014 -13.9800 -13.9633 -13.8838 -13.8789 -13.8353 -13.8194
   -13.6952 -13.6895   0.1936   0.3683   4.9374   5.2826   8.7398   9.2884
     9.4222   9.4248

     occupation numbers 
     1.0000   1.0000   1.0000   1.0000   1.0000   1.0000   1.0000   1.0000
     1.0000   1.0000   1.0000   1.0000   1.0000   1.0000   0.0000   0.0000
     0.0000   0.0000

          k = 0.3771 0.1886-0.0000 (  3903 PWs)   bands (ev):

   -14.0914 -14.0908 -14.0296 -13.9628 -13.9305 -13.8576 -13.8026 -13.7753
   -13.7117 -13.7080  -1.5615   2.6879   5.3972   6.2795   9.4129   9.4215
     9.4825   9.6015

     occupation numbers 
     1.0000   1.0000   1.0000   1.0000   1.0000   1.0000   1.0000   1.0000
     1.0000   1.0000   1.0000   1.0000   1.0000   1.0000   0.0000   0.0000
     0.0000   0.0000

          k = 0.4243 0.2357-0.0471 (  3911 PWs)   bands (ev):

   -14.1003 -14.0943 -14.0147 -13.9533 -13.9209 -13.8656 -13.8128 -13.7918
   -13.7048 -13.6998  -1.2565   2.1435   5.0829   6.0909   9.4061   9.4221
     9.4536  10.0783

     occupation numbers 
     1.0000   1.0000   1.0000   1.0000   1.0000   1.0000   1.0000   1.0000
     1.0000   1.0000   1.0000   1.0000   1.0000   1.0000   0.0000   0.0000
     0.0000   0.0000

          k =-0.2357-0.4243 0.6128 (  3912 PWs)   bands (ev):

   -14.1070 -14.0966 -14.0017 -13.9435 -13.9167 -13.8676 -13.8251 -13.8049
   -13.7018 -13.6920  -0.9406   1.6448   4.8895   5.9302   9.3684   9.4222
     9.4321  10.4141

     occupation numbers 
     1.0000   1.0000   1.0000   1.0000   1.0000   1.0000   1.0000   1.0000
     1.0000   1.0000   1.0000   1.0000   1.0000   1.0000   0.0000   0.0000
     0.0000   0.0000

          k =-0.1886-0.3771 0.5657 (  3915 PWs)   bands (ev):

   -14.1106 -14.0977 -13.9943 -13.9353 -13.9176 -13.8648 -13.8366 -13.8110
   -13.7003 -13.6878  -0.7082   1.3137   4.7989   5.8403   9.3381   9.4222
     9.4288  10.4928

     occupation numbers 
     1.0000   1.0000   1.0000   1.0000   1.0000   1.0000   1.0000   1.0000
     1.0000   1.0000   1.0000   1.0000   1.0000   1.0000   0.0000   0.0000
     0.0000   0.0000

          k = 0.4714 0.1886-0.0000 (  3924 PWs)   bands (ev):

   -14.0992 -14.0970 -14.0171 -13.9436 -13.9033 -13.8891 -13.8208 -13.7848
   -13.7016 -13.7010  -1.1249   1.9835   5.1238   5.7622   9.3917   9.4207
     9.4288   9.6943

     occupation numbers 
     1.0000   1.0000   1.0000   1.0000   1.0000   1.0000   1.0000   1.0000
     1.0000   1.0000   1.0000   1.0000   1.0000   1.0000   0.0000   0.0000
     0.0000   0.0000

          k =-0.1886-0.4714 0.6600 (  3920 PWs)   bands (ev):

   -14.1070 -14.1000 -13.9998 -13.9329 -13.8988 -13.8922 -13.8334 -13.8024
   -13.6981 -13.6915  -0.8026   1.5248   4.8616   5.5993   9.4189   9.4224
     9.5292  10.1761

     occupation numbers 
     1.0000   1.0000   1.0000   1.0000   1.0000   1.0000   1.0000   1.0000
     1.0000   1.0000   1.0000   1.0000   1.0000   1.0000   0.0000   0.0000
     0.0000   0.0000

          k =-0.1414-0.4243 0.6128 (  3918 PWs)   bands (ev):

   -14.1125 -14.1015 -13.9864 -13.9236 -13.8996 -13.8892 -13.8462 -13.8150
   -13.6960 -13.6852  -0.5195   1.1599   4.6781   5.5219   9.4191   9.4226
     9.5494  10.7056

     occupation numbers 
     1.0000   1.0000   1.0000   1.0000   1.0000   1.0000   1.0000   1.0000
     1.0000   1.0000   1.0000   1.0000   1.0000   1.0000   0.0000   0.0000
     0.0000   0.0000

          k =-0.0943-0.3771 0.5657 (  3920 PWs)   bands (ev):

   -14.1145 -14.1020 -13.9813 -13.9211 -13.8991 -13.8867 -13.8525 -13.8195
   -13.6953 -13.6832  -0.4369   1.0601   4.5862   5.5508   9.4196   9.4227
     9.5971  10.8027

     occupation numbers 
     1.0000   1.0000   1.0000   1.0000   1.0000   1.0000   1.0000   1.0000
     1.0000   1.0000   1.0000   1.0000   1.0000   1.0000   0.0000   0.0000
     0.0000   0.0000

          k =-0.0471-0.3300 0.5185 (  3910 PWs)   bands (ev):

   -14.1125 -14.1013 -13.9857 -13.9299 -13.9015 -13.8825 -13.8436 -13.8168
   -13.6961 -13.6856  -0.6324   1.3011   4.6077   5.6768   9.4202   9.4229
     9.6608  10.7262

     occupation numbers 
     1.0000   1.0000   1.0000   1.0000   1.0000   1.0000   1.0000   1.0000
     1.0000   1.0000   1.0000   1.0000   1.0000   1.0000   0.0000   0.0000
     0.0000   0.0000

          k = 0.0000-0.2828 0.4714 (  3913 PWs)   bands (ev):

   -14.1072 -14.0991 -13.9981 -13.9426 -13.9087 -13.8762 -13.8262 -13.8079
   -13.6986 -13.6922  -0.9446   1.7081   4.7674   5.8728   9.4201   9.4227
     9.6783  10.3826

     occupation numbers 
     1.0000   1.0000   1.0000   1.0000   1.0000   1.0000   1.0000   1.0000
     1.0000   1.0000   1.0000   1.0000   1.0000   1.0000   0.0000   0.0000
     0.0000   0.0000

          k =-0.1414-0.5185 0.7071 (  3933 PWs)   bands (ev):

   -14.1046 -14.1024 -13.9996 -13.9206 -13.9205 -13.8749 -13.8437 -13.8004
   -13.6952 -13.6935  -0.6084   1.2879   4.9748   5.3568   9.2950   9.4199
     9.4243   9.5853

     occupation numbers 
     1.0000   1.0000   1.0000   1.0000   1.0000   1.0000   1.0000   1.0000
     1.0000   1.0000   1.0000   1.0000   1.0000   1.0000   0.0000   0.0000
     0.0000   0.0000

          k =-0.0943-0.4714 0.6600 (  3920 PWs)   bands (ev):

   -14.1110 -14.1045 -13.9810 -13.9243 -13.9091 -13.8703 -13.8572 -13.8182
   -13.6927 -13.6863  -0.2902   0.9180   4.7561   5.2514   9.4156   9.4222
     9.4667  10.1852

     occupation numbers 
     1.0000   1.0000   1.0000   1.0000   1.0000   1.0000   1.0000   1.0000
     1.0000   1.0000   1.0000   1.0000   1.0000   1.0000   0.0000   0.0000
     0.0000   0.0000

          k =-0.0471-0.4243 0.6128 (  3920 PWs)   bands (ev):

   -14.1151 -14.1048 -13.9719 -13.9165 -13.9016 -13.8775 -13.8665 -13.8263
   -13.6921 -13.6820  -0.1353   0.7520   4.5712   5.2968   9.4194   9.4226
     9.5412  11.0087

     occupation numbers 
     1.0000   1.0000   1.0000   1.0000   1.0000   1.0000   1.0000   1.0000
     1.0000   1.0000   1.0000   1.0000   1.0000   1.0000   0.0000   0.0000
     0.0000   0.0000

          k = 0.0000-0.3771 0.5657 (  3922 PWs)   bands (ev):

   -14.1156 -14.1039 -13.9748 -13.9126 -13.8993 -13.8872 -13.8624 -13.8240
   -13.6931 -13.6818  -0.3193   0.9551   4.5062   5.4503   9.4202   9.4228
     9.6365  11.3023

     occupation numbers 
     1.0000   1.0000   1.0000   1.0000   1.0000   1.0000   1.0000   1.0000
     1.0000   1.0000   1.0000   1.0000   1.0000   1.0000   0.0000   0.0000
     0.0000   0.0000

          k =-0.0471-0.5185 0.7071 (  3925 PWs)   bands (ev):

   -14.1069 -14.1061 -13.9771 -13.9503 -13.8952 -13.8691 -13.8471 -13.8217
   -13.6908 -13.6900  -0.0240   0.6136   4.9604   5.0872   9.3008   9.3981
     9.4245   9.4345

     occupation numbers 
     1.0000   1.0000   1.0000   1.0000   1.0000   1.0000   1.0000   1.0000
     1.0000   1.0000   1.0000   1.0000   1.0000   1.0000   0.0000   0.0000
     0.0000   0.0000

          k = 0.0000-0.4714 0.6600 (  3920 PWs)   bands (ev):

   -14.1122 -14.1062 -13.9659 -13.9426 -13.8879 -13.8790 -13.8533 -13.8318
   -13.6905 -13.6846   0.1489   0.4481   4.7351   5.1174   9.4087   9.4221
     9.4438  10.1585

     occupation numbers 
     1.0000   1.0000   1.0000   1.0000   1.0000   1.0000   1.0000   1.0000
     1.0000   1.0000   1.0000   1.0000   1.0000   1.0000   0.0000   0.0000
     0.0000   0.0000

          k =-0.1414-0.4243 0.7071 (  3899 PWs)   bands (ev):

   -14.1113 -14.1048 -13.9812 -13.9210 -13.9055 -13.8843 -13.8489 -13.8192
   -13.6925 -13.6864  -0.4785   1.1408   4.6813   5.3638   9.4211   9.4233
    10.1159  10.2642

     occupation numbers 
     1.0000   1.0000   1.0000   1.0000   1.0000   1.0000   1.0000   1.0000
     1.0000   1.0000   1.0000   1.0000   1.0000   1.0000   0.0000   0.0000
     0.0000   0.0000

          k =-0.0943-0.3771 0.6600 (  3919 PWs)   bands (ev):

   -14.1144 -14.1067 -13.9684 -13.9141 -13.9063 -13.8795 -13.8624 -13.8295
   -13.6904 -13.6828  -0.2073   0.8372   4.6006   5.2195   9.4210   9.4231
    10.1562  10.7418

     occupation numbers 
     1.0000   1.0000   1.0000   1.0000   1.0000   1.0000   1.0000   1.0000
     1.0000   1.0000   1.0000   1.0000   1.0000   1.0000   0.0000   0.0000
     0.0000   0.0000

          k =-0.0471-0.4243 0.7071 (  3915 PWs)   bands (ev):

   -14.1120 -14.1096 -13.9595 -13.9338 -13.8973 -13.8729 -13.8597 -13.8371
   -13.6873 -13.6849   0.0356   0.5804   4.7497   4.9793   9.4211   9.4232
    10.2275  10.2352

     occupation numbers 
     1.0000   1.0000   1.0000   1.0000   1.0000   1.0000   1.0000   1.0000
     1.0000   1.0000   1.0000   1.0000   1.0000   1.0000   0.0000   0.0000
     0.0000   0.0000

          k =-0.0000-0.3771 0.6600 (  3913 PWs)   bands (ev):

   -14.1141 -14.1096 -13.9545 -13.9286 -13.8951 -13.8783 -13.8631 -13.8408
   -13.6872 -13.6828   0.0965   0.5233   4.6652   4.9908   9.4212   9.4233
    10.2964  10.9610

     occupation numbers 
     1.0000   1.0000   1.0000   1.0000   1.0000   1.0000   1.0000   1.0000
     1.0000   1.0000   1.0000   1.0000   1.0000   1.0000   0.0000   0.0000
     0.0000   0.0000

     the Fermi energy is     7.5330 ev

!    total energy              =    -256.22142321 Ry
     Harris-Foulkes estimate   =    -256.22142289 Ry
     estimated scf accuracy    <       0.00000089 Ry

     The total energy is the sum of the following terms:

     one-electron contribution =    -136.18317125 Ry
     hartree contribution      =      79.21862156 Ry
     xc contribution           =     -31.47542976 Ry
     ewald contribution        =    -167.78134162 Ry
     smearing contrib. (-TS)   =      -0.00010214 Ry

     convergence has been achieved in   4 iterations

     Writing output data file Sn.save
 
     init_run     :      2.29s CPU      2.39s WALL (       1 calls)
     electrons    :     48.83s CPU     49.80s WALL (       1 calls)

     Called by init_run:
     wfcinit      :      2.15s CPU      2.20s WALL (       1 calls)
     potinit      :      0.01s CPU      0.01s WALL (       1 calls)

     Called by electrons:
     c_bands      :     44.05s CPU     44.90s WALL (       5 calls)
     sum_band     :      4.74s CPU      4.82s WALL (       5 calls)
     v_of_rho     :      0.04s CPU      0.04s WALL (       5 calls)
     v_h          :      0.00s CPU      0.00s WALL (       5 calls)
     v_xc         :      0.04s CPU      0.04s WALL (       5 calls)
     mix_rho      :      0.00s CPU      0.00s WALL (       5 calls)

     Called by c_bands:
     init_us_2    :      0.15s CPU      0.17s WALL (    1320 calls)
     cegterg      :     43.16s CPU     43.93s WALL (     600 calls)

     Called by sum_band:

     Called by *egterg:
     h_psi        :     37.24s CPU     37.89s WALL (    3340 calls)
     g_psi        :      0.10s CPU      0.10s WALL (    2620 calls)
     cdiaghg      :      3.48s CPU      3.54s WALL (    3100 calls)
     cegterg:over :      2.01s CPU      2.04s WALL (    2620 calls)
     cegterg:upda :      0.50s CPU      0.50s WALL (    2620 calls)
     cegterg:last :      0.29s CPU      0.29s WALL (     839 calls)

     Called by h_psi:
     h_psi:vloc   :     35.06s CPU     35.66s WALL (    3340 calls)
     h_psi:vnl    :      2.13s CPU      2.18s WALL (    3340 calls)
     add_vuspsi   :      0.48s CPU      0.48s WALL (    3340 calls)

     General routines
     calbec       :      1.63s CPU      1.67s WALL (    3340 calls)
     fft          :      0.05s CPU      0.05s WALL (      56 calls)
     fftw         :     38.44s CPU     39.10s WALL (   90360 calls)
     davcio       :      0.01s CPU      0.08s WALL (     120 calls)
 
     Parallel routines
     fft_scatter  :     30.24s CPU     30.79s WALL (   90416 calls)
 
     PWSCF        :    51.39s CPU        52.63s WALL

 
   This run was terminated on:   0:53:41  21Feb2020            

=------------------------------------------------------------------------------=
   JOB DONE.
=------------------------------------------------------------------------------=
