
     Program PWSCF v.5.4.0 starts on 18Feb2020 at 14: 5:38 

     This program is part of the open-source Quantum ESPRESSO suite
     for quantum simulation of materials; please cite
         "P. Giannozzi et al., J. Phys.:Condens. Matter 21 395502 (2009);
          URL http://www.quantum-espresso.org", 
     in publications or presentations arising from this work. More details at
     http://www.quantum-espresso.org/quote

     Parallel version (MPI & OpenMP), running on      16 processor cores
     Number of MPI processes:                16
     Threads/MPI process:                     1
     R & G space division:  proc/nbgrp/npool/nimage =      16
     Reading input from run.in
Warning: card &IONS ignored
Warning: card / ignored
Warning: card &CELL ignored
Warning: card / ignored

     Current dimensions of program PWSCF are:
     Max number of different atomic species (ntypx) = 10
     Max number of k-points (npk) =  40000
     Max angular momentum in pseudopotentials (lmaxx) =  3

     Subspace diagonalization in iterative solution of the eigenvalue problem:
     a serial algorithm will be used

 
     Parallelization info
     --------------------
     sticks:   dense  smooth     PW     G-vecs:    dense   smooth      PW
     Min         111     111     31                 3065     3065     475
     Max         112     112     32                 3068     3068     478
     Sum        1777    1777    511                49061    49061    7631
 


     bravais-lattice index     =            0
     lattice parameter (alat)  =       8.9528  a.u.
     unit-cell volume          =     507.4123 (a.u.)^3
     number of atoms/cell      =            2
     number of atomic types    =            1
     number of electrons       =        28.00
     number of Kohn-Sham states=           36
     kinetic-energy cutoff     =      80.0000  Ry
     charge density cutoff     =     320.0000  Ry
     convergence threshold     =      1.0E-06
     mixing beta               =       0.7000
     number of iterations used =            8  plain     mixing
     Exchange-correlation      = PBE ( 1  4  3  4 0 0)
     Non magnetic calculation with spin-orbit


     celldm(1)=   8.952796  celldm(2)=   0.000000  celldm(3)=   0.000000
     celldm(4)=   0.000000  celldm(5)=   0.000000  celldm(6)=   0.000000

     crystal axes: (cart. coord. in units of alat)
               a(1) = (   0.000000   0.707107   0.707107 )  
               a(2) = (   0.707107   0.000000   0.707107 )  
               a(3) = (   0.707107   0.707107   0.000000 )  

     reciprocal axes: (cart. coord. in units 2 pi/alat)
               b(1) = ( -0.707107  0.707107  0.707107 )  
               b(2) = (  0.707107 -0.707107  0.707107 )  
               b(3) = (  0.707107  0.707107 -0.707107 )  


     PseudoPot. # 1 for Sn read from file:
     ../PseudopotentialDatabase/Sn_ONCV_PBE_FR-1.1.upf
     MD5 check sum: 6dd2180f739ea5ae1610ead5e1628a0e
     Pseudo is Norm-conserving, Zval = 14.0
     Generated using ONCVPSP code by D. R. Hamann
     Using radial grid of  602 points, 10 beta functions with: 
                l(1) =   0
                l(2) =   0
                l(3) =   1
                l(4) =   1
                l(5) =   1
                l(6) =   1
                l(7) =   2
                l(8) =   2
                l(9) =   2
               l(10) =   2

     atomic species   valence    mass     pseudopotential
        Sn            14.00   118.71000     Sn( 1.00)

     24 Sym. Ops. (no inversion) found
          (note: 24 additional sym.ops. were found but ignored
           their fractional translations are incommensurate with FFT grid)


   Cartesian axes

     site n.     atom                  positions (alat units)
         1           Sn  tau(   1) = (   0.0000000   0.0000000   0.0000000  )
         2           Sn  tau(   2) = (   0.3535534   0.3535534   0.3535534  )

     number of k points=    47  gaussian smearing, width (Ry)=  0.0100
                       cart. coord. in units 2pi/alat
        k(    1) = (   0.0000000   0.0000000   0.0000000), wk =   0.0010000
        k(    2) = (   0.0707107   0.0707107  -0.0707107), wk =   0.0080000
        k(    3) = (   0.1414214   0.1414214  -0.1414214), wk =   0.0080000
        k(    4) = (   0.2121320   0.2121320  -0.2121320), wk =   0.0080000
        k(    5) = (   0.2828427   0.2828427  -0.2828427), wk =   0.0080000
        k(    6) = (  -0.3535534  -0.3535534   0.3535534), wk =   0.0040000
        k(    7) = (   0.1414214   0.0000000   0.0000000), wk =   0.0060000
        k(    8) = (   0.2121320   0.0707107  -0.0707107), wk =   0.0240000
        k(    9) = (   0.2828427   0.1414214  -0.1414214), wk =   0.0240000
        k(   10) = (   0.3535534   0.2121320  -0.2121320), wk =   0.0240000
        k(   11) = (  -0.2828427  -0.4242641   0.4242641), wk =   0.0240000
        k(   12) = (  -0.2121320  -0.3535534   0.3535534), wk =   0.0240000
        k(   13) = (  -0.1414214  -0.2828427   0.2828427), wk =   0.0240000
        k(   14) = (  -0.0707107  -0.2121320   0.2121320), wk =   0.0240000
        k(   15) = (   0.0000000  -0.1414214   0.1414214), wk =   0.0120000
        k(   16) = (   0.2828427   0.0000000   0.0000000), wk =   0.0060000
        k(   17) = (   0.3535534   0.0707107  -0.0707107), wk =   0.0240000
        k(   18) = (   0.4242641   0.1414214  -0.1414214), wk =   0.0240000
        k(   19) = (  -0.2121320  -0.4949747   0.4949747), wk =   0.0240000
        k(   20) = (  -0.1414214  -0.4242641   0.4242641), wk =   0.0240000
        k(   21) = (  -0.0707107  -0.3535534   0.3535534), wk =   0.0240000
        k(   22) = (   0.0000000  -0.2828427   0.2828427), wk =   0.0120000
        k(   23) = (   0.4242641   0.0000000   0.0000000), wk =   0.0060000
        k(   24) = (   0.4949747   0.0707107  -0.0707107), wk =   0.0240000
        k(   25) = (  -0.1414214  -0.5656854   0.5656854), wk =   0.0240000
        k(   26) = (  -0.0707107  -0.4949747   0.4949747), wk =   0.0240000
        k(   27) = (  -0.0000000  -0.4242641   0.4242641), wk =   0.0120000
        k(   28) = (   0.5656854   0.0000000   0.0000000), wk =   0.0060000
        k(   29) = (  -0.0707107  -0.6363961   0.6363961), wk =   0.0240000
        k(   30) = (   0.0000000  -0.5656854   0.5656854), wk =   0.0120000
        k(   31) = (  -0.7071068   0.0000000   0.0000000), wk =   0.0030000
        k(   32) = (   0.2828427   0.1414214   0.0000000), wk =   0.0240000
        k(   33) = (   0.3535534   0.2121320  -0.0707107), wk =   0.0480000
        k(   34) = (  -0.2828427  -0.4242641   0.5656854), wk =   0.0480000
        k(   35) = (  -0.2121320  -0.3535534   0.4949747), wk =   0.0240000
        k(   36) = (   0.4242641   0.1414214  -0.0000000), wk =   0.0240000
        k(   37) = (  -0.2121320  -0.4949747   0.6363961), wk =   0.0480000
        k(   38) = (  -0.1414214  -0.4242641   0.5656854), wk =   0.0480000
        k(   39) = (  -0.0707107  -0.3535534   0.4949747), wk =   0.0480000
        k(   40) = (   0.0000000  -0.2828427   0.4242641), wk =   0.0240000
        k(   41) = (  -0.1414214  -0.5656854   0.7071068), wk =   0.0240000
        k(   42) = (  -0.0707107  -0.4949747   0.6363961), wk =   0.0480000
        k(   43) = (  -0.0000000  -0.4242641   0.5656854), wk =   0.0240000
        k(   44) = (  -0.7071068   0.1414214   0.0000000), wk =   0.0120000
        k(   45) = (  -0.1414214  -0.4242641   0.7071068), wk =   0.0240000
        k(   46) = (  -0.0707107  -0.3535534   0.6363961), wk =   0.0240000
        k(   47) = (  -0.7071068   0.2828427   0.0000000), wk =   0.0120000

     Dense  grid:    49061 G-vectors     FFT dimensions: (  54,  54,  54)

     Largest allocated arrays     est. size (Mb)     dimensions
        Kohn-Sham Wavefunctions         0.43 Mb     (     776,   36)
        NL pseudopotentials             0.40 Mb     (     388,   68)
        Each V/rho on FFT grid          0.18 Mb     (   11664)
        Each G-vector array             0.02 Mb     (    3066)
        G-vector shells                 0.00 Mb     (     417)
     Largest temporary arrays     est. size (Mb)     dimensions
        Auxiliary wavefunctions         1.71 Mb     (     776,  144)
        Each subspace H/S matrix        0.32 Mb     (     144,  144)
        Each <psi_i|beta_j> matrix      0.07 Mb     (      68,   2,   36)
        Arrays for rho mixing           1.42 Mb     (   11664,    8)

     Initial potential from superposition of free atoms

     starting charge   27.82601, renormalised to   28.00000
     Starting wfc are random

     total cpu time spent up to now is        4.9 secs

     Self-consistent Calculation

     iteration #  1     ecut=    80.00 Ry     beta=0.70
     Davidson diagonalization with overlap
     ethr =  1.00E-02,  avg # of iterations =  7.1

     Threshold (ethr) on eigenvalues was too large:
     Diagonalizing with lowered threshold

     Davidson diagonalization with overlap
     ethr =  1.16E-04,  avg # of iterations =  2.7

     total cpu time spent up to now is       55.3 secs

     total energy              =    -241.37495108 Ry
     Harris-Foulkes estimate   =    -241.38660456 Ry
     estimated scf accuracy    <       0.03166360 Ry

     iteration #  2     ecut=    80.00 Ry     beta=0.70
     Davidson diagonalization with overlap
     ethr =  1.13E-04,  avg # of iterations =  2.1

     total cpu time spent up to now is       69.9 secs

     total energy              =    -241.38030883 Ry
     Harris-Foulkes estimate   =    -241.38053526 Ry
     estimated scf accuracy    <       0.00216730 Ry

     iteration #  3     ecut=    80.00 Ry     beta=0.70
     Davidson diagonalization with overlap
     ethr =  7.74E-06,  avg # of iterations =  3.2

     total cpu time spent up to now is       84.4 secs

     total energy              =    -241.38059283 Ry
     Harris-Foulkes estimate   =    -241.38054266 Ry
     estimated scf accuracy    <       0.00016164 Ry

     iteration #  4     ecut=    80.00 Ry     beta=0.70
     Davidson diagonalization with overlap
     ethr =  5.77E-07,  avg # of iterations =  2.0

     total cpu time spent up to now is       96.4 secs

     total energy              =    -241.38060362 Ry
     Harris-Foulkes estimate   =    -241.38060387 Ry
     estimated scf accuracy    <       0.00000176 Ry

     iteration #  5     ecut=    80.00 Ry     beta=0.70
     Davidson diagonalization with overlap
     ethr =  6.28E-09,  avg # of iterations =  4.0

     total cpu time spent up to now is      113.7 secs

     End of self-consistent calculation

          k = 0.0000 0.0000 0.0000 (  6183 PWs)   bands (ev):

   -13.9788 -13.9788 -13.9788 -13.9788 -13.8991 -13.8991 -13.8991 -13.8991
   -13.0459 -13.0459 -12.8846 -12.8846 -12.8846 -12.8846 -12.8498 -12.8498
   -12.8498 -12.8498 -12.7477 -12.7477  -1.8929  -1.8929   6.8354   6.8354
     7.7495   7.7495   8.2334   8.2334   8.2334   8.2334   9.9405   9.9405
    10.2146  10.2146  10.2146  10.2146

          k = 0.0707 0.0707-0.0707 (  6126 PWs)   bands (ev):

   -13.9798 -13.9798 -13.9768 -13.9768 -13.9010 -13.9010 -13.8979 -13.8979
   -13.0417 -13.0417 -12.8954 -12.8954 -12.8915 -12.8915 -12.8423 -12.8423
   -12.8404 -12.8404 -12.7501 -12.7501  -1.8065  -1.8065   5.9914   5.9914
     7.7190   7.7190   8.0712   8.0712   8.4202   8.4202  10.2471  10.2471
    10.4259  10.4259  10.4883  10.4883

          k = 0.1414 0.1414-0.1414 (  6114 PWs)   bands (ev):

   -13.9820 -13.9820 -13.9712 -13.9712 -13.9064 -13.9064 -13.8948 -13.8948
   -13.0299 -13.0299 -12.9150 -12.9150 -12.9037 -12.9037 -12.8288 -12.8288
   -12.8252 -12.8252 -12.7568 -12.7568  -1.5537  -1.5537   4.6999   4.6999
     7.4322   7.4322   7.7536   7.7536   8.3421   8.3421  10.7079  10.7079
    10.8149  10.8149  11.5286  11.5286

          k = 0.2121 0.2121-0.2121 (  6138 PWs)   bands (ev):

   -13.9845 -13.9845 -13.9628 -13.9628 -13.9144 -13.9144 -13.8914 -13.8914
   -13.0130 -13.0130 -12.9355 -12.9355 -12.9143 -12.9143 -12.8166 -12.8166
   -12.8111 -12.8111 -12.7665 -12.7665  -1.1617  -1.1617   3.4828   3.4828
     7.1526   7.1526   7.4667   7.4667   8.1070   8.1070  11.0427  11.0427
    11.0453  11.0453  12.8833  12.8833

          k = 0.2828 0.2828-0.2828 (  6132 PWs)   bands (ev):

   -13.9864 -13.9864 -13.9532 -13.9532 -13.9236 -13.9236 -13.8888 -13.8888
   -12.9939 -12.9939 -12.9550 -12.9550 -12.9212 -12.9212 -12.8084 -12.8084
   -12.7991 -12.7991 -12.7774 -12.7774  -0.7181  -0.7181   2.5226   2.5226
     6.9679   6.9679   7.2804   7.2804   7.9288   7.9288  11.0756  11.0756
    11.1609  11.1609  13.8341  13.8342

          k =-0.3536-0.3536 0.3536 (  6164 PWs)   bands (ev):

   -13.9870 -13.9870 -13.9474 -13.9474 -13.9294 -13.9294 -13.8878 -13.8878
   -12.9769 -12.9769 -12.9719 -12.9719 -12.9236 -12.9236 -12.8055 -12.8055
   -12.7884 -12.7884 -12.7880 -12.7880  -0.4831  -0.4831   2.1124   2.1124
     6.9043   6.9043   7.2166   7.2166   7.8656   7.8656  11.0613  11.0613
    11.1762  11.1762  13.8064  13.8064

          k = 0.1414 0.0000 0.0000 (  6110 PWs)   bands (ev):

   -13.9790 -13.9790 -13.9773 -13.9773 -13.9007 -13.9007 -13.8983 -13.8983
   -13.0403 -13.0403 -12.8995 -12.8995 -12.8918 -12.8918 -12.8400 -12.8400
   -12.8389 -12.8389 -12.7507 -12.7507  -1.7772  -1.7772   5.8701   5.8701
     7.5170   7.5170   7.7451   7.7451   9.0102   9.0102   9.7950   9.7950
    10.6964  10.6964  10.7385  10.7385

          k = 0.2121 0.0707-0.0707 (  6128 PWs)   bands (ev):

   -13.9807 -13.9807 -13.9732 -13.9732 -13.9047 -13.9047 -13.8960 -13.8960
   -13.0311 -13.0311 -12.9149 -12.9149 -12.9000 -12.9000 -12.8333 -12.8333
   -12.8249 -12.8249 -12.7554 -12.7554  -1.5783  -1.5783   4.9124   4.9124
     7.1913   7.1913   7.3906   7.3906   9.2229   9.2229   9.9210   9.9210
    11.2165  11.2165  11.4465  11.4465

          k = 0.2828 0.1414-0.1414 (  6129 PWs)   bands (ev):

   -13.9834 -13.9834 -13.9656 -13.9656 -13.9120 -13.9120 -13.8923 -13.8923
   -13.0161 -13.0161 -12.9331 -12.9331 -12.9095 -12.9095 -12.8267 -12.8267
   -12.8094 -12.8094 -12.7626 -12.7626  -1.2274  -1.2274   3.7672   3.7672
     6.8287   6.8287   7.0874   7.0874   9.0257   9.0257  10.4496  10.4496
    11.5411  11.5411  12.2370  12.2370

          k = 0.3536 0.2121-0.2121 (  6150 PWs)   bands (ev):

   -13.9856 -13.9856 -13.9563 -13.9563 -13.9211 -13.9211 -13.8890 -13.8890
   -12.9984 -12.9984 -12.9502 -12.9502 -12.9172 -12.9172 -12.8217 -12.8217
   -12.7981 -12.7981 -12.7695 -12.7695  -0.7826  -0.7826   2.7492   2.7492
     6.5146   6.5146   6.9267   6.9267   8.8088   8.8088  10.8098  10.8099
    11.5759  11.5759  13.0579  13.0579

          k =-0.2828-0.4243 0.4243 (  6146 PWs)   bands (ev):

   -13.9868 -13.9868 -13.9481 -13.9481 -13.9293 -13.9293 -13.8873 -13.8873
   -12.9825 -12.9825 -12.9649 -12.9649 -12.9211 -12.9211 -12.8194 -12.8194
   -12.7929 -12.7929 -12.7732 -12.7732  -0.4321  -0.4321   2.1277   2.1277
     6.3157   6.3157   6.9180   6.9180   8.6796   8.6796  10.9626  10.9626
    11.4619  11.4619  13.8708  13.8709

          k =-0.2121-0.3536 0.3536 (  6130 PWs)   bands (ev):

   -13.9866 -13.9866 -13.9499 -13.9498 -13.9276 -13.9276 -13.8875 -13.8875
   -12.9872 -12.9872 -12.9606 -12.9606 -12.9200 -12.9200 -12.8205 -12.8205
   -12.7932 -12.7932 -12.7726 -12.7726  -0.5183  -0.5183   2.2699   2.2699
     6.2630   6.2630   7.0500   7.0500   8.6653   8.6653  11.0894  11.0894
    11.3212  11.3212  13.9053  13.9053

          k =-0.1414-0.2828 0.2828 (  6133 PWs)   bands (ev):

   -13.9853 -13.9853 -13.9589 -13.9589 -13.9187 -13.9187 -13.8896 -13.8896
   -13.0045 -13.0045 -12.9449 -12.9449 -12.9142 -12.9142 -12.8247 -12.8247
   -12.7997 -12.7997 -12.7678 -12.7678  -0.9367  -0.9367   3.0646   3.0646
     6.3750   6.3750   7.3001   7.3001   8.7581   8.7581  11.0957  11.0957
    11.2088  11.2088  12.9614  12.9614

          k =-0.0707-0.2121 0.2121 (  6118 PWs)   bands (ev):

   -13.9830 -13.9830 -13.9677 -13.9677 -13.9101 -13.9101 -13.8929 -13.8929
   -13.0216 -13.0216 -12.9274 -12.9274 -12.9057 -12.9057 -12.8308 -12.8308
   -12.8122 -12.8122 -12.7604 -12.7604  -1.3610  -1.3610   4.1399   4.1399
     6.6732   6.6732   7.6201   7.6201   8.8935   8.8935  10.7575  10.7575
    10.9635  10.9635  12.0455  12.0455

          k = 0.0000-0.1414 0.1414 (  6139 PWs)   bands (ev):

   -13.9808 -13.9808 -13.9740 -13.9740 -13.9038 -13.9038 -13.8962 -13.8962
   -13.0350 -13.0350 -12.9091 -12.9091 -12.8969 -12.8969 -12.8375 -12.8375
   -12.8280 -12.8280 -12.7537 -12.7537  -1.6639  -1.6639   5.2349   5.2349
     7.1930   7.1930   7.8996   7.8996   8.8288   8.8288  10.3636  10.3636
    10.4967  10.4967  11.2910  11.2910

          k = 0.2828 0.0000 0.0000 (  6126 PWs)   bands (ev):

   -13.9789 -13.9789 -13.9737 -13.9737 -13.9045 -13.9045 -13.8969 -13.8969
   -13.0247 -13.0247 -12.9234 -12.9234 -12.9032 -12.9032 -12.8292 -12.8292
   -12.8210 -12.8210 -12.7570 -12.7570  -1.4329  -1.4329   4.5213   4.5213
     6.8936   6.8936   7.0076   7.0076   9.2690   9.2690   9.9280   9.9280
    11.8116  11.8116  11.9064  11.9064

          k = 0.3536 0.0707-0.0707 (  6137 PWs)   bands (ev):

   -13.9807 -13.9807 -13.9686 -13.9686 -13.9094 -13.9094 -13.8943 -13.8943
   -13.0125 -13.0125 -12.9367 -12.9367 -12.9081 -12.9081 -12.8312 -12.8312
   -12.8077 -12.8077 -12.7603 -12.7603  -1.1280  -1.1280   3.7019   3.7019
     6.5009   6.5009   6.7011   6.7011   9.3263   9.3263  10.0503  10.0503
    12.1312  12.1312  12.3956  12.3956

          k = 0.4243 0.1414-0.1414 (  6153 PWs)   bands (ev):

   -13.9835 -13.9835 -13.9604 -13.9604 -13.9177 -13.9176 -13.8902 -13.8902
   -12.9979 -12.9979 -12.9496 -12.9496 -12.9122 -12.9122 -12.8357 -12.8357
   -12.7970 -12.7970 -12.7623 -12.7623  -0.7003  -0.7003   2.8021   2.8021
     6.0130   6.0130   6.5531   6.5531   9.3556   9.3556  10.5931  10.5931
    12.0945  12.0945  12.5166  12.5166

          k =-0.2121-0.4950 0.4950 (  6142 PWs)   bands (ev):

   -13.9855 -13.9855 -13.9518 -13.9518 -13.9266 -13.9266 -13.8871 -13.8871
   -12.9863 -12.9863 -12.9580 -12.9580 -12.9149 -12.9149 -12.8400 -12.8400
   -12.7930 -12.7930 -12.7612 -12.7612  -0.2756  -0.2756   2.0961   2.0961
     5.6408   5.6408   6.5638   6.5638   9.2778   9.2778  11.1588  11.1588
    12.2922  12.2922  12.6577  12.6577

          k =-0.1414-0.4243 0.4243 (  6133 PWs)   bands (ev):

   -13.9864 -13.9864 -13.9476 -13.9475 -13.9311 -13.9311 -13.8858 -13.8858
   -12.9848 -12.9848 -12.9593 -12.9593 -12.9144 -12.9144 -12.8418 -12.8418
   -12.7924 -12.7924 -12.7607 -12.7607  -0.2012  -0.2012   1.9872   1.9873
     5.4634   5.4634   6.7239   6.7239   9.2780   9.2780  11.3559  11.3559
    12.0579  12.0580  13.5889  13.5889

          k =-0.0707-0.3536 0.3536 (  6131 PWs)   bands (ev):

   -13.9860 -13.9860 -13.9533 -13.9533 -13.9253 -13.9253 -13.8869 -13.8869
   -12.9942 -12.9942 -12.9535 -12.9535 -12.9109 -12.9109 -12.8400 -12.8400
   -12.7932 -12.7932 -12.7626 -12.7626  -0.5713  -0.5713   2.5638   2.5638
     5.5291   5.5291   7.0074   7.0074   9.3447   9.3447  11.4984  11.4984
    11.7124  11.7124  12.7302  12.7302

          k = 0.0000-0.2828 0.2828 (  6111 PWs)   bands (ev):

   -13.9846 -13.9846 -13.9613 -13.9613 -13.9170 -13.9170 -13.8897 -13.8897
   -13.0084 -13.0084 -12.9422 -12.9422 -12.9075 -12.9075 -12.8356 -12.8356
   -12.7992 -12.7992 -12.7633 -12.7633  -1.0165  -1.0165   3.3823   3.3823
     5.9101   5.9101   7.3516   7.3516   9.3256   9.3256  11.1746  11.1746
    11.3464  11.3464  12.1016  12.1016

          k = 0.4243 0.0000 0.0000 (  6126 PWs)   bands (ev):

   -13.9779 -13.9779 -13.9702 -13.9702 -13.9076 -13.9076 -13.8966 -13.8966
   -13.0034 -13.0034 -12.9446 -12.9446 -12.9100 -12.9100 -12.8360 -12.8360
   -12.8005 -12.8005 -12.7607 -12.7607  -0.8678  -0.8678   3.2036   3.2036
     6.3582   6.3582   6.4156   6.4156   8.8798   8.8798   9.8577   9.8577
    13.0377  13.0378  13.2530  13.2530

          k = 0.4950 0.0707-0.0707 (  6145 PWs)   bands (ev):

   -13.9795 -13.9795 -13.9656 -13.9656 -13.9121 -13.9121 -13.8941 -13.8941
   -12.9923 -12.9923 -12.9533 -12.9533 -12.9095 -12.9095 -12.8462 -12.8462
   -12.7916 -12.7916 -12.7606 -12.7606  -0.4685  -0.4685   2.5098   2.5098
     5.9683   5.9683   6.2336   6.2336   9.0304   9.0304   9.8294   9.8294
    13.0860  13.0860  13.5963  13.5963

          k =-0.1414-0.5657 0.5657 (  6141 PWs)   bands (ev):

   -13.9826 -13.9826 -13.9582 -13.9582 -13.9203 -13.9203 -13.8895 -13.8895
   -12.9856 -12.9856 -12.9563 -12.9563 -12.9072 -12.9072 -12.8573 -12.8572
   -12.7895 -12.7895 -12.7568 -12.7568  -0.0064  -0.0064   1.8538   1.8538
     5.4506   5.4506   6.2251   6.2251   9.1442   9.1442  10.6267  10.6267
    12.8472  12.8472  13.4967  13.4967

          k =-0.0707-0.4950 0.4950 (  6118 PWs)   bands (ev):

   -13.9849 -13.9849 -13.9512 -13.9512 -13.9281 -13.9280 -13.8861 -13.8861
   -12.9853 -12.9853 -12.9546 -12.9546 -12.9055 -12.9055 -12.8622 -12.8622
   -12.7911 -12.7911 -12.7536 -12.7536   0.2082   0.2082   1.5909   1.5909
     5.1151   5.1151   6.3731   6.3731   9.2262   9.2262  11.8517  11.8517
    12.7390  12.7390  13.1381  13.1381

          k =-0.0000-0.4243 0.4243 (  6139 PWs)   bands (ev):

   -13.9860 -13.9860 -13.9488 -13.9487 -13.9306 -13.9306 -13.8853 -13.8853
   -12.9876 -12.9876 -12.9553 -12.9553 -12.9071 -12.9071 -12.8551 -12.8551
   -12.7921 -12.7921 -12.7558 -12.7558  -0.1195  -0.1195   1.9913   1.9913
     5.1076   5.1076   6.6542   6.6542   9.3668   9.3668  12.2939  12.2939
    12.5427  12.5427  12.6604  12.6605

          k = 0.5657 0.0000 0.0000 (  6162 PWs)   bands (ev):

   -13.9754 -13.9754 -13.9695 -13.9695 -13.9071 -13.9071 -13.8988 -13.8988
   -12.9840 -12.9840 -12.9602 -12.9602 -12.9049 -12.9049 -12.8580 -12.8580
   -12.7824 -12.7824 -12.7629 -12.7629  -0.0966  -0.0966   1.9707   1.9707
     6.0188   6.0188   6.0429   6.0429   8.7425   8.7425   9.3074   9.3074
    14.3018  14.3019  14.5408  14.5408

          k =-0.0707-0.6364 0.6364 (  6140 PWs)   bands (ev):

   -13.9779 -13.9779 -13.9652 -13.9652 -13.9120 -13.9120 -13.8952 -13.8952
   -12.9802 -12.9802 -12.9619 -12.9618 -12.8973 -12.8973 -12.8714 -12.8714
   -12.7808 -12.7808 -12.7602 -12.7602   0.3769   0.3769   1.3904   1.3904
     5.6911   5.6911   5.9952   5.9952   8.9298   8.9298   9.4529   9.4529
    14.2842  14.2842  14.6619  14.6619

          k = 0.0000-0.5657 0.5657 (  6112 PWs)   bands (ev):

   -13.9820 -13.9820 -13.9582 -13.9581 -13.9205 -13.9205 -13.8895 -13.8895
   -12.9836 -12.9836 -12.9559 -12.9559 -12.8956 -12.8955 -12.8759 -12.8759
   -12.7868 -12.7868 -12.7541 -12.7541   0.6198   0.6198   1.1434   1.1434
     5.2554   5.2554   6.1131   6.1131   9.0425   9.0425  10.5359  10.5359
    13.7572  13.7573  14.1304  14.1304

          k =-0.7071 0.0000 0.0000 (  6074 PWs)   bands (ev):

   -13.9719 -13.9719 -13.9719 -13.9719 -13.9032 -13.9032 -13.9032 -13.9032
   -12.9714 -12.9714 -12.9714 -12.9714 -12.8848 -12.8848 -12.8848 -12.8848
   -12.7695 -12.7695 -12.7695 -12.7695   0.8592   0.8592   0.8593   0.8593
     5.9098   5.9098   5.9098   5.9098   8.8893   8.8893   8.8893   8.8893
    15.1444  15.1445  15.1445  15.1445

          k = 0.2828 0.1414 0.0000 (  6128 PWs)   bands (ev):

   -13.9819 -13.9819 -13.9689 -13.9689 -13.9091 -13.9091 -13.8937 -13.8937
   -13.0203 -13.0203 -12.9292 -12.9291 -12.9048 -12.9048 -12.8322 -12.8322
   -12.8120 -12.8120 -12.7595 -12.7595  -1.3273  -1.3273   4.1452   4.1452
     6.5371   6.5371   7.2388   7.2388   9.5820   9.5820   9.9416   9.9416
    11.6533  11.6533  11.9094  11.9094

          k = 0.3536 0.2121-0.0707 (  6136 PWs)   bands (ev):

   -13.9841 -13.9841 -13.9614 -13.9614 -13.9168 -13.9168 -13.8901 -13.8901
   -13.0054 -13.0054 -12.9441 -12.9441 -12.9100 -12.9100 -12.8333 -12.8333
   -12.7996 -12.7996 -12.7633 -12.7633  -0.9362  -0.9362   3.2115   3.2115
     6.0435   6.0435   6.9816   6.9816   9.5318   9.5318  10.4900  10.4900
    11.8773  11.8773  12.2484  12.2485

          k =-0.2828-0.4243 0.5657 (  6144 PWs)   bands (ev):

   -13.9858 -13.9858 -13.9527 -13.9527 -13.9256 -13.9256 -13.8873 -13.8873
   -12.9907 -12.9907 -12.9559 -12.9559 -12.9149 -12.9149 -12.8348 -12.8348
   -12.7939 -12.7939 -12.7639 -12.7639  -0.4867  -0.4867   2.3732   2.3732
     5.7804   5.7804   6.7547   6.7547   9.4012   9.4012  10.8461  10.8461
    11.9929  11.9929  12.9081  12.9081

          k =-0.2121-0.3536 0.4950 (  6148 PWs)   bands (ev):

   -13.9865 -13.9865 -13.9474 -13.9473 -13.9310 -13.9309 -13.8862 -13.8862
   -12.9832 -12.9832 -12.9615 -12.9614 -12.9171 -12.9171 -12.8355 -12.8355
   -12.7929 -12.7929 -12.7633 -12.7633  -0.2417  -0.2417   1.9894   1.9894
     5.6991   5.6991   6.6690   6.6690   9.3495   9.3495  10.8919  10.8919
    12.0381  12.0382  13.6948  13.6949

          k = 0.4243 0.1414-0.0000 (  6128 PWs)   bands (ev):

   -13.9817 -13.9817 -13.9643 -13.9643 -13.9138 -13.9138 -13.8922 -13.8922
   -13.0007 -13.0007 -12.9471 -12.9471 -12.9099 -12.9099 -12.8382 -12.8382
   -12.7981 -12.7981 -12.7609 -12.7609  -0.7779  -0.7779   3.0102   3.0102
     6.0151   6.0151   6.4970   6.4970   9.5083   9.5083  10.0664  10.0664
    12.1116  12.1116  13.0806  13.0807

          k =-0.2121-0.4950 0.6364 (  6126 PWs)   bands (ev):

   -13.9837 -13.9837 -13.9574 -13.9574 -13.9212 -13.9212 -13.8887 -13.8887
   -12.9900 -12.9900 -12.9542 -12.9542 -12.9100 -12.9100 -12.8480 -12.8480
   -12.7930 -12.7929 -12.7582 -12.7582  -0.3263  -0.3263   2.2758   2.2758
     5.5771   5.5771   6.2953   6.2953   9.6962   9.6962  10.6443  10.6443
    11.9051  11.9051  13.3843  13.3844

          k =-0.1414-0.4243 0.5657 (  6116 PWs)   bands (ev):

   -13.9853 -13.9853 -13.9508 -13.9508 -13.9283 -13.9283 -13.8861 -13.8861
   -12.9857 -12.9856 -12.9551 -12.9551 -12.9097 -12.9097 -12.8548 -12.8547
   -12.7925 -12.7925 -12.7549 -12.7549   0.0425   0.0425   1.7685   1.7685
     5.2912   5.2912   6.2587   6.2587   9.7225   9.7225  11.2665  11.2665
    12.2908  12.2908  13.1932  13.1932

          k =-0.0707-0.3536 0.4950 (  6130 PWs)   bands (ev):

   -13.9858 -13.9858 -13.9497 -13.9496 -13.9296 -13.9296 -13.8856 -13.8856
   -12.9869 -12.9869 -12.9551 -12.9551 -12.9090 -12.9090 -12.8536 -12.8536
   -12.7929 -12.7929 -12.7555 -12.7555  -0.0765  -0.0765   1.9244   1.9244
     5.2258   5.2258   6.4118   6.4118   9.8137   9.8137  11.2670  11.2670
    12.3795  12.3795  13.1599  13.1599

          k = 0.0000-0.2828 0.4243 (  6137 PWs)   bands (ev):

   -13.9852 -13.9852 -13.9551 -13.9551 -13.9238 -13.9238 -13.8873 -13.8873
   -12.9939 -12.9939 -12.9528 -12.9527 -12.9091 -12.9091 -12.8446 -12.8446
   -12.7939 -12.7939 -12.7598 -12.7598  -0.5182  -0.5182   2.5464   2.5464
     5.4565   5.4566   6.6988   6.6988   9.8731   9.8731  10.8995  10.8995
    11.8138  11.8138  12.8413  12.8413

          k =-0.1414-0.5657 0.7071 (  6144 PWs)   bands (ev):

   -13.9803 -13.9803 -13.9625 -13.9625 -13.9155 -13.9155 -13.8923 -13.8923
   -12.9854 -12.9854 -12.9572 -12.9572 -12.9053 -12.9053 -12.8591 -12.8590
   -12.7874 -12.7874 -12.7581 -12.7581  -0.0346  -0.0346   1.9037   1.9037
     5.7230   5.7230   5.9754   5.9754   9.3355   9.3355   9.7557   9.7557
    13.0619  13.0619  14.3424  14.3424

          k =-0.0707-0.4950 0.6364 (  6124 PWs)   bands (ev):

   -13.9827 -13.9827 -13.9569 -13.9569 -13.9221 -13.9220 -13.8885 -13.8885
   -12.9850 -12.9850 -12.9540 -12.9540 -12.8999 -12.8999 -12.8709 -12.8708
   -12.7893 -12.7893 -12.7529 -12.7529   0.4160   0.4160   1.3765   1.3765
     5.3326   5.3326   5.9112   5.9112   9.5610   9.5610  10.6008  10.6008
    12.7830  12.7830  13.8658  13.8658

          k =-0.0000-0.4243 0.5657 (  6119 PWs)   bands (ev):

   -13.9847 -13.9847 -13.9515 -13.9514 -13.9281 -13.9280 -13.8858 -13.8858
   -12.9864 -12.9864 -12.9519 -12.9519 -12.9016 -12.9016 -12.8692 -12.8691
   -12.7919 -12.7919 -12.7511 -12.7511   0.3687   0.3687   1.4355   1.4355
     5.0917   5.0917   6.0886   6.0886   9.7067   9.7067  11.8677  11.8677
    12.5390  12.5390  12.6951  12.6951

          k =-0.7071 0.1414 0.0000 (  6112 PWs)   bands (ev):

   -13.9794 -13.9794 -13.9626 -13.9626 -13.9153 -13.9153 -13.8927 -13.8927
   -12.9814 -12.9814 -12.9591 -12.9591 -12.8903 -12.8902 -12.8810 -12.8810
   -12.7831 -12.7831 -12.7567 -12.7567   0.8707   0.8708   0.8749   0.8749
     5.6629   5.6629   5.7577   5.7577   9.3713   9.3713   9.4855   9.4855
    14.1050  14.1050  14.3418  14.3418

          k =-0.1414-0.4243 0.7071 (  6141 PWs)   bands (ev):

   -13.9843 -13.9843 -13.9536 -13.9536 -13.9258 -13.9258 -13.8866 -13.8866
   -12.9870 -12.9870 -12.9526 -12.9525 -12.9049 -12.9048 -12.8631 -12.8630
   -12.7926 -12.7926 -12.7524 -12.7524   0.1349   0.1349   1.7109   1.7109
     5.2838   5.2838   5.9512   5.9512  10.5245  10.5246  10.7531  10.7531
    11.6607  11.6607  13.6262  13.6263

          k =-0.0707-0.3536 0.6364 (  6124 PWs)   bands (ev):

   -13.9846 -13.9846 -13.9518 -13.9517 -13.9280 -13.9279 -13.8857 -13.8857
   -12.9870 -12.9870 -12.9500 -12.9500 -12.9013 -12.9013 -12.8709 -12.8709
   -12.7931 -12.7931 -12.7498 -12.7498   0.4418   0.4418   1.3659   1.3659
     5.1972   5.1972   5.7961   5.7961  10.5993  10.5993  11.2204  11.2204
    12.1582  12.1582  12.4648  12.4648

          k =-0.7071 0.2828 0.0000 (  6118 PWs)   bands (ev):

   -13.9836 -13.9836 -13.9544 -13.9543 -13.9253 -13.9252 -13.8867 -13.8867
   -12.9868 -12.9868 -12.9496 -12.9496 -12.8941 -12.8941 -12.8802 -12.8801
   -12.7919 -12.7919 -12.7492 -12.7492   0.8918   0.8918   0.8988   0.8989
     5.3858   5.3858   5.5125   5.5125  10.5804  10.5805  10.7710  10.7710
    12.4329  12.4329  12.5962  12.5962

     the Fermi energy is     7.9826 ev

!    total energy              =    -241.38060516 Ry
     Harris-Foulkes estimate   =    -241.38060520 Ry
     estimated scf accuracy    <       0.00000025 Ry

     The total energy is the sum of the following terms:

     one-electron contribution =    -111.19493985 Ry
     hartree contribution      =      65.98873291 Ry
     xc contribution           =     -29.39458504 Ry
     ewald contribution        =    -166.77966192 Ry
     smearing contrib. (-TS)   =      -0.00015127 Ry

     convergence has been achieved in   5 iterations

     Writing output data file pwscf.save
 
     init_run     :      3.94s CPU      4.57s WALL (       1 calls)
     electrons    :     99.62s CPU    108.88s WALL (       1 calls)

     Called by init_run:
     wfcinit      :      3.74s CPU      4.23s WALL (       1 calls)
     potinit      :      0.04s CPU      0.05s WALL (       1 calls)

     Called by electrons:
     c_bands      :     88.00s CPU     96.18s WALL (       6 calls)
     sum_band     :     11.49s CPU     12.51s WALL (       6 calls)
     v_of_rho     :      0.08s CPU      0.10s WALL (       6 calls)
     mix_rho      :      0.03s CPU      0.05s WALL (       6 calls)

     Called by c_bands:
     init_us_2    :      0.27s CPU      0.30s WALL (     611 calls)
     cegterg      :     84.02s CPU     92.09s WALL (     282 calls)

     Called by sum_band:

     Called by *egterg:
     h_psi        :     69.61s CPU     77.08s WALL (    1321 calls)
     g_psi        :      0.27s CPU      0.27s WALL (     992 calls)
     cdiaghg      :      6.33s CPU      6.49s WALL (    1227 calls)

     Called by h_psi:
     add_vuspsi   :      2.56s CPU      2.59s WALL (    1321 calls)

     General routines
     calbec       :      2.96s CPU      3.05s WALL (    1321 calls)
     fft          :      0.08s CPU      0.14s WALL (     103 calls)
     fftw         :     65.78s CPU     73.28s WALL (  160272 calls)
     davcio       :      0.02s CPU      0.20s WALL (      47 calls)
 
     Parallel routines
     fft_scatter  :     34.36s CPU     38.27s WALL (  160375 calls)
 
     PWSCF        :  1m43.80s CPU     1m54.48s WALL

 
   This run was terminated on:  14: 7:33  18Feb2020            

=------------------------------------------------------------------------------=
   JOB DONE.
=------------------------------------------------------------------------------=
