
     Program PWSCF v.5.4.0 starts on 15Mar2020 at 19:56: 1 

     This program is part of the open-source Quantum ESPRESSO suite
     for quantum simulation of materials; please cite
         "P. Giannozzi et al., J. Phys.:Condens. Matter 21 395502 (2009);
          URL http://www.quantum-espresso.org", 
     in publications or presentations arising from this work. More details at
     http://www.quantum-espresso.org/quote

     Parallel version (MPI & OpenMP), running on      16 processor cores
     Number of MPI processes:                16
     Threads/MPI process:                     1
     R & G space division:  proc/nbgrp/npool/nimage =      16
     Waiting for input...
     Reading input from standard input
Warning: card &IONS ignored
Warning: card / ignored
Warning: card &CELL ignored
Warning: card / ignored

     Current dimensions of program PWSCF are:
     Max number of different atomic species (ntypx) = 10
     Max number of k-points (npk) =  40000
     Max angular momentum in pseudopotentials (lmaxx) =  3
               file Sn.pbesol-dn-kjpaw_psl.1.0.0.UPF: wavefunction(s)  5S 5P 4D renormalized
     Message from routine setup:
     At least one non s.o. pseudo

     Subspace diagonalization in iterative solution of the eigenvalue problem:
     a serial algorithm will be used

 
     Parallelization info
     --------------------
     sticks:   dense  smooth     PW     G-vecs:    dense   smooth      PW
     Min          88      88     26                 2220     2220     349
     Max          89      89     27                 2224     2224     352
     Sum        1417    1417    421                35557    35557    5601
 

     Title: 
     Sn                                                                         


     bravais-lattice index     =            0
     lattice parameter (alat)  =       8.9127  a.u.
     unit-cell volume          =     500.6268 (a.u.)^3
     number of atoms/cell      =            2
     number of atomic types    =            1
     number of electrons       =        28.00
     number of Kohn-Sham states=           36
     kinetic-energy cutoff     =      65.0000  Ry
     charge density cutoff     =     260.0000  Ry
     convergence threshold     =      1.0E-06
     mixing beta               =       0.7000
     number of iterations used =            8  plain     mixing
     Exchange-correlation      =  SLA  PW   PSX  PSC ( 1  4 10  8 0 0)
     Non magnetic calculation with spin-orbit


     celldm(1)=   8.912709  celldm(2)=   0.000000  celldm(3)=   0.000000
     celldm(4)=   0.000000  celldm(5)=   0.000000  celldm(6)=   0.000000

     crystal axes: (cart. coord. in units of alat)
               a(1) = (   0.000000   0.707107   0.707107 )  
               a(2) = (   0.707107   0.000000   0.707107 )  
               a(3) = (   0.707107   0.707107   0.000000 )  

     reciprocal axes: (cart. coord. in units 2 pi/alat)
               b(1) = ( -0.707107  0.707107  0.707107 )  
               b(2) = (  0.707107 -0.707107  0.707107 )  
               b(3) = (  0.707107  0.707107 -0.707107 )  


     PseudoPot. # 1 for Sn read from file:
     ../PseudopotentialDatabase/Sn.pbesol-dn-kjpaw_psl.1.0.0.UPF
     MD5 check sum: 3b64f90c238cf26ccb627d174952382c
     Pseudo is Projector augmented-wave + core cor, Zval = 14.0
     Generated using "atomic" code by A. Dal Corso  v.6.3
     Shape of augmentation charge: PSQ
     Using radial grid of 1243 points,  6 beta functions with: 
                l(1) =   0
                l(2) =   0
                l(3) =   1
                l(4) =   1
                l(5) =   2
                l(6) =   2
     Q(r) pseudized with 0 coefficients 


     atomic species   valence    mass     pseudopotential
        Sn            14.00   118.71000     Sn( 1.00)

     24 Sym. Ops. (no inversion) found
          (note: 24 additional sym.ops. were found but ignored
           their fractional translations are incommensurate with FFT grid)

                                    s                        frac. trans.

      isym =  1     identity                                     

 cryst.   s( 1) = (     1          0          0      )
                  (     0          1          0      )
                  (     0          0          1      )

 cart.    s( 1) = (  1.0000000  0.0000000  0.0000000 )
                  (  0.0000000  1.0000000  0.0000000 )
                  (  0.0000000  0.0000000  1.0000000 )


      isym =  2     180 deg rotation - cart. axis [0,0,1]        

 cryst.   s( 2) = (     0          1         -1      )
                  (     1          0         -1      )
                  (     0          0         -1      )

 cart.    s( 2) = ( -1.0000000  0.0000000  0.0000000 )
                  (  0.0000000 -1.0000000  0.0000000 )
                  (  0.0000000  0.0000000  1.0000000 )


      isym =  3     180 deg rotation - cart. axis [0,1,0]        

 cryst.   s( 3) = (     0         -1          1      )
                  (     0         -1          0      )
                  (     1         -1          0      )

 cart.    s( 3) = ( -1.0000000  0.0000000  0.0000000 )
                  (  0.0000000  1.0000000  0.0000000 )
                  (  0.0000000  0.0000000 -1.0000000 )


      isym =  4     180 deg rotation - cart. axis [1,0,0]        

 cryst.   s( 4) = (    -1          0          0      )
                  (    -1          0          1      )
                  (    -1          1          0      )

 cart.    s( 4) = (  1.0000000  0.0000000  0.0000000 )
                  (  0.0000000 -1.0000000  0.0000000 )
                  (  0.0000000  0.0000000 -1.0000000 )


      isym =  5     120 deg rotation - cart. axis [-1,-1,-1]     

 cryst.   s( 5) = (     0          0          1      )
                  (     1          0          0      )
                  (     0          1          0      )

 cart.    s( 5) = (  0.0000000  1.0000000  0.0000000 )
                  (  0.0000000  0.0000000  1.0000000 )
                  (  1.0000000  0.0000000  0.0000000 )


      isym =  6     120 deg rotation - cart. axis [-1,1,1]       

 cryst.   s( 6) = (     1         -1          0      )
                  (     0         -1          1      )
                  (     0         -1          0      )

 cart.    s( 6) = (  0.0000000 -1.0000000  0.0000000 )
                  (  0.0000000  0.0000000  1.0000000 )
                  ( -1.0000000  0.0000000  0.0000000 )


      isym =  7     120 deg rotation - cart. axis [1,1,-1]       

 cryst.   s( 7) = (    -1          1          0      )
                  (    -1          0          0      )
                  (    -1          0          1      )

 cart.    s( 7) = (  0.0000000  1.0000000  0.0000000 )
                  (  0.0000000  0.0000000 -1.0000000 )
                  ( -1.0000000  0.0000000  0.0000000 )


      isym =  8     120 deg rotation - cart. axis [1,-1,1]       

 cryst.   s( 8) = (     0          0         -1      )
                  (     0          1         -1      )
                  (     1          0         -1      )

 cart.    s( 8) = (  0.0000000 -1.0000000  0.0000000 )
                  (  0.0000000  0.0000000 -1.0000000 )
                  (  1.0000000  0.0000000  0.0000000 )


      isym =  9     120 deg rotation - cart. axis [1,1,1]        

 cryst.   s( 9) = (     0          1          0      )
                  (     0          0          1      )
                  (     1          0          0      )

 cart.    s( 9) = (  0.0000000  0.0000000  1.0000000 )
                  (  1.0000000  0.0000000  0.0000000 )
                  (  0.0000000  1.0000000  0.0000000 )


      isym = 10     120 deg rotation - cart. axis [-1,1,-1]      

 cryst.   s(10) = (    -1          0          1      )
                  (    -1          1          0      )
                  (    -1          0          0      )

 cart.    s(10) = (  0.0000000  0.0000000  1.0000000 )
                  ( -1.0000000  0.0000000  0.0000000 )
                  (  0.0000000 -1.0000000  0.0000000 )


      isym = 11     120 deg rotation - cart. axis [1,-1,-1]      

 cryst.   s(11) = (     1          0         -1      )
                  (     0          0         -1      )
                  (     0          1         -1      )

 cart.    s(11) = (  0.0000000  0.0000000 -1.0000000 )
                  ( -1.0000000  0.0000000  0.0000000 )
                  (  0.0000000  1.0000000  0.0000000 )


      isym = 12     120 deg rotation - cart. axis [-1,-1,1]      

 cryst.   s(12) = (     0         -1          0      )
                  (     1         -1          0      )
                  (     0         -1          1      )

 cart.    s(12) = (  0.0000000  0.0000000 -1.0000000 )
                  (  1.0000000  0.0000000  0.0000000 )
                  (  0.0000000 -1.0000000  0.0000000 )


      isym = 13     inv. 180 deg rotation - cart. axis [1,1,0]   

 cryst.   s(13) = (     1          0         -1      )
                  (     0          1         -1      )
                  (     0          0         -1      )

 cart.    s(13) = (  0.0000000 -1.0000000  0.0000000 )
                  ( -1.0000000  0.0000000  0.0000000 )
                  (  0.0000000  0.0000000  1.0000000 )


      isym = 14     inv. 180 deg rotation - cart. axis [1,-1,0]  

 cryst.   s(14) = (     0          1          0      )
                  (     1          0          0      )
                  (     0          0          1      )

 cart.    s(14) = (  0.0000000  1.0000000  0.0000000 )
                  (  1.0000000  0.0000000  0.0000000 )
                  (  0.0000000  0.0000000  1.0000000 )


      isym = 15     inv.  90 deg rotation - cart. axis [0,0,-1]  

 cryst.   s(15) = (     0         -1          0      )
                  (     0         -1          1      )
                  (     1         -1          0      )

 cart.    s(15) = (  0.0000000 -1.0000000  0.0000000 )
                  (  1.0000000  0.0000000  0.0000000 )
                  (  0.0000000  0.0000000 -1.0000000 )


      isym = 16     inv.  90 deg rotation - cart. axis [0,0,1]   

 cryst.   s(16) = (    -1          0          1      )
                  (    -1          0          0      )
                  (    -1          1          0      )

 cart.    s(16) = (  0.0000000  1.0000000  0.0000000 )
                  ( -1.0000000  0.0000000  0.0000000 )
                  (  0.0000000  0.0000000 -1.0000000 )


      isym = 17     inv. 180 deg rotation - cart. axis [1,0,1]   

 cryst.   s(17) = (     1         -1          0      )
                  (     0         -1          0      )
                  (     0         -1          1      )

 cart.    s(17) = (  0.0000000  0.0000000 -1.0000000 )
                  (  0.0000000  1.0000000  0.0000000 )
                  ( -1.0000000  0.0000000  0.0000000 )


      isym = 18     inv. 180 deg rotation - cart. axis [-1,0,1]  

 cryst.   s(18) = (     0          0          1      )
                  (     0          1          0      )
                  (     1          0          0      )

 cart.    s(18) = (  0.0000000  0.0000000  1.0000000 )
                  (  0.0000000  1.0000000  0.0000000 )
                  (  1.0000000  0.0000000  0.0000000 )


      isym = 19     inv.  90 deg rotation - cart. axis [0,1,0]   

 cryst.   s(19) = (     0          0         -1      )
                  (     1          0         -1      )
                  (     0          1         -1      )

 cart.    s(19) = (  0.0000000  0.0000000 -1.0000000 )
                  (  0.0000000 -1.0000000  0.0000000 )
                  (  1.0000000  0.0000000  0.0000000 )


      isym = 20     inv.  90 deg rotation - cart. axis [0,-1,0]  

 cryst.   s(20) = (    -1          1          0      )
                  (    -1          0          1      )
                  (    -1          0          0      )

 cart.    s(20) = (  0.0000000  0.0000000  1.0000000 )
                  (  0.0000000 -1.0000000  0.0000000 )
                  ( -1.0000000  0.0000000  0.0000000 )


      isym = 21     inv. 180 deg rotation - cart. axis [0,1,1]   

 cryst.   s(21) = (    -1          0          0      )
                  (    -1          1          0      )
                  (    -1          0          1      )

 cart.    s(21) = (  1.0000000  0.0000000  0.0000000 )
                  (  0.0000000  0.0000000 -1.0000000 )
                  (  0.0000000 -1.0000000  0.0000000 )


      isym = 22     inv. 180 deg rotation - cart. axis [0,1,-1]  

 cryst.   s(22) = (     1          0          0      )
                  (     0          0          1      )
                  (     0          1          0      )

 cart.    s(22) = (  1.0000000  0.0000000  0.0000000 )
                  (  0.0000000  0.0000000  1.0000000 )
                  (  0.0000000  1.0000000  0.0000000 )


      isym = 23     inv.  90 deg rotation - cart. axis [-1,0,0]  

 cryst.   s(23) = (     0          1         -1      )
                  (     0          0         -1      )
                  (     1          0         -1      )

 cart.    s(23) = ( -1.0000000  0.0000000  0.0000000 )
                  (  0.0000000  0.0000000 -1.0000000 )
                  (  0.0000000  1.0000000  0.0000000 )


      isym = 24     inv.  90 deg rotation - cart. axis [1,0,0]   

 cryst.   s(24) = (     0         -1          1      )
                  (     1         -1          0      )
                  (     0         -1          0      )

 cart.    s(24) = ( -1.0000000  0.0000000  0.0000000 )
                  (  0.0000000  0.0000000  1.0000000 )
                  (  0.0000000 -1.0000000  0.0000000 )


   Cartesian axes

     site n.     atom                  positions (alat units)
         1           Sn  tau(   1) = (   0.0000000   0.0000000   0.0000000  )
         2           Sn  tau(   2) = (   0.3535534   0.3535534   0.3535534  )

   Crystallographic axes

     site n.     atom                  positions (cryst. coord.)
         1           Sn  tau(   1) = (  0.0000000  0.0000000  0.0000000  )
         2           Sn  tau(   2) = (  0.2500000  0.2500000  0.2500000  )

     number of k points=   145  gaussian smearing, width (Ry)=  0.0001
                       cart. coord. in units 2pi/alat
        k(    1) = (   0.0000000   0.0000000   0.0000000), wk =   0.0002441
        k(    2) = (   0.0441942   0.0441942  -0.0441942), wk =   0.0019531
        k(    3) = (   0.0883883   0.0883883  -0.0883883), wk =   0.0019531
        k(    4) = (   0.1325825   0.1325825  -0.1325825), wk =   0.0019531
        k(    5) = (   0.1767767   0.1767767  -0.1767767), wk =   0.0019531
        k(    6) = (   0.2209709   0.2209709  -0.2209709), wk =   0.0019531
        k(    7) = (   0.2651650   0.2651650  -0.2651650), wk =   0.0019531
        k(    8) = (   0.3093592   0.3093592  -0.3093592), wk =   0.0019531
        k(    9) = (  -0.3535534  -0.3535534   0.3535534), wk =   0.0009766
        k(   10) = (   0.0883883   0.0000000   0.0000000), wk =   0.0014648
        k(   11) = (   0.1325825   0.0441942  -0.0441942), wk =   0.0058594
        k(   12) = (   0.1767767   0.0883883  -0.0883883), wk =   0.0058594
        k(   13) = (   0.2209709   0.1325825  -0.1325825), wk =   0.0058594
        k(   14) = (   0.2651650   0.1767767  -0.1767767), wk =   0.0058594
        k(   15) = (   0.3093592   0.2209709  -0.2209709), wk =   0.0058594
        k(   16) = (   0.3535534   0.2651650  -0.2651650), wk =   0.0058594
        k(   17) = (  -0.3093592  -0.3977476   0.3977476), wk =   0.0058594
        k(   18) = (  -0.2651650  -0.3535534   0.3535534), wk =   0.0058594
        k(   19) = (  -0.2209709  -0.3093592   0.3093592), wk =   0.0058594
        k(   20) = (  -0.1767767  -0.2651650   0.2651650), wk =   0.0058594
        k(   21) = (  -0.1325825  -0.2209709   0.2209709), wk =   0.0058594
        k(   22) = (  -0.0883883  -0.1767767   0.1767767), wk =   0.0058594
        k(   23) = (  -0.0441942  -0.1325825   0.1325825), wk =   0.0058594
        k(   24) = (   0.0000000  -0.0883883   0.0883883), wk =   0.0029297
        k(   25) = (   0.1767767   0.0000000   0.0000000), wk =   0.0014648
        k(   26) = (   0.2209709   0.0441942  -0.0441942), wk =   0.0058594
        k(   27) = (   0.2651650   0.0883883  -0.0883883), wk =   0.0058594
        k(   28) = (   0.3093592   0.1325825  -0.1325825), wk =   0.0058594
        k(   29) = (   0.3535534   0.1767767  -0.1767767), wk =   0.0058594
        k(   30) = (   0.3977476   0.2209709  -0.2209709), wk =   0.0058594
        k(   31) = (  -0.2651650  -0.4419417   0.4419417), wk =   0.0058594
        k(   32) = (  -0.2209709  -0.3977476   0.3977476), wk =   0.0058594
        k(   33) = (  -0.1767767  -0.3535534   0.3535534), wk =   0.0058594
        k(   34) = (  -0.1325825  -0.3093592   0.3093592), wk =   0.0058594
        k(   35) = (  -0.0883883  -0.2651650   0.2651650), wk =   0.0058594
        k(   36) = (  -0.0441942  -0.2209709   0.2209709), wk =   0.0058594
        k(   37) = (   0.0000000  -0.1767767   0.1767767), wk =   0.0029297
        k(   38) = (   0.2651650   0.0000000   0.0000000), wk =   0.0014648
        k(   39) = (   0.3093592   0.0441942  -0.0441942), wk =   0.0058594
        k(   40) = (   0.3535534   0.0883883  -0.0883883), wk =   0.0058594
        k(   41) = (   0.3977476   0.1325825  -0.1325825), wk =   0.0058594
        k(   42) = (   0.4419417   0.1767767  -0.1767767), wk =   0.0058594
        k(   43) = (  -0.2209709  -0.4861359   0.4861359), wk =   0.0058594
        k(   44) = (  -0.1767767  -0.4419417   0.4419417), wk =   0.0058594
        k(   45) = (  -0.1325825  -0.3977476   0.3977476), wk =   0.0058594
        k(   46) = (  -0.0883883  -0.3535534   0.3535534), wk =   0.0058594
        k(   47) = (  -0.0441942  -0.3093592   0.3093592), wk =   0.0058594
        k(   48) = (   0.0000000  -0.2651650   0.2651650), wk =   0.0029297
        k(   49) = (   0.3535534   0.0000000   0.0000000), wk =   0.0014648
        k(   50) = (   0.3977476   0.0441942  -0.0441942), wk =   0.0058594
        k(   51) = (   0.4419417   0.0883883  -0.0883883), wk =   0.0058594
        k(   52) = (   0.4861359   0.1325825  -0.1325825), wk =   0.0058594
        k(   53) = (  -0.1767767  -0.5303301   0.5303301), wk =   0.0058594
        k(   54) = (  -0.1325825  -0.4861359   0.4861359), wk =   0.0058594
        k(   55) = (  -0.0883883  -0.4419417   0.4419417), wk =   0.0058594
        k(   56) = (  -0.0441942  -0.3977476   0.3977476), wk =   0.0058594
        k(   57) = (   0.0000000  -0.3535534   0.3535534), wk =   0.0029297
        k(   58) = (   0.4419417   0.0000000   0.0000000), wk =   0.0014648
        k(   59) = (   0.4861359   0.0441942  -0.0441942), wk =   0.0058594
        k(   60) = (   0.5303301   0.0883883  -0.0883883), wk =   0.0058594
        k(   61) = (  -0.1325825  -0.5745243   0.5745243), wk =   0.0058594
        k(   62) = (  -0.0883883  -0.5303301   0.5303301), wk =   0.0058594
        k(   63) = (  -0.0441942  -0.4861359   0.4861359), wk =   0.0058594
        k(   64) = (   0.0000000  -0.4419417   0.4419417), wk =   0.0029297
        k(   65) = (   0.5303301   0.0000000   0.0000000), wk =   0.0014648
        k(   66) = (   0.5745243   0.0441942  -0.0441942), wk =   0.0058594
        k(   67) = (  -0.0883883  -0.6187184   0.6187184), wk =   0.0058594
        k(   68) = (  -0.0441942  -0.5745243   0.5745243), wk =   0.0058594
        k(   69) = (   0.0000000  -0.5303301   0.5303301), wk =   0.0029297
        k(   70) = (   0.6187184   0.0000000   0.0000000), wk =   0.0014648
        k(   71) = (  -0.0441942  -0.6629126   0.6629126), wk =   0.0058594
        k(   72) = (   0.0000000  -0.6187184   0.6187184), wk =   0.0029297
        k(   73) = (  -0.7071068   0.0000000   0.0000000), wk =   0.0007324
        k(   74) = (   0.1767767   0.0883883   0.0000000), wk =   0.0058594
        k(   75) = (   0.2209709   0.1325825  -0.0441942), wk =   0.0117188
        k(   76) = (   0.2651650   0.1767767  -0.0883883), wk =   0.0117188
        k(   77) = (   0.3093592   0.2209709  -0.1325825), wk =   0.0117188
        k(   78) = (   0.3535534   0.2651650  -0.1767767), wk =   0.0117188
        k(   79) = (  -0.3093592  -0.3977476   0.4861359), wk =   0.0117188
        k(   80) = (  -0.2651650  -0.3535534   0.4419417), wk =   0.0058594
        k(   81) = (   0.2651650   0.0883883   0.0000000), wk =   0.0058594
        k(   82) = (   0.3093592   0.1325825  -0.0441942), wk =   0.0117188
        k(   83) = (   0.3535534   0.1767767  -0.0883883), wk =   0.0117188
        k(   84) = (   0.3977476   0.2209709  -0.1325825), wk =   0.0117188
        k(   85) = (  -0.2651650  -0.4419417   0.5303301), wk =   0.0117188
        k(   86) = (  -0.2209709  -0.3977476   0.4861359), wk =   0.0117188
        k(   87) = (  -0.1767767  -0.3535534   0.4419417), wk =   0.0117188
        k(   88) = (  -0.1325825  -0.3093592   0.3977476), wk =   0.0117188
        k(   89) = (  -0.0883883  -0.2651650   0.3535534), wk =   0.0117188
        k(   90) = (  -0.0441942  -0.2209709   0.3093592), wk =   0.0117188
        k(   91) = (   0.0000000  -0.1767767   0.2651650), wk =   0.0058594
        k(   92) = (   0.3535534   0.0883883   0.0000000), wk =   0.0058594
        k(   93) = (   0.3977476   0.1325825  -0.0441942), wk =   0.0117188
        k(   94) = (   0.4419417   0.1767767  -0.0883883), wk =   0.0117188
        k(   95) = (  -0.2209709  -0.4861359   0.5745243), wk =   0.0117188
        k(   96) = (  -0.1767767  -0.4419417   0.5303301), wk =   0.0117188
        k(   97) = (  -0.1325825  -0.3977476   0.4861359), wk =   0.0117188
        k(   98) = (  -0.0883883  -0.3535534   0.4419417), wk =   0.0117188
        k(   99) = (  -0.0441942  -0.3093592   0.3977476), wk =   0.0117188
        k(  100) = (   0.0000000  -0.2651650   0.3535534), wk =   0.0058594
        k(  101) = (   0.4419417   0.0883883   0.0000000), wk =   0.0058594
        k(  102) = (   0.4861359   0.1325825  -0.0441942), wk =   0.0117188
        k(  103) = (  -0.1767767  -0.5303301   0.6187184), wk =   0.0117188
        k(  104) = (  -0.1325825  -0.4861359   0.5745243), wk =   0.0117188
        k(  105) = (  -0.0883883  -0.4419417   0.5303301), wk =   0.0117188
        k(  106) = (  -0.0441942  -0.3977476   0.4861359), wk =   0.0117188
        k(  107) = (   0.0000000  -0.3535534   0.4419417), wk =   0.0058594
        k(  108) = (   0.5303301   0.0883883   0.0000000), wk =   0.0058594
        k(  109) = (  -0.1325825  -0.5745243   0.6629126), wk =   0.0117188
        k(  110) = (  -0.0883883  -0.5303301   0.6187184), wk =   0.0117188
        k(  111) = (  -0.0441942  -0.4861359   0.5745243), wk =   0.0117188
        k(  112) = (   0.0000000  -0.4419417   0.5303301), wk =   0.0058594
        k(  113) = (  -0.0883883  -0.6187184   0.7071068), wk =   0.0058594
        k(  114) = (  -0.0441942  -0.5745243   0.6629126), wk =   0.0117188
        k(  115) = (  -0.0000000  -0.5303301   0.6187184), wk =   0.0058594
        k(  116) = (  -0.7071068   0.0883883   0.0000000), wk =   0.0029297
        k(  117) = (   0.3535534   0.1767767   0.0000000), wk =   0.0058594
        k(  118) = (   0.3977476   0.2209709  -0.0441942), wk =   0.0117188
        k(  119) = (  -0.2651650  -0.4419417   0.6187184), wk =   0.0117188
        k(  120) = (  -0.2209709  -0.3977476   0.5745243), wk =   0.0117188
        k(  121) = (  -0.1767767  -0.3535534   0.5303301), wk =   0.0058594
        k(  122) = (   0.4419417   0.1767767   0.0000000), wk =   0.0058594
        k(  123) = (  -0.2209709  -0.4861359   0.6629126), wk =   0.0117188
        k(  124) = (  -0.1767767  -0.4419417   0.6187184), wk =   0.0117188
        k(  125) = (  -0.1325825  -0.3977476   0.5745243), wk =   0.0117188
        k(  126) = (  -0.0883883  -0.3535534   0.5303301), wk =   0.0117188
        k(  127) = (  -0.0441942  -0.3093592   0.4861359), wk =   0.0117188
        k(  128) = (   0.0000000  -0.2651650   0.4419417), wk =   0.0058594
        k(  129) = (  -0.1767767  -0.5303301   0.7071068), wk =   0.0058594
        k(  130) = (  -0.1325825  -0.4861359   0.6629126), wk =   0.0117188
        k(  131) = (  -0.0883883  -0.4419417   0.6187184), wk =   0.0117188
        k(  132) = (  -0.0441942  -0.3977476   0.5745243), wk =   0.0117188
        k(  133) = (   0.0000000  -0.3535534   0.5303301), wk =   0.0058594
        k(  134) = (  -0.0883883  -0.5303301   0.7071068), wk =   0.0058594
        k(  135) = (  -0.0441942  -0.4861359   0.6629126), wk =   0.0117188
        k(  136) = (   0.0000000  -0.4419417   0.6187184), wk =   0.0058594
        k(  137) = (  -0.7071068   0.1767767   0.0000000), wk =   0.0029297
        k(  138) = (  -0.1767767  -0.4419417   0.7071068), wk =   0.0058594
        k(  139) = (  -0.1325825  -0.3977476   0.6629126), wk =   0.0117188
        k(  140) = (  -0.0883883  -0.3535534   0.6187184), wk =   0.0058594
        k(  141) = (  -0.0883883  -0.4419417   0.7071068), wk =   0.0058594
        k(  142) = (  -0.0441942  -0.3977476   0.6629126), wk =   0.0117188
        k(  143) = (  -0.0000000  -0.3535534   0.6187184), wk =   0.0058594
        k(  144) = (  -0.7071068   0.2651650   0.0000000), wk =   0.0029297
        k(  145) = (  -0.7071068   0.3535534   0.0000000), wk =   0.0014648

                       cryst. coord.
        k(    1) = (   0.0000000   0.0000000   0.0000000), wk =   0.0002441
        k(    2) = (   0.0000000   0.0000000   0.0625000), wk =   0.0019531
        k(    3) = (   0.0000000   0.0000000   0.1250000), wk =   0.0019531
        k(    4) = (   0.0000000   0.0000000   0.1875000), wk =   0.0019531
        k(    5) = (   0.0000000   0.0000000   0.2500000), wk =   0.0019531
        k(    6) = (   0.0000000   0.0000000   0.3125000), wk =   0.0019531
        k(    7) = (   0.0000000   0.0000000   0.3750000), wk =   0.0019531
        k(    8) = (   0.0000000   0.0000000   0.4375000), wk =   0.0019531
        k(    9) = (   0.0000000   0.0000000  -0.5000000), wk =   0.0009766
        k(   10) = (   0.0000000   0.0625000   0.0625000), wk =   0.0014648
        k(   11) = (   0.0000000   0.0625000   0.1250000), wk =   0.0058594
        k(   12) = (   0.0000000   0.0625000   0.1875000), wk =   0.0058594
        k(   13) = (   0.0000000   0.0625000   0.2500000), wk =   0.0058594
        k(   14) = (   0.0000000   0.0625000   0.3125000), wk =   0.0058594
        k(   15) = (   0.0000000   0.0625000   0.3750000), wk =   0.0058594
        k(   16) = (   0.0000000   0.0625000   0.4375000), wk =   0.0058594
        k(   17) = (   0.0000000   0.0625000  -0.5000000), wk =   0.0058594
        k(   18) = (   0.0000000   0.0625000  -0.4375000), wk =   0.0058594
        k(   19) = (   0.0000000   0.0625000  -0.3750000), wk =   0.0058594
        k(   20) = (   0.0000000   0.0625000  -0.3125000), wk =   0.0058594
        k(   21) = (   0.0000000   0.0625000  -0.2500000), wk =   0.0058594
        k(   22) = (   0.0000000   0.0625000  -0.1875000), wk =   0.0058594
        k(   23) = (   0.0000000   0.0625000  -0.1250000), wk =   0.0058594
        k(   24) = (   0.0000000   0.0625000  -0.0625000), wk =   0.0029297
        k(   25) = (   0.0000000   0.1250000   0.1250000), wk =   0.0014648
        k(   26) = (   0.0000000   0.1250000   0.1875000), wk =   0.0058594
        k(   27) = (   0.0000000   0.1250000   0.2500000), wk =   0.0058594
        k(   28) = (   0.0000000   0.1250000   0.3125000), wk =   0.0058594
        k(   29) = (   0.0000000   0.1250000   0.3750000), wk =   0.0058594
        k(   30) = (   0.0000000   0.1250000   0.4375000), wk =   0.0058594
        k(   31) = (   0.0000000   0.1250000  -0.5000000), wk =   0.0058594
        k(   32) = (   0.0000000   0.1250000  -0.4375000), wk =   0.0058594
        k(   33) = (   0.0000000   0.1250000  -0.3750000), wk =   0.0058594
        k(   34) = (   0.0000000   0.1250000  -0.3125000), wk =   0.0058594
        k(   35) = (   0.0000000   0.1250000  -0.2500000), wk =   0.0058594
        k(   36) = (   0.0000000   0.1250000  -0.1875000), wk =   0.0058594
        k(   37) = (   0.0000000   0.1250000  -0.1250000), wk =   0.0029297
        k(   38) = (   0.0000000   0.1875000   0.1875000), wk =   0.0014648
        k(   39) = (   0.0000000   0.1875000   0.2500000), wk =   0.0058594
        k(   40) = (   0.0000000   0.1875000   0.3125000), wk =   0.0058594
        k(   41) = (   0.0000000   0.1875000   0.3750000), wk =   0.0058594
        k(   42) = (   0.0000000   0.1875000   0.4375000), wk =   0.0058594
        k(   43) = (   0.0000000   0.1875000  -0.5000000), wk =   0.0058594
        k(   44) = (   0.0000000   0.1875000  -0.4375000), wk =   0.0058594
        k(   45) = (   0.0000000   0.1875000  -0.3750000), wk =   0.0058594
        k(   46) = (   0.0000000   0.1875000  -0.3125000), wk =   0.0058594
        k(   47) = (   0.0000000   0.1875000  -0.2500000), wk =   0.0058594
        k(   48) = (   0.0000000   0.1875000  -0.1875000), wk =   0.0029297
        k(   49) = (   0.0000000   0.2500000   0.2500000), wk =   0.0014648
        k(   50) = (   0.0000000   0.2500000   0.3125000), wk =   0.0058594
        k(   51) = (   0.0000000   0.2500000   0.3750000), wk =   0.0058594
        k(   52) = (   0.0000000   0.2500000   0.4375000), wk =   0.0058594
        k(   53) = (   0.0000000   0.2500000  -0.5000000), wk =   0.0058594
        k(   54) = (   0.0000000   0.2500000  -0.4375000), wk =   0.0058594
        k(   55) = (   0.0000000   0.2500000  -0.3750000), wk =   0.0058594
        k(   56) = (   0.0000000   0.2500000  -0.3125000), wk =   0.0058594
        k(   57) = (   0.0000000   0.2500000  -0.2500000), wk =   0.0029297
        k(   58) = (   0.0000000   0.3125000   0.3125000), wk =   0.0014648
        k(   59) = (   0.0000000   0.3125000   0.3750000), wk =   0.0058594
        k(   60) = (   0.0000000   0.3125000   0.4375000), wk =   0.0058594
        k(   61) = (   0.0000000   0.3125000  -0.5000000), wk =   0.0058594
        k(   62) = (   0.0000000   0.3125000  -0.4375000), wk =   0.0058594
        k(   63) = (   0.0000000   0.3125000  -0.3750000), wk =   0.0058594
        k(   64) = (   0.0000000   0.3125000  -0.3125000), wk =   0.0029297
        k(   65) = (   0.0000000   0.3750000   0.3750000), wk =   0.0014648
        k(   66) = (   0.0000000   0.3750000   0.4375000), wk =   0.0058594
        k(   67) = (   0.0000000   0.3750000  -0.5000000), wk =   0.0058594
        k(   68) = (   0.0000000   0.3750000  -0.4375000), wk =   0.0058594
        k(   69) = (   0.0000000   0.3750000  -0.3750000), wk =   0.0029297
        k(   70) = (   0.0000000   0.4375000   0.4375000), wk =   0.0014648
        k(   71) = (   0.0000000   0.4375000  -0.5000000), wk =   0.0058594
        k(   72) = (   0.0000000   0.4375000  -0.4375000), wk =   0.0029297
        k(   73) = (   0.0000000  -0.5000000  -0.5000000), wk =   0.0007324
        k(   74) = (   0.0625000   0.1250000   0.1875000), wk =   0.0058594
        k(   75) = (   0.0625000   0.1250000   0.2500000), wk =   0.0117188
        k(   76) = (   0.0625000   0.1250000   0.3125000), wk =   0.0117188
        k(   77) = (   0.0625000   0.1250000   0.3750000), wk =   0.0117188
        k(   78) = (   0.0625000   0.1250000   0.4375000), wk =   0.0117188
        k(   79) = (   0.0625000   0.1250000  -0.5000000), wk =   0.0117188
        k(   80) = (   0.0625000   0.1250000  -0.4375000), wk =   0.0058594
        k(   81) = (   0.0625000   0.1875000   0.2500000), wk =   0.0058594
        k(   82) = (   0.0625000   0.1875000   0.3125000), wk =   0.0117188
        k(   83) = (   0.0625000   0.1875000   0.3750000), wk =   0.0117188
        k(   84) = (   0.0625000   0.1875000   0.4375000), wk =   0.0117188
        k(   85) = (   0.0625000   0.1875000  -0.5000000), wk =   0.0117188
        k(   86) = (   0.0625000   0.1875000  -0.4375000), wk =   0.0117188
        k(   87) = (   0.0625000   0.1875000  -0.3750000), wk =   0.0117188
        k(   88) = (   0.0625000   0.1875000  -0.3125000), wk =   0.0117188
        k(   89) = (   0.0625000   0.1875000  -0.2500000), wk =   0.0117188
        k(   90) = (   0.0625000   0.1875000  -0.1875000), wk =   0.0117188
        k(   91) = (   0.0625000   0.1875000  -0.1250000), wk =   0.0058594
        k(   92) = (   0.0625000   0.2500000   0.3125000), wk =   0.0058594
        k(   93) = (   0.0625000   0.2500000   0.3750000), wk =   0.0117188
        k(   94) = (   0.0625000   0.2500000   0.4375000), wk =   0.0117188
        k(   95) = (   0.0625000   0.2500000  -0.5000000), wk =   0.0117188
        k(   96) = (   0.0625000   0.2500000  -0.4375000), wk =   0.0117188
        k(   97) = (   0.0625000   0.2500000  -0.3750000), wk =   0.0117188
        k(   98) = (   0.0625000   0.2500000  -0.3125000), wk =   0.0117188
        k(   99) = (   0.0625000   0.2500000  -0.2500000), wk =   0.0117188
        k(  100) = (   0.0625000   0.2500000  -0.1875000), wk =   0.0058594
        k(  101) = (   0.0625000   0.3125000   0.3750000), wk =   0.0058594
        k(  102) = (   0.0625000   0.3125000   0.4375000), wk =   0.0117188
        k(  103) = (   0.0625000   0.3125000  -0.5000000), wk =   0.0117188
        k(  104) = (   0.0625000   0.3125000  -0.4375000), wk =   0.0117188
        k(  105) = (   0.0625000   0.3125000  -0.3750000), wk =   0.0117188
        k(  106) = (   0.0625000   0.3125000  -0.3125000), wk =   0.0117188
        k(  107) = (   0.0625000   0.3125000  -0.2500000), wk =   0.0058594
        k(  108) = (   0.0625000   0.3750000   0.4375000), wk =   0.0058594
        k(  109) = (   0.0625000   0.3750000  -0.5000000), wk =   0.0117188
        k(  110) = (   0.0625000   0.3750000  -0.4375000), wk =   0.0117188
        k(  111) = (   0.0625000   0.3750000  -0.3750000), wk =   0.0117188
        k(  112) = (   0.0625000   0.3750000  -0.3125000), wk =   0.0058594
        k(  113) = (   0.0625000   0.4375000  -0.5000000), wk =   0.0058594
        k(  114) = (   0.0625000   0.4375000  -0.4375000), wk =   0.0117188
        k(  115) = (   0.0625000   0.4375000  -0.3750000), wk =   0.0058594
        k(  116) = (   0.0625000  -0.5000000  -0.4375000), wk =   0.0029297
        k(  117) = (   0.1250000   0.2500000   0.3750000), wk =   0.0058594
        k(  118) = (   0.1250000   0.2500000   0.4375000), wk =   0.0117188
        k(  119) = (   0.1250000   0.2500000  -0.5000000), wk =   0.0117188
        k(  120) = (   0.1250000   0.2500000  -0.4375000), wk =   0.0117188
        k(  121) = (   0.1250000   0.2500000  -0.3750000), wk =   0.0058594
        k(  122) = (   0.1250000   0.3125000   0.4375000), wk =   0.0058594
        k(  123) = (   0.1250000   0.3125000  -0.5000000), wk =   0.0117188
        k(  124) = (   0.1250000   0.3125000  -0.4375000), wk =   0.0117188
        k(  125) = (   0.1250000   0.3125000  -0.3750000), wk =   0.0117188
        k(  126) = (   0.1250000   0.3125000  -0.3125000), wk =   0.0117188
        k(  127) = (   0.1250000   0.3125000  -0.2500000), wk =   0.0117188
        k(  128) = (   0.1250000   0.3125000  -0.1875000), wk =   0.0058594
        k(  129) = (   0.1250000   0.3750000  -0.5000000), wk =   0.0058594
        k(  130) = (   0.1250000   0.3750000  -0.4375000), wk =   0.0117188
        k(  131) = (   0.1250000   0.3750000  -0.3750000), wk =   0.0117188
        k(  132) = (   0.1250000   0.3750000  -0.3125000), wk =   0.0117188
        k(  133) = (   0.1250000   0.3750000  -0.2500000), wk =   0.0058594
        k(  134) = (   0.1250000   0.4375000  -0.4375000), wk =   0.0058594
        k(  135) = (   0.1250000   0.4375000  -0.3750000), wk =   0.0117188
        k(  136) = (   0.1250000   0.4375000  -0.3125000), wk =   0.0058594
        k(  137) = (   0.1250000  -0.5000000  -0.3750000), wk =   0.0029297
        k(  138) = (   0.1875000   0.3750000  -0.4375000), wk =   0.0058594
        k(  139) = (   0.1875000   0.3750000  -0.3750000), wk =   0.0117188
        k(  140) = (   0.1875000   0.3750000  -0.3125000), wk =   0.0058594
        k(  141) = (   0.1875000   0.4375000  -0.3750000), wk =   0.0058594
        k(  142) = (   0.1875000   0.4375000  -0.3125000), wk =   0.0117188
        k(  143) = (   0.1875000   0.4375000  -0.2500000), wk =   0.0058594
        k(  144) = (   0.1875000  -0.5000000  -0.3125000), wk =   0.0029297
        k(  145) = (   0.2500000  -0.5000000  -0.2500000), wk =   0.0014648

     Dense  grid:    35557 G-vectors     FFT dimensions: (  45,  45,  45)

     Largest allocated arrays     est. size (Mb)     dimensions
        Kohn-Sham Wavefunctions         0.31 Mb     (     570,   36)
        NL pseudopotentials             0.16 Mb     (     285,   36)
        Each V/rho on FFT grid          0.09 Mb     (    6075)
        Each G-vector array             0.02 Mb     (    2224)
        G-vector shells                 0.00 Mb     (     334)
     Largest temporary arrays     est. size (Mb)     dimensions
        Auxiliary wavefunctions         1.25 Mb     (     570,  144)
        Each subspace H/S matrix        0.32 Mb     (     144,  144)
        Each <psi_i|beta_j> matrix      0.04 Mb     (      36,   2,   36)
        Arrays for rho mixing           0.74 Mb     (    6075,    8)

     Check: negative/imaginary core charge=   -0.000003    0.000000

     Initial potential from superposition of free atoms

     starting charge   27.99749, renormalised to   28.00000
     Starting wfc are   36 randomized atomic wfcs
     Checking if some PAW data can be deallocated... 

     total cpu time spent up to now is        4.9 secs

     Self-consistent Calculation

     iteration #  1     ecut=    65.00 Ry     beta=0.70
     Davidson diagonalization with overlap
     ethr =  1.00E-02,  avg # of iterations =  3.5

     Threshold (ethr) on eigenvalues was too large:
     Diagonalizing with lowered threshold

     Davidson diagonalization with overlap
     ethr =  6.40E-05,  avg # of iterations =  3.3

     total cpu time spent up to now is       34.8 secs

     total energy              =    -873.10087431 Ry
     Harris-Foulkes estimate   =    -873.10644685 Ry
     estimated scf accuracy    <       0.02145077 Ry

     iteration #  2     ecut=    65.00 Ry     beta=0.70
     Davidson diagonalization with overlap
     ethr =  7.66E-05,  avg # of iterations =  1.0

     total cpu time spent up to now is       46.2 secs

     total energy              =    -873.10174510 Ry
     Harris-Foulkes estimate   =    -873.10201001 Ry
     estimated scf accuracy    <       0.00136458 Ry

     iteration #  3     ecut=    65.00 Ry     beta=0.70
     Davidson diagonalization with overlap
     ethr =  4.87E-06,  avg # of iterations =  2.7

     total cpu time spent up to now is       62.7 secs

     total energy              =    -873.10202190 Ry
     Harris-Foulkes estimate   =    -873.10206453 Ry
     estimated scf accuracy    <       0.00007216 Ry

     iteration #  4     ecut=    65.00 Ry     beta=0.70
     Davidson diagonalization with overlap
     ethr =  2.58E-07,  avg # of iterations =  2.1

     total cpu time spent up to now is       78.0 secs

     total energy              =    -873.10204411 Ry
     Harris-Foulkes estimate   =    -873.10204378 Ry
     estimated scf accuracy    <       0.00000410 Ry

     iteration #  5     ecut=    65.00 Ry     beta=0.70
     Davidson diagonalization with overlap
     ethr =  1.47E-08,  avg # of iterations =  2.0

     total cpu time spent up to now is       90.9 secs

     End of self-consistent calculation

          k = 0.0000 0.0000 0.0000 (  4477 PWs)   bands (ev):

   -14.7448 -14.7448 -14.7448 -14.7448 -14.7448 -14.7448 -14.6966 -14.6966
   -14.6966 -14.6966 -14.4467 -14.4467 -14.4467 -14.4467 -14.4467 -14.4467
   -14.4452 -14.4452 -14.4452 -14.4452  -3.3606  -3.3606   5.4979   5.4979
     6.8336   6.8336   6.8336   6.8336   6.8336   6.8336   8.8858   8.8858
     8.8858   8.8858   8.8858   8.8858

     occupation numbers 
     1.0000   1.0000   1.0000   1.0000   1.0000   1.0000   1.0000   1.0000
     1.0000   1.0000   1.0000   1.0000   1.0000   1.0000   1.0000   1.0000
     1.0000   1.0000   1.0000   1.0000   1.0000   1.0000   1.0000   1.0000
     0.0000   0.0000   0.0000   0.0000   0.0000   0.0000   0.0000   0.0000
     0.0000   0.0000   0.0000   0.0000

          k = 0.0442 0.0442-0.0442 (  4453 PWs)   bands (ev):

   -14.7475 -14.7475 -14.7475 -14.7475 -14.7441 -14.7441 -14.6926 -14.6926
   -14.6926 -14.6926 -14.4566 -14.4566 -14.4566 -14.4566 -14.4472 -14.4472
   -14.4358 -14.4358 -14.4358 -14.4358  -3.3258  -3.3258   5.1152   5.1152
     6.7607   6.7607   6.7607   6.7607   7.0016   7.0016   8.9810   8.9810
     8.9810   8.9810   9.0085   9.0085

     occupation numbers 
     1.0000   1.0000   1.0000   1.0000   1.0000   1.0000   1.0000   1.0000
     1.0000   1.0000   1.0000   1.0000   1.0000   1.0000   1.0000   1.0000
     1.0000   1.0000   1.0000   1.0000   1.0000   1.0000   1.0000   1.0000
     0.0007   0.0007   0.0007   0.0007   0.0000   0.0000   0.0000   0.0000
     0.0000   0.0000   0.0000   0.0000

          k = 0.0884 0.0884-0.0884 (  4456 PWs)   bands (ev):

   -14.7534 -14.7534 -14.7534 -14.7534 -14.7419 -14.7419 -14.6841 -14.6841
   -14.6841 -14.6841 -14.4673 -14.4673 -14.4673 -14.4673 -14.4503 -14.4503
   -14.4267 -14.4267 -14.4267 -14.4267  -3.2222  -3.2222   4.3645   4.3645
     6.5827   6.5827   6.5827   6.5827   7.1167   7.1167   9.2154   9.2154
     9.2154   9.2154   9.4278   9.4278

     occupation numbers 
     1.0000   1.0000   1.0000   1.0000   1.0000   1.0000   1.0000   1.0000
     1.0000   1.0000   1.0000   1.0000   1.0000   1.0000   1.0000   1.0000
     1.0000   1.0000   1.0000   1.0000   1.0000   1.0000   1.0000   1.0000
     1.0000   1.0000   1.0000   1.0000   0.0000   0.0000   0.0000   0.0000
     0.0000   0.0000   0.0000   0.0000

          k = 0.1326 0.1326-0.1326 (  4444 PWs)   bands (ev):

   -14.7599 -14.7599 -14.7599 -14.7599 -14.7383 -14.7383 -14.6740 -14.6740
   -14.6740 -14.6740 -14.4770 -14.4770 -14.4770 -14.4770 -14.4545 -14.4545
   -14.4189 -14.4189 -14.4189 -14.4189  -3.0527  -3.0527   3.5394   3.5394
     6.3675   6.3675   6.3675   6.3675   7.0431   7.0431   9.4904   9.4904
     9.4904   9.4904  10.0959  10.0959

     occupation numbers 
     1.0000   1.0000   1.0000   1.0000   1.0000   1.0000   1.0000   1.0000
     1.0000   1.0000   1.0000   1.0000   1.0000   1.0000   1.0000   1.0000
     1.0000   1.0000   1.0000   1.0000   1.0000   1.0000   1.0000   1.0000
     1.0000   1.0000   1.0000   1.0000   0.0000   0.0000   0.0000   0.0000
     0.0000   0.0000   0.0000   0.0000

          k = 0.1768 0.1768-0.1768 (  4432 PWs)   bands (ev):

   -14.7653 -14.7653 -14.7653 -14.7653 -14.7336 -14.7336 -14.6645 -14.6645
   -14.6645 -14.6645 -14.4854 -14.4854 -14.4854 -14.4854 -14.4595 -14.4595
   -14.4129 -14.4129 -14.4129 -14.4129  -2.8236  -2.8236   2.7298   2.7298
     6.1606   6.1606   6.1606   6.1606   6.8965   6.8965   9.7192   9.7192
     9.7192   9.7192  10.8958  10.8958

     occupation numbers 
     1.0000   1.0000   1.0000   1.0000   1.0000   1.0000   1.0000   1.0000
     1.0000   1.0000   1.0000   1.0000   1.0000   1.0000   1.0000   1.0000
     1.0000   1.0000   1.0000   1.0000   1.0000   1.0000   1.0000   1.0000
     1.0000   1.0000   1.0000   1.0000   0.0000   0.0000   0.0000   0.0000
     0.0000   0.0000   0.0000   0.0000

          k = 0.2210 0.2210-0.2210 (  4438 PWs)   bands (ev):

   -14.7694 -14.7694 -14.7694 -14.7694 -14.7291 -14.7291 -14.6568 -14.6568
   -14.6568 -14.6568 -14.4920 -14.4920 -14.4920 -14.4920 -14.4651 -14.4651
   -14.4083 -14.4083 -14.4083 -14.4083  -2.5481  -2.5481   1.9824   1.9824
     5.9857   5.9857   5.9857   5.9857   6.7503   6.7503   9.8561   9.8561
     9.8561   9.8561  11.7552  11.7552

     occupation numbers 
     1.0000   1.0000   1.0000   1.0000   1.0000   1.0000   1.0000   1.0000
     1.0000   1.0000   1.0000   1.0000   1.0000   1.0000   1.0000   1.0000
     1.0000   1.0000   1.0000   1.0000   1.0000   1.0000   1.0000   1.0000
     1.0000   1.0000   1.0000   1.0000   1.0000   1.0000   0.0000   0.0000
     0.0000   0.0000   0.0000   0.0000

          k = 0.2652 0.2652-0.2652 (  4437 PWs)   bands (ev):

   -14.7722 -14.7722 -14.7722 -14.7722 -14.7252 -14.7252 -14.6515 -14.6515
   -14.6515 -14.6515 -14.4965 -14.4965 -14.4965 -14.4965 -14.4694 -14.4694
   -14.4052 -14.4052 -14.4052 -14.4052  -2.2541  -2.2541   1.3423   1.3423
     5.8550   5.8550   5.8550   5.8550   6.6351   6.6351   9.9103   9.9103
     9.9103   9.9103  12.3867  12.3867

     occupation numbers 
     1.0000   1.0000   1.0000   1.0000   1.0000   1.0000   1.0000   1.0000
     1.0000   1.0000   1.0000   1.0000   1.0000   1.0000   1.0000   1.0000
     1.0000   1.0000   1.0000   1.0000   1.0000   1.0000   1.0000   1.0000
     1.0000   1.0000   1.0000   1.0000   1.0000   1.0000   0.0000   0.0000
     0.0000   0.0000   0.0000   0.0000

          k = 0.3094 0.3094-0.3094 (  4431 PWs)   bands (ev):

   -14.7734 -14.7734 -14.7734 -14.7734 -14.7226 -14.7226 -14.6485 -14.6485
   -14.6485 -14.6485 -14.4987 -14.4987 -14.4987 -14.4987 -14.4725 -14.4725
   -14.4036 -14.4036 -14.4036 -14.4036  -2.0019  -2.0019   0.8791   0.8791
     5.7746   5.7746   5.7746   5.7746   6.5628   6.5628   9.9208   9.9208
     9.9208   9.9208  12.3816  12.3816

     occupation numbers 
     1.0000   1.0000   1.0000   1.0000   1.0000   1.0000   1.0000   1.0000
     1.0000   1.0000   1.0000   1.0000   1.0000   1.0000   1.0000   1.0000
     1.0000   1.0000   1.0000   1.0000   1.0000   1.0000   1.0000   1.0000
     1.0000   1.0000   1.0000   1.0000   1.0000   1.0000   0.0000   0.0000
     0.0000   0.0000   0.0000   0.0000

          k =-0.3536-0.3536 0.3536 (  4446 PWs)   bands (ev):

   -14.7741 -14.7741 -14.7741 -14.7741 -14.7216 -14.7216 -14.6475 -14.6475
   -14.6475 -14.6475 -14.4997 -14.4997 -14.4997 -14.4997 -14.4736 -14.4736
   -14.4031 -14.4031 -14.4031 -14.4031  -1.8952  -1.8952   0.7016   0.7016
     5.7475   5.7475   5.7475   5.7475   6.5383   6.5383   9.9204   9.9204
     9.9204   9.9204  12.3529  12.3529

     occupation numbers 
     1.0000   1.0000   1.0000   1.0000   1.0000   1.0000   1.0000   1.0000
     1.0000   1.0000   1.0000   1.0000   1.0000   1.0000   1.0000   1.0000
     1.0000   1.0000   1.0000   1.0000   1.0000   1.0000   1.0000   1.0000
     1.0000   1.0000   1.0000   1.0000   1.0000   1.0000   0.0000   0.0000
     0.0000   0.0000   0.0000   0.0000

          k = 0.0884 0.0000 0.0000 (  4453 PWs)   bands (ev):

   -14.7471 -14.7471 -14.7468 -14.7468 -14.7468 -14.7468 -14.6939 -14.6939
   -14.6890 -14.6890 -14.4660 -14.4660 -14.4476 -14.4476 -14.4436 -14.4436
   -14.4436 -14.4436 -14.4317 -14.4317  -3.3141  -3.3141   5.0361   5.0361
     6.6270   6.6270   6.6270   6.6270   7.2762   7.2762   8.7315   8.7315
     9.1515   9.1515   9.1515   9.1515

     occupation numbers 
     1.0000   1.0000   1.0000   1.0000   1.0000   1.0000   1.0000   1.0000
     1.0000   1.0000   1.0000   1.0000   1.0000   1.0000   1.0000   1.0000
     1.0000   1.0000   1.0000   1.0000   1.0000   1.0000   1.0000   1.0000
     1.0000   1.0000   1.0000   1.0000   0.0000   0.0000   0.0000   0.0000
     0.0000   0.0000   0.0000   0.0000

          k = 0.1326 0.0442-0.0442 (  4445 PWs)   bands (ev):

   -14.7532 -14.7532 -14.7507 -14.7507 -14.7447 -14.7447 -14.6883 -14.6883
   -14.6802 -14.6802 -14.4773 -14.4773 -14.4569 -14.4569 -14.4438 -14.4438
   -14.4348 -14.4348 -14.4246 -14.4246  -3.2332  -3.2332   4.4796   4.4796
     6.4181   6.4181   6.4471   6.4471   7.5219   7.5219   8.7251   8.7251
     9.4349   9.4349   9.5035   9.5035

     occupation numbers 
     1.0000   1.0000   1.0000   1.0000   1.0000   1.0000   1.0000   1.0000
     1.0000   1.0000   1.0000   1.0000   1.0000   1.0000   1.0000   1.0000
     1.0000   1.0000   1.0000   1.0000   1.0000   1.0000   1.0000   1.0000
     1.0000   1.0000   1.0000   1.0000   0.0000   0.0000   0.0000   0.0000
     0.0000   0.0000   0.0000   0.0000

          k = 0.1768 0.0884-0.0884 (  4446 PWs)   bands (ev):

   -14.7605 -14.7605 -14.7565 -14.7565 -14.7407 -14.7407 -14.6796 -14.6796
   -14.6697 -14.6697 -14.4880 -14.4880 -14.4672 -14.4672 -14.4480 -14.4480
   -14.4261 -14.4261 -14.4167 -14.4167  -3.0853  -3.0853   3.7312   3.7312
     6.1953   6.1953   6.2254   6.2254   7.5336   7.5336   8.9533   8.9533
     9.7402   9.7402  10.0422  10.0422

     occupation numbers 
     1.0000   1.0000   1.0000   1.0000   1.0000   1.0000   1.0000   1.0000
     1.0000   1.0000   1.0000   1.0000   1.0000   1.0000   1.0000   1.0000
     1.0000   1.0000   1.0000   1.0000   1.0000   1.0000   1.0000   1.0000
     1.0000   1.0000   1.0000   1.0000   0.0000   0.0000   0.0000   0.0000
     0.0000   0.0000   0.0000   0.0000

          k = 0.2210 0.1326-0.1326 (  4437 PWs)   bands (ev):

   -14.7670 -14.7670 -14.7622 -14.7622 -14.7351 -14.7351 -14.6702 -14.6702
   -14.6594 -14.6594 -14.4971 -14.4971 -14.4766 -14.4766 -14.4540 -14.4540
   -14.4186 -14.4186 -14.4099 -14.4099  -2.8751  -2.8751   2.9456   2.9456
     5.9817   5.9817   5.9948   5.9948   7.4133   7.4133   9.2694   9.2694
     9.9862   9.9862  10.6721  10.6721

     occupation numbers 
     1.0000   1.0000   1.0000   1.0000   1.0000   1.0000   1.0000   1.0000
     1.0000   1.0000   1.0000   1.0000   1.0000   1.0000   1.0000   1.0000
     1.0000   1.0000   1.0000   1.0000   1.0000   1.0000   1.0000   1.0000
     1.0000   1.0000   1.0000   1.0000   0.0000   0.0000   0.0000   0.0000
     0.0000   0.0000   0.0000   0.0000

          k = 0.2652 0.1768-0.1768 (  4437 PWs)   bands (ev):

   -14.7723 -14.7723 -14.7670 -14.7670 -14.7290 -14.7290 -14.6616 -14.6616
   -14.6514 -14.6514 -14.5034 -14.5034 -14.4847 -14.4847 -14.4614 -14.4614
   -14.4125 -14.4125 -14.4044 -14.4044  -2.6130  -2.6130   2.1929   2.1929
     5.7546   5.7546   5.8356   5.8356   7.2641   7.2641   9.5308   9.5308
    10.1218  10.1218  11.3397  11.3397

     occupation numbers 
     1.0000   1.0000   1.0000   1.0000   1.0000   1.0000   1.0000   1.0000
     1.0000   1.0000   1.0000   1.0000   1.0000   1.0000   1.0000   1.0000
     1.0000   1.0000   1.0000   1.0000   1.0000   1.0000   1.0000   1.0000
     1.0000   1.0000   1.0000   1.0000   0.0000   0.0000   0.0000   0.0000
     0.0000   0.0000   0.0000   0.0000

          k = 0.3094 0.2210-0.2210 (  4431 PWs)   bands (ev):

   -14.7759 -14.7759 -14.7705 -14.7705 -14.7232 -14.7232 -14.6544 -14.6544
   -14.6461 -14.6461 -14.5066 -14.5066 -14.4916 -14.4916 -14.4684 -14.4684
   -14.4079 -14.4079 -14.4006 -14.4006  -2.3203  -2.3203   1.5226   1.5226
     5.5654   5.5654   5.7274   5.7274   7.1319   7.1319   9.6876   9.6876
    10.1506  10.1506  12.0003  12.0003

     occupation numbers 
     1.0000   1.0000   1.0000   1.0000   1.0000   1.0000   1.0000   1.0000
     1.0000   1.0000   1.0000   1.0000   1.0000   1.0000   1.0000   1.0000
     1.0000   1.0000   1.0000   1.0000   1.0000   1.0000   1.0000   1.0000
     1.0000   1.0000   1.0000   1.0000   0.0000   0.0000   0.0000   0.0000
     0.0000   0.0000   0.0000   0.0000

          k = 0.3536 0.2652-0.2652 (  4435 PWs)   bands (ev):

   -14.7781 -14.7781 -14.7731 -14.7731 -14.7188 -14.7188 -14.6490 -14.6490
   -14.6440 -14.6440 -14.5063 -14.5063 -14.4970 -14.4970 -14.4744 -14.4744
   -14.4045 -14.4045 -14.3986 -14.3986  -2.0439  -2.0439   0.9961   0.9961
     5.4246   5.4246   5.6747   5.6747   7.0357   7.0357   9.7716   9.7716
    10.1152  10.1152  12.4050  12.4050

     occupation numbers 
     1.0000   1.0000   1.0000   1.0000   1.0000   1.0000   1.0000   1.0000
     1.0000   1.0000   1.0000   1.0000   1.0000   1.0000   1.0000   1.0000
     1.0000   1.0000   1.0000   1.0000   1.0000   1.0000   1.0000   1.0000
     1.0000   1.0000   1.0000   1.0000   0.0000   0.0000   0.0000   0.0000
     0.0000   0.0000   0.0000   0.0000

          k =-0.3094-0.3977 0.3977 (  4433 PWs)   bands (ev):

   -14.7785 -14.7785 -14.7747 -14.7747 -14.7163 -14.7163 -14.6455 -14.6455
   -14.6447 -14.6447 -14.5035 -14.5035 -14.5012 -14.5012 -14.4782 -14.4782
   -14.4023 -14.4023 -14.3983 -14.3983  -1.8755  -1.8755   0.7128   0.7128
     5.3379   5.3379   5.6787   5.6787   6.9837   6.9837   9.8306   9.8306
    10.0566  10.0566  12.4818  12.4818

     occupation numbers 
     1.0000   1.0000   1.0000   1.0000   1.0000   1.0000   1.0000   1.0000
     1.0000   1.0000   1.0000   1.0000   1.0000   1.0000   1.0000   1.0000
     1.0000   1.0000   1.0000   1.0000   1.0000   1.0000   1.0000   1.0000
     1.0000   1.0000   1.0000   1.0000   0.0000   0.0000   0.0000   0.0000
     0.0000   0.0000   0.0000   0.0000

          k =-0.2652-0.3536 0.3536 (  4428 PWs)   bands (ev):

   -14.7776 -14.7776 -14.7753 -14.7753 -14.7164 -14.7164 -14.6472 -14.6472
   -14.6436 -14.6436 -14.5039 -14.5039 -14.4996 -14.4996 -14.4787 -14.4787
   -14.4010 -14.4010 -14.3997 -14.3997  -1.9126  -1.9126   0.7732   0.7732
     5.3089   5.3089   5.7385   5.7385   6.9789   6.9789   9.8902   9.8902
     9.9945   9.9945  12.4960  12.4960

     occupation numbers 
     1.0000   1.0000   1.0000   1.0000   1.0000   1.0000   1.0000   1.0000
     1.0000   1.0000   1.0000   1.0000   1.0000   1.0000   1.0000   1.0000
     1.0000   1.0000   1.0000   1.0000   1.0000   1.0000   1.0000   1.0000
     1.0000   1.0000   1.0000   1.0000   0.0000   0.0000   0.0000   0.0000
     0.0000   0.0000   0.0000   0.0000

          k =-0.2210-0.3094 0.3094 (  4440 PWs)   bands (ev):

   -14.7755 -14.7755 -14.7750 -14.7750 -14.7191 -14.7191 -14.6514 -14.6514
   -14.6443 -14.6443 -14.5047 -14.5047 -14.4956 -14.4956 -14.4751 -14.4751
   -14.4027 -14.4027 -14.4012 -14.4012  -2.1301  -2.1301   1.1515   1.1515
     5.3399   5.3399   5.8510   5.8510   7.0210   7.0210   9.9254   9.9254
     9.9474   9.9474  12.4061  12.4061

     occupation numbers 
     1.0000   1.0000   1.0000   1.0000   1.0000   1.0000   1.0000   1.0000
     1.0000   1.0000   1.0000   1.0000   1.0000   1.0000   1.0000   1.0000
     1.0000   1.0000   1.0000   1.0000   1.0000   1.0000   1.0000   1.0000
     1.0000   1.0000   1.0000   1.0000   0.0000   0.0000   0.0000   0.0000
     0.0000   0.0000   0.0000   0.0000

          k =-0.1768-0.2652 0.2652 (  4446 PWs)   bands (ev):

   -14.7733 -14.7733 -14.7720 -14.7720 -14.7237 -14.7237 -14.6571 -14.6571
   -14.6480 -14.6480 -14.5025 -14.5025 -14.4912 -14.4912 -14.4685 -14.4685
   -14.4073 -14.4073 -14.4029 -14.4029  -2.4197  -2.4197   1.7347   1.7347
     5.4323   5.4323   6.0103   6.0103   7.1054   7.1054   9.8245   9.8245
     9.9675   9.9675  11.8579  11.8580

     occupation numbers 
     1.0000   1.0000   1.0000   1.0000   1.0000   1.0000   1.0000   1.0000
     1.0000   1.0000   1.0000   1.0000   1.0000   1.0000   1.0000   1.0000
     1.0000   1.0000   1.0000   1.0000   1.0000   1.0000   1.0000   1.0000
     1.0000   1.0000   1.0000   1.0000   0.0000   0.0000   0.0000   0.0000
     0.0000   0.0000   0.0000   0.0000

          k =-0.1326-0.2210 0.2210 (  4439 PWs)   bands (ev):

   -14.7700 -14.7700 -14.7671 -14.7671 -14.7296 -14.7296 -14.6643 -14.6643
   -14.6547 -14.6547 -14.4972 -14.4972 -14.4858 -14.4858 -14.4603 -14.4603
   -14.4134 -14.4134 -14.4062 -14.4062  -2.7057  -2.7057   2.4371   2.4371
     5.5869   5.5869   6.2066   6.2066   7.2207   7.2207   9.6597   9.6597
     9.8807   9.8807  11.1363  11.1363

     occupation numbers 
     1.0000   1.0000   1.0000   1.0000   1.0000   1.0000   1.0000   1.0000
     1.0000   1.0000   1.0000   1.0000   1.0000   1.0000   1.0000   1.0000
     1.0000   1.0000   1.0000   1.0000   1.0000   1.0000   1.0000   1.0000
     1.0000   1.0000   1.0000   1.0000   0.0000   0.0000   0.0000   0.0000
     0.0000   0.0000   0.0000   0.0000

          k =-0.0884-0.1768 0.1768 (  4436 PWs)   bands (ev):

   -14.7651 -14.7651 -14.7610 -14.7610 -14.7356 -14.7356 -14.6728 -14.6728
   -14.6642 -14.6642 -14.4891 -14.4891 -14.4786 -14.4786 -14.4521 -14.4521
   -14.4211 -14.4211 -14.4112 -14.4112  -2.9520  -2.9520   3.2034   3.2034
     5.8036   5.8036   6.4224   6.4224   7.3381   7.3381   9.4256   9.4256
     9.6207   9.6207  10.4976  10.4976

     occupation numbers 
     1.0000   1.0000   1.0000   1.0000   1.0000   1.0000   1.0000   1.0000
     1.0000   1.0000   1.0000   1.0000   1.0000   1.0000   1.0000   1.0000
     1.0000   1.0000   1.0000   1.0000   1.0000   1.0000   1.0000   1.0000
     1.0000   1.0000   1.0000   1.0000   0.0000   0.0000   0.0000   0.0000
     0.0000   0.0000   0.0000   0.0000

          k =-0.0442-0.1326 0.1326 (  4445 PWs)   bands (ev):

   -14.7589 -14.7589 -14.7544 -14.7544 -14.7409 -14.7409 -14.6818 -14.6818
   -14.6750 -14.6750 -14.4791 -14.4791 -14.4700 -14.4700 -14.4452 -14.4452
   -14.4303 -14.4303 -14.4180 -14.4180  -3.1421  -3.1421   3.9794   3.9794
     6.0820   6.0820   6.6250   6.6250   7.3880   7.3880   9.1721   9.1721
     9.2600   9.2600   9.9431   9.9431

     occupation numbers 
     1.0000   1.0000   1.0000   1.0000   1.0000   1.0000   1.0000   1.0000
     1.0000   1.0000   1.0000   1.0000   1.0000   1.0000   1.0000   1.0000
     1.0000   1.0000   1.0000   1.0000   1.0000   1.0000   1.0000   1.0000
     1.0000   1.0000   1.0000   1.0000   0.0000   0.0000   0.0000   0.0000
     0.0000   0.0000   0.0000   0.0000

          k = 0.0000-0.0884 0.0884 (  4451 PWs)   bands (ev):

   -14.7524 -14.7524 -14.7487 -14.7487 -14.7441 -14.7441 -14.6896 -14.6896
   -14.6853 -14.6853 -14.4680 -14.4680 -14.4609 -14.4609 -14.4412 -14.4412
   -14.4388 -14.4388 -14.4264 -14.4264  -3.2680  -3.2680   4.6765   4.6765
     6.4206   6.4206   6.7586   6.7586   7.2554   7.2554   8.9931   8.9931
     9.0178   9.0178   9.4278   9.4278

     occupation numbers 
     1.0000   1.0000   1.0000   1.0000   1.0000   1.0000   1.0000   1.0000
     1.0000   1.0000   1.0000   1.0000   1.0000   1.0000   1.0000   1.0000
     1.0000   1.0000   1.0000   1.0000   1.0000   1.0000   1.0000   1.0000
     1.0000   1.0000   0.1658   0.1658   0.0000   0.0000   0.0000   0.0000
     0.0000   0.0000   0.0000   0.0000

          k = 0.1768 0.0000 0.0000 (  4464 PWs)   bands (ev):

   -14.7522 -14.7522 -14.7522 -14.7522 -14.7503 -14.7503 -14.6866 -14.6866
   -14.6715 -14.6715 -14.4907 -14.4907 -14.4547 -14.4547 -14.4366 -14.4366
   -14.4366 -14.4366 -14.4236 -14.4236  -3.1750  -3.1750   4.2313   4.2313
     6.1946   6.1946   6.1946   6.1946   7.9885   7.9885   8.3958   8.3958
     9.7592   9.7592   9.7592   9.7592

     occupation numbers 
     1.0000   1.0000   1.0000   1.0000   1.0000   1.0000   1.0000   1.0000
     1.0000   1.0000   1.0000   1.0000   1.0000   1.0000   1.0000   1.0000
     1.0000   1.0000   1.0000   1.0000   1.0000   1.0000   1.0000   1.0000
     1.0000   1.0000   1.0000   1.0000   0.0000   0.0000   0.0000   0.0000
     0.0000   0.0000   0.0000   0.0000

          k = 0.2210 0.0442-0.0442 (  4454 PWs)   bands (ev):

   -14.7597 -14.7597 -14.7565 -14.7565 -14.7462 -14.7462 -14.6795 -14.6795
   -14.6602 -14.6602 -14.5036 -14.5036 -14.4626 -14.4626 -14.4371 -14.4371
   -14.4295 -14.4295 -14.4180 -14.4180  -3.0490  -3.0490   3.6917   3.6917
     5.9479   5.9479   5.9667   5.9667   8.1661   8.1661   8.3900   8.3900
    10.1053  10.1053  10.1815  10.1815

     occupation numbers 
     1.0000   1.0000   1.0000   1.0000   1.0000   1.0000   1.0000   1.0000
     1.0000   1.0000   1.0000   1.0000   1.0000   1.0000   1.0000   1.0000
     1.0000   1.0000   1.0000   1.0000   1.0000   1.0000   1.0000   1.0000
     1.0000   1.0000   1.0000   1.0000   0.0000   0.0000   0.0000   0.0000
     0.0000   0.0000   0.0000   0.0000

          k = 0.2652 0.0884-0.0884 (  4444 PWs)   bands (ev):

   -14.7680 -14.7680 -14.7618 -14.7618 -14.7389 -14.7389 -14.6705 -14.6705
   -14.6489 -14.6489 -14.5147 -14.5147 -14.4724 -14.4724 -14.4440 -14.4440
   -14.4214 -14.4214 -14.4095 -14.4095  -2.8587  -2.8587   3.0185   3.0185
     5.6622   5.6622   5.7671   5.7671   8.0875   8.0875   8.6887   8.6887
    10.3932  10.3932  10.5995  10.5995

     occupation numbers 
     1.0000   1.0000   1.0000   1.0000   1.0000   1.0000   1.0000   1.0000
     1.0000   1.0000   1.0000   1.0000   1.0000   1.0000   1.0000   1.0000
     1.0000   1.0000   1.0000   1.0000   1.0000   1.0000   1.0000   1.0000
     1.0000   1.0000   1.0000   1.0000   0.0000   0.0000   0.0000   0.0000
     0.0000   0.0000   0.0000   0.0000

          k = 0.3094 0.1326-0.1326 (  4431 PWs)   bands (ev):

   -14.7751 -14.7751 -14.7666 -14.7666 -14.7301 -14.7301 -14.6613 -14.6613
   -14.6399 -14.6399 -14.5226 -14.5226 -14.4819 -14.4819 -14.4538 -14.4538
   -14.4142 -14.4142 -14.4017 -14.4017  -2.6122  -2.6122   2.3182   2.3182
     5.3749   5.3749   5.6136   5.6136   7.9435   7.9435   9.0764   9.0764
    10.5598  10.5598  10.9032  10.9032

     occupation numbers 
     1.0000   1.0000   1.0000   1.0000   1.0000   1.0000   1.0000   1.0000
     1.0000   1.0000   1.0000   1.0000   1.0000   1.0000   1.0000   1.0000
     1.0000   1.0000   1.0000   1.0000   1.0000   1.0000   1.0000   1.0000
     1.0000   1.0000   1.0000   1.0000   0.0000   0.0000   0.0000   0.0000
     0.0000   0.0000   0.0000   0.0000

          k = 0.3536 0.1768-0.1768 (  4442 PWs)   bands (ev):

   -14.7811 -14.7811 -14.7709 -14.7709 -14.7209 -14.7209 -14.6529 -14.6529
   -14.6343 -14.6343 -14.5265 -14.5265 -14.4909 -14.4909 -14.4645 -14.4645
   -14.4084 -14.4084 -14.3954 -14.3954  -2.3256  -2.3256   1.6576   1.6576
     5.1214   5.1214   5.5156   5.5156   7.7987   7.7987   9.4020   9.4020
    10.5941  10.5941  11.2527  11.2527

     occupation numbers 
     1.0000   1.0000   1.0000   1.0000   1.0000   1.0000   1.0000   1.0000
     1.0000   1.0000   1.0000   1.0000   1.0000   1.0000   1.0000   1.0000
     1.0000   1.0000   1.0000   1.0000   1.0000   1.0000   1.0000   1.0000
     1.0000   1.0000   1.0000   1.0000   0.0000   0.0000   0.0000   0.0000
     0.0000   0.0000   0.0000   0.0000

          k = 0.3977 0.2210-0.2210 (  4430 PWs)   bands (ev):

   -14.7851 -14.7851 -14.7741 -14.7741 -14.7125 -14.7125 -14.6454 -14.6454
   -14.6327 -14.6327 -14.5253 -14.5253 -14.4991 -14.4991 -14.4746 -14.4746
   -14.4036 -14.4036 -14.3910 -14.3910  -2.0347  -2.0347   1.0993   1.0993
     4.9190   4.9190   5.4774   5.4774   7.6811   7.6811   9.5974   9.5974
    10.5365  10.5365  11.7692  11.7692

     occupation numbers 
     1.0000   1.0000   1.0000   1.0000   1.0000   1.0000   1.0000   1.0000
     1.0000   1.0000   1.0000   1.0000   1.0000   1.0000   1.0000   1.0000
     1.0000   1.0000   1.0000   1.0000   1.0000   1.0000   1.0000   1.0000
     1.0000   1.0000   1.0000   1.0000   0.0000   0.0000   0.0000   0.0000
     0.0000   0.0000   0.0000   0.0000

          k =-0.2652-0.4419 0.4419 (  4438 PWs)   bands (ev):

   -14.7870 -14.7870 -14.7764 -14.7764 -14.7064 -14.7064 -14.6395 -14.6395
   -14.6352 -14.6352 -14.5196 -14.5196 -14.5062 -14.5062 -14.4831 -14.4831
   -14.4001 -14.4001 -14.3893 -14.3893  -1.8156  -1.8156   0.7335   0.7335
     4.7763   4.7763   5.4999   5.4999   7.6036   7.6036   9.7122   9.7122
    10.4359  10.4359  12.3348  12.3348

     occupation numbers 
     1.0000   1.0000   1.0000   1.0000   1.0000   1.0000   1.0000   1.0000
     1.0000   1.0000   1.0000   1.0000   1.0000   1.0000   1.0000   1.0000
     1.0000   1.0000   1.0000   1.0000   1.0000   1.0000   1.0000   1.0000
     1.0000   1.0000   1.0000   1.0000   0.0000   0.0000   0.0000   0.0000
     0.0000   0.0000   0.0000   0.0000

          k =-0.2210-0.3977 0.3977 (  4434 PWs)   bands (ev):

   -14.7869 -14.7869 -14.7781 -14.7781 -14.7037 -14.7037 -14.6403 -14.6403
   -14.6352 -14.6352 -14.5118 -14.5118 -14.5103 -14.5103 -14.4888 -14.4888
   -14.3978 -14.3978 -14.3898 -14.3898  -1.7801  -1.7801   0.6782   0.6782
     4.6993   4.6993   5.5814   5.5814   7.5710   7.5710   9.8089   9.8089
    10.3207  10.3207  12.6361  12.6361

     occupation numbers 
     1.0000   1.0000   1.0000   1.0000   1.0000   1.0000   1.0000   1.0000
     1.0000   1.0000   1.0000   1.0000   1.0000   1.0000   1.0000   1.0000
     1.0000   1.0000   1.0000   1.0000   1.0000   1.0000   1.0000   1.0000
     1.0000   1.0000   1.0000   1.0000   0.0000   0.0000   0.0000   0.0000
     0.0000   0.0000   0.0000   0.0000

          k =-0.1768-0.3536 0.3536 (  4441 PWs)   bands (ev):

   -14.7847 -14.7847 -14.7785 -14.7785 -14.7053 -14.7053 -14.6467 -14.6467
   -14.6338 -14.6338 -14.5150 -14.5150 -14.4999 -14.4999 -14.4900 -14.4900
   -14.3969 -14.3969 -14.3930 -14.3930  -1.9527  -1.9527   0.9580   0.9580
     4.6932   4.6932   5.7173   5.7173   7.5822   7.5822   9.9098   9.9098
    10.1935  10.1935  12.3899  12.3899

     occupation numbers 
     1.0000   1.0000   1.0000   1.0000   1.0000   1.0000   1.0000   1.0000
     1.0000   1.0000   1.0000   1.0000   1.0000   1.0000   1.0000   1.0000
     1.0000   1.0000   1.0000   1.0000   1.0000   1.0000   1.0000   1.0000
     1.0000   1.0000   1.0000   1.0000   0.0000   0.0000   0.0000   0.0000
     0.0000   0.0000   0.0000   0.0000

          k =-0.1326-0.3094 0.3094 (  4429 PWs)   bands (ev):

   -14.7803 -14.7803 -14.7775 -14.7775 -14.7107 -14.7107 -14.6535 -14.6535
   -14.6361 -14.6361 -14.5144 -14.5144 -14.4945 -14.4945 -14.4814 -14.4814
   -14.3986 -14.3986 -14.3975 -14.3975  -2.2315  -2.2315   1.4652   1.4652
     4.7646   4.7646   5.8994   5.8994   7.6303   7.6303   9.9920   9.9920
    10.0360  10.0360  11.7400  11.7400

     occupation numbers 
     1.0000   1.0000   1.0000   1.0000   1.0000   1.0000   1.0000   1.0000
     1.0000   1.0000   1.0000   1.0000   1.0000   1.0000   1.0000   1.0000
     1.0000   1.0000   1.0000   1.0000   1.0000   1.0000   1.0000   1.0000
     1.0000   1.0000   1.0000   1.0000   0.0000   0.0000   0.0000   0.0000
     0.0000   0.0000   0.0000   0.0000

          k =-0.0884-0.2652 0.2652 (  4446 PWs)   bands (ev):

   -14.7751 -14.7751 -14.7743 -14.7743 -14.7191 -14.7191 -14.6606 -14.6606
   -14.6424 -14.6424 -14.5099 -14.5099 -14.4911 -14.4911 -14.4682 -14.4682
   -14.4067 -14.4067 -14.4000 -14.4000  -2.5245  -2.5245   2.0932   2.0932
     4.9230   4.9230   6.1139   6.1139   7.6967   7.6967   9.8239   9.8239
     9.9603   9.9603  11.1355  11.1355

     occupation numbers 
     1.0000   1.0000   1.0000   1.0000   1.0000   1.0000   1.0000   1.0000
     1.0000   1.0000   1.0000   1.0000   1.0000   1.0000   1.0000   1.0000
     1.0000   1.0000   1.0000   1.0000   1.0000   1.0000   1.0000   1.0000
     1.0000   1.0000   1.0000   1.0000   0.0000   0.0000   0.0000   0.0000
     0.0000   0.0000   0.0000   0.0000

          k =-0.0442-0.2210 0.2210 (  4432 PWs)   bands (ev):

   -14.7708 -14.7708 -14.7670 -14.7670 -14.7282 -14.7282 -14.6680 -14.6680
   -14.6521 -14.6521 -14.5016 -14.5016 -14.4854 -14.4854 -14.4552 -14.4552
   -14.4163 -14.4163 -14.4043 -14.4043  -2.7860  -2.7860   2.7682   2.7682
     5.1836   5.1836   6.3368   6.3368   7.7371   7.7371   9.5624   9.5624
     9.6964   9.6964  10.7680  10.7680

     occupation numbers 
     1.0000   1.0000   1.0000   1.0000   1.0000   1.0000   1.0000   1.0000
     1.0000   1.0000   1.0000   1.0000   1.0000   1.0000   1.0000   1.0000
     1.0000   1.0000   1.0000   1.0000   1.0000   1.0000   1.0000   1.0000
     1.0000   1.0000   1.0000   1.0000   0.0000   0.0000   0.0000   0.0000
     0.0000   0.0000   0.0000   0.0000

          k = 0.0000-0.1768 0.1768 (  4443 PWs)   bands (ev):

   -14.7653 -14.7653 -14.7597 -14.7597 -14.7362 -14.7362 -14.6756 -14.6756
   -14.6636 -14.6636 -14.4909 -14.4909 -14.4781 -14.4781 -14.4452 -14.4452
   -14.4266 -14.4266 -14.4103 -14.4103  -2.9951  -2.9951   3.4219   3.4219
     5.5676   5.5676   6.5273   6.5273   7.6591   7.6591   9.3128   9.3128
     9.3818   9.3818  10.4429  10.4429

     occupation numbers 
     1.0000   1.0000   1.0000   1.0000   1.0000   1.0000   1.0000   1.0000
     1.0000   1.0000   1.0000   1.0000   1.0000   1.0000   1.0000   1.0000
     1.0000   1.0000   1.0000   1.0000   1.0000   1.0000   1.0000   1.0000
     1.0000   1.0000   1.0000   1.0000   0.0000   0.0000   0.0000   0.0000
     0.0000   0.0000   0.0000   0.0000

          k = 0.2652 0.0000 0.0000 (  4448 PWs)   bands (ev):

   -14.7594 -14.7594 -14.7594 -14.7594 -14.7503 -14.7503 -14.6745 -14.6745
   -14.6477 -14.6477 -14.5193 -14.5193 -14.4659 -14.4659 -14.4264 -14.4264
   -14.4264 -14.4264 -14.4220 -14.4220  -2.9445  -2.9445   3.3807   3.3807
     5.7342   5.7342   5.7342   5.7342   8.0434   8.0434   8.5440   8.5440
    10.5063  10.5063  10.5063  10.5063

     occupation numbers 
     1.0000   1.0000   1.0000   1.0000   1.0000   1.0000   1.0000   1.0000
     1.0000   1.0000   1.0000   1.0000   1.0000   1.0000   1.0000   1.0000
     1.0000   1.0000   1.0000   1.0000   1.0000   1.0000   1.0000   1.0000
     1.0000   1.0000   1.0000   1.0000   0.0000   0.0000   0.0000   0.0000
     0.0000   0.0000   0.0000   0.0000

          k = 0.3094 0.0442-0.0442 (  4449 PWs)   bands (ev):

   -14.7668 -14.7668 -14.7639 -14.7639 -14.7444 -14.7444 -14.6662 -14.6662
   -14.6352 -14.6352 -14.5333 -14.5333 -14.4744 -14.4744 -14.4327 -14.4327
   -14.4197 -14.4197 -14.4131 -14.4131  -2.7746  -2.7746   2.8778   2.8778
     5.4715   5.4715   5.5308   5.5308   8.0273   8.0273   8.6430   8.6430
    10.8230  10.8230  10.8619  10.8619

     occupation numbers 
     1.0000   1.0000   1.0000   1.0000   1.0000   1.0000   1.0000   1.0000
     1.0000   1.0000   1.0000   1.0000   1.0000   1.0000   1.0000   1.0000
     1.0000   1.0000   1.0000   1.0000   1.0000   1.0000   1.0000   1.0000
     1.0000   1.0000   1.0000   1.0000   0.0000   0.0000   0.0000   0.0000
     0.0000   0.0000   0.0000   0.0000

          k = 0.3536 0.0884-0.0884 (  4441 PWs)   bands (ev):

   -14.7756 -14.7756 -14.7683 -14.7683 -14.7339 -14.7339 -14.6568 -14.6568
   -14.6244 -14.6244 -14.5440 -14.5440 -14.4843 -14.4843 -14.4447 -14.4447
   -14.4128 -14.4128 -14.4023 -14.4023  -2.5452  -2.5452   2.2877   2.2877
     5.1463   5.1463   5.3747   5.3747   8.1237   8.1237   8.7873   8.7873
    10.8714  10.8714  11.0954  11.0954

     occupation numbers 
     1.0000   1.0000   1.0000   1.0000   1.0000   1.0000   1.0000   1.0000
     1.0000   1.0000   1.0000   1.0000   1.0000   1.0000   1.0000   1.0000
     1.0000   1.0000   1.0000   1.0000   1.0000   1.0000   1.0000   1.0000
     1.0000   1.0000   1.0000   1.0000   0.0000   0.0000   0.0000   0.0000
     0.0000   0.0000   0.0000   0.0000

          k = 0.3977 0.1326-0.1326 (  4438 PWs)   bands (ev):

   -14.7836 -14.7836 -14.7726 -14.7726 -14.7216 -14.7216 -14.6472 -14.6472
   -14.6171 -14.6171 -14.5504 -14.5504 -14.4945 -14.4945 -14.4584 -14.4584
   -14.4064 -14.4064 -14.3931 -14.3931  -2.2684  -2.2684   1.6865   1.6865
     4.8235   4.8235   5.2761   5.2761   8.0955   8.0955   9.1727   9.1727
    10.8636  10.8636  11.1711  11.1711

     occupation numbers 
     1.0000   1.0000   1.0000   1.0000   1.0000   1.0000   1.0000   1.0000
     1.0000   1.0000   1.0000   1.0000   1.0000   1.0000   1.0000   1.0000
     1.0000   1.0000   1.0000   1.0000   1.0000   1.0000   1.0000   1.0000
     1.0000   1.0000   1.0000   1.0000   0.0000   0.0000   0.0000   0.0000
     0.0000   0.0000   0.0000   0.0000

          k = 0.4419 0.1768-0.1768 (  4436 PWs)   bands (ev):

   -14.7899 -14.7899 -14.7762 -14.7762 -14.7093 -14.7093 -14.6382 -14.6382
   -14.6148 -14.6148 -14.5509 -14.5509 -14.5045 -14.5045 -14.4722 -14.4722
   -14.4012 -14.4012 -14.3859 -14.3859  -1.9710  -1.9710   1.1385   1.1385
     4.5469   4.5469   5.2399   5.2399   8.0187   8.0187   9.5913   9.5913
    11.0347  11.0347  11.1196  11.1196

     occupation numbers 
     1.0000   1.0000   1.0000   1.0000   1.0000   1.0000   1.0000   1.0000
     1.0000   1.0000   1.0000   1.0000   1.0000   1.0000   1.0000   1.0000
     1.0000   1.0000   1.0000   1.0000   1.0000   1.0000   1.0000   1.0000
     1.0000   1.0000   1.0000   1.0000   0.0000   0.0000   0.0000   0.0000
     0.0000   0.0000   0.0000   0.0000

          k =-0.2210-0.4861 0.4861 (  4428 PWs)   bands (ev):

   -14.7939 -14.7939 -14.7789 -14.7789 -14.6990 -14.6990 -14.6302 -14.6302
   -14.6179 -14.6179 -14.5454 -14.5454 -14.5138 -14.5138 -14.4841 -14.4841
   -14.3969 -14.3969 -14.3815 -14.3815  -1.7134  -1.7134   0.7256   0.7256
     4.3370   4.3370   5.2674   5.2674   7.9611   7.9611   9.8431   9.8431
    10.9968  10.9968  11.5178  11.5178

     occupation numbers 
     1.0000   1.0000   1.0000   1.0000   1.0000   1.0000   1.0000   1.0000
     1.0000   1.0000   1.0000   1.0000   1.0000   1.0000   1.0000   1.0000
     1.0000   1.0000   1.0000   1.0000   1.0000   1.0000   1.0000   1.0000
     1.0000   1.0000   1.0000   1.0000   0.0000   0.0000   0.0000   0.0000
     0.0000   0.0000   0.0000   0.0000

          k =-0.1768-0.4419 0.4419 (  4426 PWs)   bands (ev):

   -14.7954 -14.7954 -14.7809 -14.7809 -14.6923 -14.6923 -14.6254 -14.6254
   -14.6240 -14.6240 -14.5346 -14.5346 -14.5217 -14.5217 -14.4927 -14.4927
   -14.3941 -14.3941 -14.3801 -14.3801  -1.6079  -1.6079   0.5706   0.5706
     4.2047   4.2047   5.3568   5.3568   7.9407   7.9407   9.9702   9.9702
    10.8403  10.8403  12.1632  12.1632

     occupation numbers 
     1.0000   1.0000   1.0000   1.0000   1.0000   1.0000   1.0000   1.0000
     1.0000   1.0000   1.0000   1.0000   1.0000   1.0000   1.0000   1.0000
     1.0000   1.0000   1.0000   1.0000   1.0000   1.0000   1.0000   1.0000
     1.0000   1.0000   1.0000   1.0000   0.0000   0.0000   0.0000   0.0000
     0.0000   0.0000   0.0000   0.0000

          k =-0.1326-0.3977 0.3977 (  4416 PWs)   bands (ev):

   -14.7941 -14.7941 -14.7817 -14.7817 -14.6909 -14.6909 -14.6354 -14.6354
   -14.6209 -14.6209 -14.5267 -14.5267 -14.5197 -14.5197 -14.4971 -14.4971
   -14.3926 -14.3926 -14.3820 -14.3820  -1.7277  -1.7277   0.7482   0.7482
     4.1598   4.1598   5.5030   5.5030   7.9567   7.9567  10.0744  10.0744
    10.6583  10.6583  12.2759  12.2759

     occupation numbers 
     1.0000   1.0000   1.0000   1.0000   1.0000   1.0000   1.0000   1.0000
     1.0000   1.0000   1.0000   1.0000   1.0000   1.0000   1.0000   1.0000
     1.0000   1.0000   1.0000   1.0000   1.0000   1.0000   1.0000   1.0000
     1.0000   1.0000   1.0000   1.0000   0.0000   0.0000   0.0000   0.0000
     0.0000   0.0000   0.0000   0.0000

          k =-0.0884-0.3536 0.3536 (  4433 PWs)   bands (ev):

   -14.7901 -14.7901 -14.7813 -14.7813 -14.6953 -14.6953 -14.6458 -14.6458
   -14.6226 -14.6226 -14.5271 -14.5271 -14.5025 -14.5025 -14.4981 -14.4981
   -14.3930 -14.3930 -14.3873 -14.3873  -1.9902  -1.9902   1.1676   1.1676
     4.2147   4.2147   5.6966   5.6966   7.9957   7.9957  10.1823  10.1823
    10.4354  10.4354  11.5999  11.5999

     occupation numbers 
     1.0000   1.0000   1.0000   1.0000   1.0000   1.0000   1.0000   1.0000
     1.0000   1.0000   1.0000   1.0000   1.0000   1.0000   1.0000   1.0000
     1.0000   1.0000   1.0000   1.0000   1.0000   1.0000   1.0000   1.0000
     1.0000   1.0000   1.0000   1.0000   0.0000   0.0000   0.0000   0.0000
     0.0000   0.0000   0.0000   0.0000

          k =-0.0442-0.3094 0.3094 (  4434 PWs)   bands (ev):

   -14.7836 -14.7836 -14.7794 -14.7794 -14.7047 -14.7047 -14.6546 -14.6546
   -14.6293 -14.6293 -14.5221 -14.5221 -14.4961 -14.4961 -14.4844 -14.4844
   -14.3956 -14.3956 -14.3950 -14.3950  -2.2867  -2.2867   1.6997   1.6997
     4.3880   4.3880   5.9215   5.9215   8.0242   8.0242  10.1546  10.1546
    10.2144  10.2144  10.9852  10.9852

     occupation numbers 
     1.0000   1.0000   1.0000   1.0000   1.0000   1.0000   1.0000   1.0000
     1.0000   1.0000   1.0000   1.0000   1.0000   1.0000   1.0000   1.0000
     1.0000   1.0000   1.0000   1.0000   1.0000   1.0000   1.0000   1.0000
     1.0000   1.0000   1.0000   1.0000   0.0000   0.0000   0.0000   0.0000
     0.0000   0.0000   0.0000   0.0000

          k = 0.0000-0.2652 0.2652 (  4423 PWs)   bands (ev):

   -14.7758 -14.7758 -14.7754 -14.7754 -14.7168 -14.7168 -14.6616 -14.6616
   -14.6397 -14.6397 -14.5130 -14.5130 -14.4917 -14.4917 -14.4677 -14.4677
   -14.4060 -14.4060 -14.3987 -14.3987  -2.5603  -2.5603   2.2545   2.2545
     4.7047   4.7047   6.1499   6.1499   7.9704   7.9704   9.8381   9.8381
     9.9574   9.9574  10.8030  10.8030

     occupation numbers 
     1.0000   1.0000   1.0000   1.0000   1.0000   1.0000   1.0000   1.0000
     1.0000   1.0000   1.0000   1.0000   1.0000   1.0000   1.0000   1.0000
     1.0000   1.0000   1.0000   1.0000   1.0000   1.0000   1.0000   1.0000
     1.0000   1.0000   1.0000   1.0000   0.0000   0.0000   0.0000   0.0000
     0.0000   0.0000   0.0000   0.0000

          k = 0.3536 0.0000 0.0000 (  4432 PWs)   bands (ev):

   -14.7673 -14.7673 -14.7673 -14.7673 -14.7455 -14.7455 -14.6585 -14.6585
   -14.6207 -14.6207 -14.5502 -14.5502 -14.4811 -14.4811 -14.4269 -14.4269
   -14.4148 -14.4148 -14.4148 -14.4148  -2.6246  -2.6246   2.5346   2.5346
     5.3206   5.3206   5.3206   5.3206   7.7509   7.7509   8.7009   8.7009
    11.3111  11.3111  11.3111  11.3111

     occupation numbers 
     1.0000   1.0000   1.0000   1.0000   1.0000   1.0000   1.0000   1.0000
     1.0000   1.0000   1.0000   1.0000   1.0000   1.0000   1.0000   1.0000
     1.0000   1.0000   1.0000   1.0000   1.0000   1.0000   1.0000   1.0000
     1.0000   1.0000   1.0000   1.0000   0.0000   0.0000   0.0000   0.0000
     0.0000   0.0000   0.0000   0.0000

          k = 0.3977 0.0442-0.0442 (  4445 PWs)   bands (ev):

   -14.7740 -14.7740 -14.7714 -14.7714 -14.7375 -14.7375 -14.6490 -14.6490
   -14.6076 -14.6076 -14.5646 -14.5646 -14.4908 -14.4908 -14.4373 -14.4373
   -14.4089 -14.4089 -14.4050 -14.4050  -2.4129  -2.4129   2.0693   2.0693
     5.0665   5.0665   5.1568   5.1568   7.7750   7.7750   8.6622   8.6622
    11.4333  11.4333  11.6513  11.6513

     occupation numbers 
     1.0000   1.0000   1.0000   1.0000   1.0000   1.0000   1.0000   1.0000
     1.0000   1.0000   1.0000   1.0000   1.0000   1.0000   1.0000   1.0000
     1.0000   1.0000   1.0000   1.0000   1.0000   1.0000   1.0000   1.0000
     1.0000   1.0000   1.0000   1.0000   0.0000   0.0000   0.0000   0.0000
     0.0000   0.0000   0.0000   0.0000

          k = 0.4419 0.0884-0.0884 (  4440 PWs)   bands (ev):

   -14.7829 -14.7829 -14.7753 -14.7753 -14.7241 -14.7241 -14.6387 -14.6387
   -14.5977 -14.5977 -14.5745 -14.5745 -14.5014 -14.5014 -14.4525 -14.4525
   -14.4030 -14.4030 -14.3940 -14.3940  -2.1486  -2.1486   1.5572   1.5572
     4.7239   4.7239   5.0507   5.0507   7.9229   7.9229   8.7966   8.7966
    11.2887  11.2887  11.8135  11.8135

     occupation numbers 
     1.0000   1.0000   1.0000   1.0000   1.0000   1.0000   1.0000   1.0000
     1.0000   1.0000   1.0000   1.0000   1.0000   1.0000   1.0000   1.0000
     1.0000   1.0000   1.0000   1.0000   1.0000   1.0000   1.0000   1.0000
     1.0000   1.0000   1.0000   1.0000   0.0000   0.0000   0.0000   0.0000
     0.0000   0.0000   0.0000   0.0000

          k = 0.4861 0.1326-0.1326 (  4432 PWs)   bands (ev):

   -14.7910 -14.7910 -14.7786 -14.7786 -14.7090 -14.7090 -14.6286 -14.6286
   -14.5941 -14.5941 -14.5770 -14.5770 -14.5125 -14.5125 -14.4690 -14.4690
   -14.3977 -14.3977 -14.3846 -14.3846  -1.8511  -1.8511   1.0572   1.0572
     4.3809   4.3809   5.0081   5.0081   7.9658   7.9658   9.2609   9.2609
    11.1541  11.1541  11.8024  11.8024

     occupation numbers 
     1.0000   1.0000   1.0000   1.0000   1.0000   1.0000   1.0000   1.0000
     1.0000   1.0000   1.0000   1.0000   1.0000   1.0000   1.0000   1.0000
     1.0000   1.0000   1.0000   1.0000   1.0000   1.0000   1.0000   1.0000
     1.0000   1.0000   1.0000   1.0000   0.0000   0.0000   0.0000   0.0000
     0.0000   0.0000   0.0000   0.0000

          k =-0.1768-0.5303 0.5303 (  4427 PWs)   bands (ev):

   -14.7972 -14.7972 -14.7814 -14.7814 -14.6951 -14.6951 -14.6191 -14.6191
   -14.5963 -14.5963 -14.5731 -14.5731 -14.5233 -14.5233 -14.4840 -14.4840
   -14.3936 -14.3936 -14.3776 -14.3776  -1.5665  -1.5665   0.6374   0.6374
     4.0952   4.0952   5.0310   5.0310   7.9629   7.9629   9.8874   9.8875
    11.1286  11.1286  11.6774  11.6774

     occupation numbers 
     1.0000   1.0000   1.0000   1.0000   1.0000   1.0000   1.0000   1.0000
     1.0000   1.0000   1.0000   1.0000   1.0000   1.0000   1.0000   1.0000
[...]

     occupation numbers 
     1.0000   1.0000   1.0000   1.0000   1.0000   1.0000   1.0000   1.0000
     1.0000   1.0000   1.0000   1.0000   1.0000   1.0000   1.0000   1.0000
     1.0000   1.0000   1.0000   1.0000   1.0000   1.0000   1.0000   1.0000
     1.0000   1.0000   1.0000   1.0000   0.0000   0.0000   0.0000   0.0000
     0.0000   0.0000   0.0000   0.0000

          k =-0.1326-0.3977 0.5745 (  4422 PWs)   bands (ev):

   -14.8011 -14.8011 -14.7882 -14.7882 -14.6744 -14.6744 -14.6135 -14.6135
   -14.5932 -14.5932 -14.5703 -14.5703 -14.5354 -14.5354 -14.5044 -14.5044
   -14.3859 -14.3859 -14.3732 -14.3732  -1.3091  -1.3091   0.3401   0.3401
     3.8592   3.8592   4.8331   4.8331   8.6522   8.6522   9.8896   9.8896
    11.1652  11.1652  11.8680  11.8680

     occupation numbers 
     1.0000   1.0000   1.0000   1.0000   1.0000   1.0000   1.0000   1.0000
     1.0000   1.0000   1.0000   1.0000   1.0000   1.0000   1.0000   1.0000
     1.0000   1.0000   1.0000   1.0000   1.0000   1.0000   1.0000   1.0000
     1.0000   1.0000   1.0000   1.0000   0.0000   0.0000   0.0000   0.0000
     0.0000   0.0000   0.0000   0.0000

          k =-0.0884-0.3536 0.5303 (  4424 PWs)   bands (ev):

   -14.8010 -14.8010 -14.7883 -14.7883 -14.6739 -14.6739 -14.6165 -14.6165
   -14.5946 -14.5946 -14.5661 -14.5661 -14.5348 -14.5348 -14.5054 -14.5054
   -14.3858 -14.3858 -14.3735 -14.3735  -1.3638  -1.3638   0.4095   0.4095
     3.8258   3.8258   4.9025   4.9025   8.7004   8.7004   9.8777   9.8777
    11.2327  11.2327  11.8286  11.8286

     occupation numbers 
     1.0000   1.0000   1.0000   1.0000   1.0000   1.0000   1.0000   1.0000
     1.0000   1.0000   1.0000   1.0000   1.0000   1.0000   1.0000   1.0000
     1.0000   1.0000   1.0000   1.0000   1.0000   1.0000   1.0000   1.0000
     1.0000   1.0000   1.0000   1.0000   0.0000   0.0000   0.0000   0.0000
     0.0000   0.0000   0.0000   0.0000

          k =-0.0442-0.3094 0.4861 (  4427 PWs)   bands (ev):

   -14.7976 -14.7976 -14.7873 -14.7873 -14.6809 -14.6809 -14.6271 -14.6271
   -14.5969 -14.5969 -14.5638 -14.5638 -14.5216 -14.5216 -14.5011 -14.5011
   -14.3869 -14.3869 -14.3777 -14.3777  -1.6080  -1.6080   0.7290   0.7290
     3.8976   3.8976   5.0459   5.0459   8.7559   8.7559   9.7673   9.7673
    10.6400  10.6400  12.0642  12.0642

     occupation numbers 
     1.0000   1.0000   1.0000   1.0000   1.0000   1.0000   1.0000   1.0000
     1.0000   1.0000   1.0000   1.0000   1.0000   1.0000   1.0000   1.0000
     1.0000   1.0000   1.0000   1.0000   1.0000   1.0000   1.0000   1.0000
     1.0000   1.0000   1.0000   1.0000   0.0000   0.0000   0.0000   0.0000
     0.0000   0.0000   0.0000   0.0000

          k = 0.0000-0.2652 0.4419 (  4429 PWs)   bands (ev):

   -14.7914 -14.7914 -14.7850 -14.7850 -14.6938 -14.6938 -14.6377 -14.6377
   -14.6045 -14.6045 -14.5578 -14.5578 -14.5068 -14.5068 -14.4905 -14.4905
   -14.3896 -14.3896 -14.3853 -14.3853  -1.9067  -1.9067   1.1481   1.1481
     4.0940   4.0940   5.2377   5.2377   8.7590   8.7590   9.4153   9.4153
    10.4575  10.4575  11.8370  11.8370

     occupation numbers 
     1.0000   1.0000   1.0000   1.0000   1.0000   1.0000   1.0000   1.0000
     1.0000   1.0000   1.0000   1.0000   1.0000   1.0000   1.0000   1.0000
     1.0000   1.0000   1.0000   1.0000   1.0000   1.0000   1.0000   1.0000
     1.0000   1.0000   1.0000   1.0000   0.0000   0.0000   0.0000   0.0000
     0.0000   0.0000   0.0000   0.0000

          k =-0.1768-0.5303 0.7071 (  4426 PWs)   bands (ev):

   -14.7895 -14.7895 -14.7877 -14.7877 -14.6975 -14.6975 -14.6179 -14.6179
   -14.5994 -14.5994 -14.5729 -14.5729 -14.5232 -14.5232 -14.4798 -14.4798
   -14.3870 -14.3870 -14.3857 -14.3857  -1.6151  -1.6151   0.7671   0.7671
     4.2689   4.2689   4.7057   4.7057   8.3832   8.3832   8.7419   8.7419
    11.1626  11.1626  12.8022  12.8022

     occupation numbers 
     1.0000   1.0000   1.0000   1.0000   1.0000   1.0000   1.0000   1.0000
     1.0000   1.0000   1.0000   1.0000   1.0000   1.0000   1.0000   1.0000
     1.0000   1.0000   1.0000   1.0000   1.0000   1.0000   1.0000   1.0000
     1.0000   1.0000   1.0000   1.0000   0.0000   0.0000   0.0000   0.0000
     0.0000   0.0000   0.0000   0.0000

          k =-0.1326-0.4861 0.6629 (  4425 PWs)   bands (ev):

   -14.7964 -14.7964 -14.7901 -14.7901 -14.6800 -14.6800 -14.6079 -14.6079
   -14.6041 -14.6041 -14.5667 -14.5667 -14.5354 -14.5354 -14.4972 -14.4972
   -14.3840 -14.3840 -14.3777 -14.3777  -1.3107  -1.3107   0.3833   0.3833
     4.0363   4.0363   4.5825   4.5825   8.5508   8.5508   9.2206   9.2206
    10.9839  10.9839  12.7507  12.7507

     occupation numbers 
     1.0000   1.0000   1.0000   1.0000   1.0000   1.0000   1.0000   1.0000
     1.0000   1.0000   1.0000   1.0000   1.0000   1.0000   1.0000   1.0000
     1.0000   1.0000   1.0000   1.0000   1.0000   1.0000   1.0000   1.0000
     1.0000   1.0000   1.0000   1.0000   0.0000   0.0000   0.0000   0.0000
     0.0000   0.0000   0.0000   0.0000

          k =-0.0884-0.4419 0.6187 (  4420 PWs)   bands (ev):

   -14.8015 -14.8015 -14.7911 -14.7911 -14.6672 -14.6672 -14.6037 -14.6037
   -14.5961 -14.5961 -14.5686 -14.5686 -14.5467 -14.5467 -14.5091 -14.5091
   -14.3825 -14.3825 -14.3723 -14.3723  -1.0723  -1.0723   0.1076   0.1076
     3.8360   3.8360   4.5728   4.5728   8.6079   8.6079   9.9545   9.9545
    10.8758  10.8758  12.1591  12.1591

     occupation numbers 
     1.0000   1.0000   1.0000   1.0000   1.0000   1.0000   1.0000   1.0000
     1.0000   1.0000   1.0000   1.0000   1.0000   1.0000   1.0000   1.0000
     1.0000   1.0000   1.0000   1.0000   1.0000   1.0000   1.0000   1.0000
     1.0000   1.0000   1.0000   1.0000   0.0000   0.0000   0.0000   0.0000
     0.0000   0.0000   0.0000   0.0000

          k =-0.0442-0.3977 0.5745 (  4421 PWs)   bands (ev):

   -14.8035 -14.8035 -14.7911 -14.7911 -14.6640 -14.6640 -14.6002 -14.6002
   -14.5880 -14.5880 -14.5763 -14.5763 -14.5511 -14.5511 -14.5120 -14.5120
   -14.3824 -14.3824 -14.3704 -14.3704  -1.0742  -1.0742   0.1124   0.1124
     3.7220   3.7220   4.6622   4.6622   8.6881   8.6881  10.4244  10.4244
    11.0968  11.0968  11.4188  11.4188

     occupation numbers 
     1.0000   1.0000   1.0000   1.0000   1.0000   1.0000   1.0000   1.0000
     1.0000   1.0000   1.0000   1.0000   1.0000   1.0000   1.0000   1.0000
     1.0000   1.0000   1.0000   1.0000   1.0000   1.0000   1.0000   1.0000
     1.0000   1.0000   1.0000   1.0000   0.0000   0.0000   0.0000   0.0000
     0.0000   0.0000   0.0000   0.0000

          k = 0.0000-0.3536 0.5303 (  4423 PWs)   bands (ev):

   -14.8021 -14.8021 -14.7899 -14.7899 -14.6692 -14.6692 -14.6122 -14.6122
   -14.5853 -14.5853 -14.5757 -14.5757 -14.5406 -14.5406 -14.5086 -14.5086
   -14.3838 -14.3838 -14.3723 -14.3723  -1.3099  -1.3099   0.3814   0.3814
     3.7342   3.7342   4.8289   4.8289   8.7714   8.7714  10.2823  10.2823
    10.7118  10.7118  11.9179  11.9179

     occupation numbers 
     1.0000   1.0000   1.0000   1.0000   1.0000   1.0000   1.0000   1.0000
     1.0000   1.0000   1.0000   1.0000   1.0000   1.0000   1.0000   1.0000
     1.0000   1.0000   1.0000   1.0000   1.0000   1.0000   1.0000   1.0000
     1.0000   1.0000   1.0000   1.0000   0.0000   0.0000   0.0000   0.0000
     0.0000   0.0000   0.0000   0.0000

          k =-0.0884-0.5303 0.7071 (  4416 PWs)   bands (ev):

   -14.7929 -14.7929 -14.7918 -14.7918 -14.6781 -14.6781 -14.6281 -14.6281
   -14.5948 -14.5948 -14.5462 -14.5462 -14.5460 -14.5460 -14.4982 -14.4982
   -14.3816 -14.3816 -14.3806 -14.3806  -1.0882  -1.0882   0.1160   0.1160
     4.1959   4.1959   4.4132   4.4132   8.3495   8.3495   8.5582   8.5582
    11.8400  11.8400  13.0825  13.0825

     occupation numbers 
     1.0000   1.0000   1.0000   1.0000   1.0000   1.0000   1.0000   1.0000
     1.0000   1.0000   1.0000   1.0000   1.0000   1.0000   1.0000   1.0000
     1.0000   1.0000   1.0000   1.0000   1.0000   1.0000   1.0000   1.0000
     1.0000   1.0000   1.0000   1.0000   0.0000   0.0000   0.0000   0.0000
     0.0000   0.0000   0.0000   0.0000

          k =-0.0442-0.4861 0.6629 (  4416 PWs)   bands (ev):

   -14.7988 -14.7988 -14.7929 -14.7929 -14.6612 -14.6612 -14.6289 -14.6289
   -14.5844 -14.5844 -14.5586 -14.5586 -14.5442 -14.5442 -14.5142 -14.5142
   -14.3803 -14.3803 -14.3745 -14.3745  -0.8041  -0.8041  -0.1840  -0.1840
     3.9827   3.9827   4.3708   4.3708   8.4961   8.4961   9.1647   9.1647
    11.6553  11.6553  12.3727  12.3727

     occupation numbers 
     1.0000   1.0000   1.0000   1.0000   1.0000   1.0000   1.0000   1.0000
     1.0000   1.0000   1.0000   1.0000   1.0000   1.0000   1.0000   1.0000
     1.0000   1.0000   1.0000   1.0000   1.0000   1.0000   1.0000   1.0000
     1.0000   1.0000   1.0000   1.0000   0.0000   0.0000   0.0000   0.0000
     0.0000   0.0000   0.0000   0.0000

          k = 0.0000-0.4419 0.6187 (  4415 PWs)   bands (ev):

   -14.8027 -14.8027 -14.7925 -14.7925 -14.6582 -14.6582 -14.6127 -14.6127
   -14.5837 -14.5837 -14.5628 -14.5628 -14.5575 -14.5575 -14.5166 -14.5166
   -14.3806 -14.3806 -14.3707 -14.3707  -0.8060  -0.8060  -0.1727  -0.1727
     3.7871   3.7871   4.4761   4.4761   8.5861   8.5861   9.9895   9.9895
    11.4933  11.4933  11.5091  11.5091

     occupation numbers 
     1.0000   1.0000   1.0000   1.0000   1.0000   1.0000   1.0000   1.0000
     1.0000   1.0000   1.0000   1.0000   1.0000   1.0000   1.0000   1.0000
     1.0000   1.0000   1.0000   1.0000   1.0000   1.0000   1.0000   1.0000
     1.0000   1.0000   1.0000   1.0000   0.0000   0.0000   0.0000   0.0000
     0.0000   0.0000   0.0000   0.0000

          k =-0.7071 0.1768 0.0000 (  4420 PWs)   bands (ev):

   -14.7938 -14.7938 -14.7937 -14.7937 -14.6554 -14.6554 -14.6543 -14.6543
   -14.5731 -14.5731 -14.5678 -14.5678 -14.5213 -14.5213 -14.5202 -14.5202
   -14.3793 -14.3793 -14.3793 -14.3793  -0.5076  -0.5076  -0.5062  -0.5062
     4.2429   4.2429   4.2429   4.2429   8.4119   8.4119   8.4121   8.4121
    12.5669  12.5669  12.5669  12.5669

     occupation numbers 
     1.0000   1.0000   1.0000   1.0000   1.0000   1.0000   1.0000   1.0000
     1.0000   1.0000   1.0000   1.0000   1.0000   1.0000   1.0000   1.0000
     1.0000   1.0000   1.0000   1.0000   1.0000   1.0000   1.0000   1.0000
     1.0000   1.0000   1.0000   1.0000   0.0000   0.0000   0.0000   0.0000
     0.0000   0.0000   0.0000   0.0000

          k =-0.1768-0.4419 0.7071 (  4426 PWs)   bands (ev):

   -14.7965 -14.7965 -14.7903 -14.7903 -14.6793 -14.6793 -14.6184 -14.6184
   -14.5866 -14.5866 -14.5801 -14.5801 -14.5271 -14.5271 -14.4997 -14.4997
   -14.3839 -14.3839 -14.3783 -14.3783  -1.4810  -1.4810   0.5944   0.5944
     3.9558   3.9558   4.7405   4.7405   9.1558   9.1558   9.2753   9.2753
    10.4122  10.4122  12.5297  12.5297

     occupation numbers 
     1.0000   1.0000   1.0000   1.0000   1.0000   1.0000   1.0000   1.0000
     1.0000   1.0000   1.0000   1.0000   1.0000   1.0000   1.0000   1.0000
     1.0000   1.0000   1.0000   1.0000   1.0000   1.0000   1.0000   1.0000
     1.0000   1.0000   1.0000   1.0000   0.0000   0.0000   0.0000   0.0000
     0.0000   0.0000   0.0000   0.0000

          k =-0.1326-0.3977 0.6629 (  4423 PWs)   bands (ev):

   -14.8009 -14.8009 -14.7924 -14.7924 -14.6655 -14.6655 -14.6079 -14.6079
   -14.5908 -14.5908 -14.5745 -14.5745 -14.5414 -14.5414 -14.5112 -14.5112
   -14.3814 -14.3814 -14.3731 -14.3731  -1.1970  -1.1970   0.2555   0.2555
     3.8273   3.8273   4.5835   4.5835   9.1795   9.1795   9.7704   9.7704
    10.5257  10.5258  12.0446  12.0446

     occupation numbers 
     1.0000   1.0000   1.0000   1.0000   1.0000   1.0000   1.0000   1.0000
     1.0000   1.0000   1.0000   1.0000   1.0000   1.0000   1.0000   1.0000
     1.0000   1.0000   1.0000   1.0000   1.0000   1.0000   1.0000   1.0000
     1.0000   1.0000   1.0000   1.0000   0.0000   0.0000   0.0000   0.0000
     0.0000   0.0000   0.0000   0.0000

          k =-0.0884-0.3536 0.6187 (  4424 PWs)   bands (ev):

   -14.8025 -14.8025 -14.7930 -14.7930 -14.6603 -14.6603 -14.6041 -14.6041
   -14.5887 -14.5887 -14.5751 -14.5751 -14.5479 -14.5479 -14.5153 -14.5153
   -14.3807 -14.3807 -14.3713 -14.3713  -1.0588  -1.0588   0.0979   0.0979
     3.7865   3.7865   4.5262   4.5262   9.1793   9.1793   9.8878   9.8878
    11.0629  11.0629  11.3518  11.3518

     occupation numbers 
     1.0000   1.0000   1.0000   1.0000   1.0000   1.0000   1.0000   1.0000
     1.0000   1.0000   1.0000   1.0000   1.0000   1.0000   1.0000   1.0000
     1.0000   1.0000   1.0000   1.0000   1.0000   1.0000   1.0000   1.0000
     1.0000   1.0000   1.0000   1.0000   0.0000   0.0000   0.0000   0.0000
     0.0000   0.0000   0.0000   0.0000

          k =-0.0884-0.4419 0.7071 (  4429 PWs)   bands (ev):

   -14.7989 -14.7989 -14.7951 -14.7951 -14.6607 -14.6607 -14.6128 -14.6128
   -14.5965 -14.5965 -14.5574 -14.5574 -14.5495 -14.5495 -14.5148 -14.5148
   -14.3785 -14.3785 -14.3748 -14.3748  -1.0044  -1.0044   0.0459   0.0459
     3.9469   3.9469   4.3430   4.3430   9.2148   9.2148   9.2622   9.2622
    10.8015  10.8015  12.2101  12.2101

     occupation numbers 
     1.0000   1.0000   1.0000   1.0000   1.0000   1.0000   1.0000   1.0000
     1.0000   1.0000   1.0000   1.0000   1.0000   1.0000   1.0000   1.0000
     1.0000   1.0000   1.0000   1.0000   1.0000   1.0000   1.0000   1.0000
     1.0000   1.0000   1.0000   1.0000   0.0000   0.0000   0.0000   0.0000
     0.0000   0.0000   0.0000   0.0000

          k =-0.0442-0.3977 0.6629 (  4418 PWs)   bands (ev):

   -14.8017 -14.8017 -14.7963 -14.7963 -14.6482 -14.6482 -14.6143 -14.6143
   -14.5876 -14.5876 -14.5627 -14.5627 -14.5537 -14.5537 -14.5251 -14.5251
   -14.3770 -14.3770 -14.3717 -14.3717  -0.7842  -0.7842  -0.1834  -0.1834
     3.8643   3.8643   4.2617   4.2617   9.2999   9.2999   9.9766   9.9766
    10.7166  10.7166  11.3422  11.3422

     occupation numbers 
     1.0000   1.0000   1.0000   1.0000   1.0000   1.0000   1.0000   1.0000
     1.0000   1.0000   1.0000   1.0000   1.0000   1.0000   1.0000   1.0000
     1.0000   1.0000   1.0000   1.0000   1.0000   1.0000   1.0000   1.0000
     1.0000   1.0000   1.0000   1.0000   0.0000   0.0000   0.0000   0.0000
     0.0000   0.0000   0.0000   0.0000

          k =-0.0000-0.3536 0.6187 (  4418 PWs)   bands (ev):

   -14.8024 -14.8024 -14.7954 -14.7954 -14.6520 -14.6520 -14.6040 -14.6040
   -14.5938 -14.5938 -14.5624 -14.5624 -14.5575 -14.5575 -14.5217 -14.5217
   -14.3780 -14.3780 -14.3711 -14.3711  -0.9062  -0.9062  -0.0535  -0.0535
     3.7981   3.7981   4.3666   4.3666   9.3555   9.3555  10.1581  10.1581
    10.6043  10.6043  11.2444  11.2444

     occupation numbers 
     1.0000   1.0000   1.0000   1.0000   1.0000   1.0000   1.0000   1.0000
     1.0000   1.0000   1.0000   1.0000   1.0000   1.0000   1.0000   1.0000
     1.0000   1.0000   1.0000   1.0000   1.0000   1.0000   1.0000   1.0000
     1.0000   1.0000   1.0000   1.0000   0.0000   0.0000   0.0000   0.0000
     0.0000   0.0000   0.0000   0.0000

          k =-0.7071 0.2652 0.0000 (  4416 PWs)   bands (ev):

   -14.7982 -14.7982 -14.7982 -14.7982 -14.6389 -14.6389 -14.6374 -14.6374
   -14.5757 -14.5757 -14.5704 -14.5704 -14.5354 -14.5354 -14.5339 -14.5339
   -14.3750 -14.3750 -14.3749 -14.3749  -0.4915  -0.4915  -0.4901  -0.4901
     4.0753   4.0753   4.0754   4.0754   9.2259   9.2259   9.2262   9.2262
    11.4776  11.4776  11.4776  11.4776

     occupation numbers 
     1.0000   1.0000   1.0000   1.0000   1.0000   1.0000   1.0000   1.0000
     1.0000   1.0000   1.0000   1.0000   1.0000   1.0000   1.0000   1.0000
     1.0000   1.0000   1.0000   1.0000   1.0000   1.0000   1.0000   1.0000
     1.0000   1.0000   1.0000   1.0000   0.0000   0.0000   0.0000   0.0000
     0.0000   0.0000   0.0000   0.0000

          k =-0.7071 0.3536 0.0000 (  4420 PWs)   bands (ev):

   -14.8000 -14.8000 -14.8000 -14.8000 -14.6306 -14.6306 -14.6289 -14.6289
   -14.5782 -14.5782 -14.5729 -14.5729 -14.5414 -14.5414 -14.5396 -14.5396
   -14.3733 -14.3733 -14.3732 -14.3732  -0.4847  -0.4847  -0.4833  -0.4833
     4.0118   4.0118   4.0119   4.0119   9.9055   9.9055   9.9061   9.9061
    10.7012  10.7012  10.7015  10.7015

     occupation numbers 
     1.0000   1.0000   1.0000   1.0000   1.0000   1.0000   1.0000   1.0000
     1.0000   1.0000   1.0000   1.0000   1.0000   1.0000   1.0000   1.0000
     1.0000   1.0000   1.0000   1.0000   1.0000   1.0000   1.0000   1.0000
     1.0000   1.0000   1.0000   1.0000   0.0000   0.0000   0.0000   0.0000
     0.0000   0.0000   0.0000   0.0000

     the Fermi energy is     6.7577 ev

!    total energy              =    -873.10204477 Ry
     Harris-Foulkes estimate   =    -873.10204483 Ry
     estimated scf accuracy    <       0.00000042 Ry

     total all-electron energy =    -24698.424353 Ry

     The total energy is the sum of the following terms:

     one-electron contribution =    -154.01686663 Ry
     hartree contribution      =      95.49317630 Ry
     xc contribution           =     -95.18349551 Ry
     ewald contribution        =    -167.52979534 Ry
     one-center paw contrib.   =    -551.86506349 Ry
     smearing contrib. (-TS)   =      -0.00000010 Ry

     convergence has been achieved in   5 iterations

     Writing output data file Sn.save
 
     init_run     :      4.18s CPU      4.46s WALL (       1 calls)
     electrons    :     81.53s CPU     86.02s WALL (       1 calls)

     Called by init_run:
     wfcinit      :      3.89s CPU      4.07s WALL (       1 calls)
     potinit      :      0.08s CPU      0.10s WALL (       1 calls)

     Called by electrons:
     c_bands      :     69.85s CPU     73.91s WALL (       6 calls)
     sum_band     :     11.27s CPU     11.58s WALL (       6 calls)
     v_of_rho     :      0.03s CPU      0.03s WALL (       6 calls)
     v_h          :      0.00s CPU      0.00s WALL (       6 calls)
     v_xc         :      0.03s CPU      0.03s WALL (       6 calls)
     newd         :      0.04s CPU      0.06s WALL (       6 calls)
     PAW_pot      :      0.38s CPU      0.45s WALL (       6 calls)
     mix_rho      :      0.01s CPU      0.02s WALL (       6 calls)

     Called by c_bands:
     init_us_2    :      0.20s CPU      0.22s WALL (    1885 calls)
     cegterg      :     68.25s CPU     72.13s WALL (     870 calls)

     Called by sum_band:
     sum_band:bec :      0.06s CPU      0.06s WALL (     870 calls)
     addusdens    :      0.05s CPU      0.07s WALL (       6 calls)

     Called by *egterg:
     h_psi        :     55.02s CPU     56.61s WALL (    3131 calls)
     s_psi        :      0.97s CPU      0.98s WALL (    3131 calls)
     g_psi        :      0.19s CPU      0.19s WALL (    2116 calls)
     cdiaghg      :      7.19s CPU      7.34s WALL (    2841 calls)
     cegterg:over :      3.26s CPU      3.28s WALL (    2116 calls)
     cegterg:upda :      1.55s CPU      1.56s WALL (    2116 calls)
     cegterg:last :      0.76s CPU      0.76s WALL (     870 calls)

     Called by h_psi:
     h_psi:vloc   :     52.25s CPU     53.78s WALL (    3131 calls)
     h_psi:vnl    :      2.58s CPU      2.64s WALL (    3131 calls)
     add_vuspsi   :      1.03s CPU      1.04s WALL (    3131 calls)

     General routines
     calbec       :      2.03s CPU      2.08s WALL (    4001 calls)
     fft          :      0.04s CPU      0.04s WALL (     116 calls)
     fftw         :     58.67s CPU     60.37s WALL (  395308 calls)
     davcio       :      0.04s CPU      0.23s WALL (     145 calls)
 
     Parallel routines
     fft_scatter  :     36.22s CPU     37.40s WALL (  395424 calls)

     PAW routines
     PAW_pot      :      0.38s CPU      0.45s WALL (       6 calls)
     PAW_symme    :      0.00s CPU      0.00s WALL (      12 calls)
 
     PWSCF        :  1m26.50s CPU     1m31.58s WALL

 
   This run was terminated on:  19:57:33  15Mar2020            

=------------------------------------------------------------------------------=
   JOB DONE.
=------------------------------------------------------------------------------=
