
     Program PWSCF v.5.4.0 starts on  8Mar2020 at 21:10:54 

     This program is part of the open-source Quantum ESPRESSO suite
     for quantum simulation of materials; please cite
         "P. Giannozzi et al., J. Phys.:Condens. Matter 21 395502 (2009);
          URL http://www.quantum-espresso.org", 
     in publications or presentations arising from this work. More details at
     http://www.quantum-espresso.org/quote

     Parallel version (MPI & OpenMP), running on      16 processor cores
     Number of MPI processes:                16
     Threads/MPI process:                     1
     R & G space division:  proc/nbgrp/npool/nimage =      16
     Waiting for input...
     Reading input from standard input
Warning: card &IONS ignored
Warning: card / ignored
Warning: card &CELL ignored
Warning: card / ignored

     Current dimensions of program PWSCF are:
     Max number of different atomic species (ntypx) = 10
     Max number of k-points (npk) =  40000
     Max angular momentum in pseudopotentials (lmaxx) =  3
               file Sn.rel-pbe-dn-kjpaw_psl.1.0.0.UPF: wavefunction(s)  5S 5P 5P 4D 4D renormalized

     Subspace diagonalization in iterative solution of the eigenvalue problem:
     a serial algorithm will be used

 
     Parallelization info
     --------------------
     sticks:   dense  smooth     PW     G-vecs:    dense   smooth      PW
     Min          52      52     15                 1019     1019     168
     Max          53      53     16                 1023     1023     172
     Sum         847     847    253                16361    16361    2733
 

     Title: 
     Sn                                                                         


     bravais-lattice index     =            0
     lattice parameter (alat)  =       8.7524  a.u.
     unit-cell volume          =     474.0897 (a.u.)^3
     number of atoms/cell      =            2
     number of atomic types    =            1
     number of electrons       =        28.00
     number of Kohn-Sham states=           36
     kinetic-energy cutoff     =      40.0000  Ry
     charge density cutoff     =     160.0000  Ry
     convergence threshold     =      1.0E-06
     mixing beta               =       0.7000
     number of iterations used =            8  plain     mixing
     Exchange-correlation      =  SLA  PW   PBX  PBC ( 1  4  3  4 0 0)
     Non magnetic calculation with spin-orbit


     celldm(1)=   8.752360  celldm(2)=   0.000000  celldm(3)=   0.000000
     celldm(4)=   0.000000  celldm(5)=   0.000000  celldm(6)=   0.000000

     crystal axes: (cart. coord. in units of alat)
               a(1) = (   0.000000   0.707107   0.707107 )  
               a(2) = (   0.707107   0.000000   0.707107 )  
               a(3) = (   0.707107   0.707107   0.000000 )  

     reciprocal axes: (cart. coord. in units 2 pi/alat)
               b(1) = ( -0.707107  0.707107  0.707107 )  
               b(2) = (  0.707107 -0.707107  0.707107 )  
               b(3) = (  0.707107  0.707107 -0.707107 )  


     PseudoPot. # 1 for Sn read from file:
     ../PseudopotentialDatabase/Sn.rel-pbe-dn-kjpaw_psl.1.0.0.UPF
     MD5 check sum: 6bcaba2b82cf8d008985ef5bb9854e68
     Pseudo is Projector augmented-wave + core cor, Zval = 14.0
     Generated using "atomic" code by A. Dal Corso  v.6.3
     Shape of augmentation charge: PSQ
     Using radial grid of 1243 points, 10 beta functions with: 
                l(1) =   0
                l(2) =   0
                l(3) =   1
                l(4) =   1
                l(5) =   1
                l(6) =   1
                l(7) =   2
                l(8) =   2
                l(9) =   2
               l(10) =   2
     Q(r) pseudized with 0 coefficients 


     atomic species   valence    mass     pseudopotential
        Sn            14.00   118.71000     Sn( 1.00)

     48 Sym. Ops., with inversion, found (24 have fractional translation)


                                    s                        frac. trans.

      isym =  1     identity                                     

 cryst.   s( 1) = (     1          0          0      )
                  (     0          1          0      )
                  (     0          0          1      )

 cart.    s( 1) = (  1.0000000  0.0000000  0.0000000 )
                  (  0.0000000  1.0000000  0.0000000 )
                  (  0.0000000  0.0000000  1.0000000 )


      isym =  2     180 deg rotation - cart. axis [0,0,1]        

 cryst.   s( 2) = (     0          1         -1      )
                  (     1          0         -1      )
                  (     0          0         -1      )

 cart.    s( 2) = ( -1.0000000  0.0000000  0.0000000 )
                  (  0.0000000 -1.0000000  0.0000000 )
                  (  0.0000000  0.0000000  1.0000000 )


      isym =  3     180 deg rotation - cart. axis [0,1,0]        

 cryst.   s( 3) = (     0         -1          1      )
                  (     0         -1          0      )
                  (     1         -1          0      )

 cart.    s( 3) = ( -1.0000000  0.0000000  0.0000000 )
                  (  0.0000000  1.0000000  0.0000000 )
                  (  0.0000000  0.0000000 -1.0000000 )


      isym =  4     180 deg rotation - cart. axis [1,0,0]        

 cryst.   s( 4) = (    -1          0          0      )
                  (    -1          0          1      )
                  (    -1          1          0      )

 cart.    s( 4) = (  1.0000000  0.0000000  0.0000000 )
                  (  0.0000000 -1.0000000  0.0000000 )
                  (  0.0000000  0.0000000 -1.0000000 )


      isym =  5     180 deg rotation - cart. axis [1,1,0]        

 cryst.   s( 5) = (    -1          0          1      )    f =( -0.2500000 )
                  (     0         -1          1      )       ( -0.2500000 )
                  (     0          0          1      )       ( -0.2500000 )

 cart.    s( 5) = (  0.0000000  1.0000000  0.0000000 )    f =( -0.3535534 )
                  (  1.0000000  0.0000000  0.0000000 )       ( -0.3535534 )
                  (  0.0000000  0.0000000 -1.0000000 )       ( -0.3535534 )


      isym =  6     180 deg rotation - cart. axis [1,-1,0]       

 cryst.   s( 6) = (     0         -1          0      )    f =( -0.2500000 )
                  (    -1          0          0      )       ( -0.2500000 )
                  (     0          0         -1      )       ( -0.2500000 )

 cart.    s( 6) = (  0.0000000 -1.0000000  0.0000000 )    f =( -0.3535534 )
                  ( -1.0000000  0.0000000  0.0000000 )       ( -0.3535534 )
                  (  0.0000000  0.0000000 -1.0000000 )       ( -0.3535534 )


      isym =  7      90 deg rotation - cart. axis [0,0,-1]       

 cryst.   s( 7) = (     0          1          0      )    f =( -0.2500000 )
                  (     0          1         -1      )       ( -0.2500000 )
                  (    -1          1          0      )       ( -0.2500000 )

 cart.    s( 7) = (  0.0000000  1.0000000  0.0000000 )    f =( -0.3535534 )
                  ( -1.0000000  0.0000000  0.0000000 )       ( -0.3535534 )
                  (  0.0000000  0.0000000  1.0000000 )       ( -0.3535534 )


      isym =  8      90 deg rotation - cart. axis [0,0,1]        

 cryst.   s( 8) = (     1          0         -1      )    f =( -0.2500000 )
                  (     1          0          0      )       ( -0.2500000 )
                  (     1         -1          0      )       ( -0.2500000 )

 cart.    s( 8) = (  0.0000000 -1.0000000  0.0000000 )    f =( -0.3535534 )
                  (  1.0000000  0.0000000  0.0000000 )       ( -0.3535534 )
                  (  0.0000000  0.0000000  1.0000000 )       ( -0.3535534 )


      isym =  9     180 deg rotation - cart. axis [1,0,1]        

 cryst.   s( 9) = (    -1          1          0      )    f =( -0.2500000 )
                  (     0          1          0      )       ( -0.2500000 )
                  (     0          1         -1      )       ( -0.2500000 )

 cart.    s( 9) = (  0.0000000  0.0000000  1.0000000 )    f =( -0.3535534 )
                  (  0.0000000 -1.0000000  0.0000000 )       ( -0.3535534 )
                  (  1.0000000  0.0000000  0.0000000 )       ( -0.3535534 )


      isym = 10     180 deg rotation - cart. axis [-1,0,1]       

 cryst.   s(10) = (     0          0         -1      )    f =( -0.2500000 )
                  (     0         -1          0      )       ( -0.2500000 )
                  (    -1          0          0      )       ( -0.2500000 )

 cart.    s(10) = (  0.0000000  0.0000000 -1.0000000 )    f =( -0.3535534 )
                  (  0.0000000 -1.0000000  0.0000000 )       ( -0.3535534 )
                  ( -1.0000000  0.0000000  0.0000000 )       ( -0.3535534 )


      isym = 11      90 deg rotation - cart. axis [0,1,0]        

 cryst.   s(11) = (     0          0          1      )    f =( -0.2500000 )
                  (    -1          0          1      )       ( -0.2500000 )
                  (     0         -1          1      )       ( -0.2500000 )

 cart.    s(11) = (  0.0000000  0.0000000  1.0000000 )    f =( -0.3535534 )
                  (  0.0000000  1.0000000  0.0000000 )       ( -0.3535534 )
                  ( -1.0000000  0.0000000  0.0000000 )       ( -0.3535534 )


      isym = 12      90 deg rotation - cart. axis [0,-1,0]       

 cryst.   s(12) = (     1         -1          0      )    f =( -0.2500000 )
                  (     1          0         -1      )       ( -0.2500000 )
                  (     1          0          0      )       ( -0.2500000 )

 cart.    s(12) = (  0.0000000  0.0000000 -1.0000000 )    f =( -0.3535534 )
                  (  0.0000000  1.0000000  0.0000000 )       ( -0.3535534 )
                  (  1.0000000  0.0000000  0.0000000 )       ( -0.3535534 )


      isym = 13     180 deg rotation - cart. axis [0,1,1]        

 cryst.   s(13) = (     1          0          0      )    f =( -0.2500000 )
                  (     1         -1          0      )       ( -0.2500000 )
                  (     1          0         -1      )       ( -0.2500000 )

 cart.    s(13) = ( -1.0000000  0.0000000  0.0000000 )    f =( -0.3535534 )
                  (  0.0000000  0.0000000  1.0000000 )       ( -0.3535534 )
                  (  0.0000000  1.0000000  0.0000000 )       ( -0.3535534 )


      isym = 14     180 deg rotation - cart. axis [0,1,-1]       

 cryst.   s(14) = (    -1          0          0      )    f =( -0.2500000 )
                  (     0          0         -1      )       ( -0.2500000 )
                  (     0         -1          0      )       ( -0.2500000 )

 cart.    s(14) = ( -1.0000000  0.0000000  0.0000000 )    f =( -0.3535534 )
                  (  0.0000000  0.0000000 -1.0000000 )       ( -0.3535534 )
                  (  0.0000000 -1.0000000  0.0000000 )       ( -0.3535534 )


      isym = 15      90 deg rotation - cart. axis [-1,0,0]       

 cryst.   s(15) = (     0         -1          1      )    f =( -0.2500000 )
                  (     0          0          1      )       ( -0.2500000 )
                  (    -1          0          1      )       ( -0.2500000 )

 cart.    s(15) = (  1.0000000  0.0000000  0.0000000 )    f =( -0.3535534 )
                  (  0.0000000  0.0000000  1.0000000 )       ( -0.3535534 )
                  (  0.0000000 -1.0000000  0.0000000 )       ( -0.3535534 )


      isym = 16      90 deg rotation - cart. axis [1,0,0]        

 cryst.   s(16) = (     0          1         -1      )    f =( -0.2500000 )
                  (    -1          1          0      )       ( -0.2500000 )
                  (     0          1          0      )       ( -0.2500000 )

 cart.    s(16) = (  1.0000000  0.0000000  0.0000000 )    f =( -0.3535534 )
                  (  0.0000000  0.0000000 -1.0000000 )       ( -0.3535534 )
                  (  0.0000000  1.0000000  0.0000000 )       ( -0.3535534 )


      isym = 17     120 deg rotation - cart. axis [-1,-1,-1]     

 cryst.   s(17) = (     0          0          1      )
                  (     1          0          0      )
                  (     0          1          0      )

 cart.    s(17) = (  0.0000000  1.0000000  0.0000000 )
                  (  0.0000000  0.0000000  1.0000000 )
                  (  1.0000000  0.0000000  0.0000000 )


      isym = 18     120 deg rotation - cart. axis [-1,1,1]       

 cryst.   s(18) = (     1         -1          0      )
                  (     0         -1          1      )
                  (     0         -1          0      )

 cart.    s(18) = (  0.0000000 -1.0000000  0.0000000 )
                  (  0.0000000  0.0000000  1.0000000 )
                  ( -1.0000000  0.0000000  0.0000000 )


      isym = 19     120 deg rotation - cart. axis [1,1,-1]       

 cryst.   s(19) = (    -1          1          0      )
                  (    -1          0          0      )
                  (    -1          0          1      )

 cart.    s(19) = (  0.0000000  1.0000000  0.0000000 )
                  (  0.0000000  0.0000000 -1.0000000 )
                  ( -1.0000000  0.0000000  0.0000000 )


      isym = 20     120 deg rotation - cart. axis [1,-1,1]       

 cryst.   s(20) = (     0          0         -1      )
                  (     0          1         -1      )
                  (     1          0         -1      )

 cart.    s(20) = (  0.0000000 -1.0000000  0.0000000 )
                  (  0.0000000  0.0000000 -1.0000000 )
                  (  1.0000000  0.0000000  0.0000000 )


      isym = 21     120 deg rotation - cart. axis [1,1,1]        

 cryst.   s(21) = (     0          1          0      )
                  (     0          0          1      )
                  (     1          0          0      )

 cart.    s(21) = (  0.0000000  0.0000000  1.0000000 )
                  (  1.0000000  0.0000000  0.0000000 )
                  (  0.0000000  1.0000000  0.0000000 )


      isym = 22     120 deg rotation - cart. axis [-1,1,-1]      

 cryst.   s(22) = (    -1          0          1      )
                  (    -1          1          0      )
                  (    -1          0          0      )

 cart.    s(22) = (  0.0000000  0.0000000  1.0000000 )
                  ( -1.0000000  0.0000000  0.0000000 )
                  (  0.0000000 -1.0000000  0.0000000 )


      isym = 23     120 deg rotation - cart. axis [1,-1,-1]      

 cryst.   s(23) = (     1          0         -1      )
                  (     0          0         -1      )
                  (     0          1         -1      )

 cart.    s(23) = (  0.0000000  0.0000000 -1.0000000 )
                  ( -1.0000000  0.0000000  0.0000000 )
                  (  0.0000000  1.0000000  0.0000000 )


      isym = 24     120 deg rotation - cart. axis [-1,-1,1]      

 cryst.   s(24) = (     0         -1          0      )
                  (     1         -1          0      )
                  (     0         -1          1      )

 cart.    s(24) = (  0.0000000  0.0000000 -1.0000000 )
                  (  1.0000000  0.0000000  0.0000000 )
                  (  0.0000000 -1.0000000  0.0000000 )


      isym = 25     inversion                                    

 cryst.   s(25) = (    -1          0          0      )    f =( -0.2500000 )
                  (     0         -1          0      )       ( -0.2500000 )
                  (     0          0         -1      )       ( -0.2500000 )

 cart.    s(25) = ( -1.0000000  0.0000000  0.0000000 )    f =( -0.3535534 )
                  (  0.0000000 -1.0000000  0.0000000 )       ( -0.3535534 )
                  (  0.0000000  0.0000000 -1.0000000 )       ( -0.3535534 )


      isym = 26     inv. 180 deg rotation - cart. axis [0,0,1]   

 cryst.   s(26) = (     0         -1          1      )    f =( -0.2500000 )
                  (    -1          0          1      )       ( -0.2500000 )
                  (     0          0          1      )       ( -0.2500000 )

 cart.    s(26) = (  1.0000000  0.0000000  0.0000000 )    f =( -0.3535534 )
                  (  0.0000000  1.0000000  0.0000000 )       ( -0.3535534 )
                  (  0.0000000  0.0000000 -1.0000000 )       ( -0.3535534 )


      isym = 27     inv. 180 deg rotation - cart. axis [0,1,0]   

 cryst.   s(27) = (     0          1         -1      )    f =( -0.2500000 )
                  (     0          1          0      )       ( -0.2500000 )
                  (    -1          1          0      )       ( -0.2500000 )

 cart.    s(27) = (  1.0000000  0.0000000  0.0000000 )    f =( -0.3535534 )
                  (  0.0000000 -1.0000000  0.0000000 )       ( -0.3535534 )
                  (  0.0000000  0.0000000  1.0000000 )       ( -0.3535534 )


      isym = 28     inv. 180 deg rotation - cart. axis [1,0,0]   

 cryst.   s(28) = (     1          0          0      )    f =( -0.2500000 )
                  (     1          0         -1      )       ( -0.2500000 )
                  (     1         -1          0      )       ( -0.2500000 )

 cart.    s(28) = ( -1.0000000  0.0000000  0.0000000 )    f =( -0.3535534 )
                  (  0.0000000  1.0000000  0.0000000 )       ( -0.3535534 )
                  (  0.0000000  0.0000000  1.0000000 )       ( -0.3535534 )


      isym = 29     inv. 180 deg rotation - cart. axis [1,1,0]   

 cryst.   s(29) = (     1          0         -1      )
                  (     0          1         -1      )
                  (     0          0         -1      )

 cart.    s(29) = (  0.0000000 -1.0000000  0.0000000 )
                  ( -1.0000000  0.0000000  0.0000000 )
                  (  0.0000000  0.0000000  1.0000000 )


      isym = 30     inv. 180 deg rotation - cart. axis [1,-1,0]  

 cryst.   s(30) = (     0          1          0      )
                  (     1          0          0      )
                  (     0          0          1      )

 cart.    s(30) = (  0.0000000  1.0000000  0.0000000 )
                  (  1.0000000  0.0000000  0.0000000 )
                  (  0.0000000  0.0000000  1.0000000 )


      isym = 31     inv.  90 deg rotation - cart. axis [0,0,-1]  

 cryst.   s(31) = (     0         -1          0      )
                  (     0         -1          1      )
                  (     1         -1          0      )

 cart.    s(31) = (  0.0000000 -1.0000000  0.0000000 )
                  (  1.0000000  0.0000000  0.0000000 )
                  (  0.0000000  0.0000000 -1.0000000 )


      isym = 32     inv.  90 deg rotation - cart. axis [0,0,1]   

 cryst.   s(32) = (    -1          0          1      )
                  (    -1          0          0      )
                  (    -1          1          0      )

 cart.    s(32) = (  0.0000000  1.0000000  0.0000000 )
                  ( -1.0000000  0.0000000  0.0000000 )
                  (  0.0000000  0.0000000 -1.0000000 )


      isym = 33     inv. 180 deg rotation - cart. axis [1,0,1]   

 cryst.   s(33) = (     1         -1          0      )
                  (     0         -1          0      )
                  (     0         -1          1      )

 cart.    s(33) = (  0.0000000  0.0000000 -1.0000000 )
                  (  0.0000000  1.0000000  0.0000000 )
                  ( -1.0000000  0.0000000  0.0000000 )


      isym = 34     inv. 180 deg rotation - cart. axis [-1,0,1]  

 cryst.   s(34) = (     0          0          1      )
                  (     0          1          0      )
                  (     1          0          0      )

 cart.    s(34) = (  0.0000000  0.0000000  1.0000000 )
                  (  0.0000000  1.0000000  0.0000000 )
                  (  1.0000000  0.0000000  0.0000000 )


      isym = 35     inv.  90 deg rotation - cart. axis [0,1,0]   

 cryst.   s(35) = (     0          0         -1      )
                  (     1          0         -1      )
                  (     0          1         -1      )

 cart.    s(35) = (  0.0000000  0.0000000 -1.0000000 )
                  (  0.0000000 -1.0000000  0.0000000 )
                  (  1.0000000  0.0000000  0.0000000 )


      isym = 36     inv.  90 deg rotation - cart. axis [0,-1,0]  

 cryst.   s(36) = (    -1          1          0      )
                  (    -1          0          1      )
                  (    -1          0          0      )

 cart.    s(36) = (  0.0000000  0.0000000  1.0000000 )
                  (  0.0000000 -1.0000000  0.0000000 )
                  ( -1.0000000  0.0000000  0.0000000 )


      isym = 37     inv. 180 deg rotation - cart. axis [0,1,1]   

 cryst.   s(37) = (    -1          0          0      )
                  (    -1          1          0      )
                  (    -1          0          1      )

 cart.    s(37) = (  1.0000000  0.0000000  0.0000000 )
                  (  0.0000000  0.0000000 -1.0000000 )
                  (  0.0000000 -1.0000000  0.0000000 )


      isym = 38     inv. 180 deg rotation - cart. axis [0,1,-1]  

 cryst.   s(38) = (     1          0          0      )
                  (     0          0          1      )
                  (     0          1          0      )

 cart.    s(38) = (  1.0000000  0.0000000  0.0000000 )
                  (  0.0000000  0.0000000  1.0000000 )
                  (  0.0000000  1.0000000  0.0000000 )


      isym = 39     inv.  90 deg rotation - cart. axis [-1,0,0]  

 cryst.   s(39) = (     0          1         -1      )
                  (     0          0         -1      )
                  (     1          0         -1      )

 cart.    s(39) = ( -1.0000000  0.0000000  0.0000000 )
                  (  0.0000000  0.0000000 -1.0000000 )
                  (  0.0000000  1.0000000  0.0000000 )


      isym = 40     inv.  90 deg rotation - cart. axis [1,0,0]   

 cryst.   s(40) = (     0         -1          1      )
                  (     1         -1          0      )
                  (     0         -1          0      )

 cart.    s(40) = ( -1.0000000  0.0000000  0.0000000 )
                  (  0.0000000  0.0000000  1.0000000 )
                  (  0.0000000 -1.0000000  0.0000000 )


      isym = 41     inv. 120 deg rotation - cart. axis [-1,-1,-1]

 cryst.   s(41) = (     0          0         -1      )    f =( -0.2500000 )
                  (    -1          0          0      )       ( -0.2500000 )
                  (     0         -1          0      )       ( -0.2500000 )

 cart.    s(41) = (  0.0000000 -1.0000000  0.0000000 )    f =( -0.3535534 )
                  (  0.0000000  0.0000000 -1.0000000 )       ( -0.3535534 )
                  ( -1.0000000  0.0000000  0.0000000 )       ( -0.3535534 )


      isym = 42     inv. 120 deg rotation - cart. axis [-1,1,1]  

 cryst.   s(42) = (    -1          1          0      )    f =( -0.2500000 )
                  (     0          1         -1      )       ( -0.2500000 )
                  (     0          1          0      )       ( -0.2500000 )

 cart.    s(42) = (  0.0000000  1.0000000  0.0000000 )    f =( -0.3535534 )
                  (  0.0000000  0.0000000 -1.0000000 )       ( -0.3535534 )
                  (  1.0000000  0.0000000  0.0000000 )       ( -0.3535534 )


      isym = 43     inv. 120 deg rotation - cart. axis [1,1,-1]  

 cryst.   s(43) = (     1         -1          0      )    f =( -0.2500000 )
                  (     1          0          0      )       ( -0.2500000 )
                  (     1          0         -1      )       ( -0.2500000 )

 cart.    s(43) = (  0.0000000 -1.0000000  0.0000000 )    f =( -0.3535534 )
                  (  0.0000000  0.0000000  1.0000000 )       ( -0.3535534 )
                  (  1.0000000  0.0000000  0.0000000 )       ( -0.3535534 )


      isym = 44     inv. 120 deg rotation - cart. axis [1,-1,1]  

 cryst.   s(44) = (     0          0          1      )    f =( -0.2500000 )
                  (     0         -1          1      )       ( -0.2500000 )
                  (    -1          0          1      )       ( -0.2500000 )

 cart.    s(44) = (  0.0000000  1.0000000  0.0000000 )    f =( -0.3535534 )
                  (  0.0000000  0.0000000  1.0000000 )       ( -0.3535534 )
                  ( -1.0000000  0.0000000  0.0000000 )       ( -0.3535534 )


      isym = 45     inv. 120 deg rotation - cart. axis [1,1,1]   

 cryst.   s(45) = (     0         -1          0      )    f =( -0.2500000 )
                  (     0          0         -1      )       ( -0.2500000 )
                  (    -1          0          0      )       ( -0.2500000 )

 cart.    s(45) = (  0.0000000  0.0000000 -1.0000000 )    f =( -0.3535534 )
                  ( -1.0000000  0.0000000  0.0000000 )       ( -0.3535534 )
                  (  0.0000000 -1.0000000  0.0000000 )       ( -0.3535534 )


      isym = 46     inv. 120 deg rotation - cart. axis [-1,1,-1] 

 cryst.   s(46) = (     1          0         -1      )    f =( -0.2500000 )
                  (     1         -1          0      )       ( -0.2500000 )
                  (     1          0          0      )       ( -0.2500000 )

 cart.    s(46) = (  0.0000000  0.0000000 -1.0000000 )    f =( -0.3535534 )
                  (  1.0000000  0.0000000  0.0000000 )       ( -0.3535534 )
                  (  0.0000000  1.0000000  0.0000000 )       ( -0.3535534 )


      isym = 47     inv. 120 deg rotation - cart. axis [1,-1,-1] 

 cryst.   s(47) = (    -1          0          1      )    f =( -0.2500000 )
                  (     0          0          1      )       ( -0.2500000 )
                  (     0         -1          1      )       ( -0.2500000 )

 cart.    s(47) = (  0.0000000  0.0000000  1.0000000 )    f =( -0.3535534 )
                  (  1.0000000  0.0000000  0.0000000 )       ( -0.3535534 )
                  (  0.0000000 -1.0000000  0.0000000 )       ( -0.3535534 )


      isym = 48     inv. 120 deg rotation - cart. axis [-1,-1,1] 

 cryst.   s(48) = (     0          1          0      )    f =( -0.2500000 )
                  (    -1          1          0      )       ( -0.2500000 )
                  (     0          1         -1      )       ( -0.2500000 )

 cart.    s(48) = (  0.0000000  0.0000000  1.0000000 )    f =( -0.3535534 )
                  ( -1.0000000  0.0000000  0.0000000 )       ( -0.3535534 )
                  (  0.0000000  1.0000000  0.0000000 )       ( -0.3535534 )


   Cartesian axes

     site n.     atom                  positions (alat units)
         1           Sn  tau(   1) = (   0.0000000   0.0000000   0.0000000  )
         2           Sn  tau(   2) = (   0.3535534   0.3535534   0.3535534  )

   Crystallographic axes

     site n.     atom                  positions (cryst. coord.)
         1           Sn  tau(   1) = (  0.0000000  0.0000000  0.0000000  )
         2           Sn  tau(   2) = (  0.2500000  0.2500000  0.2500000  )

     number of k points=   256  gaussian smearing, width (Ry)=  0.0001
                       cart. coord. in units 2pi/alat
        k(    1) = (   0.0000000   0.0000000   0.0000000), wk =   0.0001250
        k(    2) = (   0.0353553   0.0353553  -0.0353553), wk =   0.0010000
        k(    3) = (   0.0707107   0.0707107  -0.0707107), wk =   0.0010000
        k(    4) = (   0.1060660   0.1060660  -0.1060660), wk =   0.0010000
        k(    5) = (   0.1414214   0.1414214  -0.1414214), wk =   0.0010000
        k(    6) = (   0.1767767   0.1767767  -0.1767767), wk =   0.0010000
        k(    7) = (   0.2121320   0.2121320  -0.2121320), wk =   0.0010000
        k(    8) = (   0.2474874   0.2474874  -0.2474874), wk =   0.0010000
        k(    9) = (   0.2828427   0.2828427  -0.2828427), wk =   0.0010000
        k(   10) = (   0.3181981   0.3181981  -0.3181981), wk =   0.0010000
        k(   11) = (  -0.3535534  -0.3535534   0.3535534), wk =   0.0005000
        k(   12) = (   0.0707107   0.0000000   0.0000000), wk =   0.0007500
        k(   13) = (   0.1060660   0.0353553  -0.0353553), wk =   0.0030000
        k(   14) = (   0.1414214   0.0707107  -0.0707107), wk =   0.0030000
        k(   15) = (   0.1767767   0.1060660  -0.1060660), wk =   0.0030000
        k(   16) = (   0.2121320   0.1414214  -0.1414214), wk =   0.0030000
        k(   17) = (   0.2474874   0.1767767  -0.1767767), wk =   0.0030000
        k(   18) = (   0.2828427   0.2121320  -0.2121320), wk =   0.0030000
        k(   19) = (   0.3181981   0.2474874  -0.2474874), wk =   0.0030000
        k(   20) = (   0.3535534   0.2828427  -0.2828427), wk =   0.0030000
        k(   21) = (  -0.3181981  -0.3889087   0.3889087), wk =   0.0030000
        k(   22) = (  -0.2828427  -0.3535534   0.3535534), wk =   0.0030000
        k(   23) = (  -0.2474874  -0.3181981   0.3181981), wk =   0.0030000
        k(   24) = (  -0.2121320  -0.2828427   0.2828427), wk =   0.0030000
        k(   25) = (  -0.1767767  -0.2474874   0.2474874), wk =   0.0030000
        k(   26) = (  -0.1414214  -0.2121320   0.2121320), wk =   0.0030000
        k(   27) = (  -0.1060660  -0.1767767   0.1767767), wk =   0.0030000
        k(   28) = (  -0.0707107  -0.1414214   0.1414214), wk =   0.0030000
        k(   29) = (  -0.0353553  -0.1060660   0.1060660), wk =   0.0030000
        k(   30) = (  -0.0000000  -0.0707107   0.0707107), wk =   0.0015000
        k(   31) = (   0.1414214   0.0000000   0.0000000), wk =   0.0007500
        k(   32) = (   0.1767767   0.0353553  -0.0353553), wk =   0.0030000
        k(   33) = (   0.2121320   0.0707107  -0.0707107), wk =   0.0030000
        k(   34) = (   0.2474874   0.1060660  -0.1060660), wk =   0.0030000
        k(   35) = (   0.2828427   0.1414214  -0.1414214), wk =   0.0030000
        k(   36) = (   0.3181981   0.1767767  -0.1767767), wk =   0.0030000
        k(   37) = (   0.3535534   0.2121320  -0.2121320), wk =   0.0030000
        k(   38) = (   0.3889087   0.2474874  -0.2474874), wk =   0.0030000
        k(   39) = (  -0.2828427  -0.4242641   0.4242641), wk =   0.0030000
        k(   40) = (  -0.2474874  -0.3889087   0.3889087), wk =   0.0030000
        k(   41) = (  -0.2121320  -0.3535534   0.3535534), wk =   0.0030000
        k(   42) = (  -0.1767767  -0.3181981   0.3181981), wk =   0.0030000
        k(   43) = (  -0.1414214  -0.2828427   0.2828427), wk =   0.0030000
        k(   44) = (  -0.1060660  -0.2474874   0.2474874), wk =   0.0030000
        k(   45) = (  -0.0707107  -0.2121320   0.2121320), wk =   0.0030000
        k(   46) = (  -0.0353553  -0.1767767   0.1767767), wk =   0.0030000
        k(   47) = (   0.0000000  -0.1414214   0.1414214), wk =   0.0015000
        k(   48) = (   0.2121320   0.0000000   0.0000000), wk =   0.0007500
        k(   49) = (   0.2474874   0.0353553  -0.0353553), wk =   0.0030000
        k(   50) = (   0.2828427   0.0707107  -0.0707107), wk =   0.0030000
        k(   51) = (   0.3181981   0.1060660  -0.1060660), wk =   0.0030000
        k(   52) = (   0.3535534   0.1414214  -0.1414214), wk =   0.0030000
        k(   53) = (   0.3889087   0.1767767  -0.1767767), wk =   0.0030000
        k(   54) = (   0.4242641   0.2121320  -0.2121320), wk =   0.0030000
        k(   55) = (  -0.2474874  -0.4596194   0.4596194), wk =   0.0030000
        k(   56) = (  -0.2121320  -0.4242641   0.4242641), wk =   0.0030000
        k(   57) = (  -0.1767767  -0.3889087   0.3889087), wk =   0.0030000
        k(   58) = (  -0.1414214  -0.3535534   0.3535534), wk =   0.0030000
        k(   59) = (  -0.1060660  -0.3181981   0.3181981), wk =   0.0030000
        k(   60) = (  -0.0707107  -0.2828427   0.2828427), wk =   0.0030000
        k(   61) = (  -0.0353553  -0.2474874   0.2474874), wk =   0.0030000
        k(   62) = (  -0.0000000  -0.2121320   0.2121320), wk =   0.0015000
        k(   63) = (   0.2828427   0.0000000   0.0000000), wk =   0.0007500
        k(   64) = (   0.3181981   0.0353553  -0.0353553), wk =   0.0030000
        k(   65) = (   0.3535534   0.0707107  -0.0707107), wk =   0.0030000
        k(   66) = (   0.3889087   0.1060660  -0.1060660), wk =   0.0030000
        k(   67) = (   0.4242641   0.1414214  -0.1414214), wk =   0.0030000
        k(   68) = (   0.4596194   0.1767767  -0.1767767), wk =   0.0030000
        k(   69) = (  -0.2121320  -0.4949747   0.4949747), wk =   0.0030000
        k(   70) = (  -0.1767767  -0.4596194   0.4596194), wk =   0.0030000
        k(   71) = (  -0.1414214  -0.4242641   0.4242641), wk =   0.0030000
        k(   72) = (  -0.1060660  -0.3889087   0.3889087), wk =   0.0030000
        k(   73) = (  -0.0707107  -0.3535534   0.3535534), wk =   0.0030000
        k(   74) = (  -0.0353553  -0.3181981   0.3181981), wk =   0.0030000
        k(   75) = (   0.0000000  -0.2828427   0.2828427), wk =   0.0015000
        k(   76) = (   0.3535534   0.0000000   0.0000000), wk =   0.0007500
        k(   77) = (   0.3889087   0.0353553  -0.0353553), wk =   0.0030000
        k(   78) = (   0.4242641   0.0707107  -0.0707107), wk =   0.0030000
        k(   79) = (   0.4596194   0.1060660  -0.1060660), wk =   0.0030000
        k(   80) = (   0.4949747   0.1414214  -0.1414214), wk =   0.0030000
        k(   81) = (  -0.1767767  -0.5303301   0.5303301), wk =   0.0030000
        k(   82) = (  -0.1414214  -0.4949747   0.4949747), wk =   0.0030000
        k(   83) = (  -0.1060660  -0.4596194   0.4596194), wk =   0.0030000
        k(   84) = (  -0.0707107  -0.4242641   0.4242641), wk =   0.0030000
        k(   85) = (  -0.0353553  -0.3889087   0.3889087), wk =   0.0030000
        k(   86) = (   0.0000000  -0.3535534   0.3535534), wk =   0.0015000
        k(   87) = (   0.4242641   0.0000000   0.0000000), wk =   0.0007500
        k(   88) = (   0.4596194   0.0353553  -0.0353553), wk =   0.0030000
        k(   89) = (   0.4949747   0.0707107  -0.0707107), wk =   0.0030000
        k(   90) = (   0.5303301   0.1060660  -0.1060660), wk =   0.0030000
        k(   91) = (  -0.1414214  -0.5656854   0.5656854), wk =   0.0030000
        k(   92) = (  -0.1060660  -0.5303301   0.5303301), wk =   0.0030000
        k(   93) = (  -0.0707107  -0.4949747   0.4949747), wk =   0.0030000
        k(   94) = (  -0.0353553  -0.4596194   0.4596194), wk =   0.0030000
        k(   95) = (  -0.0000000  -0.4242641   0.4242641), wk =   0.0015000
        k(   96) = (   0.4949747   0.0000000   0.0000000), wk =   0.0007500
        k(   97) = (   0.5303301   0.0353553  -0.0353553), wk =   0.0030000
        k(   98) = (   0.5656854   0.0707107  -0.0707107), wk =   0.0030000
        k(   99) = (  -0.1060660  -0.6010408   0.6010408), wk =   0.0030000
        k(  100) = (  -0.0707107  -0.5656854   0.5656854), wk =   0.0030000
        k(  101) = (  -0.0353553  -0.5303301   0.5303301), wk =   0.0030000
        k(  102) = (   0.0000000  -0.4949747   0.4949747), wk =   0.0015000
        k(  103) = (   0.5656854   0.0000000   0.0000000), wk =   0.0007500
        k(  104) = (   0.6010408   0.0353553  -0.0353553), wk =   0.0030000
        k(  105) = (  -0.0707107  -0.6363961   0.6363961), wk =   0.0030000
        k(  106) = (  -0.0353553  -0.6010408   0.6010408), wk =   0.0030000
        k(  107) = (   0.0000000  -0.5656854   0.5656854), wk =   0.0015000
        k(  108) = (   0.6363961   0.0000000   0.0000000), wk =   0.0007500
        k(  109) = (  -0.0353553  -0.6717514   0.6717514), wk =   0.0030000
        k(  110) = (   0.0000000  -0.6363961   0.6363961), wk =   0.0015000
        k(  111) = (  -0.7071068   0.0000000   0.0000000), wk =   0.0003750
        k(  112) = (   0.1414214   0.0707107   0.0000000), wk =   0.0030000
        k(  113) = (   0.1767767   0.1060660  -0.0353553), wk =   0.0060000
        k(  114) = (   0.2121320   0.1414214  -0.0707107), wk =   0.0060000
        k(  115) = (   0.2474874   0.1767767  -0.1060660), wk =   0.0060000
        k(  116) = (   0.2828427   0.2121320  -0.1414214), wk =   0.0060000
        k(  117) = (   0.3181981   0.2474874  -0.1767767), wk =   0.0060000
        k(  118) = (   0.3535534   0.2828427  -0.2121320), wk =   0.0060000
        k(  119) = (  -0.3181981  -0.3889087   0.4596194), wk =   0.0060000
        k(  120) = (  -0.2828427  -0.3535534   0.4242641), wk =   0.0030000
        k(  121) = (   0.2121320   0.0707107  -0.0000000), wk =   0.0030000
        k(  122) = (   0.2474874   0.1060660  -0.0353553), wk =   0.0060000
        k(  123) = (   0.2828427   0.1414214  -0.0707107), wk =   0.0060000
        k(  124) = (   0.3181981   0.1767767  -0.1060660), wk =   0.0060000
        k(  125) = (   0.3535534   0.2121320  -0.1414214), wk =   0.0060000
        k(  126) = (   0.3889087   0.2474874  -0.1767767), wk =   0.0060000
        k(  127) = (  -0.2828427  -0.4242641   0.4949747), wk =   0.0060000
        k(  128) = (  -0.2474874  -0.3889087   0.4596194), wk =   0.0060000
        k(  129) = (  -0.2121320  -0.3535534   0.4242641), wk =   0.0060000
        k(  130) = (  -0.1767767  -0.3181981   0.3889087), wk =   0.0060000
        k(  131) = (  -0.1414214  -0.2828427   0.3535534), wk =   0.0060000
        k(  132) = (  -0.1060660  -0.2474874   0.3181981), wk =   0.0060000
        k(  133) = (  -0.0707107  -0.2121320   0.2828427), wk =   0.0060000
        k(  134) = (  -0.0353553  -0.1767767   0.2474874), wk =   0.0060000
        k(  135) = (   0.0000000  -0.1414214   0.2121320), wk =   0.0030000
        k(  136) = (   0.2828427   0.0707107   0.0000000), wk =   0.0030000
        k(  137) = (   0.3181981   0.1060660  -0.0353553), wk =   0.0060000
        k(  138) = (   0.3535534   0.1414214  -0.0707107), wk =   0.0060000
        k(  139) = (   0.3889087   0.1767767  -0.1060660), wk =   0.0060000
        k(  140) = (   0.4242641   0.2121320  -0.1414214), wk =   0.0060000
        k(  141) = (  -0.2474874  -0.4596194   0.5303301), wk =   0.0060000
        k(  142) = (  -0.2121320  -0.4242641   0.4949747), wk =   0.0060000
        k(  143) = (  -0.1767767  -0.3889087   0.4596194), wk =   0.0060000
        k(  144) = (  -0.1414214  -0.3535534   0.4242641), wk =   0.0060000
        k(  145) = (  -0.1060660  -0.3181981   0.3889087), wk =   0.0060000
        k(  146) = (  -0.0707107  -0.2828427   0.3535534), wk =   0.0060000
        k(  147) = (  -0.0353553  -0.2474874   0.3181981), wk =   0.0060000
        k(  148) = (  -0.0000000  -0.2121320   0.2828427), wk =   0.0030000
        k(  149) = (   0.3535534   0.0707107   0.0000000), wk =   0.0030000
        k(  150) = (   0.3889087   0.1060660  -0.0353553), wk =   0.0060000
        k(  151) = (   0.4242641   0.1414214  -0.0707107), wk =   0.0060000
        k(  152) = (   0.4596194   0.1767767  -0.1060660), wk =   0.0060000
        k(  153) = (  -0.2121320  -0.4949747   0.5656854), wk =   0.0060000
        k(  154) = (  -0.1767767  -0.4596194   0.5303301), wk =   0.0060000
        k(  155) = (  -0.1414214  -0.4242641   0.4949747), wk =   0.0060000
        k(  156) = (  -0.1060660  -0.3889087   0.4596194), wk =   0.0060000
        k(  157) = (  -0.0707107  -0.3535534   0.4242641), wk =   0.0060000
        k(  158) = (  -0.0353553  -0.3181981   0.3889087), wk =   0.0060000
        k(  159) = (   0.0000000  -0.2828427   0.3535534), wk =   0.0030000
        k(  160) = (   0.4242641   0.0707107   0.0000000), wk =   0.0030000
        k(  161) = (   0.4596194   0.1060660  -0.0353553), wk =   0.0060000
        k(  162) = (   0.4949747   0.1414214  -0.0707107), wk =   0.0060000
        k(  163) = (  -0.1767767  -0.5303301   0.6010408), wk =   0.0060000
        k(  164) = (  -0.1414214  -0.4949747   0.5656854), wk =   0.0060000
        k(  165) = (  -0.1060660  -0.4596194   0.5303301), wk =   0.0060000
        k(  166) = (  -0.0707107  -0.4242641   0.4949747), wk =   0.0060000
        k(  167) = (  -0.0353553  -0.3889087   0.4596194), wk =   0.0060000
        k(  168) = (  -0.0000000  -0.3535534   0.4242641), wk =   0.0030000
        k(  169) = (   0.4949747   0.0707107  -0.0000000), wk =   0.0030000
        k(  170) = (   0.5303301   0.1060660  -0.0353553), wk =   0.0060000
        k(  171) = (  -0.1414214  -0.5656854   0.6363961), wk =   0.0060000
        k(  172) = (  -0.1060660  -0.5303301   0.6010408), wk =   0.0060000
        k(  173) = (  -0.0707107  -0.4949747   0.5656854), wk =   0.0060000
        k(  174) = (  -0.0353553  -0.4596194   0.5303301), wk =   0.0060000
        k(  175) = (  -0.0000000  -0.4242641   0.4949747), wk =   0.0030000
        k(  176) = (   0.5656854   0.0707107   0.0000000), wk =   0.0030000
        k(  177) = (  -0.1060660  -0.6010408   0.6717514), wk =   0.0060000
        k(  178) = (  -0.0707107  -0.5656854   0.6363961), wk =   0.0060000
        k(  179) = (  -0.0353553  -0.5303301   0.6010408), wk =   0.0060000
        k(  180) = (   0.0000000  -0.4949747   0.5656854), wk =   0.0030000
        k(  181) = (  -0.0707107  -0.6363961   0.7071068), wk =   0.0030000
        k(  182) = (  -0.0353553  -0.6010408   0.6717514), wk =   0.0060000
        k(  183) = (   0.0000000  -0.5656854   0.6363961), wk =   0.0030000
        k(  184) = (  -0.7071068   0.0707107  -0.0000000), wk =   0.0015000
        k(  185) = (   0.2828427   0.1414214   0.0000000), wk =   0.0030000
        k(  186) = (   0.3181981   0.1767767  -0.0353553), wk =   0.0060000
        k(  187) = (   0.3535534   0.2121320  -0.0707107), wk =   0.0060000
        k(  188) = (   0.3889087   0.2474874  -0.1060660), wk =   0.0060000
        k(  189) = (  -0.2828427  -0.4242641   0.5656854), wk =   0.0060000
        k(  190) = (  -0.2474874  -0.3889087   0.5303301), wk =   0.0060000
        k(  191) = (  -0.2121320  -0.3535534   0.4949747), wk =   0.0030000
        k(  192) = (   0.3535534   0.1414214   0.0000000), wk =   0.0030000
        k(  193) = (   0.3889087   0.1767767  -0.0353553), wk =   0.0060000
        k(  194) = (   0.4242641   0.2121320  -0.0707107), wk =   0.0060000
        k(  195) = (  -0.2474874  -0.4596194   0.6010408), wk =   0.0060000
        k(  196) = (  -0.2121320  -0.4242641   0.5656854), wk =   0.0060000
        k(  197) = (  -0.1767767  -0.3889087   0.5303301), wk =   0.0060000
        k(  198) = (  -0.1414214  -0.3535534   0.4949747), wk =   0.0060000
        k(  199) = (  -0.1060660  -0.3181981   0.4596194), wk =   0.0060000
        k(  200) = (  -0.0707107  -0.2828427   0.4242641), wk =   0.0060000
        k(  201) = (  -0.0353553  -0.2474874   0.3889087), wk =   0.0060000
        k(  202) = (  -0.0000000  -0.2121320   0.3535534), wk =   0.0030000
        k(  203) = (   0.4242641   0.1414214  -0.0000000), wk =   0.0030000
        k(  204) = (   0.4596194   0.1767767  -0.0353553), wk =   0.0060000
        k(  205) = (  -0.2121320  -0.4949747   0.6363961), wk =   0.0060000
        k(  206) = (  -0.1767767  -0.4596194   0.6010408), wk =   0.0060000
        k(  207) = (  -0.1414214  -0.4242641   0.5656854), wk =   0.0060000
        k(  208) = (  -0.1060660  -0.3889087   0.5303301), wk =   0.0060000
        k(  209) = (  -0.0707107  -0.3535534   0.4949747), wk =   0.0060000
        k(  210) = (  -0.0353553  -0.3181981   0.4596194), wk =   0.0060000
        k(  211) = (   0.0000000  -0.2828427   0.4242641), wk =   0.0030000
        k(  212) = (   0.4949747   0.1414214   0.0000000), wk =   0.0030000
        k(  213) = (  -0.1767767  -0.5303301   0.6717514), wk =   0.0060000
        k(  214) = (  -0.1414214  -0.4949747   0.6363961), wk =   0.0060000
        k(  215) = (  -0.1060660  -0.4596194   0.6010408), wk =   0.0060000
        k(  216) = (  -0.0707107  -0.4242641   0.5656854), wk =   0.0060000
        k(  217) = (  -0.0353553  -0.3889087   0.5303301), wk =   0.0060000
        k(  218) = (  -0.0000000  -0.3535534   0.4949747), wk =   0.0030000
        k(  219) = (  -0.1414214  -0.5656854   0.7071068), wk =   0.0030000
        k(  220) = (  -0.1060660  -0.5303301   0.6717514), wk =   0.0060000
        k(  221) = (  -0.0707107  -0.4949747   0.6363961), wk =   0.0060000
        k(  222) = (  -0.0353553  -0.4596194   0.6010408), wk =   0.0060000
        k(  223) = (  -0.0000000  -0.4242641   0.5656854), wk =   0.0030000
        k(  224) = (  -0.0707107  -0.5656854   0.7071068), wk =   0.0030000
        k(  225) = (  -0.0353553  -0.5303301   0.6717514), wk =   0.0060000
        k(  226) = (   0.0000000  -0.4949747   0.6363961), wk =   0.0030000
        k(  227) = (  -0.7071068   0.1414214   0.0000000), wk =   0.0015000
        k(  228) = (   0.4242641   0.2121320  -0.0000000), wk =   0.0030000
        k(  229) = (  -0.2474874  -0.4596194   0.6717514), wk =   0.0060000
        k(  230) = (  -0.2121320  -0.4242641   0.6363961), wk =   0.0060000
        k(  231) = (  -0.1767767  -0.3889087   0.6010408), wk =   0.0060000
        k(  232) = (  -0.1414214  -0.3535534   0.5656854), wk =   0.0030000
        k(  233) = (  -0.2121320  -0.4949747   0.7071068), wk =   0.0030000
        k(  234) = (  -0.1767767  -0.4596194   0.6717514), wk =   0.0060000
        k(  235) = (  -0.1414214  -0.4242641   0.6363961), wk =   0.0060000
        k(  236) = (  -0.1060660  -0.3889087   0.6010408), wk =   0.0060000
        k(  237) = (  -0.0707107  -0.3535534   0.5656854), wk =   0.0060000
        k(  238) = (  -0.0353553  -0.3181981   0.5303301), wk =   0.0060000
        k(  239) = (   0.0000000  -0.2828427   0.4949747), wk =   0.0030000
        k(  240) = (  -0.1414214  -0.4949747   0.7071068), wk =   0.0030000
        k(  241) = (  -0.1060660  -0.4596194   0.6717514), wk =   0.0060000
        k(  242) = (  -0.0707107  -0.4242641   0.6363961), wk =   0.0060000
        k(  243) = (  -0.0353553  -0.3889087   0.6010408), wk =   0.0060000
        k(  244) = (   0.0000000  -0.3535534   0.5656854), wk =   0.0030000
        k(  245) = (  -0.0707107  -0.4949747   0.7071068), wk =   0.0030000
        k(  246) = (  -0.0353553  -0.4596194   0.6717514), wk =   0.0060000
        k(  247) = (  -0.0000000  -0.4242641   0.6363961), wk =   0.0030000
        k(  248) = (  -0.7071068   0.2121320   0.0000000), wk =   0.0015000
        k(  249) = (  -0.1414214  -0.4242641   0.7071068), wk =   0.0030000
        k(  250) = (  -0.1060660  -0.3889087   0.6717514), wk =   0.0060000
        k(  251) = (  -0.0707107  -0.3535534   0.6363961), wk =   0.0030000
        k(  252) = (  -0.0707107  -0.4242641   0.7071068), wk =   0.0030000
        k(  253) = (  -0.0353553  -0.3889087   0.6717514), wk =   0.0060000
        k(  254) = (   0.0000000  -0.3535534   0.6363961), wk =   0.0030000
        k(  255) = (  -0.7071068   0.2828427   0.0000000), wk =   0.0015000
        k(  256) = (  -0.7071068   0.3535534   0.0000000), wk =   0.0007500

                       cryst. coord.
        k(    1) = (   0.0000000   0.0000000   0.0000000), wk =   0.0001250
        k(    2) = (   0.0000000   0.0000000   0.0500000), wk =   0.0010000
        k(    3) = (   0.0000000   0.0000000   0.1000000), wk =   0.0010000
        k(    4) = (   0.0000000   0.0000000   0.1500000), wk =   0.0010000
        k(    5) = (   0.0000000   0.0000000   0.2000000), wk =   0.0010000
        k(    6) = (   0.0000000   0.0000000   0.2500000), wk =   0.0010000
        k(    7) = (   0.0000000   0.0000000   0.3000000), wk =   0.0010000
        k(    8) = (   0.0000000   0.0000000   0.3500000), wk =   0.0010000
        k(    9) = (   0.0000000   0.0000000   0.4000000), wk =   0.0010000
        k(   10) = (   0.0000000   0.0000000   0.4500000), wk =   0.0010000
        k(   11) = (   0.0000000   0.0000000  -0.5000000), wk =   0.0005000
        k(   12) = (   0.0000000   0.0500000   0.0500000), wk =   0.0007500
        k(   13) = (   0.0000000   0.0500000   0.1000000), wk =   0.0030000
        k(   14) = (   0.0000000   0.0500000   0.1500000), wk =   0.0030000
        k(   15) = (   0.0000000   0.0500000   0.2000000), wk =   0.0030000
        k(   16) = (   0.0000000   0.0500000   0.2500000), wk =   0.0030000
        k(   17) = (   0.0000000   0.0500000   0.3000000), wk =   0.0030000
        k(   18) = (   0.0000000   0.0500000   0.3500000), wk =   0.0030000
        k(   19) = (   0.0000000   0.0500000   0.4000000), wk =   0.0030000
        k(   20) = (   0.0000000   0.0500000   0.4500000), wk =   0.0030000
        k(   21) = (   0.0000000   0.0500000  -0.5000000), wk =   0.0030000
        k(   22) = (   0.0000000   0.0500000  -0.4500000), wk =   0.0030000
        k(   23) = (   0.0000000   0.0500000  -0.4000000), wk =   0.0030000
        k(   24) = (   0.0000000   0.0500000  -0.3500000), wk =   0.0030000
        k(   25) = (   0.0000000   0.0500000  -0.3000000), wk =   0.0030000
        k(   26) = (   0.0000000   0.0500000  -0.2500000), wk =   0.0030000
        k(   27) = (   0.0000000   0.0500000  -0.2000000), wk =   0.0030000
        k(   28) = (   0.0000000   0.0500000  -0.1500000), wk =   0.0030000
        k(   29) = (   0.0000000   0.0500000  -0.1000000), wk =   0.0030000
        k(   30) = (   0.0000000   0.0500000  -0.0500000), wk =   0.0015000
        k(   31) = (   0.0000000   0.1000000   0.1000000), wk =   0.0007500
        k(   32) = (   0.0000000   0.1000000   0.1500000), wk =   0.0030000
        k(   33) = (   0.0000000   0.1000000   0.2000000), wk =   0.0030000
        k(   34) = (   0.0000000   0.1000000   0.2500000), wk =   0.0030000
        k(   35) = (   0.0000000   0.1000000   0.3000000), wk =   0.0030000
        k(   36) = (   0.0000000   0.1000000   0.3500000), wk =   0.0030000
        k(   37) = (   0.0000000   0.1000000   0.4000000), wk =   0.0030000
        k(   38) = (   0.0000000   0.1000000   0.4500000), wk =   0.0030000
        k(   39) = (   0.0000000   0.1000000  -0.5000000), wk =   0.0030000
        k(   40) = (   0.0000000   0.1000000  -0.4500000), wk =   0.0030000
        k(   41) = (   0.0000000   0.1000000  -0.4000000), wk =   0.0030000
        k(   42) = (   0.0000000   0.1000000  -0.3500000), wk =   0.0030000
        k(   43) = (   0.0000000   0.1000000  -0.3000000), wk =   0.0030000
        k(   44) = (   0.0000000   0.1000000  -0.2500000), wk =   0.0030000
        k(   45) = (   0.0000000   0.1000000  -0.2000000), wk =   0.0030000
        k(   46) = (   0.0000000   0.1000000  -0.1500000), wk =   0.0030000
        k(   47) = (   0.0000000   0.1000000  -0.1000000), wk =   0.0015000
        k(   48) = (   0.0000000   0.1500000   0.1500000), wk =   0.0007500
        k(   49) = (   0.0000000   0.1500000   0.2000000), wk =   0.0030000
        k(   50) = (   0.0000000   0.1500000   0.2500000), wk =   0.0030000
        k(   51) = (   0.0000000   0.1500000   0.3000000), wk =   0.0030000
        k(   52) = (   0.0000000   0.1500000   0.3500000), wk =   0.0030000
        k(   53) = (   0.0000000   0.1500000   0.4000000), wk =   0.0030000
        k(   54) = (   0.0000000   0.1500000   0.4500000), wk =   0.0030000
        k(   55) = (   0.0000000   0.1500000  -0.5000000), wk =   0.0030000
        k(   56) = (   0.0000000   0.1500000  -0.4500000), wk =   0.0030000
        k(   57) = (   0.0000000   0.1500000  -0.4000000), wk =   0.0030000
        k(   58) = (   0.0000000   0.1500000  -0.3500000), wk =   0.0030000
        k(   59) = (   0.0000000   0.1500000  -0.3000000), wk =   0.0030000
        k(   60) = (   0.0000000   0.1500000  -0.2500000), wk =   0.0030000
        k(   61) = (   0.0000000   0.1500000  -0.2000000), wk =   0.0030000
        k(   62) = (   0.0000000   0.1500000  -0.1500000), wk =   0.0015000
        k(   63) = (   0.0000000   0.2000000   0.2000000), wk =   0.0007500
        k(   64) = (   0.0000000   0.2000000   0.2500000), wk =   0.0030000
        k(   65) = (   0.0000000   0.2000000   0.3000000), wk =   0.0030000
        k(   66) = (   0.0000000   0.2000000   0.3500000), wk =   0.0030000
        k(   67) = (   0.0000000   0.2000000   0.4000000), wk =   0.0030000
        k(   68) = (   0.0000000   0.2000000   0.4500000), wk =   0.0030000
        k(   69) = (   0.0000000   0.2000000  -0.5000000), wk =   0.0030000
        k(   70) = (   0.0000000   0.2000000  -0.4500000), wk =   0.0030000
        k(   71) = (   0.0000000   0.2000000  -0.4000000), wk =   0.0030000
        k(   72) = (   0.0000000   0.2000000  -0.3500000), wk =   0.0030000
        k(   73) = (   0.0000000   0.2000000  -0.3000000), wk =   0.0030000
        k(   74) = (   0.0000000   0.2000000  -0.2500000), wk =   0.0030000
        k(   75) = (   0.0000000   0.2000000  -0.2000000), wk =   0.0015000
        k(   76) = (   0.0000000   0.2500000   0.2500000), wk =   0.0007500
        k(   77) = (   0.0000000   0.2500000   0.3000000), wk =   0.0030000
        k(   78) = (   0.0000000   0.2500000   0.3500000), wk =   0.0030000
        k(   79) = (   0.0000000   0.2500000   0.4000000), wk =   0.0030000
        k(   80) = (   0.0000000   0.2500000   0.4500000), wk =   0.0030000
        k(   81) = (   0.0000000   0.2500000  -0.5000000), wk =   0.0030000
        k(   82) = (   0.0000000   0.2500000  -0.4500000), wk =   0.0030000
        k(   83) = (   0.0000000   0.2500000  -0.4000000), wk =   0.0030000
        k(   84) = (   0.0000000   0.2500000  -0.3500000), wk =   0.0030000
        k(   85) = (   0.0000000   0.2500000  -0.3000000), wk =   0.0030000
        k(   86) = (   0.0000000   0.2500000  -0.2500000), wk =   0.0015000
        k(   87) = (   0.0000000   0.3000000   0.3000000), wk =   0.0007500
        k(   88) = (   0.0000000   0.3000000   0.3500000), wk =   0.0030000
        k(   89) = (   0.0000000   0.3000000   0.4000000), wk =   0.0030000
        k(   90) = (   0.0000000   0.3000000   0.4500000), wk =   0.0030000
        k(   91) = (   0.0000000   0.3000000  -0.5000000), wk =   0.0030000
        k(   92) = (   0.0000000   0.3000000  -0.4500000), wk =   0.0030000
        k(   93) = (   0.0000000   0.3000000  -0.4000000), wk =   0.0030000
        k(   94) = (   0.0000000   0.3000000  -0.3500000), wk =   0.0030000
        k(   95) = (   0.0000000   0.3000000  -0.3000000), wk =   0.0015000
        k(   96) = (   0.0000000   0.3500000   0.3500000), wk =   0.0007500
        k(   97) = (   0.0000000   0.3500000   0.4000000), wk =   0.0030000
        k(   98) = (   0.0000000   0.3500000   0.4500000), wk =   0.0030000
        k(   99) = (   0.0000000   0.3500000  -0.5000000), wk =   0.0030000
        k(  100) = (   0.0000000   0.3500000  -0.4500000), wk =   0.0030000
        k(  101) = (   0.0000000   0.3500000  -0.4000000), wk =   0.0030000
        k(  102) = (   0.0000000   0.3500000  -0.3500000), wk =   0.0015000
        k(  103) = (   0.0000000   0.4000000   0.4000000), wk =   0.0007500
        k(  104) = (   0.0000000   0.4000000   0.4500000), wk =   0.0030000
        k(  105) = (   0.0000000   0.4000000  -0.5000000), wk =   0.0030000
        k(  106) = (   0.0000000   0.4000000  -0.4500000), wk =   0.0030000
        k(  107) = (   0.0000000   0.4000000  -0.4000000), wk =   0.0015000
        k(  108) = (   0.0000000   0.4500000   0.4500000), wk =   0.0007500
        k(  109) = (   0.0000000   0.4500000  -0.5000000), wk =   0.0030000
        k(  110) = (   0.0000000   0.4500000  -0.4500000), wk =   0.0015000
        k(  111) = (   0.0000000  -0.5000000  -0.5000000), wk =   0.0003750
        k(  112) = (   0.0500000   0.1000000   0.1500000), wk =   0.0030000
        k(  113) = (   0.0500000   0.1000000   0.2000000), wk =   0.0060000
        k(  114) = (   0.0500000   0.1000000   0.2500000), wk =   0.0060000
        k(  115) = (   0.0500000   0.1000000   0.3000000), wk =   0.0060000
        k(  116) = (   0.0500000   0.1000000   0.3500000), wk =   0.0060000
        k(  117) = (   0.0500000   0.1000000   0.4000000), wk =   0.0060000
        k(  118) = (   0.0500000   0.1000000   0.4500000), wk =   0.0060000
        k(  119) = (   0.0500000   0.1000000  -0.5000000), wk =   0.0060000
        k(  120) = (   0.0500000   0.1000000  -0.4500000), wk =   0.0030000
        k(  121) = (   0.0500000   0.1500000   0.2000000), wk =   0.0030000
        k(  122) = (   0.0500000   0.1500000   0.2500000), wk =   0.0060000
        k(  123) = (   0.0500000   0.1500000   0.3000000), wk =   0.0060000
        k(  124) = (   0.0500000   0.1500000   0.3500000), wk =   0.0060000
        k(  125) = (   0.0500000   0.1500000   0.4000000), wk =   0.0060000
        k(  126) = (   0.0500000   0.1500000   0.4500000), wk =   0.0060000
        k(  127) = (   0.0500000   0.1500000  -0.5000000), wk =   0.0060000
        k(  128) = (   0.0500000   0.1500000  -0.4500000), wk =   0.0060000
        k(  129) = (   0.0500000   0.1500000  -0.4000000), wk =   0.0060000
        k(  130) = (   0.0500000   0.1500000  -0.3500000), wk =   0.0060000
        k(  131) = (   0.0500000   0.1500000  -0.3000000), wk =   0.0060000
        k(  132) = (   0.0500000   0.1500000  -0.2500000), wk =   0.0060000
        k(  133) = (   0.0500000   0.1500000  -0.2000000), wk =   0.0060000
        k(  134) = (   0.0500000   0.1500000  -0.1500000), wk =   0.0060000
        k(  135) = (   0.0500000   0.1500000  -0.1000000), wk =   0.0030000
        k(  136) = (   0.0500000   0.2000000   0.2500000), wk =   0.0030000
        k(  137) = (   0.0500000   0.2000000   0.3000000), wk =   0.0060000
        k(  138) = (   0.0500000   0.2000000   0.3500000), wk =   0.0060000
        k(  139) = (   0.0500000   0.2000000   0.4000000), wk =   0.0060000
        k(  140) = (   0.0500000   0.2000000   0.4500000), wk =   0.0060000
        k(  141) = (   0.0500000   0.2000000  -0.5000000), wk =   0.0060000
        k(  142) = (   0.0500000   0.2000000  -0.4500000), wk =   0.0060000
        k(  143) = (   0.0500000   0.2000000  -0.4000000), wk =   0.0060000
        k(  144) = (   0.0500000   0.2000000  -0.3500000), wk =   0.0060000
        k(  145) = (   0.0500000   0.2000000  -0.3000000), wk =   0.0060000
        k(  146) = (   0.0500000   0.2000000  -0.2500000), wk =   0.0060000
        k(  147) = (   0.0500000   0.2000000  -0.2000000), wk =   0.0060000
        k(  148) = (   0.0500000   0.2000000  -0.1500000), wk =   0.0030000
        k(  149) = (   0.0500000   0.2500000   0.3000000), wk =   0.0030000
        k(  150) = (   0.0500000   0.2500000   0.3500000), wk =   0.0060000
        k(  151) = (   0.0500000   0.2500000   0.4000000), wk =   0.0060000
        k(  152) = (   0.0500000   0.2500000   0.4500000), wk =   0.0060000
        k(  153) = (   0.0500000   0.2500000  -0.5000000), wk =   0.0060000
        k(  154) = (   0.0500000   0.2500000  -0.4500000), wk =   0.0060000
        k(  155) = (   0.0500000   0.2500000  -0.4000000), wk =   0.0060000
        k(  156) = (   0.0500000   0.2500000  -0.3500000), wk =   0.0060000
        k(  157) = (   0.0500000   0.2500000  -0.3000000), wk =   0.0060000
        k(  158) = (   0.0500000   0.2500000  -0.2500000), wk =   0.0060000
        k(  159) = (   0.0500000   0.2500000  -0.2000000), wk =   0.0030000
        k(  160) = (   0.0500000   0.3000000   0.3500000), wk =   0.0030000
        k(  161) = (   0.0500000   0.3000000   0.4000000), wk =   0.0060000
        k(  162) = (   0.0500000   0.3000000   0.4500000), wk =   0.0060000
        k(  163) = (   0.0500000   0.3000000  -0.5000000), wk =   0.0060000
        k(  164) = (   0.0500000   0.3000000  -0.4500000), wk =   0.0060000
        k(  165) = (   0.0500000   0.3000000  -0.4000000), wk =   0.0060000
        k(  166) = (   0.0500000   0.3000000  -0.3500000), wk =   0.0060000
        k(  167) = (   0.0500000   0.3000000  -0.3000000), wk =   0.0060000
        k(  168) = (   0.0500000   0.3000000  -0.2500000), wk =   0.0030000
        k(  169) = (   0.0500000   0.3500000   0.4000000), wk =   0.0030000
        k(  170) = (   0.0500000   0.3500000   0.4500000), wk =   0.0060000
        k(  171) = (   0.0500000   0.3500000  -0.5000000), wk =   0.0060000
        k(  172) = (   0.0500000   0.3500000  -0.4500000), wk =   0.0060000
        k(  173) = (   0.0500000   0.3500000  -0.4000000), wk =   0.0060000
        k(  174) = (   0.0500000   0.3500000  -0.3500000), wk =   0.0060000
        k(  175) = (   0.0500000   0.3500000  -0.3000000), wk =   0.0030000
        k(  176) = (   0.0500000   0.4000000   0.4500000), wk =   0.0030000
        k(  177) = (   0.0500000   0.4000000  -0.5000000), wk =   0.0060000
        k(  178) = (   0.0500000   0.4000000  -0.4500000), wk =   0.0060000
        k(  179) = (   0.0500000   0.4000000  -0.4000000), wk =   0.0060000
        k(  180) = (   0.0500000   0.4000000  -0.3500000), wk =   0.0030000
        k(  181) = (   0.0500000   0.4500000  -0.5000000), wk =   0.0030000
        k(  182) = (   0.0500000   0.4500000  -0.4500000), wk =   0.0060000
        k(  183) = (   0.0500000   0.4500000  -0.4000000), wk =   0.0030000
        k(  184) = (   0.0500000  -0.5000000  -0.4500000), wk =   0.0015000
        k(  185) = (   0.1000000   0.2000000   0.3000000), wk =   0.0030000
        k(  186) = (   0.1000000   0.2000000   0.3500000), wk =   0.0060000
        k(  187) = (   0.1000000   0.2000000   0.4000000), wk =   0.0060000
        k(  188) = (   0.1000000   0.2000000   0.4500000), wk =   0.0060000
        k(  189) = (   0.1000000   0.2000000  -0.5000000), wk =   0.0060000
        k(  190) = (   0.1000000   0.2000000  -0.4500000), wk =   0.0060000
        k(  191) = (   0.1000000   0.2000000  -0.4000000), wk =   0.0030000
        k(  192) = (   0.1000000   0.2500000   0.3500000), wk =   0.0030000
        k(  193) = (   0.1000000   0.2500000   0.4000000), wk =   0.0060000
        k(  194) = (   0.1000000   0.2500000   0.4500000), wk =   0.0060000
        k(  195) = (   0.1000000   0.2500000  -0.5000000), wk =   0.0060000
        k(  196) = (   0.1000000   0.2500000  -0.4500000), wk =   0.0060000
        k(  197) = (   0.1000000   0.2500000  -0.4000000), wk =   0.0060000
        k(  198) = (   0.1000000   0.2500000  -0.3500000), wk =   0.0060000
        k(  199) = (   0.1000000   0.2500000  -0.3000000), wk =   0.0060000
        k(  200) = (   0.1000000   0.2500000  -0.2500000), wk =   0.0060000
        k(  201) = (   0.1000000   0.2500000  -0.2000000), wk =   0.0060000
        k(  202) = (   0.1000000   0.2500000  -0.1500000), wk =   0.0030000
        k(  203) = (   0.1000000   0.3000000   0.4000000), wk =   0.0030000
        k(  204) = (   0.1000000   0.3000000   0.4500000), wk =   0.0060000
        k(  205) = (   0.1000000   0.3000000  -0.5000000), wk =   0.0060000
        k(  206) = (   0.1000000   0.3000000  -0.4500000), wk =   0.0060000
        k(  207) = (   0.1000000   0.3000000  -0.4000000), wk =   0.0060000
        k(  208) = (   0.1000000   0.3000000  -0.3500000), wk =   0.0060000
        k(  209) = (   0.1000000   0.3000000  -0.3000000), wk =   0.0060000
        k(  210) = (   0.1000000   0.3000000  -0.2500000), wk =   0.0060000
        k(  211) = (   0.1000000   0.3000000  -0.2000000), wk =   0.0030000
        k(  212) = (   0.1000000   0.3500000   0.4500000), wk =   0.0030000
        k(  213) = (   0.1000000   0.3500000  -0.5000000), wk =   0.0060000
        k(  214) = (   0.1000000   0.3500000  -0.4500000), wk =   0.0060000
        k(  215) = (   0.1000000   0.3500000  -0.4000000), wk =   0.0060000
        k(  216) = (   0.1000000   0.3500000  -0.3500000), wk =   0.0060000
        k(  217) = (   0.1000000   0.3500000  -0.3000000), wk =   0.0060000
        k(  218) = (   0.1000000   0.3500000  -0.2500000), wk =   0.0030000
        k(  219) = (   0.1000000   0.4000000  -0.5000000), wk =   0.0030000
        k(  220) = (   0.1000000   0.4000000  -0.4500000), wk =   0.0060000
        k(  221) = (   0.1000000   0.4000000  -0.4000000), wk =   0.0060000
        k(  222) = (   0.1000000   0.4000000  -0.3500000), wk =   0.0060000
        k(  223) = (   0.1000000   0.4000000  -0.3000000), wk =   0.0030000
        k(  224) = (   0.1000000   0.4500000  -0.4500000), wk =   0.0030000
        k(  225) = (   0.1000000   0.4500000  -0.4000000), wk =   0.0060000
        k(  226) = (   0.1000000   0.4500000  -0.3500000), wk =   0.0030000
        k(  227) = (   0.1000000  -0.5000000  -0.4000000), wk =   0.0015000
        k(  228) = (   0.1500000   0.3000000   0.4500000), wk =   0.0030000
        k(  229) = (   0.1500000   0.3000000  -0.5000000), wk =   0.0060000
        k(  230) = (   0.1500000   0.3000000  -0.4500000), wk =   0.0060000
        k(  231) = (   0.1500000   0.3000000  -0.4000000), wk =   0.0060000
        k(  232) = (   0.1500000   0.3000000  -0.3500000), wk =   0.0030000
        k(  233) = (   0.1500000   0.3500000  -0.5000000), wk =   0.0030000
        k(  234) = (   0.1500000   0.3500000  -0.4500000), wk =   0.0060000
        k(  235) = (   0.1500000   0.3500000  -0.4000000), wk =   0.0060000
        k(  236) = (   0.1500000   0.3500000  -0.3500000), wk =   0.0060000
        k(  237) = (   0.1500000   0.3500000  -0.3000000), wk =   0.0060000
        k(  238) = (   0.1500000   0.3500000  -0.2500000), wk =   0.0060000
        k(  239) = (   0.1500000   0.3500000  -0.2000000), wk =   0.0030000
        k(  240) = (   0.1500000   0.4000000  -0.4500000), wk =   0.0030000
        k(  241) = (   0.1500000   0.4000000  -0.4000000), wk =   0.0060000
        k(  242) = (   0.1500000   0.4000000  -0.3500000), wk =   0.0060000
        k(  243) = (   0.1500000   0.4000000  -0.3000000), wk =   0.0060000
        k(  244) = (   0.1500000   0.4000000  -0.2500000), wk =   0.0030000
        k(  245) = (   0.1500000   0.4500000  -0.4000000), wk =   0.0030000
        k(  246) = (   0.1500000   0.4500000  -0.3500000), wk =   0.0060000
        k(  247) = (   0.1500000   0.4500000  -0.3000000), wk =   0.0030000
        k(  248) = (   0.1500000  -0.5000000  -0.3500000), wk =   0.0015000
        k(  249) = (   0.2000000   0.4000000  -0.4000000), wk =   0.0030000
        k(  250) = (   0.2000000   0.4000000  -0.3500000), wk =   0.0060000
        k(  251) = (   0.2000000   0.4000000  -0.3000000), wk =   0.0030000
        k(  252) = (   0.2000000   0.4500000  -0.3500000), wk =   0.0030000
        k(  253) = (   0.2000000   0.4500000  -0.3000000), wk =   0.0060000
        k(  254) = (   0.2000000   0.4500000  -0.2500000), wk =   0.0030000
        k(  255) = (   0.2000000  -0.5000000  -0.3000000), wk =   0.0015000
        k(  256) = (   0.2500000  -0.5000000  -0.2500000), wk =   0.0007500

     Dense  grid:    16361 G-vectors     FFT dimensions: (  36,  36,  36)

     Largest allocated arrays     est. size (Mb)     dimensions
        Kohn-Sham Wavefunctions         0.15 Mb     (     268,   36)
        NL pseudopotentials             0.14 Mb     (     134,   68)
        Each V/rho on FFT grid          0.06 Mb     (    3888)
        Each G-vector array             0.01 Mb     (    1023)
        G-vector shells                 0.00 Mb     (     191)
     Largest temporary arrays     est. size (Mb)     dimensions
        Auxiliary wavefunctions         0.59 Mb     (     268,  144)
        Each subspace H/S matrix        0.32 Mb     (     144,  144)
        Each <psi_i|beta_j> matrix      0.07 Mb     (      68,   2,   36)
        Arrays for rho mixing           0.47 Mb     (    3888,    8)

     Check: negative/imaginary core charge=   -0.000003    0.000000

     Initial potential from superposition of free atoms

     starting charge   27.99781, renormalised to   28.00000
     Starting wfc are   36 randomized atomic wfcs
     Checking if some PAW data can be deallocated... 

     total cpu time spent up to now is       10.0 secs

     Self-consistent Calculation

     iteration #  1     ecut=    40.00 Ry     beta=0.70
     Davidson diagonalization with overlap
     ethr =  1.00E-02,  avg # of iterations =  3.5

     Threshold (ethr) on eigenvalues was too large:
     Diagonalizing with lowered threshold

     Davidson diagonalization with overlap
     ethr =  6.12E-05,  avg # of iterations =  3.4

     total cpu time spent up to now is       75.5 secs

     total energy              =    -885.82667655 Ry
     Harris-Foulkes estimate   =    -885.82852967 Ry
     estimated scf accuracy    <       0.02064985 Ry

     iteration #  2     ecut=    40.00 Ry     beta=0.70
     Davidson diagonalization with overlap
     ethr =  7.37E-05,  avg # of iterations =  1.0

     total cpu time spent up to now is       99.5 secs

     total energy              =    -885.82804050 Ry
     Harris-Foulkes estimate   =    -885.82810463 Ry
     estimated scf accuracy    <       0.00188066 Ry

     iteration #  3     ecut=    40.00 Ry     beta=0.70
     Davidson diagonalization with overlap
     ethr =  6.72E-06,  avg # of iterations =  2.3

     total cpu time spent up to now is      132.8 secs

     total energy              =    -885.82840032 Ry
     Harris-Foulkes estimate   =    -885.82842875 Ry
     estimated scf accuracy    <       0.00008553 Ry

     iteration #  4     ecut=    40.00 Ry     beta=0.70
     Davidson diagonalization with overlap
     ethr =  3.05E-07,  avg # of iterations =  2.1

     total cpu time spent up to now is      165.1 secs

     total energy              =    -885.82842760 Ry
     Harris-Foulkes estimate   =    -885.82842584 Ry
     estimated scf accuracy    <       0.00000478 Ry

     iteration #  5     ecut=    40.00 Ry     beta=0.70
     Davidson diagonalization with overlap
     ethr =  1.71E-08,  avg # of iterations =  2.0

     total cpu time spent up to now is      192.4 secs

     End of self-consistent calculation

          k = 0.0000 0.0000 0.0000 (  2085 PWs)   bands (ev):

   -14.5617 -14.5617 -14.5617 -14.5617 -14.4667 -14.4667 -14.4667 -14.4667
   -13.6499 -13.6499 -13.4488 -13.4488 -13.4488 -13.4488 -13.4042 -13.4042
   -13.4042 -13.4042 -13.2890 -13.2890  -2.8488  -2.8488   6.7545   6.7545
     7.1947   7.1947   7.8626   7.8626   7.8626   7.8626   9.4034   9.4034
     9.8757   9.8757   9.8757   9.8757

     occupation numbers 
     1.0000   1.0000   1.0000   1.0000   1.0000   1.0000   1.0000   1.0000
     1.0000   1.0000   1.0000   1.0000   1.0000   1.0000   1.0000   1.0000
     1.0000   1.0000   1.0000   1.0000   1.0000   1.0000   1.0000   1.0000
     1.0000   1.0000   0.0000   0.0000   0.0000   0.0000   0.0000   0.0000
     0.0000   0.0000   0.0000   0.0000

          k = 0.0354 0.0354-0.0354 (  2037 PWs)   bands (ev):

   -14.5551 -14.5551 -14.5541 -14.5541 -14.4612 -14.4612 -14.4597 -14.4597
   -13.6411 -13.6411 -13.4455 -13.4455 -13.4453 -13.4453 -13.3965 -13.3965
   -13.3958 -13.3958 -13.2817 -13.2817  -2.8252  -2.8252   6.3623   6.3623
     7.2725   7.2725   7.8090   7.8090   7.9600   7.9600   9.5176   9.5176
     9.9356   9.9356   9.9442   9.9442

     occupation numbers 
     1.0000   1.0000   1.0000   1.0000   1.0000   1.0000   1.0000   1.0000
     1.0000   1.0000   1.0000   1.0000   1.0000   1.0000   1.0000   1.0000
     1.0000   1.0000   1.0000   1.0000   1.0000   1.0000   1.0000   1.0000
     1.0000   1.0000   0.0000   0.0000   0.0000   0.0000   0.0000   0.0000
     0.0000   0.0000   0.0000   0.0000

          k = 0.0707 0.0707-0.0707 (  2031 PWs)   bands (ev):

   -14.5562 -14.5562 -14.5494 -14.5494 -14.4629 -14.4629 -14.4584 -14.4584
   -13.6356 -13.6356 -13.4543 -13.4543 -13.4510 -13.4510 -13.3885 -13.3885
   -13.3883 -13.3883 -13.2838 -13.2838  -2.7549  -2.7549   5.6939   5.6939
     7.2035   7.2035   7.6707   7.6707   8.0797   8.0797   9.7843   9.7843
    10.1220  10.1220  10.1777  10.1777

     occupation numbers 
     1.0000   1.0000   1.0000   1.0000   1.0000   1.0000   1.0000   1.0000
     1.0000   1.0000   1.0000   1.0000   1.0000   1.0000   1.0000   1.0000
     1.0000   1.0000   1.0000   1.0000   1.0000   1.0000   1.0000   1.0000
     1.0000   1.0000   0.7702   0.7702   0.0000   0.0000   0.0000   0.0000
     0.0000   0.0000   0.0000   0.0000

          k = 0.1061 0.1061-0.1061 (  2016 PWs)   bands (ev):

   -14.5542 -14.5542 -14.5432 -14.5432 -14.4648 -14.4648 -14.4562 -14.4562
   -13.6273 -13.6273 -13.4645 -13.4645 -13.4556 -13.4556 -13.3766 -13.3766
   -13.3762 -13.3762 -13.2865 -13.2865  -2.6388  -2.6388   4.9714   4.9714
     7.0455   7.0455   7.4907   7.4907   8.0745   8.0745  10.0403  10.0404
    10.3512  10.3512  10.6720  10.6720

     occupation numbers 
     1.0000   1.0000   1.0000   1.0000   1.0000   1.0000   1.0000   1.0000
     1.0000   1.0000   1.0000   1.0000   1.0000   1.0000   1.0000   1.0000
     1.0000   1.0000   1.0000   1.0000   1.0000   1.0000   1.0000   1.0000
     1.0000   1.0000   1.0000   1.0000   0.0000   0.0000   0.0000   0.0000
     0.0000   0.0000   0.0000   0.0000

          k = 0.1414 0.1414-0.1414 (  2012 PWs)   bands (ev):

   -14.5541 -14.5541 -14.5398 -14.5398 -14.4669 -14.4669 -14.4535 -14.4535
   -13.6179 -13.6179 -13.4755 -13.4755 -13.4619 -13.4619 -13.3688 -13.3688
   -13.3679 -13.3679 -13.2896 -13.2896  -2.4792  -2.4792   4.2485   4.2485
     6.8666   6.8666   7.3025   7.3025   7.9852   7.9852  10.2658  10.2658
    10.5747  10.5747  11.3074  11.3074

     occupation numbers 
     1.0000   1.0000   1.0000   1.0000   1.0000   1.0000   1.0000   1.0000
     1.0000   1.0000   1.0000   1.0000   1.0000   1.0000   1.0000   1.0000
     1.0000   1.0000   1.0000   1.0000   1.0000   1.0000   1.0000   1.0000
     1.0000   1.0000   1.0000   1.0000   0.0000   0.0000   0.0000   0.0000
     0.0000   0.0000   0.0000   0.0000

          k = 0.1768 0.1768-0.1768 (  2027 PWs)   bands (ev):

   -14.5562 -14.5562 -14.5366 -14.5366 -14.4752 -14.4752 -14.4526 -14.4526
   -13.6093 -13.6093 -13.4908 -13.4908 -13.4688 -13.4688 -13.3649 -13.3649
   -13.3598 -13.3598 -13.2980 -13.2980  -2.2801  -2.2801   3.5521   3.5521
     6.6950   6.6950   7.1261   7.1261   7.8666   7.8666  10.4505  10.4505
    10.7486  10.7486  12.0017  12.0018

     occupation numbers 
     1.0000   1.0000   1.0000   1.0000   1.0000   1.0000   1.0000   1.0000
     1.0000   1.0000   1.0000   1.0000   1.0000   1.0000   1.0000   1.0000
     1.0000   1.0000   1.0000   1.0000   1.0000   1.0000   1.0000   1.0000
     1.0000   1.0000   1.0000   1.0000   0.0000   0.0000   0.0000   0.0000
     0.0000   0.0000   0.0000   0.0000

          k = 0.2121 0.2121-0.2121 (  2012 PWs)   bands (ev):

   -14.5576 -14.5576 -14.5281 -14.5281 -14.4771 -14.4771 -14.4476 -14.4476
   -13.5960 -13.5960 -13.5012 -13.5012 -13.4730 -13.4730 -13.3545 -13.3545
   -13.3509 -13.3509 -13.3023 -13.3023  -2.0484  -2.0484   2.9022   2.9022
     6.5445   6.5445   6.9728   6.9728   7.7499   7.7499  10.5763  10.5763
    10.8529  10.8529  12.7172  12.7172

     occupation numbers 
     1.0000   1.0000   1.0000   1.0000   1.0000   1.0000   1.0000   1.0000
     1.0000   1.0000   1.0000   1.0000   1.0000   1.0000   1.0000   1.0000
     1.0000   1.0000   1.0000   1.0000   1.0000   1.0000   1.0000   1.0000
     1.0000   1.0000   1.0000   1.0000   0.0000   0.0000   0.0000   0.0000
     0.0000   0.0000   0.0000   0.0000

          k = 0.2475 0.2475-0.2475 (  2024 PWs)   bands (ev):

   -14.5614 -14.5614 -14.5257 -14.5257 -14.4828 -14.4828 -14.4453 -14.4453
   -13.5863 -13.5863 -13.5144 -13.5144 -13.4799 -13.4799 -13.3507 -13.3507
   -13.3466 -13.3466 -13.3091 -13.3091  -1.7976  -1.7976   2.3198   2.3198
     6.4224   6.4224   6.8491   6.8491   7.6504   7.6504  10.6439  10.6439
    10.8958  10.8958  13.3086  13.3086

     occupation numbers 
     1.0000   1.0000   1.0000   1.0000   1.0000   1.0000   1.0000   1.0000
     1.0000   1.0000   1.0000   1.0000   1.0000   1.0000   1.0000   1.0000
     1.0000   1.0000   1.0000   1.0000   1.0000   1.0000   1.0000   1.0000
     1.0000   1.0000   1.0000   1.0000   1.0000   1.0000   0.0000   0.0000
     0.0000   0.0000   0.0000   0.0000

          k = 0.2828 0.2828-0.2828 (  2033 PWs)   bands (ev):

   -14.5623 -14.5623 -14.5236 -14.5236 -14.4888 -14.4888 -14.4443 -14.4443
   -13.5765 -13.5765 -13.5278 -13.5278 -13.4832 -13.4832 -13.3478 -13.3478
   -13.3409 -13.3409 -13.3155 -13.3155  -1.5527  -1.5527   1.8350   1.8350
     6.3329   6.3329   6.7587   6.7587   7.5759   7.5759  10.6708  10.6708
    10.9019  10.9019  13.3837  13.3837

     occupation numbers 
     1.0000   1.0000   1.0000   1.0000   1.0000   1.0000   1.0000   1.0000
     1.0000   1.0000   1.0000   1.0000   1.0000   1.0000   1.0000   1.0000
     1.0000   1.0000   1.0000   1.0000   1.0000   1.0000   1.0000   1.0000
     1.0000   1.0000   1.0000   1.0000   1.0000   1.0000   0.0000   0.0000
     0.0000   0.0000   0.0000   0.0000

          k = 0.3182 0.3182-0.3182 (  2027 PWs)   bands (ev):

   -14.5637 -14.5637 -14.5142 -14.5142 -14.4944 -14.4944 -14.4428 -14.4428
   -13.5628 -13.5628 -13.5379 -13.5379 -13.4862 -13.4862 -13.3431 -13.3431
   -13.3351 -13.3351 -13.3197 -13.3197  -1.3597  -1.3597   1.4970   1.4970
     6.2784   6.2784   6.7037   6.7037   7.5301   7.5301  10.6775  10.6775
    10.8955  10.8955  13.3339  13.3339

     occupation numbers 
     1.0000   1.0000   1.0000   1.0000   1.0000   1.0000   1.0000   1.0000
     1.0000   1.0000   1.0000   1.0000   1.0000   1.0000   1.0000   1.0000
     1.0000   1.0000   1.0000   1.0000   1.0000   1.0000   1.0000   1.0000
     1.0000   1.0000   1.0000   1.0000   1.0000   1.0000   0.0000   0.0000
     0.0000   0.0000   0.0000   0.0000

          k =-0.3536-0.3536 0.3536 (  2036 PWs)   bands (ev):

   -14.5644 -14.5644 -14.5143 -14.5143 -14.4955 -14.4955 -14.4461 -14.4461
   -13.5569 -13.5569 -13.5456 -13.5456 -13.4867 -13.4867 -13.3470 -13.3470
   -13.3304 -13.3304 -13.3263 -13.3263  -1.2833  -1.2833   1.3721   1.3721
     6.2601   6.2601   6.6853   6.6853   7.5146   7.5146  10.6780  10.6780
    10.8916  10.8916  13.3127  13.3127

     occupation numbers 
     1.0000   1.0000   1.0000   1.0000   1.0000   1.0000   1.0000   1.0000
     1.0000   1.0000   1.0000   1.0000   1.0000   1.0000   1.0000   1.0000
     1.0000   1.0000   1.0000   1.0000   1.0000   1.0000   1.0000   1.0000
     1.0000   1.0000   1.0000   1.0000   1.0000   1.0000   0.0000   0.0000
     0.0000   0.0000   0.0000   0.0000

          k = 0.0707 0.0000 0.0000 (  2037 PWs)   bands (ev):

   -14.5550 -14.5550 -14.5543 -14.5543 -14.4613 -14.4613 -14.4602 -14.4602
   -13.6406 -13.6406 -13.4492 -13.4492 -13.4449 -13.4449 -13.3958 -13.3958
   -13.3937 -13.3937 -13.2821 -13.2821  -2.8174  -2.8174   6.2926   6.2926
     7.2263   7.2263   7.6725   7.6725   8.1531   8.1531   9.4847   9.4847
     9.9249   9.9249  10.0409  10.0409

     occupation numbers 
     1.0000   1.0000   1.0000   1.0000   1.0000   1.0000   1.0000   1.0000
     1.0000   1.0000   1.0000   1.0000   1.0000   1.0000   1.0000   1.0000
     1.0000   1.0000   1.0000   1.0000   1.0000   1.0000   1.0000   1.0000
     1.0000   1.0000   0.1398   0.1398   0.0000   0.0000   0.0000   0.0000
     0.0000   0.0000   0.0000   0.0000

          k = 0.1061 0.0354-0.0354 (  2036 PWs)   bands (ev):

   -14.5557 -14.5557 -14.5521 -14.5521 -14.4627 -14.4627 -14.4601 -14.4601
   -13.6375 -13.6375 -13.4567 -13.4567 -13.4490 -13.4490 -13.3916 -13.3916
   -13.3858 -13.3858 -13.2843 -13.2843  -2.7625  -2.7625   5.7977   5.7977
     7.1322   7.1322   7.5129   7.5129   8.3620   8.3620   9.5609   9.5609
    10.1193  10.1193  10.2612  10.2612

     occupation numbers 
     1.0000   1.0000   1.0000   1.0000   1.0000   1.0000   1.0000   1.0000
     1.0000   1.0000   1.0000   1.0000   1.0000   1.0000   1.0000   1.0000
     1.0000   1.0000   1.0000   1.0000   1.0000   1.0000   1.0000   1.0000
     1.0000   1.0000   1.0000   1.0000   0.0000   0.0000   0.0000   0.0000
     0.0000   0.0000   0.0000   0.0000

          k = 0.1414 0.0707-0.0707 (  2025 PWs)   bands (ev):

   -14.5546 -14.5546 -14.5464 -14.5464 -14.4644 -14.4644 -14.4583 -14.4583
   -13.6291 -13.6291 -13.4663 -13.4663 -13.4539 -13.4539 -13.3826 -13.3826
   -13.3766 -13.3766 -13.2867 -13.2867  -2.6615  -2.6615   5.1413   5.1413
     6.9738   6.9738   7.3449   7.3449   8.4129   8.4129   9.7453   9.7453
    10.4015  10.4015  10.6500  10.6500

     occupation numbers 
     1.0000   1.0000   1.0000   1.0000   1.0000   1.0000   1.0000   1.0000
     1.0000   1.0000   1.0000   1.0000   1.0000   1.0000   1.0000   1.0000
     1.0000   1.0000   1.0000   1.0000   1.0000   1.0000   1.0000   1.0000
     1.0000   1.0000   1.0000   1.0000   0.0000   0.0000   0.0000   0.0000
     0.0000   0.0000   0.0000   0.0000

          k = 0.1768 0.1061-0.1061 (  2019 PWs)   bands (ev):

   -14.5550 -14.5550 -14.5422 -14.5422 -14.4665 -14.4665 -14.4552 -14.4552
   -13.6209 -13.6209 -13.4760 -13.4760 -13.4594 -13.4594 -13.3750 -13.3750
   -13.3672 -13.3672 -13.2893 -13.2893  -2.5162  -2.5162   4.4437   4.4437
     6.7904   6.7904   7.1607   7.1607   8.3481   8.3481   9.9863   9.9863
[...]

     occupation numbers 
     1.0000   1.0000   1.0000   1.0000   1.0000   1.0000   1.0000   1.0000
     1.0000   1.0000   1.0000   1.0000   1.0000   1.0000   1.0000   1.0000
     1.0000   1.0000   1.0000   1.0000   1.0000   1.0000   1.0000   1.0000
     1.0000   1.0000   1.0000   1.0000   0.0000   0.0000   0.0000   0.0000
     0.0000   0.0000   0.0000   0.0000

          k =-0.1061-0.3889 0.6010 (  2026 PWs)   bands (ev):

   -14.5567 -14.5567 -14.5221 -14.5221 -14.4887 -14.4887 -14.4411 -14.4411
   -13.5638 -13.5638 -13.5179 -13.5179 -13.4675 -13.4675 -13.4187 -13.4187
   -13.3280 -13.3280 -13.2789 -13.2789  -0.5137  -0.5137   0.9166   0.9166
     4.4064   4.4064   5.3153   5.3153   9.8385   9.8385  10.8852  10.8852
    11.9665  11.9665  12.7637  12.7637

     occupation numbers 
     1.0000   1.0000   1.0000   1.0000   1.0000   1.0000   1.0000   1.0000
     1.0000   1.0000   1.0000   1.0000   1.0000   1.0000   1.0000   1.0000
     1.0000   1.0000   1.0000   1.0000   1.0000   1.0000   1.0000   1.0000
     1.0000   1.0000   1.0000   1.0000   0.0000   0.0000   0.0000   0.0000
     0.0000   0.0000   0.0000   0.0000

          k =-0.0707-0.3536 0.5657 (  2025 PWs)   bands (ev):

   -14.5568 -14.5568 -14.5214 -14.5214 -14.4892 -14.4892 -14.4410 -14.4410
   -13.5638 -13.5638 -13.5178 -13.5178 -13.4675 -13.4675 -13.4176 -13.4176
   -13.3286 -13.3286 -13.2791 -13.2791  -0.5586  -0.5586   0.9698   0.9698
     4.3808   4.3808   5.3657   5.3657   9.8918   9.8918  10.8592  10.8592
    12.0440  12.0440  12.6897  12.6897

     occupation numbers 
     1.0000   1.0000   1.0000   1.0000   1.0000   1.0000   1.0000   1.0000
     1.0000   1.0000   1.0000   1.0000   1.0000   1.0000   1.0000   1.0000
     1.0000   1.0000   1.0000   1.0000   1.0000   1.0000   1.0000   1.0000
     1.0000   1.0000   1.0000   1.0000   0.0000   0.0000   0.0000   0.0000
     0.0000   0.0000   0.0000   0.0000

          k =-0.0354-0.3182 0.5303 (  2027 PWs)   bands (ev):

   -14.5574 -14.5574 -14.5225 -14.5225 -14.4894 -14.4894 -14.4418 -14.4418
   -13.5651 -13.5651 -13.5205 -13.5205 -13.4682 -13.4682 -13.4136 -13.4136
   -13.3286 -13.3286 -13.2813 -13.2813  -0.7530  -0.7530   1.2032   1.2032
     4.4244   4.4244   5.4761   5.4761   9.9419   9.9419  10.7600  10.7600
    11.5088  11.5088  13.2392  13.2392

     occupation numbers 
     1.0000   1.0000   1.0000   1.0000   1.0000   1.0000   1.0000   1.0000
     1.0000   1.0000   1.0000   1.0000   1.0000   1.0000   1.0000   1.0000
     1.0000   1.0000   1.0000   1.0000   1.0000   1.0000   1.0000   1.0000
     1.0000   1.0000   1.0000   1.0000   0.0000   0.0000   0.0000   0.0000
     0.0000   0.0000   0.0000   0.0000

          k = 0.0000-0.2828 0.4950 (  2022 PWs)   bands (ev):

   -14.5572 -14.5572 -14.5229 -14.5229 -14.4872 -14.4872 -14.4418 -14.4418
   -13.5666 -13.5666 -13.5218 -13.5218 -13.4690 -13.4690 -13.4056 -13.4056
   -13.3282 -13.3282 -13.2841 -13.2841  -1.0041  -1.0041   1.5166   1.5166
     4.5489   4.5489   5.6317   5.6317   9.9428   9.9428  10.4688  10.4688
    11.2975  11.2975  13.3508  13.3509

     occupation numbers 
     1.0000   1.0000   1.0000   1.0000   1.0000   1.0000   1.0000   1.0000
     1.0000   1.0000   1.0000   1.0000   1.0000   1.0000   1.0000   1.0000
     1.0000   1.0000   1.0000   1.0000   1.0000   1.0000   1.0000   1.0000
     1.0000   1.0000   1.0000   1.0000   0.0000   0.0000   0.0000   0.0000
     0.0000   0.0000   0.0000   0.0000

          k =-0.1414-0.4950 0.7071 (  2028 PWs)   bands (ev):

   -14.5548 -14.5548 -14.5283 -14.5283 -14.4825 -14.4825 -14.4453 -14.4453
   -13.5636 -13.5636 -13.5231 -13.5231 -13.4670 -13.4670 -13.4144 -13.4144
   -13.3267 -13.3267 -13.2839 -13.2839  -0.7378  -0.7378   1.1965   1.1965
     4.7149   4.7149   5.2243   5.2243   9.5507   9.5507   9.8742   9.8742
    11.9824  11.9824  13.9656  13.9656

     occupation numbers 
     1.0000   1.0000   1.0000   1.0000   1.0000   1.0000   1.0000   1.0000
     1.0000   1.0000   1.0000   1.0000   1.0000   1.0000   1.0000   1.0000
     1.0000   1.0000   1.0000   1.0000   1.0000   1.0000   1.0000   1.0000
     1.0000   1.0000   1.0000   1.0000   0.0000   0.0000   0.0000   0.0000
     0.0000   0.0000   0.0000   0.0000

          k =-0.1061-0.4596 0.6718 (  2026 PWs)   bands (ev):

   -14.5551 -14.5551 -14.5260 -14.5260 -14.4847 -14.4847 -14.4430 -14.4430
   -13.5632 -13.5632 -13.5190 -13.5190 -13.4641 -13.4641 -13.4226 -13.4226
   -13.3264 -13.3264 -13.2798 -13.2798  -0.4829  -0.4829   0.9032   0.9032
     4.5640   4.5640   5.1141   5.1141   9.7131   9.7131  10.3255  10.3255
    11.8347  11.8347  13.5712  13.5712

     occupation numbers 
     1.0000   1.0000   1.0000   1.0000   1.0000   1.0000   1.0000   1.0000
     1.0000   1.0000   1.0000   1.0000   1.0000   1.0000   1.0000   1.0000
     1.0000   1.0000   1.0000   1.0000   1.0000   1.0000   1.0000   1.0000
     1.0000   1.0000   1.0000   1.0000   0.0000   0.0000   0.0000   0.0000
     0.0000   0.0000   0.0000   0.0000

          k =-0.0707-0.4243 0.6364 (  2031 PWs)   bands (ev):

   -14.5569 -14.5569 -14.5251 -14.5251 -14.4870 -14.4870 -14.4418 -14.4418
   -13.5645 -13.5645 -13.5176 -13.5176 -13.4628 -13.4628 -13.4274 -13.4274
   -13.3270 -13.3270 -13.2778 -13.2778  -0.2988  -0.2988   0.7031   0.7031
     4.4305   4.4305   5.0984   5.0984   9.7819   9.7819  10.9433  10.9433
    11.7506  11.7506  12.8915  12.8915

     occupation numbers 
     1.0000   1.0000   1.0000   1.0000   1.0000   1.0000   1.0000   1.0000
     1.0000   1.0000   1.0000   1.0000   1.0000   1.0000   1.0000   1.0000
     1.0000   1.0000   1.0000   1.0000   1.0000   1.0000   1.0000   1.0000
     1.0000   1.0000   1.0000   1.0000   0.0000   0.0000   0.0000   0.0000
     0.0000   0.0000   0.0000   0.0000

          k =-0.0354-0.3889 0.6010 (  2030 PWs)   bands (ev):

   -14.5574 -14.5574 -14.5239 -14.5239 -14.4879 -14.4879 -14.4408 -14.4408
   -13.5646 -13.5646 -13.5164 -13.5164 -13.4628 -13.4628 -13.4278 -13.4278
   -13.3275 -13.3275 -13.2769 -13.2769  -0.3100  -0.3100   0.7180   0.7180
     4.3458   4.3458   5.1656   5.1656   9.8601   9.8601  11.3238  11.3238
    11.9256  11.9256  12.2465  12.2465

     occupation numbers 
     1.0000   1.0000   1.0000   1.0000   1.0000   1.0000   1.0000   1.0000
     1.0000   1.0000   1.0000   1.0000   1.0000   1.0000   1.0000   1.0000
     1.0000   1.0000   1.0000   1.0000   1.0000   1.0000   1.0000   1.0000
     1.0000   1.0000   1.0000   1.0000   0.0000   0.0000   0.0000   0.0000
     0.0000   0.0000   0.0000   0.0000

          k = 0.0000-0.3536 0.5657 (  2028 PWs)   bands (ev):

   -14.5576 -14.5576 -14.5230 -14.5230 -14.4888 -14.4888 -14.4407 -14.4407
   -13.5645 -13.5645 -13.5177 -13.5177 -13.4653 -13.4653 -13.4219 -13.4219
   -13.3285 -13.3285 -13.2782 -13.2782  -0.5021  -0.5021   0.9278   0.9278
     4.3378   4.3378   5.2975   5.2975   9.9368   9.9368  11.1999  11.1999
    11.6093  11.6093  12.6942  12.6942

     occupation numbers 
     1.0000   1.0000   1.0000   1.0000   1.0000   1.0000   1.0000   1.0000
     1.0000   1.0000   1.0000   1.0000   1.0000   1.0000   1.0000   1.0000
     1.0000   1.0000   1.0000   1.0000   1.0000   1.0000   1.0000   1.0000
     1.0000   1.0000   1.0000   1.0000   0.0000   0.0000   0.0000   0.0000
     0.0000   0.0000   0.0000   0.0000

          k =-0.0707-0.4950 0.7071 (  2026 PWs)   bands (ev):

   -14.5535 -14.5535 -14.5287 -14.5287 -14.4815 -14.4815 -14.4448 -14.4448
   -13.5617 -13.5617 -13.5209 -13.5209 -13.4589 -13.4589 -13.4288 -13.4288
   -13.3236 -13.3236 -13.2807 -13.2807  -0.2921  -0.2921   0.6836   0.6836
     4.6938   4.6938   4.9805   4.9805   9.5337   9.5337   9.7533   9.7533
    12.5495  12.5495  13.7497  13.7497

     occupation numbers 
     1.0000   1.0000   1.0000   1.0000   1.0000   1.0000   1.0000   1.0000
     1.0000   1.0000   1.0000   1.0000   1.0000   1.0000   1.0000   1.0000
     1.0000   1.0000   1.0000   1.0000   1.0000   1.0000   1.0000   1.0000
     1.0000   1.0000   1.0000   1.0000   0.0000   0.0000   0.0000   0.0000
     0.0000   0.0000   0.0000   0.0000

          k =-0.0354-0.4596 0.6718 (  2032 PWs)   bands (ev):

   -14.5552 -14.5552 -14.5272 -14.5272 -14.4850 -14.4850 -14.4436 -14.4436
   -13.5636 -13.5636 -13.5181 -13.5181 -13.4570 -13.4570 -13.4356 -13.4356
   -13.3253 -13.3253 -13.2782 -13.2782  -0.0660  -0.0660   0.4546   0.4546
     4.5581   4.5581   4.9319   4.9319   9.6828   9.6828  10.2891  10.2891
    12.3967  12.3967  13.0306  13.0306

     occupation numbers 
     1.0000   1.0000   1.0000   1.0000   1.0000   1.0000   1.0000   1.0000
     1.0000   1.0000   1.0000   1.0000   1.0000   1.0000   1.0000   1.0000
     1.0000   1.0000   1.0000   1.0000   1.0000   1.0000   1.0000   1.0000
     1.0000   1.0000   1.0000   1.0000   0.0000   0.0000   0.0000   0.0000
     0.0000   0.0000   0.0000   0.0000

          k =-0.0000-0.4243 0.6364 (  2024 PWs)   bands (ev):

   -14.5557 -14.5557 -14.5243 -14.5243 -14.4857 -14.4857 -14.4404 -14.4404
   -13.5633 -13.5633 -13.5148 -13.5148 -13.4573 -13.4573 -13.4338 -13.4338
   -13.3253 -13.3253 -13.2751 -13.2751  -0.0859  -0.0859   0.4833   0.4833
     4.4149   4.4149   5.0134   5.0134   9.7698   9.7698  10.9722  10.9722
    12.2367  12.2367  12.3306  12.3306

     occupation numbers 
     1.0000   1.0000   1.0000   1.0000   1.0000   1.0000   1.0000   1.0000
     1.0000   1.0000   1.0000   1.0000   1.0000   1.0000   1.0000   1.0000
     1.0000   1.0000   1.0000   1.0000   1.0000   1.0000   1.0000   1.0000
     1.0000   1.0000   1.0000   1.0000   0.0000   0.0000   0.0000   0.0000
     0.0000   0.0000   0.0000   0.0000

          k =-0.7071 0.2121 0.0000 (  2028 PWs)   bands (ev):

   -14.5529 -14.5529 -14.5288 -14.5288 -14.4817 -14.4817 -14.4454 -14.4454
   -13.5614 -13.5614 -13.5201 -13.5201 -13.4525 -13.4525 -13.4377 -13.4377
   -13.3238 -13.3238 -13.2798 -13.2798   0.1648   0.1648   0.2044   0.2044
     4.7154   4.7154   4.8696   4.8696   9.5417   9.5417   9.6934   9.6934
    13.0986  13.0986  13.2478  13.2478

     occupation numbers 
     1.0000   1.0000   1.0000   1.0000   1.0000   1.0000   1.0000   1.0000
     1.0000   1.0000   1.0000   1.0000   1.0000   1.0000   1.0000   1.0000
     1.0000   1.0000   1.0000   1.0000   1.0000   1.0000   1.0000   1.0000
     1.0000   1.0000   1.0000   1.0000   0.0000   0.0000   0.0000   0.0000
     0.0000   0.0000   0.0000   0.0000

          k =-0.1414-0.4243 0.7071 (  2042 PWs)   bands (ev):

   -14.5592 -14.5592 -14.5270 -14.5270 -14.4889 -14.4889 -14.4438 -14.4438
   -13.5668 -13.5668 -13.5215 -13.5215 -13.4687 -13.4687 -13.4204 -13.4204
   -13.3300 -13.3300 -13.2819 -13.2819  -0.6286  -0.6286   1.0738   1.0738
     4.4910   4.4910   5.2356   5.2356  10.1921  10.1921  10.4441  10.4441
    11.3270  11.3270  13.4339  13.4340

     occupation numbers 
     1.0000   1.0000   1.0000   1.0000   1.0000   1.0000   1.0000   1.0000
     1.0000   1.0000   1.0000   1.0000   1.0000   1.0000   1.0000   1.0000
     1.0000   1.0000   1.0000   1.0000   1.0000   1.0000   1.0000   1.0000
     1.0000   1.0000   1.0000   1.0000   0.0000   0.0000   0.0000   0.0000
     0.0000   0.0000   0.0000   0.0000

          k =-0.1061-0.3889 0.6718 (  2029 PWs)   bands (ev):

   -14.5569 -14.5569 -14.5240 -14.5240 -14.4880 -14.4880 -14.4412 -14.4412
   -13.5646 -13.5646 -13.5165 -13.5165 -13.4642 -13.4642 -13.4255 -13.4255
   -13.3278 -13.3278 -13.2774 -13.2774  -0.3967  -0.3967   0.8158   0.8158
     4.4164   4.4164   5.1082   5.1082  10.2751  10.2751  10.8136  10.8136
    11.4416  11.4416  12.7800  12.7800

     occupation numbers 
     1.0000   1.0000   1.0000   1.0000   1.0000   1.0000   1.0000   1.0000
     1.0000   1.0000   1.0000   1.0000   1.0000   1.0000   1.0000   1.0000
     1.0000   1.0000   1.0000   1.0000   1.0000   1.0000   1.0000   1.0000
     1.0000   1.0000   1.0000   1.0000   0.0000   0.0000   0.0000   0.0000
     0.0000   0.0000   0.0000   0.0000

          k =-0.0707-0.3536 0.6364 (  2028 PWs)   bands (ev):

   -14.5569 -14.5569 -14.5238 -14.5238 -14.4874 -14.4874 -14.4409 -14.4409
   -13.5644 -13.5644 -13.5156 -13.5156 -13.4626 -13.4626 -13.4276 -13.4276
   -13.3280 -13.3280 -13.2758 -13.2758  -0.2891  -0.2891   0.6991   0.6991
     4.3933   4.3933   5.0624   5.0624  10.2855  10.2855  10.9057  10.9057
    11.8686  11.8686  12.1964  12.1964

     occupation numbers 
     1.0000   1.0000   1.0000   1.0000   1.0000   1.0000   1.0000   1.0000
     1.0000   1.0000   1.0000   1.0000   1.0000   1.0000   1.0000   1.0000
     1.0000   1.0000   1.0000   1.0000   1.0000   1.0000   1.0000   1.0000
     1.0000   1.0000   1.0000   1.0000   0.0000   0.0000   0.0000   0.0000
     0.0000   0.0000   0.0000   0.0000

          k =-0.0707-0.4243 0.7071 (  2032 PWs)   bands (ev):

   -14.5559 -14.5559 -14.5261 -14.5261 -14.4867 -14.4867 -14.4423 -14.4423
   -13.5647 -13.5647 -13.5162 -13.5162 -13.4614 -13.4614 -13.4314 -13.4314
   -13.3272 -13.3272 -13.2774 -13.2774  -0.2254  -0.2254   0.6338   0.6338
     4.5194   4.5194   4.9221   4.9221  10.2349  10.2349  10.4496  10.4496
    11.6899  11.6899  12.8932  12.8932

     occupation numbers 
     1.0000   1.0000   1.0000   1.0000   1.0000   1.0000   1.0000   1.0000
     1.0000   1.0000   1.0000   1.0000   1.0000   1.0000   1.0000   1.0000
     1.0000   1.0000   1.0000   1.0000   1.0000   1.0000   1.0000   1.0000
     1.0000   1.0000   1.0000   1.0000   0.0000   0.0000   0.0000   0.0000
     0.0000   0.0000   0.0000   0.0000

          k =-0.0354-0.3889 0.6718 (  2017 PWs)   bands (ev):

   -14.5542 -14.5542 -14.5236 -14.5236 -14.4845 -14.4845 -14.4394 -14.4394
   -13.5629 -13.5629 -13.5122 -13.5122 -13.4564 -13.4564 -13.4330 -13.4330
   -13.3259 -13.3259 -13.2729 -13.2729  -0.0513  -0.0513   0.4577   0.4577
     4.4735   4.4735   4.8544   4.8544  10.3748  10.3748  10.9821  10.9821
    11.6320  11.6320  12.1550  12.1550

     occupation numbers 
     1.0000   1.0000   1.0000   1.0000   1.0000   1.0000   1.0000   1.0000
     1.0000   1.0000   1.0000   1.0000   1.0000   1.0000   1.0000   1.0000
     1.0000   1.0000   1.0000   1.0000   1.0000   1.0000   1.0000   1.0000
     1.0000   1.0000   1.0000   1.0000   0.0000   0.0000   0.0000   0.0000
     0.0000   0.0000   0.0000   0.0000

          k = 0.0000-0.3536 0.6364 (  2020 PWs)   bands (ev):

   -14.5550 -14.5550 -14.5235 -14.5235 -14.4857 -14.4857 -14.4394 -14.4394
   -13.5635 -13.5635 -13.5130 -13.5130 -13.4585 -13.4585 -13.4314 -13.4314
   -13.3263 -13.3263 -13.2738 -13.2738  -0.1544  -0.1544   0.5656   0.5656
     4.4206   4.4206   4.9341   4.9341  10.4233  10.4233  11.1300  11.1300
    11.5324  11.5324  12.0772  12.0772

     occupation numbers 
     1.0000   1.0000   1.0000   1.0000   1.0000   1.0000   1.0000   1.0000
     1.0000   1.0000   1.0000   1.0000   1.0000   1.0000   1.0000   1.0000
     1.0000   1.0000   1.0000   1.0000   1.0000   1.0000   1.0000   1.0000
     1.0000   1.0000   1.0000   1.0000   0.0000   0.0000   0.0000   0.0000
     0.0000   0.0000   0.0000   0.0000

          k =-0.7071 0.2828 0.0000 (  2024 PWs)   bands (ev):

   -14.5545 -14.5545 -14.5247 -14.5247 -14.4853 -14.4853 -14.4411 -14.4411
   -13.5637 -13.5637 -13.5135 -13.5135 -13.4538 -13.4538 -13.4392 -13.4392
   -13.3250 -13.3250 -13.2746 -13.2746   0.1748   0.1748   0.2220   0.2220
     4.5868   4.5868   4.7576   4.7576  10.2376  10.2376  10.4370  10.4370
    12.2093  12.2093  12.3084  12.3084

     occupation numbers 
     1.0000   1.0000   1.0000   1.0000   1.0000   1.0000   1.0000   1.0000
     1.0000   1.0000   1.0000   1.0000   1.0000   1.0000   1.0000   1.0000
     1.0000   1.0000   1.0000   1.0000   1.0000   1.0000   1.0000   1.0000
     1.0000   1.0000   1.0000   1.0000   0.0000   0.0000   0.0000   0.0000
     0.0000   0.0000   0.0000   0.0000

          k =-0.7071 0.3536 0.0000 (  1984 PWs)   bands (ev):

   -14.5485 -14.5485 -14.5178 -14.5178 -14.4796 -14.4796 -14.4342 -14.4342
   -13.5581 -13.5581 -13.5063 -13.5063 -13.4480 -13.4480 -13.4327 -13.4327
   -13.3208 -13.3208 -13.2685 -13.2685   0.1788   0.1788   0.2287   0.2287
     4.5408   4.5408   4.7168   4.7168  10.7417  10.7417  11.0603  11.0603
    11.6179  11.6179  11.6396  11.6396

     occupation numbers 
     1.0000   1.0000   1.0000   1.0000   1.0000   1.0000   1.0000   1.0000
     1.0000   1.0000   1.0000   1.0000   1.0000   1.0000   1.0000   1.0000
     1.0000   1.0000   1.0000   1.0000   1.0000   1.0000   1.0000   1.0000
     1.0000   1.0000   1.0000   1.0000   0.0000   0.0000   0.0000   0.0000
     0.0000   0.0000   0.0000   0.0000

     the Fermi energy is     7.6714 ev

!    total energy              =    -885.82842838 Ry
     Harris-Foulkes estimate   =    -885.82842827 Ry
     estimated scf accuracy    <       0.00000010 Ry

     total all-electron energy =    -24716.528178 Ry

     The total energy is the sum of the following terms:

     one-electron contribution =    -148.92305804 Ry
     hartree contribution      =      93.71195531 Ry
     xc contribution           =     -96.16579891 Ry
     ewald contribution        =    -170.59904351 Ry
     one-center paw contrib.   =    -563.85248317 Ry
     smearing contrib. (-TS)   =      -0.00000007 Ry

     convergence has been achieved in   5 iterations

     Writing output data file Sn.save
 
     init_run     :      8.20s CPU      8.72s WALL (       1 calls)
     electrons    :    176.22s CPU    182.44s WALL (       1 calls)

     Called by init_run:
     wfcinit      :      7.63s CPU      7.93s WALL (       1 calls)
     potinit      :      0.28s CPU      0.31s WALL (       1 calls)

     Called by electrons:
     c_bands      :    147.54s CPU    152.79s WALL (       6 calls)
     sum_band     :     27.02s CPU     27.81s WALL (       6 calls)
     v_of_rho     :      0.03s CPU      0.04s WALL (       6 calls)
     v_h          :      0.00s CPU      0.00s WALL (       6 calls)
     v_xc         :      0.03s CPU      0.03s WALL (       6 calls)
     newd         :      0.34s CPU      0.37s WALL (       6 calls)
     PAW_pot      :      1.57s CPU      1.66s WALL (       6 calls)
     mix_rho      :      0.01s CPU      0.03s WALL (       6 calls)

     Called by c_bands:
     init_us_2    :      0.37s CPU      0.46s WALL (    3328 calls)
     cegterg      :    140.21s CPU    145.05s WALL (    1536 calls)

     Called by sum_band:
     sum_band:bec :      5.22s CPU      5.26s WALL (    1536 calls)
     addusdens    :      0.16s CPU      0.20s WALL (       6 calls)

     Called by *egterg:
     h_psi        :    102.96s CPU    105.93s WALL (    5448 calls)
     s_psi        :      4.79s CPU      4.82s WALL (    5448 calls)
     g_psi        :      0.33s CPU      0.33s WALL (    3656 calls)
     cdiaghg      :     20.62s CPU     20.96s WALL (    4936 calls)
     cegterg:over :      7.59s CPU      7.64s WALL (    3656 calls)
     cegterg:upda :      2.95s CPU      2.97s WALL (    3656 calls)
     cegterg:last :      1.64s CPU      1.65s WALL (    1536 calls)

     Called by h_psi:
     h_psi:vloc   :     91.25s CPU     94.08s WALL (    5448 calls)
     h_psi:vnl    :     11.42s CPU     11.55s WALL (    5448 calls)
     add_vuspsi   :      5.39s CPU      5.43s WALL (    5448 calls)

     General routines
     calbec       :      8.06s CPU      8.18s WALL (    6984 calls)
     fft          :      0.04s CPU      0.09s WALL (     116 calls)
     fftw         :    102.34s CPU    105.60s WALL (  697564 calls)
     davcio       :      0.04s CPU      0.30s WALL (     256 calls)
 
     Parallel routines
     fft_scatter  :     61.69s CPU     64.10s WALL (  697680 calls)

     PAW routines
     PAW_pot      :      1.57s CPU      1.66s WALL (       6 calls)
     PAW_symme    :      0.04s CPU      0.04s WALL (      12 calls)
 
     PWSCF        :  3m 6.01s CPU     3m13.26s WALL

 
   This run was terminated on:  21:14: 7   8Mar2020            

=------------------------------------------------------------------------------=
   JOB DONE.
=------------------------------------------------------------------------------=
