
     Program PWSCF v.5.4.0 starts on  9Mar2020 at  0:38:32 

     This program is part of the open-source Quantum ESPRESSO suite
     for quantum simulation of materials; please cite
         "P. Giannozzi et al., J. Phys.:Condens. Matter 21 395502 (2009);
          URL http://www.quantum-espresso.org", 
     in publications or presentations arising from this work. More details at
     http://www.quantum-espresso.org/quote

     Parallel version (MPI & OpenMP), running on      16 processor cores
     Number of MPI processes:                16
     Threads/MPI process:                     1
     R & G space division:  proc/nbgrp/npool/nimage =      16
     Waiting for input...
     Reading input from standard input
Warning: card &IONS ignored
Warning: card / ignored
Warning: card &CELL ignored
Warning: card / ignored

     Current dimensions of program PWSCF are:
     Max number of different atomic species (ntypx) = 10
     Max number of k-points (npk) =  40000
     Max angular momentum in pseudopotentials (lmaxx) =  3
               file Sn.rel-pbe-dn-kjpaw_psl.1.0.0.UPF: wavefunction(s)  5S 5P 5P 4D 4D renormalized

     Subspace diagonalization in iterative solution of the eigenvalue problem:
     a serial algorithm will be used

 
     Parallelization info
     --------------------
     sticks:   dense  smooth     PW     G-vecs:    dense   smooth      PW
     Min          81      81     28                 1962     1962     413
     Max          83      83     29                 1964     1964     415
     Sum        1309    1309    463                31415    31415    6615
 

     Title: 
     Sn                                                                         


     bravais-lattice index     =            0
     lattice parameter (alat)  =       8.7524  a.u.
     unit-cell volume          =     474.0897 (a.u.)^3
     number of atoms/cell      =            2
     number of atomic types    =            1
     number of electrons       =        28.00
     number of Kohn-Sham states=           36
     kinetic-energy cutoff     =      76.0000  Ry
     charge density cutoff     =     250.0000  Ry
     convergence threshold     =      1.0E-06
     mixing beta               =       0.7000
     number of iterations used =            8  plain     mixing
     Exchange-correlation      =  SLA  PW   PBX  PBC ( 1  4  3  4 0 0)
     Non magnetic calculation with spin-orbit


     celldm(1)=   8.752360  celldm(2)=   0.000000  celldm(3)=   0.000000
     celldm(4)=   0.000000  celldm(5)=   0.000000  celldm(6)=   0.000000

     crystal axes: (cart. coord. in units of alat)
               a(1) = (   0.000000   0.707107   0.707107 )  
               a(2) = (   0.707107   0.000000   0.707107 )  
               a(3) = (   0.707107   0.707107   0.000000 )  

     reciprocal axes: (cart. coord. in units 2 pi/alat)
               b(1) = ( -0.707107  0.707107  0.707107 )  
               b(2) = (  0.707107 -0.707107  0.707107 )  
               b(3) = (  0.707107  0.707107 -0.707107 )  


     PseudoPot. # 1 for Sn read from file:
     ../PseudopotentialDatabase/Sn.rel-pbe-dn-kjpaw_psl.1.0.0.UPF
     MD5 check sum: 6bcaba2b82cf8d008985ef5bb9854e68
     Pseudo is Projector augmented-wave + core cor, Zval = 14.0
     Generated using "atomic" code by A. Dal Corso  v.6.3
     Shape of augmentation charge: PSQ
     Using radial grid of 1243 points, 10 beta functions with: 
                l(1) =   0
                l(2) =   0
                l(3) =   1
                l(4) =   1
                l(5) =   1
                l(6) =   1
                l(7) =   2
                l(8) =   2
                l(9) =   2
               l(10) =   2
     Q(r) pseudized with 0 coefficients 


     atomic species   valence    mass     pseudopotential
        Sn            14.00   118.71000     Sn( 1.00)

     24 Sym. Ops. (no inversion) found
          (note: 24 additional sym.ops. were found but ignored
           their fractional translations are incommensurate with FFT grid)

                                    s                        frac. trans.

      isym =  1     identity                                     

 cryst.   s( 1) = (     1          0          0      )
                  (     0          1          0      )
                  (     0          0          1      )

 cart.    s( 1) = (  1.0000000  0.0000000  0.0000000 )
                  (  0.0000000  1.0000000  0.0000000 )
                  (  0.0000000  0.0000000  1.0000000 )


      isym =  2     180 deg rotation - cart. axis [0,0,1]        

 cryst.   s( 2) = (     0          1         -1      )
                  (     1          0         -1      )
                  (     0          0         -1      )

 cart.    s( 2) = ( -1.0000000  0.0000000  0.0000000 )
                  (  0.0000000 -1.0000000  0.0000000 )
                  (  0.0000000  0.0000000  1.0000000 )


      isym =  3     180 deg rotation - cart. axis [0,1,0]        

 cryst.   s( 3) = (     0         -1          1      )
                  (     0         -1          0      )
                  (     1         -1          0      )

 cart.    s( 3) = ( -1.0000000  0.0000000  0.0000000 )
                  (  0.0000000  1.0000000  0.0000000 )
                  (  0.0000000  0.0000000 -1.0000000 )


      isym =  4     180 deg rotation - cart. axis [1,0,0]        

 cryst.   s( 4) = (    -1          0          0      )
                  (    -1          0          1      )
                  (    -1          1          0      )

 cart.    s( 4) = (  1.0000000  0.0000000  0.0000000 )
                  (  0.0000000 -1.0000000  0.0000000 )
                  (  0.0000000  0.0000000 -1.0000000 )


      isym =  5     120 deg rotation - cart. axis [-1,-1,-1]     

 cryst.   s( 5) = (     0          0          1      )
                  (     1          0          0      )
                  (     0          1          0      )

 cart.    s( 5) = (  0.0000000  1.0000000  0.0000000 )
                  (  0.0000000  0.0000000  1.0000000 )
                  (  1.0000000  0.0000000  0.0000000 )


      isym =  6     120 deg rotation - cart. axis [-1,1,1]       

 cryst.   s( 6) = (     1         -1          0      )
                  (     0         -1          1      )
                  (     0         -1          0      )

 cart.    s( 6) = (  0.0000000 -1.0000000  0.0000000 )
                  (  0.0000000  0.0000000  1.0000000 )
                  ( -1.0000000  0.0000000  0.0000000 )


      isym =  7     120 deg rotation - cart. axis [1,1,-1]       

 cryst.   s( 7) = (    -1          1          0      )
                  (    -1          0          0      )
                  (    -1          0          1      )

 cart.    s( 7) = (  0.0000000  1.0000000  0.0000000 )
                  (  0.0000000  0.0000000 -1.0000000 )
                  ( -1.0000000  0.0000000  0.0000000 )


      isym =  8     120 deg rotation - cart. axis [1,-1,1]       

 cryst.   s( 8) = (     0          0         -1      )
                  (     0          1         -1      )
                  (     1          0         -1      )

 cart.    s( 8) = (  0.0000000 -1.0000000  0.0000000 )
                  (  0.0000000  0.0000000 -1.0000000 )
                  (  1.0000000  0.0000000  0.0000000 )


      isym =  9     120 deg rotation - cart. axis [1,1,1]        

 cryst.   s( 9) = (     0          1          0      )
                  (     0          0          1      )
                  (     1          0          0      )

 cart.    s( 9) = (  0.0000000  0.0000000  1.0000000 )
                  (  1.0000000  0.0000000  0.0000000 )
                  (  0.0000000  1.0000000  0.0000000 )


      isym = 10     120 deg rotation - cart. axis [-1,1,-1]      

 cryst.   s(10) = (    -1          0          1      )
                  (    -1          1          0      )
                  (    -1          0          0      )

 cart.    s(10) = (  0.0000000  0.0000000  1.0000000 )
                  ( -1.0000000  0.0000000  0.0000000 )
                  (  0.0000000 -1.0000000  0.0000000 )


      isym = 11     120 deg rotation - cart. axis [1,-1,-1]      

 cryst.   s(11) = (     1          0         -1      )
                  (     0          0         -1      )
                  (     0          1         -1      )

 cart.    s(11) = (  0.0000000  0.0000000 -1.0000000 )
                  ( -1.0000000  0.0000000  0.0000000 )
                  (  0.0000000  1.0000000  0.0000000 )


      isym = 12     120 deg rotation - cart. axis [-1,-1,1]      

 cryst.   s(12) = (     0         -1          0      )
                  (     1         -1          0      )
                  (     0         -1          1      )

 cart.    s(12) = (  0.0000000  0.0000000 -1.0000000 )
                  (  1.0000000  0.0000000  0.0000000 )
                  (  0.0000000 -1.0000000  0.0000000 )


      isym = 13     inv. 180 deg rotation - cart. axis [1,1,0]   

 cryst.   s(13) = (     1          0         -1      )
                  (     0          1         -1      )
                  (     0          0         -1      )

 cart.    s(13) = (  0.0000000 -1.0000000  0.0000000 )
                  ( -1.0000000  0.0000000  0.0000000 )
                  (  0.0000000  0.0000000  1.0000000 )


      isym = 14     inv. 180 deg rotation - cart. axis [1,-1,0]  

 cryst.   s(14) = (     0          1          0      )
                  (     1          0          0      )
                  (     0          0          1      )

 cart.    s(14) = (  0.0000000  1.0000000  0.0000000 )
                  (  1.0000000  0.0000000  0.0000000 )
                  (  0.0000000  0.0000000  1.0000000 )


      isym = 15     inv.  90 deg rotation - cart. axis [0,0,-1]  

 cryst.   s(15) = (     0         -1          0      )
                  (     0         -1          1      )
                  (     1         -1          0      )

 cart.    s(15) = (  0.0000000 -1.0000000  0.0000000 )
                  (  1.0000000  0.0000000  0.0000000 )
                  (  0.0000000  0.0000000 -1.0000000 )


      isym = 16     inv.  90 deg rotation - cart. axis [0,0,1]   

 cryst.   s(16) = (    -1          0          1      )
                  (    -1          0          0      )
                  (    -1          1          0      )

 cart.    s(16) = (  0.0000000  1.0000000  0.0000000 )
                  ( -1.0000000  0.0000000  0.0000000 )
                  (  0.0000000  0.0000000 -1.0000000 )


      isym = 17     inv. 180 deg rotation - cart. axis [1,0,1]   

 cryst.   s(17) = (     1         -1          0      )
                  (     0         -1          0      )
                  (     0         -1          1      )

 cart.    s(17) = (  0.0000000  0.0000000 -1.0000000 )
                  (  0.0000000  1.0000000  0.0000000 )
                  ( -1.0000000  0.0000000  0.0000000 )


      isym = 18     inv. 180 deg rotation - cart. axis [-1,0,1]  

 cryst.   s(18) = (     0          0          1      )
                  (     0          1          0      )
                  (     1          0          0      )

 cart.    s(18) = (  0.0000000  0.0000000  1.0000000 )
                  (  0.0000000  1.0000000  0.0000000 )
                  (  1.0000000  0.0000000  0.0000000 )


      isym = 19     inv.  90 deg rotation - cart. axis [0,1,0]   

 cryst.   s(19) = (     0          0         -1      )
                  (     1          0         -1      )
                  (     0          1         -1      )

 cart.    s(19) = (  0.0000000  0.0000000 -1.0000000 )
                  (  0.0000000 -1.0000000  0.0000000 )
                  (  1.0000000  0.0000000  0.0000000 )


      isym = 20     inv.  90 deg rotation - cart. axis [0,-1,0]  

 cryst.   s(20) = (    -1          1          0      )
                  (    -1          0          1      )
                  (    -1          0          0      )

 cart.    s(20) = (  0.0000000  0.0000000  1.0000000 )
                  (  0.0000000 -1.0000000  0.0000000 )
                  ( -1.0000000  0.0000000  0.0000000 )


      isym = 21     inv. 180 deg rotation - cart. axis [0,1,1]   

 cryst.   s(21) = (    -1          0          0      )
                  (    -1          1          0      )
                  (    -1          0          1      )

 cart.    s(21) = (  1.0000000  0.0000000  0.0000000 )
                  (  0.0000000  0.0000000 -1.0000000 )
                  (  0.0000000 -1.0000000  0.0000000 )


      isym = 22     inv. 180 deg rotation - cart. axis [0,1,-1]  

 cryst.   s(22) = (     1          0          0      )
                  (     0          0          1      )
                  (     0          1          0      )

 cart.    s(22) = (  1.0000000  0.0000000  0.0000000 )
                  (  0.0000000  0.0000000  1.0000000 )
                  (  0.0000000  1.0000000  0.0000000 )


      isym = 23     inv.  90 deg rotation - cart. axis [-1,0,0]  

 cryst.   s(23) = (     0          1         -1      )
                  (     0          0         -1      )
                  (     1          0         -1      )

 cart.    s(23) = ( -1.0000000  0.0000000  0.0000000 )
                  (  0.0000000  0.0000000 -1.0000000 )
                  (  0.0000000  1.0000000  0.0000000 )


      isym = 24     inv.  90 deg rotation - cart. axis [1,0,0]   

 cryst.   s(24) = (     0         -1          1      )
                  (     1         -1          0      )
                  (     0         -1          0      )

 cart.    s(24) = ( -1.0000000  0.0000000  0.0000000 )
                  (  0.0000000  0.0000000  1.0000000 )
                  (  0.0000000 -1.0000000  0.0000000 )


   Cartesian axes

     site n.     atom                  positions (alat units)
         1           Sn  tau(   1) = (   0.0000000   0.0000000   0.0000000  )
         2           Sn  tau(   2) = (   0.3535534   0.3535534   0.3535534  )

   Crystallographic axes

     site n.     atom                  positions (cryst. coord.)
         1           Sn  tau(   1) = (  0.0000000  0.0000000  0.0000000  )
         2           Sn  tau(   2) = (  0.2500000  0.2500000  0.2500000  )

     number of k points=   145  gaussian smearing, width (Ry)=  0.0001
                       cart. coord. in units 2pi/alat
        k(    1) = (   0.0000000   0.0000000   0.0000000), wk =   0.0002441
        k(    2) = (   0.0441942   0.0441942  -0.0441942), wk =   0.0019531
        k(    3) = (   0.0883883   0.0883883  -0.0883883), wk =   0.0019531
        k(    4) = (   0.1325825   0.1325825  -0.1325825), wk =   0.0019531
        k(    5) = (   0.1767767   0.1767767  -0.1767767), wk =   0.0019531
        k(    6) = (   0.2209709   0.2209709  -0.2209709), wk =   0.0019531
        k(    7) = (   0.2651650   0.2651650  -0.2651650), wk =   0.0019531
        k(    8) = (   0.3093592   0.3093592  -0.3093592), wk =   0.0019531
        k(    9) = (  -0.3535534  -0.3535534   0.3535534), wk =   0.0009766
        k(   10) = (   0.0883883   0.0000000   0.0000000), wk =   0.0014648
        k(   11) = (   0.1325825   0.0441942  -0.0441942), wk =   0.0058594
        k(   12) = (   0.1767767   0.0883883  -0.0883883), wk =   0.0058594
        k(   13) = (   0.2209709   0.1325825  -0.1325825), wk =   0.0058594
        k(   14) = (   0.2651650   0.1767767  -0.1767767), wk =   0.0058594
        k(   15) = (   0.3093592   0.2209709  -0.2209709), wk =   0.0058594
        k(   16) = (   0.3535534   0.2651650  -0.2651650), wk =   0.0058594
        k(   17) = (  -0.3093592  -0.3977476   0.3977476), wk =   0.0058594
        k(   18) = (  -0.2651650  -0.3535534   0.3535534), wk =   0.0058594
        k(   19) = (  -0.2209709  -0.3093592   0.3093592), wk =   0.0058594
        k(   20) = (  -0.1767767  -0.2651650   0.2651650), wk =   0.0058594
        k(   21) = (  -0.1325825  -0.2209709   0.2209709), wk =   0.0058594
        k(   22) = (  -0.0883883  -0.1767767   0.1767767), wk =   0.0058594
        k(   23) = (  -0.0441942  -0.1325825   0.1325825), wk =   0.0058594
        k(   24) = (   0.0000000  -0.0883883   0.0883883), wk =   0.0029297
        k(   25) = (   0.1767767   0.0000000   0.0000000), wk =   0.0014648
        k(   26) = (   0.2209709   0.0441942  -0.0441942), wk =   0.0058594
        k(   27) = (   0.2651650   0.0883883  -0.0883883), wk =   0.0058594
        k(   28) = (   0.3093592   0.1325825  -0.1325825), wk =   0.0058594
        k(   29) = (   0.3535534   0.1767767  -0.1767767), wk =   0.0058594
        k(   30) = (   0.3977476   0.2209709  -0.2209709), wk =   0.0058594
        k(   31) = (  -0.2651650  -0.4419417   0.4419417), wk =   0.0058594
        k(   32) = (  -0.2209709  -0.3977476   0.3977476), wk =   0.0058594
        k(   33) = (  -0.1767767  -0.3535534   0.3535534), wk =   0.0058594
        k(   34) = (  -0.1325825  -0.3093592   0.3093592), wk =   0.0058594
        k(   35) = (  -0.0883883  -0.2651650   0.2651650), wk =   0.0058594
        k(   36) = (  -0.0441942  -0.2209709   0.2209709), wk =   0.0058594
        k(   37) = (   0.0000000  -0.1767767   0.1767767), wk =   0.0029297
        k(   38) = (   0.2651650   0.0000000   0.0000000), wk =   0.0014648
        k(   39) = (   0.3093592   0.0441942  -0.0441942), wk =   0.0058594
        k(   40) = (   0.3535534   0.0883883  -0.0883883), wk =   0.0058594
        k(   41) = (   0.3977476   0.1325825  -0.1325825), wk =   0.0058594
        k(   42) = (   0.4419417   0.1767767  -0.1767767), wk =   0.0058594
        k(   43) = (  -0.2209709  -0.4861359   0.4861359), wk =   0.0058594
        k(   44) = (  -0.1767767  -0.4419417   0.4419417), wk =   0.0058594
        k(   45) = (  -0.1325825  -0.3977476   0.3977476), wk =   0.0058594
        k(   46) = (  -0.0883883  -0.3535534   0.3535534), wk =   0.0058594
        k(   47) = (  -0.0441942  -0.3093592   0.3093592), wk =   0.0058594
        k(   48) = (   0.0000000  -0.2651650   0.2651650), wk =   0.0029297
        k(   49) = (   0.3535534   0.0000000   0.0000000), wk =   0.0014648
        k(   50) = (   0.3977476   0.0441942  -0.0441942), wk =   0.0058594
        k(   51) = (   0.4419417   0.0883883  -0.0883883), wk =   0.0058594
        k(   52) = (   0.4861359   0.1325825  -0.1325825), wk =   0.0058594
        k(   53) = (  -0.1767767  -0.5303301   0.5303301), wk =   0.0058594
        k(   54) = (  -0.1325825  -0.4861359   0.4861359), wk =   0.0058594
        k(   55) = (  -0.0883883  -0.4419417   0.4419417), wk =   0.0058594
        k(   56) = (  -0.0441942  -0.3977476   0.3977476), wk =   0.0058594
        k(   57) = (   0.0000000  -0.3535534   0.3535534), wk =   0.0029297
        k(   58) = (   0.4419417   0.0000000   0.0000000), wk =   0.0014648
        k(   59) = (   0.4861359   0.0441942  -0.0441942), wk =   0.0058594
        k(   60) = (   0.5303301   0.0883883  -0.0883883), wk =   0.0058594
        k(   61) = (  -0.1325825  -0.5745243   0.5745243), wk =   0.0058594
        k(   62) = (  -0.0883883  -0.5303301   0.5303301), wk =   0.0058594
        k(   63) = (  -0.0441942  -0.4861359   0.4861359), wk =   0.0058594
        k(   64) = (   0.0000000  -0.4419417   0.4419417), wk =   0.0029297
        k(   65) = (   0.5303301   0.0000000   0.0000000), wk =   0.0014648
        k(   66) = (   0.5745243   0.0441942  -0.0441942), wk =   0.0058594
        k(   67) = (  -0.0883883  -0.6187184   0.6187184), wk =   0.0058594
        k(   68) = (  -0.0441942  -0.5745243   0.5745243), wk =   0.0058594
        k(   69) = (   0.0000000  -0.5303301   0.5303301), wk =   0.0029297
        k(   70) = (   0.6187184   0.0000000   0.0000000), wk =   0.0014648
        k(   71) = (  -0.0441942  -0.6629126   0.6629126), wk =   0.0058594
        k(   72) = (   0.0000000  -0.6187184   0.6187184), wk =   0.0029297
        k(   73) = (  -0.7071068   0.0000000   0.0000000), wk =   0.0007324
        k(   74) = (   0.1767767   0.0883883   0.0000000), wk =   0.0058594
        k(   75) = (   0.2209709   0.1325825  -0.0441942), wk =   0.0117188
        k(   76) = (   0.2651650   0.1767767  -0.0883883), wk =   0.0117188
        k(   77) = (   0.3093592   0.2209709  -0.1325825), wk =   0.0117188
        k(   78) = (   0.3535534   0.2651650  -0.1767767), wk =   0.0117188
        k(   79) = (  -0.3093592  -0.3977476   0.4861359), wk =   0.0117188
        k(   80) = (  -0.2651650  -0.3535534   0.4419417), wk =   0.0058594
        k(   81) = (   0.2651650   0.0883883   0.0000000), wk =   0.0058594
        k(   82) = (   0.3093592   0.1325825  -0.0441942), wk =   0.0117188
        k(   83) = (   0.3535534   0.1767767  -0.0883883), wk =   0.0117188
        k(   84) = (   0.3977476   0.2209709  -0.1325825), wk =   0.0117188
        k(   85) = (  -0.2651650  -0.4419417   0.5303301), wk =   0.0117188
        k(   86) = (  -0.2209709  -0.3977476   0.4861359), wk =   0.0117188
        k(   87) = (  -0.1767767  -0.3535534   0.4419417), wk =   0.0117188
        k(   88) = (  -0.1325825  -0.3093592   0.3977476), wk =   0.0117188
        k(   89) = (  -0.0883883  -0.2651650   0.3535534), wk =   0.0117188
        k(   90) = (  -0.0441942  -0.2209709   0.3093592), wk =   0.0117188
        k(   91) = (   0.0000000  -0.1767767   0.2651650), wk =   0.0058594
        k(   92) = (   0.3535534   0.0883883   0.0000000), wk =   0.0058594
        k(   93) = (   0.3977476   0.1325825  -0.0441942), wk =   0.0117188
        k(   94) = (   0.4419417   0.1767767  -0.0883883), wk =   0.0117188
        k(   95) = (  -0.2209709  -0.4861359   0.5745243), wk =   0.0117188
        k(   96) = (  -0.1767767  -0.4419417   0.5303301), wk =   0.0117188
        k(   97) = (  -0.1325825  -0.3977476   0.4861359), wk =   0.0117188
        k(   98) = (  -0.0883883  -0.3535534   0.4419417), wk =   0.0117188
        k(   99) = (  -0.0441942  -0.3093592   0.3977476), wk =   0.0117188
        k(  100) = (   0.0000000  -0.2651650   0.3535534), wk =   0.0058594
        k(  101) = (   0.4419417   0.0883883   0.0000000), wk =   0.0058594
        k(  102) = (   0.4861359   0.1325825  -0.0441942), wk =   0.0117188
        k(  103) = (  -0.1767767  -0.5303301   0.6187184), wk =   0.0117188
        k(  104) = (  -0.1325825  -0.4861359   0.5745243), wk =   0.0117188
        k(  105) = (  -0.0883883  -0.4419417   0.5303301), wk =   0.0117188
        k(  106) = (  -0.0441942  -0.3977476   0.4861359), wk =   0.0117188
        k(  107) = (   0.0000000  -0.3535534   0.4419417), wk =   0.0058594
        k(  108) = (   0.5303301   0.0883883   0.0000000), wk =   0.0058594
        k(  109) = (  -0.1325825  -0.5745243   0.6629126), wk =   0.0117188
        k(  110) = (  -0.0883883  -0.5303301   0.6187184), wk =   0.0117188
        k(  111) = (  -0.0441942  -0.4861359   0.5745243), wk =   0.0117188
        k(  112) = (   0.0000000  -0.4419417   0.5303301), wk =   0.0058594
        k(  113) = (  -0.0883883  -0.6187184   0.7071068), wk =   0.0058594
        k(  114) = (  -0.0441942  -0.5745243   0.6629126), wk =   0.0117188
        k(  115) = (  -0.0000000  -0.5303301   0.6187184), wk =   0.0058594
        k(  116) = (  -0.7071068   0.0883883   0.0000000), wk =   0.0029297
        k(  117) = (   0.3535534   0.1767767   0.0000000), wk =   0.0058594
        k(  118) = (   0.3977476   0.2209709  -0.0441942), wk =   0.0117188
        k(  119) = (  -0.2651650  -0.4419417   0.6187184), wk =   0.0117188
        k(  120) = (  -0.2209709  -0.3977476   0.5745243), wk =   0.0117188
        k(  121) = (  -0.1767767  -0.3535534   0.5303301), wk =   0.0058594
        k(  122) = (   0.4419417   0.1767767   0.0000000), wk =   0.0058594
        k(  123) = (  -0.2209709  -0.4861359   0.6629126), wk =   0.0117188
        k(  124) = (  -0.1767767  -0.4419417   0.6187184), wk =   0.0117188
        k(  125) = (  -0.1325825  -0.3977476   0.5745243), wk =   0.0117188
        k(  126) = (  -0.0883883  -0.3535534   0.5303301), wk =   0.0117188
        k(  127) = (  -0.0441942  -0.3093592   0.4861359), wk =   0.0117188
        k(  128) = (   0.0000000  -0.2651650   0.4419417), wk =   0.0058594
        k(  129) = (  -0.1767767  -0.5303301   0.7071068), wk =   0.0058594
        k(  130) = (  -0.1325825  -0.4861359   0.6629126), wk =   0.0117188
        k(  131) = (  -0.0883883  -0.4419417   0.6187184), wk =   0.0117188
        k(  132) = (  -0.0441942  -0.3977476   0.5745243), wk =   0.0117188
        k(  133) = (   0.0000000  -0.3535534   0.5303301), wk =   0.0058594
        k(  134) = (  -0.0883883  -0.5303301   0.7071068), wk =   0.0058594
        k(  135) = (  -0.0441942  -0.4861359   0.6629126), wk =   0.0117188
        k(  136) = (   0.0000000  -0.4419417   0.6187184), wk =   0.0058594
        k(  137) = (  -0.7071068   0.1767767   0.0000000), wk =   0.0029297
        k(  138) = (  -0.1767767  -0.4419417   0.7071068), wk =   0.0058594
        k(  139) = (  -0.1325825  -0.3977476   0.6629126), wk =   0.0117188
        k(  140) = (  -0.0883883  -0.3535534   0.6187184), wk =   0.0058594
        k(  141) = (  -0.0883883  -0.4419417   0.7071068), wk =   0.0058594
        k(  142) = (  -0.0441942  -0.3977476   0.6629126), wk =   0.0117188
        k(  143) = (  -0.0000000  -0.3535534   0.6187184), wk =   0.0058594
        k(  144) = (  -0.7071068   0.2651650   0.0000000), wk =   0.0029297
        k(  145) = (  -0.7071068   0.3535534   0.0000000), wk =   0.0014648

                       cryst. coord.
        k(    1) = (   0.0000000   0.0000000   0.0000000), wk =   0.0002441
        k(    2) = (   0.0000000   0.0000000   0.0625000), wk =   0.0019531
        k(    3) = (   0.0000000   0.0000000   0.1250000), wk =   0.0019531
        k(    4) = (   0.0000000   0.0000000   0.1875000), wk =   0.0019531
        k(    5) = (   0.0000000   0.0000000   0.2500000), wk =   0.0019531
        k(    6) = (   0.0000000   0.0000000   0.3125000), wk =   0.0019531
        k(    7) = (   0.0000000   0.0000000   0.3750000), wk =   0.0019531
        k(    8) = (   0.0000000   0.0000000   0.4375000), wk =   0.0019531
        k(    9) = (   0.0000000   0.0000000  -0.5000000), wk =   0.0009766
        k(   10) = (   0.0000000   0.0625000   0.0625000), wk =   0.0014648
        k(   11) = (   0.0000000   0.0625000   0.1250000), wk =   0.0058594
        k(   12) = (   0.0000000   0.0625000   0.1875000), wk =   0.0058594
        k(   13) = (   0.0000000   0.0625000   0.2500000), wk =   0.0058594
        k(   14) = (   0.0000000   0.0625000   0.3125000), wk =   0.0058594
        k(   15) = (   0.0000000   0.0625000   0.3750000), wk =   0.0058594
        k(   16) = (   0.0000000   0.0625000   0.4375000), wk =   0.0058594
        k(   17) = (   0.0000000   0.0625000  -0.5000000), wk =   0.0058594
        k(   18) = (   0.0000000   0.0625000  -0.4375000), wk =   0.0058594
        k(   19) = (   0.0000000   0.0625000  -0.3750000), wk =   0.0058594
        k(   20) = (   0.0000000   0.0625000  -0.3125000), wk =   0.0058594
        k(   21) = (   0.0000000   0.0625000  -0.2500000), wk =   0.0058594
        k(   22) = (   0.0000000   0.0625000  -0.1875000), wk =   0.0058594
        k(   23) = (   0.0000000   0.0625000  -0.1250000), wk =   0.0058594
        k(   24) = (   0.0000000   0.0625000  -0.0625000), wk =   0.0029297
        k(   25) = (   0.0000000   0.1250000   0.1250000), wk =   0.0014648
        k(   26) = (   0.0000000   0.1250000   0.1875000), wk =   0.0058594
        k(   27) = (   0.0000000   0.1250000   0.2500000), wk =   0.0058594
        k(   28) = (   0.0000000   0.1250000   0.3125000), wk =   0.0058594
        k(   29) = (   0.0000000   0.1250000   0.3750000), wk =   0.0058594
        k(   30) = (   0.0000000   0.1250000   0.4375000), wk =   0.0058594
        k(   31) = (   0.0000000   0.1250000  -0.5000000), wk =   0.0058594
        k(   32) = (   0.0000000   0.1250000  -0.4375000), wk =   0.0058594
        k(   33) = (   0.0000000   0.1250000  -0.3750000), wk =   0.0058594
        k(   34) = (   0.0000000   0.1250000  -0.3125000), wk =   0.0058594
        k(   35) = (   0.0000000   0.1250000  -0.2500000), wk =   0.0058594
        k(   36) = (   0.0000000   0.1250000  -0.1875000), wk =   0.0058594
        k(   37) = (   0.0000000   0.1250000  -0.1250000), wk =   0.0029297
        k(   38) = (   0.0000000   0.1875000   0.1875000), wk =   0.0014648
        k(   39) = (   0.0000000   0.1875000   0.2500000), wk =   0.0058594
        k(   40) = (   0.0000000   0.1875000   0.3125000), wk =   0.0058594
        k(   41) = (   0.0000000   0.1875000   0.3750000), wk =   0.0058594
        k(   42) = (   0.0000000   0.1875000   0.4375000), wk =   0.0058594
        k(   43) = (   0.0000000   0.1875000  -0.5000000), wk =   0.0058594
        k(   44) = (   0.0000000   0.1875000  -0.4375000), wk =   0.0058594
        k(   45) = (   0.0000000   0.1875000  -0.3750000), wk =   0.0058594
        k(   46) = (   0.0000000   0.1875000  -0.3125000), wk =   0.0058594
        k(   47) = (   0.0000000   0.1875000  -0.2500000), wk =   0.0058594
        k(   48) = (   0.0000000   0.1875000  -0.1875000), wk =   0.0029297
        k(   49) = (   0.0000000   0.2500000   0.2500000), wk =   0.0014648
        k(   50) = (   0.0000000   0.2500000   0.3125000), wk =   0.0058594
        k(   51) = (   0.0000000   0.2500000   0.3750000), wk =   0.0058594
        k(   52) = (   0.0000000   0.2500000   0.4375000), wk =   0.0058594
        k(   53) = (   0.0000000   0.2500000  -0.5000000), wk =   0.0058594
        k(   54) = (   0.0000000   0.2500000  -0.4375000), wk =   0.0058594
        k(   55) = (   0.0000000   0.2500000  -0.3750000), wk =   0.0058594
        k(   56) = (   0.0000000   0.2500000  -0.3125000), wk =   0.0058594
        k(   57) = (   0.0000000   0.2500000  -0.2500000), wk =   0.0029297
        k(   58) = (   0.0000000   0.3125000   0.3125000), wk =   0.0014648
        k(   59) = (   0.0000000   0.3125000   0.3750000), wk =   0.0058594
        k(   60) = (   0.0000000   0.3125000   0.4375000), wk =   0.0058594
        k(   61) = (   0.0000000   0.3125000  -0.5000000), wk =   0.0058594
        k(   62) = (   0.0000000   0.3125000  -0.4375000), wk =   0.0058594
        k(   63) = (   0.0000000   0.3125000  -0.3750000), wk =   0.0058594
        k(   64) = (   0.0000000   0.3125000  -0.3125000), wk =   0.0029297
        k(   65) = (   0.0000000   0.3750000   0.3750000), wk =   0.0014648
        k(   66) = (   0.0000000   0.3750000   0.4375000), wk =   0.0058594
        k(   67) = (   0.0000000   0.3750000  -0.5000000), wk =   0.0058594
        k(   68) = (   0.0000000   0.3750000  -0.4375000), wk =   0.0058594
        k(   69) = (   0.0000000   0.3750000  -0.3750000), wk =   0.0029297
        k(   70) = (   0.0000000   0.4375000   0.4375000), wk =   0.0014648
        k(   71) = (   0.0000000   0.4375000  -0.5000000), wk =   0.0058594
        k(   72) = (   0.0000000   0.4375000  -0.4375000), wk =   0.0029297
        k(   73) = (   0.0000000  -0.5000000  -0.5000000), wk =   0.0007324
        k(   74) = (   0.0625000   0.1250000   0.1875000), wk =   0.0058594
        k(   75) = (   0.0625000   0.1250000   0.2500000), wk =   0.0117188
        k(   76) = (   0.0625000   0.1250000   0.3125000), wk =   0.0117188
        k(   77) = (   0.0625000   0.1250000   0.3750000), wk =   0.0117188
        k(   78) = (   0.0625000   0.1250000   0.4375000), wk =   0.0117188
        k(   79) = (   0.0625000   0.1250000  -0.5000000), wk =   0.0117188
        k(   80) = (   0.0625000   0.1250000  -0.4375000), wk =   0.0058594
        k(   81) = (   0.0625000   0.1875000   0.2500000), wk =   0.0058594
        k(   82) = (   0.0625000   0.1875000   0.3125000), wk =   0.0117188
        k(   83) = (   0.0625000   0.1875000   0.3750000), wk =   0.0117188
        k(   84) = (   0.0625000   0.1875000   0.4375000), wk =   0.0117188
        k(   85) = (   0.0625000   0.1875000  -0.5000000), wk =   0.0117188
        k(   86) = (   0.0625000   0.1875000  -0.4375000), wk =   0.0117188
        k(   87) = (   0.0625000   0.1875000  -0.3750000), wk =   0.0117188
        k(   88) = (   0.0625000   0.1875000  -0.3125000), wk =   0.0117188
        k(   89) = (   0.0625000   0.1875000  -0.2500000), wk =   0.0117188
        k(   90) = (   0.0625000   0.1875000  -0.1875000), wk =   0.0117188
        k(   91) = (   0.0625000   0.1875000  -0.1250000), wk =   0.0058594
        k(   92) = (   0.0625000   0.2500000   0.3125000), wk =   0.0058594
        k(   93) = (   0.0625000   0.2500000   0.3750000), wk =   0.0117188
        k(   94) = (   0.0625000   0.2500000   0.4375000), wk =   0.0117188
        k(   95) = (   0.0625000   0.2500000  -0.5000000), wk =   0.0117188
        k(   96) = (   0.0625000   0.2500000  -0.4375000), wk =   0.0117188
        k(   97) = (   0.0625000   0.2500000  -0.3750000), wk =   0.0117188
        k(   98) = (   0.0625000   0.2500000  -0.3125000), wk =   0.0117188
        k(   99) = (   0.0625000   0.2500000  -0.2500000), wk =   0.0117188
        k(  100) = (   0.0625000   0.2500000  -0.1875000), wk =   0.0058594
        k(  101) = (   0.0625000   0.3125000   0.3750000), wk =   0.0058594
        k(  102) = (   0.0625000   0.3125000   0.4375000), wk =   0.0117188
        k(  103) = (   0.0625000   0.3125000  -0.5000000), wk =   0.0117188
        k(  104) = (   0.0625000   0.3125000  -0.4375000), wk =   0.0117188
        k(  105) = (   0.0625000   0.3125000  -0.3750000), wk =   0.0117188
        k(  106) = (   0.0625000   0.3125000  -0.3125000), wk =   0.0117188
        k(  107) = (   0.0625000   0.3125000  -0.2500000), wk =   0.0058594
        k(  108) = (   0.0625000   0.3750000   0.4375000), wk =   0.0058594
        k(  109) = (   0.0625000   0.3750000  -0.5000000), wk =   0.0117188
        k(  110) = (   0.0625000   0.3750000  -0.4375000), wk =   0.0117188
        k(  111) = (   0.0625000   0.3750000  -0.3750000), wk =   0.0117188
        k(  112) = (   0.0625000   0.3750000  -0.3125000), wk =   0.0058594
        k(  113) = (   0.0625000   0.4375000  -0.5000000), wk =   0.0058594
        k(  114) = (   0.0625000   0.4375000  -0.4375000), wk =   0.0117188
        k(  115) = (   0.0625000   0.4375000  -0.3750000), wk =   0.0058594
        k(  116) = (   0.0625000  -0.5000000  -0.4375000), wk =   0.0029297
        k(  117) = (   0.1250000   0.2500000   0.3750000), wk =   0.0058594
        k(  118) = (   0.1250000   0.2500000   0.4375000), wk =   0.0117188
        k(  119) = (   0.1250000   0.2500000  -0.5000000), wk =   0.0117188
        k(  120) = (   0.1250000   0.2500000  -0.4375000), wk =   0.0117188
        k(  121) = (   0.1250000   0.2500000  -0.3750000), wk =   0.0058594
        k(  122) = (   0.1250000   0.3125000   0.4375000), wk =   0.0058594
        k(  123) = (   0.1250000   0.3125000  -0.5000000), wk =   0.0117188
        k(  124) = (   0.1250000   0.3125000  -0.4375000), wk =   0.0117188
        k(  125) = (   0.1250000   0.3125000  -0.3750000), wk =   0.0117188
        k(  126) = (   0.1250000   0.3125000  -0.3125000), wk =   0.0117188
        k(  127) = (   0.1250000   0.3125000  -0.2500000), wk =   0.0117188
        k(  128) = (   0.1250000   0.3125000  -0.1875000), wk =   0.0058594
        k(  129) = (   0.1250000   0.3750000  -0.5000000), wk =   0.0058594
        k(  130) = (   0.1250000   0.3750000  -0.4375000), wk =   0.0117188
        k(  131) = (   0.1250000   0.3750000  -0.3750000), wk =   0.0117188
        k(  132) = (   0.1250000   0.3750000  -0.3125000), wk =   0.0117188
        k(  133) = (   0.1250000   0.3750000  -0.2500000), wk =   0.0058594
        k(  134) = (   0.1250000   0.4375000  -0.4375000), wk =   0.0058594
        k(  135) = (   0.1250000   0.4375000  -0.3750000), wk =   0.0117188
        k(  136) = (   0.1250000   0.4375000  -0.3125000), wk =   0.0058594
        k(  137) = (   0.1250000  -0.5000000  -0.3750000), wk =   0.0029297
        k(  138) = (   0.1875000   0.3750000  -0.4375000), wk =   0.0058594
        k(  139) = (   0.1875000   0.3750000  -0.3750000), wk =   0.0117188
        k(  140) = (   0.1875000   0.3750000  -0.3125000), wk =   0.0058594
        k(  141) = (   0.1875000   0.4375000  -0.3750000), wk =   0.0058594
        k(  142) = (   0.1875000   0.4375000  -0.3125000), wk =   0.0117188
        k(  143) = (   0.1875000   0.4375000  -0.2500000), wk =   0.0058594
        k(  144) = (   0.1875000  -0.5000000  -0.3125000), wk =   0.0029297
        k(  145) = (   0.2500000  -0.5000000  -0.2500000), wk =   0.0014648

     Dense  grid:    31415 G-vectors     FFT dimensions: (  45,  45,  45)

     Largest allocated arrays     est. size (Mb)     dimensions
        Kohn-Sham Wavefunctions         0.37 Mb     (     680,   36)
        NL pseudopotentials             0.35 Mb     (     340,   68)
        Each V/rho on FFT grid          0.09 Mb     (    6075)
        Each G-vector array             0.01 Mb     (    1964)
        G-vector shells                 0.00 Mb     (     311)
     Largest temporary arrays     est. size (Mb)     dimensions
        Auxiliary wavefunctions         1.49 Mb     (     680,  144)
        Each subspace H/S matrix        0.32 Mb     (     144,  144)
        Each <psi_i|beta_j> matrix      0.07 Mb     (      68,   2,   36)
        Arrays for rho mixing           0.74 Mb     (    6075,    8)

     Check: negative/imaginary core charge=   -0.000002    0.000000

     Initial potential from superposition of free atoms

     starting charge   27.99781, renormalised to   28.00000
     Starting wfc are   36 randomized atomic wfcs
     Checking if some PAW data can be deallocated... 

     total cpu time spent up to now is        6.0 secs

     Self-consistent Calculation

     iteration #  1     ecut=    76.00 Ry     beta=0.70
     Davidson diagonalization with overlap
     ethr =  1.00E-02,  avg # of iterations =  3.5

     Threshold (ethr) on eigenvalues was too large:
     Diagonalizing with lowered threshold

     Davidson diagonalization with overlap
     ethr =  6.08E-05,  avg # of iterations =  3.4

     total cpu time spent up to now is       41.8 secs

     total energy              =    -885.87781321 Ry
     Harris-Foulkes estimate   =    -885.88039668 Ry
     estimated scf accuracy    <       0.02020589 Ry

     iteration #  2     ecut=    76.00 Ry     beta=0.70
     Davidson diagonalization with overlap
     ethr =  7.22E-05,  avg # of iterations =  1.0

     total cpu time spent up to now is       55.4 secs

     total energy              =    -885.87881978 Ry
     Harris-Foulkes estimate   =    -885.87893741 Ry
     estimated scf accuracy    <       0.00182963 Ry

     iteration #  3     ecut=    76.00 Ry     beta=0.70
     Davidson diagonalization with overlap
     ethr =  6.53E-06,  avg # of iterations =  2.2

     total cpu time spent up to now is       73.8 secs

     total energy              =    -885.87912982 Ry
     Harris-Foulkes estimate   =    -885.87918579 Ry
     estimated scf accuracy    <       0.00010371 Ry

     iteration #  4     ecut=    76.00 Ry     beta=0.70
     Davidson diagonalization with overlap
     ethr =  3.70E-07,  avg # of iterations =  2.1

     total cpu time spent up to now is       91.9 secs

     total energy              =    -885.87916424 Ry
     Harris-Foulkes estimate   =    -885.87916546 Ry
     estimated scf accuracy    <       0.00000853 Ry

     iteration #  5     ecut=    76.00 Ry     beta=0.70
     Davidson diagonalization with overlap
     ethr =  3.04E-08,  avg # of iterations =  2.0

     total cpu time spent up to now is      108.0 secs

     total energy              =    -885.87916647 Ry
     Harris-Foulkes estimate   =    -885.87916634 Ry
     estimated scf accuracy    <       0.00000115 Ry

     iteration #  6     ecut=    76.00 Ry     beta=0.70
     Davidson diagonalization with overlap
     ethr =  4.10E-09,  avg # of iterations =  2.0

     total cpu time spent up to now is      124.7 secs

     End of self-consistent calculation

          k = 0.0000 0.0000 0.0000 (  5209 PWs)   bands (ev):

   -14.5707 -14.5707 -14.5707 -14.5707 -14.4799 -14.4799 -14.4799 -14.4799
   -13.6582 -13.6582 -13.4620 -13.4620 -13.4620 -13.4620 -13.4149 -13.4149
   -13.4149 -13.4149 -13.3024 -13.3024  -2.8580  -2.8580   6.7435   6.7435
     7.1909   7.1909   7.8590   7.8590   7.8590   7.8590   9.3982   9.3982
     9.8705   9.8705   9.8705   9.8705

     occupation numbers 
     1.0000   1.0000   1.0000   1.0000   1.0000   1.0000   1.0000   1.0000
     1.0000   1.0000   1.0000   1.0000   1.0000   1.0000   1.0000   1.0000
     1.0000   1.0000   1.0000   1.0000   1.0000   1.0000   1.0000   1.0000
     1.0000   1.0000   0.0000   0.0000   0.0000   0.0000   0.0000   0.0000
     0.0000   0.0000   0.0000   0.0000

          k = 0.0442 0.0442-0.0442 (  5248 PWs)   bands (ev):

   -14.5712 -14.5712 -14.5699 -14.5699 -14.4808 -14.4808 -14.4793 -14.4793
   -13.6561 -13.6561 -13.4674 -13.4674 -13.4652 -13.4652 -13.4115 -13.4115
   -13.4104 -13.4104 -13.3034 -13.3034  -2.8212  -2.8212   6.1972   6.1972
     7.2658   7.2658   7.7769   7.7769   7.9926   7.9926   9.5715   9.5715
     9.9672   9.9672   9.9753   9.9753

     occupation numbers 
     1.0000   1.0000   1.0000   1.0000   1.0000   1.0000   1.0000   1.0000
     1.0000   1.0000   1.0000   1.0000   1.0000   1.0000   1.0000   1.0000
     1.0000   1.0000   1.0000   1.0000   1.0000   1.0000   1.0000   1.0000
     1.0000   1.0000   0.0000   0.0000   0.0000   0.0000   0.0000   0.0000
     0.0000   0.0000   0.0000   0.0000

          k = 0.0884 0.0884-0.0884 (  5276 PWs)   bands (ev):

   -14.5725 -14.5724 -14.5673 -14.5673 -14.4834 -14.4834 -14.4775 -14.4775
   -13.6500 -13.6500 -13.4799 -13.4799 -13.4727 -13.4726 -13.4034 -13.4034
   -13.4006 -13.4006 -13.3065 -13.3065  -2.7116  -2.7116   5.3270   5.3270
     7.1258   7.1258   7.5796   7.5796   8.0833   8.0833   9.9122   9.9122
    10.2289  10.2289  10.3882  10.3882

     occupation numbers 
     1.0000   1.0000   1.0000   1.0000   1.0000   1.0000   1.0000   1.0000
     1.0000   1.0000   1.0000   1.0000   1.0000   1.0000   1.0000   1.0000
     1.0000   1.0000   1.0000   1.0000   1.0000   1.0000   1.0000   1.0000
     1.0000   1.0000   1.0000   1.0000   0.0000   0.0000   0.0000   0.0000
     0.0000   0.0000   0.0000   0.0000

          k = 0.1326 0.1326-0.1326 (  5291 PWs)   bands (ev):

   -14.5742 -14.5742 -14.5631 -14.5631 -14.4875 -14.4875 -14.4751 -14.4750
   -13.6404 -13.6404 -13.4948 -13.4948 -13.4813 -13.4813 -13.3938 -13.3938
   -13.3898 -13.3898 -13.3113 -13.3113  -2.5321  -2.5321   4.4197   4.4197
     6.9073   6.9073   7.3451   7.3451   8.0013   8.0013  10.2070  10.2070
    10.5169  10.5169  11.1282  11.1282

     occupation numbers 
     1.0000   1.0000   1.0000   1.0000   1.0000   1.0000   1.0000   1.0000
     1.0000   1.0000   1.0000   1.0000   1.0000   1.0000   1.0000   1.0000
     1.0000   1.0000   1.0000   1.0000   1.0000   1.0000   1.0000   1.0000
     1.0000   1.0000   1.0000   1.0000   0.0000   0.0000   0.0000   0.0000
     0.0000   0.0000   0.0000   0.0000

          k = 0.1768 0.1768-0.1768 (  5297 PWs)   bands (ev):

   -14.5761 -14.5760 -14.5577 -14.5577 -14.4928 -14.4928 -14.4723 -14.4723
   -13.6282 -13.6282 -13.5103 -13.5103 -13.4895 -13.4895 -13.3844 -13.3844
   -13.3796 -13.3796 -13.3175 -13.3175  -2.2890  -2.2890   3.5441   3.5441
     6.6909   6.6909   7.1221   7.1221   7.8545   7.8545  10.4448  10.4448
    10.7429  10.7429  11.9868  11.9869

     occupation numbers 
     1.0000   1.0000   1.0000   1.0000   1.0000   1.0000   1.0000   1.0000
     1.0000   1.0000   1.0000   1.0000   1.0000   1.0000   1.0000   1.0000
     1.0000   1.0000   1.0000   1.0000   1.0000   1.0000   1.0000   1.0000
     1.0000   1.0000   1.0000   1.0000   0.0000   0.0000   0.0000   0.0000
     0.0000   0.0000   0.0000   0.0000

          k = 0.2210 0.2210-0.2210 (  5303 PWs)   bands (ev):

   -14.5778 -14.5777 -14.5513 -14.5513 -14.4990 -14.4990 -14.4697 -14.4697
   -13.6144 -13.6144 -13.5254 -13.5254 -13.4964 -13.4964 -13.3763 -13.3763
   -13.3703 -13.3703 -13.3246 -13.3246  -1.9955  -1.9955   2.7409   2.7409
     6.5070   6.5070   6.9350   6.9350   7.7098   7.7098  10.5917  10.5917
    10.8619  10.8619  12.8748  12.8749

     occupation numbers 
     1.0000   1.0000   1.0000   1.0000   1.0000   1.0000   1.0000   1.0000
     1.0000   1.0000   1.0000   1.0000   1.0000   1.0000   1.0000   1.0000
     1.0000   1.0000   1.0000   1.0000   1.0000   1.0000   1.0000   1.0000
     1.0000   1.0000   1.0000   1.0000   0.0000   0.0000   0.0000   0.0000
     0.0000   0.0000   0.0000   0.0000

          k = 0.2652 0.2652-0.2652 (  5309 PWs)   bands (ev):

   -14.5791 -14.5791 -14.5445 -14.5445 -14.5057 -14.5057 -14.4677 -14.4677
   -13.6001 -13.6001 -13.5399 -13.5399 -13.5016 -13.5016 -13.3701 -13.3701
   -13.3621 -13.3621 -13.3320 -13.3320  -1.6805  -1.6805   2.0539   2.0539
     6.3694   6.3694   6.7956   6.7956   7.5959   7.5959  10.6539  10.6539
    10.8943  10.8943  13.3615  13.3615

     occupation numbers 
     1.0000   1.0000   1.0000   1.0000   1.0000   1.0000   1.0000   1.0000
     1.0000   1.0000   1.0000   1.0000   1.0000   1.0000   1.0000   1.0000
     1.0000   1.0000   1.0000   1.0000   1.0000   1.0000   1.0000   1.0000
     1.0000   1.0000   1.0000   1.0000   1.0000   1.0000   0.0000   0.0000
     0.0000   0.0000   0.0000   0.0000

          k = 0.3094 0.3094-0.3094 (  5294 PWs)   bands (ev):

   -14.5799 -14.5799 -14.5382 -14.5382 -14.5118 -14.5118 -14.4664 -14.4663
   -13.5865 -13.5865 -13.5533 -13.5533 -13.5048 -13.5047 -13.3662 -13.3662
   -13.3547 -13.3547 -13.3393 -13.3393  -1.4078  -1.4078   1.5551   1.5551
     6.2846   6.2846   6.7102   6.7102   7.5246   7.5246  10.6690  10.6690
    10.8892  10.8892  13.3098  13.3098

     occupation numbers 
     1.0000   1.0000   1.0000   1.0000   1.0000   1.0000   1.0000   1.0000
     1.0000   1.0000   1.0000   1.0000   1.0000   1.0000   1.0000   1.0000
     1.0000   1.0000   1.0000   1.0000   1.0000   1.0000   1.0000   1.0000
     1.0000   1.0000   1.0000   1.0000   1.0000   1.0000   0.0000   0.0000
     0.0000   0.0000   0.0000   0.0000

          k =-0.3536-0.3536 0.3536 (  5342 PWs)   bands (ev):

   -14.5802 -14.5802 -14.5352 -14.5352 -14.5148 -14.5148 -14.4659 -14.4659
   -13.5782 -13.5782 -13.5614 -13.5614 -13.5058 -13.5058 -13.3649 -13.3649
   -13.3496 -13.3496 -13.3446 -13.3446  -1.2914  -1.2914   1.3628   1.3628
     6.2561   6.2561   6.6814   6.6814   7.5004   7.5004  10.6701  10.6701
    10.8834  10.8834  13.2766  13.2766

     occupation numbers 
     1.0000   1.0000   1.0000   1.0000   1.0000   1.0000   1.0000   1.0000
     1.0000   1.0000   1.0000   1.0000   1.0000   1.0000   1.0000   1.0000
     1.0000   1.0000   1.0000   1.0000   1.0000   1.0000   1.0000   1.0000
     1.0000   1.0000   1.0000   1.0000   1.0000   1.0000   0.0000   0.0000
     0.0000   0.0000   0.0000   0.0000

          k = 0.0884 0.0000 0.0000 (  5249 PWs)   bands (ev):

   -14.5709 -14.5709 -14.5700 -14.5700 -14.4808 -14.4808 -14.4793 -14.4793
   -13.6554 -13.6554 -13.4703 -13.4703 -13.4648 -13.4648 -13.4111 -13.4111
   -13.4087 -13.4087 -13.3037 -13.3037  -2.8089  -2.8089   6.1140   6.1140
     7.1798   7.1798   7.5789   7.5789   8.2866   8.2866   9.4726   9.4726
     9.9853   9.9853  10.1218  10.1218

     occupation numbers 
     1.0000   1.0000   1.0000   1.0000   1.0000   1.0000   1.0000   1.0000
     1.0000   1.0000   1.0000   1.0000   1.0000   1.0000   1.0000   1.0000
     1.0000   1.0000   1.0000   1.0000   1.0000   1.0000   1.0000   1.0000
     1.0000   1.0000   1.0000   1.0000   0.0000   0.0000   0.0000   0.0000
     0.0000   0.0000   0.0000   0.0000

          k = 0.1326 0.0442-0.0442 (  5277 PWs)   bands (ev):

   -14.5718 -14.5718 -14.5681 -14.5681 -14.4827 -14.4827 -14.4780 -14.4780
   -13.6506 -13.6506 -13.4804 -13.4804 -13.4699 -13.4699 -13.4055 -13.4055
   -13.4008 -13.4008 -13.3060 -13.3060  -2.7233  -2.7233   5.4714   5.4714
     7.0161   7.0161   7.3600   7.3600   8.5216   8.5216   9.5419   9.5419
    10.3011  10.3011  10.4577  10.4577

     occupation numbers 
     1.0000   1.0000   1.0000   1.0000   1.0000   1.0000   1.0000   1.0000
     1.0000   1.0000   1.0000   1.0000   1.0000   1.0000   1.0000   1.0000
     1.0000   1.0000   1.0000   1.0000   1.0000   1.0000   1.0000   1.0000
     1.0000   1.0000   1.0000   1.0000   0.0000   0.0000   0.0000   0.0000
     0.0000   0.0000   0.0000   0.0000

          k = 0.1768 0.0884-0.0884 (  5282 PWs)   bands (ev):

   -14.5735 -14.5735 -14.5645 -14.5645 -14.4863 -14.4863 -14.4757 -14.4757
   -13.6421 -13.6421 -13.4937 -13.4937 -13.4777 -13.4777 -13.3983 -13.3982
   -13.3898 -13.3898 -13.3100 -13.3100  -2.5667  -2.5667   4.6401   4.6401
     6.7908   6.7908   7.1337   7.1337   8.5046   8.5046   9.8008   9.8008
    10.6463  10.6463  11.0350  11.0350

     occupation numbers 
     1.0000   1.0000   1.0000   1.0000   1.0000   1.0000   1.0000   1.0000
     1.0000   1.0000   1.0000   1.0000   1.0000   1.0000   1.0000   1.0000
     1.0000   1.0000   1.0000   1.0000   1.0000   1.0000   1.0000   1.0000
     1.0000   1.0000   1.0000   1.0000   0.0000   0.0000   0.0000   0.0000
     0.0000   0.0000   0.0000   0.0000

          k = 0.2210 0.1326-0.1326 (  5300 PWs)   bands (ev):

   -14.5754 -14.5753 -14.5594 -14.5594 -14.4913 -14.4913 -14.4730 -14.4729
   -13.6308 -13.6308 -13.5081 -13.5081 -13.4858 -13.4858 -13.3911 -13.3911
   -13.3786 -13.3785 -13.3153 -13.3153  -2.3438  -2.3438   3.7851   3.7851
     6.5612   6.5612   6.9040   6.9040   8.3711   8.3711  10.1176  10.1176
    10.9053  10.9053  11.7126  11.7126

     occupation numbers 
     1.0000   1.0000   1.0000   1.0000   1.0000   1.0000   1.0000   1.0000
     1.0000   1.0000   1.0000   1.0000   1.0000   1.0000   1.0000   1.0000
     1.0000   1.0000   1.0000   1.0000   1.0000   1.0000   1.0000   1.0000
     1.0000   1.0000   1.0000   1.0000   0.0000   0.0000   0.0000   0.0000
     0.0000   0.0000   0.0000   0.0000

          k = 0.2652 0.1768-0.1768 (  5302 PWs)   bands (ev):

   -14.5772 -14.5771 -14.5533 -14.5533 -14.4973 -14.4973 -14.4702 -14.4702
   -13.6177 -13.6177 -13.5225 -13.5225 -13.4932 -13.4931 -13.3848 -13.3848
   -13.3683 -13.3683 -13.3214 -13.3214  -2.0650  -2.0650   2.9735   2.9735
     6.3573   6.3574   6.7056   6.7056   8.2165   8.2165  10.3725  10.3725
    11.0386  11.0386  12.3977  12.3977

     occupation numbers 
     1.0000   1.0000   1.0000   1.0000   1.0000   1.0000   1.0000   1.0000
     1.0000   1.0000   1.0000   1.0000   1.0000   1.0000   1.0000   1.0000
     1.0000   1.0000   1.0000   1.0000   1.0000   1.0000   1.0000   1.0000
     1.0000   1.0000   1.0000   1.0000   0.0000   0.0000   0.0000   0.0000
     0.0000   0.0000   0.0000   0.0000

          k = 0.3094 0.2210-0.2210 (  5315 PWs)   bands (ev):

   -14.5786 -14.5786 -14.5467 -14.5466 -14.5039 -14.5039 -14.4679 -14.4679
   -13.6038 -13.6038 -13.5362 -13.5362 -13.4991 -13.4991 -13.3798 -13.3798
   -13.3599 -13.3599 -13.3274 -13.3274  -1.7522  -1.7522   2.2531   2.2531
     6.1906   6.1906   6.5612   6.5612   8.0820   8.0820  10.5224  10.5224
    11.0572  11.0572  13.0350  13.0350

     occupation numbers 
     1.0000   1.0000   1.0000   1.0000   1.0000   1.0000   1.0000   1.0000
     1.0000   1.0000   1.0000   1.0000   1.0000   1.0000   1.0000   1.0000
     1.0000   1.0000   1.0000   1.0000   1.0000   1.0000   1.0000   1.0000
     1.0000   1.0000   1.0000   1.0000   0.0000   0.0000   0.0000   0.0000
     0.0000   0.0000   0.0000   0.0000

          k = 0.3536 0.2652-0.2652 (  5301 PWs)   bands (ev):

   -14.5796 -14.5796 -14.5401 -14.5401 -14.5103 -14.5103 -14.4662 -14.4662
   -13.5903 -13.5903 -13.5489 -13.5489 -13.5031 -13.5031 -13.3764 -13.3764
   -13.3536 -13.3536 -13.3325 -13.3325  -1.4544  -1.4544   1.6864   1.6864
     6.0672   6.0672   6.4811   6.4811   7.9853   7.9853  10.6001  10.6001
    11.0132  11.0132  13.3710  13.3710

     occupation numbers 
     1.0000   1.0000   1.0000   1.0000   1.0000   1.0000   1.0000   1.0000
     1.0000   1.0000   1.0000   1.0000   1.0000   1.0000   1.0000   1.0000
     1.0000   1.0000   1.0000   1.0000   1.0000   1.0000   1.0000   1.0000
     1.0000   1.0000   1.0000   1.0000   0.0000   0.0000   0.0000   0.0000
     0.0000   0.0000   0.0000   0.0000

          k =-0.3094-0.3977 0.3977 (  5304 PWs)   bands (ev):

   -14.5801 -14.5801 -14.5356 -14.5355 -14.5148 -14.5148 -14.4654 -14.4654
   -13.5800 -13.5800 -13.5587 -13.5587 -13.5050 -13.5050 -13.3749 -13.3749
   -13.3500 -13.3500 -13.3357 -13.3357  -1.2712  -1.2712   1.3798   1.3798
     5.9929   5.9929   6.4675   6.4675   7.9338   7.9338  10.6510  10.6510
    10.9550  10.9550  13.4257  13.4257

     occupation numbers 
     1.0000   1.0000   1.0000   1.0000   1.0000   1.0000   1.0000   1.0000
     1.0000   1.0000   1.0000   1.0000   1.0000   1.0000   1.0000   1.0000
     1.0000   1.0000   1.0000   1.0000   1.0000   1.0000   1.0000   1.0000
     1.0000   1.0000   1.0000   1.0000   0.0000   0.0000   0.0000   0.0000
     0.0000   0.0000   0.0000   0.0000

          k =-0.2652-0.3536 0.3536 (  5306 PWs)   bands (ev):

   -14.5801 -14.5801 -14.5366 -14.5365 -14.5139 -14.5138 -14.4656 -14.4656
   -13.5827 -13.5827 -13.5561 -13.5561 -13.5046 -13.5046 -13.3756 -13.3756
   -13.3504 -13.3504 -13.3351 -13.3351  -1.3117  -1.3117   1.4453   1.4453
     5.9726   5.9726   6.5184   6.5184   7.9303   7.9303  10.6915  10.6915
    10.9131  10.9131  13.4426  13.4426

     occupation numbers 
     1.0000   1.0000   1.0000   1.0000   1.0000   1.0000   1.0000   1.0000
     1.0000   1.0000   1.0000   1.0000   1.0000   1.0000   1.0000   1.0000
     1.0000   1.0000   1.0000   1.0000   1.0000   1.0000   1.0000   1.0000
     1.0000   1.0000   1.0000   1.0000   0.0000   0.0000   0.0000   0.0000
     0.0000   0.0000   0.0000   0.0000

          k =-0.2210-0.3094 0.3094 (  5305 PWs)   bands (ev):

   -14.5794 -14.5794 -14.5421 -14.5420 -14.5085 -14.5084 -14.4666 -14.4666
   -13.5947 -13.5947 -13.5448 -13.5448 -13.5019 -13.5019 -13.3781 -13.3781
   -13.3545 -13.3545 -13.3312 -13.3312  -1.5476  -1.5476   1.8539   1.8539
     6.0103   6.0103   6.6290   6.6290   7.9741   7.9741  10.6952  10.6952
    10.9068  10.9068  13.3959  13.3959

     occupation numbers 
     1.0000   1.0000   1.0000   1.0000   1.0000   1.0000   1.0000   1.0000
     1.0000   1.0000   1.0000   1.0000   1.0000   1.0000   1.0000   1.0000
     1.0000   1.0000   1.0000   1.0000   1.0000   1.0000   1.0000   1.0000
     1.0000   1.0000   1.0000   1.0000   0.0000   0.0000   0.0000   0.0000
     0.0000   0.0000   0.0000   0.0000

          k =-0.1768-0.2652 0.2652 (  5317 PWs)   bands (ev):

   -14.5783 -14.5783 -14.5488 -14.5487 -14.5019 -14.5019 -14.4685 -14.4684
   -13.6085 -13.6085 -13.5317 -13.5317 -13.4971 -13.4971 -13.3824 -13.3824
   -13.3614 -13.3614 -13.3256 -13.3256  -1.8586  -1.8586   2.4810   2.4810
     6.1085   6.1085   6.7924   6.7924   8.0612   8.0612  10.6262  10.6262
    10.9109  10.9110  12.9332  12.9332

     occupation numbers 
     1.0000   1.0000   1.0000   1.0000   1.0000   1.0000   1.0000   1.0000
     1.0000   1.0000   1.0000   1.0000   1.0000   1.0000   1.0000   1.0000
     1.0000   1.0000   1.0000   1.0000   1.0000   1.0000   1.0000   1.0000
     1.0000   1.0000   1.0000   1.0000   0.0000   0.0000   0.0000   0.0000
     0.0000   0.0000   0.0000   0.0000

          k =-0.1326-0.2210 0.2210 (  5300 PWs)   bands (ev):

   -14.5767 -14.5767 -14.5553 -14.5553 -14.4955 -14.4955 -14.4709 -14.4709
   -13.6223 -13.6223 -13.5178 -13.5178 -13.4906 -13.4906 -13.3881 -13.3880
   -13.3703 -13.3703 -13.3195 -13.3195  -2.1637  -2.1637   3.2363   3.2363
     6.2681   6.2681   6.9978   6.9978   8.1801   8.1801  10.4701  10.4701
    10.8329  10.8329  12.2042  12.2042

     occupation numbers 
     1.0000   1.0000   1.0000   1.0000   1.0000   1.0000   1.0000   1.0000
     1.0000   1.0000   1.0000   1.0000   1.0000   1.0000   1.0000   1.0000
     1.0000   1.0000   1.0000   1.0000   1.0000   1.0000   1.0000   1.0000
     1.0000   1.0000   1.0000   1.0000   0.0000   0.0000   0.0000   0.0000
     0.0000   0.0000   0.0000   0.0000

          k =-0.0884-0.1768 0.1768 (  5292 PWs)   bands (ev):

   -14.5749 -14.5749 -14.5610 -14.5610 -14.4898 -14.4898 -14.4737 -14.4737
   -13.6349 -13.6349 -13.5033 -13.5033 -13.4830 -13.4830 -13.3947 -13.3947
   -13.3810 -13.3810 -13.3136 -13.3136  -2.4254  -2.4254   4.0642   4.0642
     6.4884   6.4884   7.2271   7.2271   8.3039   8.3039  10.2318  10.2318
    10.5859  10.5859  11.5218  11.5218

     occupation numbers 
     1.0000   1.0000   1.0000   1.0000   1.0000   1.0000   1.0000   1.0000
     1.0000   1.0000   1.0000   1.0000   1.0000   1.0000   1.0000   1.0000
     1.0000   1.0000   1.0000   1.0000   1.0000   1.0000   1.0000   1.0000
     1.0000   1.0000   1.0000   1.0000   0.0000   0.0000   0.0000   0.0000
     0.0000   0.0000   0.0000   0.0000

          k =-0.0442-0.1326 0.1326 (  5279 PWs)   bands (ev):

   -14.5731 -14.5731 -14.5656 -14.5656 -14.4852 -14.4852 -14.4763 -14.4763
   -13.6454 -13.6454 -13.4889 -13.4888 -13.4751 -13.4751 -13.4018 -13.4018
   -13.3925 -13.3925 -13.3086 -13.3086  -2.6269  -2.6269   4.9114   4.9114
     6.7656   6.7656   7.4484   7.4484   8.3668   8.3668   9.9574   9.9574
    10.2245  10.2245  10.9107  10.9107

     occupation numbers 
     1.0000   1.0000   1.0000   1.0000   1.0000   1.0000   1.0000   1.0000
     1.0000   1.0000   1.0000   1.0000   1.0000   1.0000   1.0000   1.0000
     1.0000   1.0000   1.0000   1.0000   1.0000   1.0000   1.0000   1.0000
     1.0000   1.0000   1.0000   1.0000   0.0000   0.0000   0.0000   0.0000
     0.0000   0.0000   0.0000   0.0000

          k = 0.0000-0.0884 0.0884 (  5261 PWs)   bands (ev):

   -14.5718 -14.5718 -14.5686 -14.5686 -14.4821 -14.4821 -14.4783 -14.4783
   -13.6527 -13.6527 -13.4758 -13.4758 -13.4685 -13.4685 -13.4080 -13.4080
   -13.4034 -13.4034 -13.3051 -13.3051  -2.7600  -2.7600   5.6875   5.6875
     7.0789   7.0789   7.6208   7.6208   8.2499   8.2499   9.7096   9.7096
     9.9861   9.9861  10.3567  10.3567

     occupation numbers 
     1.0000   1.0000   1.0000   1.0000   1.0000   1.0000   1.0000   1.0000
     1.0000   1.0000   1.0000   1.0000   1.0000   1.0000   1.0000   1.0000
     1.0000   1.0000   1.0000   1.0000   1.0000   1.0000   1.0000   1.0000
     1.0000   1.0000   0.0834   0.0833   0.0000   0.0000   0.0000   0.0000
     0.0000   0.0000   0.0000   0.0000

          k = 0.1768 0.0000 0.0000 (  5265 PWs)   bands (ev):

   -14.5713 -14.5713 -14.5680 -14.5680 -14.4832 -14.4832 -14.4779 -14.4779
   -13.6472 -13.6472 -13.4875 -13.4875 -13.4713 -13.4713 -13.4012 -13.4012
   -13.3980 -13.3980 -13.3073 -13.3073  -2.6618  -2.6618   5.2151   5.2151
     6.8037   6.8037   7.0528   7.0528   9.0356   9.0356   9.2102   9.2102
    10.6237  10.6237  10.7193  10.7193

     occupation numbers 
     1.0000   1.0000   1.0000   1.0000   1.0000   1.0000   1.0000   1.0000
     1.0000   1.0000   1.0000   1.0000   1.0000   1.0000   1.0000   1.0000
     1.0000   1.0000   1.0000   1.0000   1.0000   1.0000   1.0000   1.0000
     1.0000   1.0000   1.0000   1.0000   0.0000   0.0000   0.0000   0.0000
     0.0000   0.0000   0.0000   0.0000

          k = 0.2210 0.0442-0.0442 (  5286 PWs)   bands (ev):

   -14.5724 -14.5724 -14.5654 -14.5654 -14.4859 -14.4859 -14.4762 -14.4762
   -13.6400 -13.6400 -13.4984 -13.4983 -13.4765 -13.4764 -13.3970 -13.3970
   -13.3894 -13.3894 -13.3101 -13.3101  -2.5284  -2.5284   4.6229   4.6229
     6.5652   6.5652   6.8003   6.8003   9.1034   9.1034   9.3169   9.3169
    11.0134  11.0134  11.1480  11.1480

     occupation numbers 
     1.0000   1.0000   1.0000   1.0000   1.0000   1.0000   1.0000   1.0000
     1.0000   1.0000   1.0000   1.0000   1.0000   1.0000   1.0000   1.0000
     1.0000   1.0000   1.0000   1.0000   1.0000   1.0000   1.0000   1.0000
     1.0000   1.0000   1.0000   1.0000   0.0000   0.0000   0.0000   0.0000
     0.0000   0.0000   0.0000   0.0000

          k = 0.2652 0.0884-0.0884 (  5293 PWs)   bands (ev):

   -14.5742 -14.5742 -14.5609 -14.5609 -14.4903 -14.4903 -14.4736 -14.4736
   -13.6299 -13.6299 -13.5108 -13.5108 -13.4829 -13.4829 -13.3943 -13.3943
   -13.3779 -13.3779 -13.3138 -13.3138  -2.3269  -2.3269   3.8869   3.8869
     6.3013   6.3013   6.5681   6.5681   9.0325   9.0325   9.5976   9.5976
    11.3166  11.3166  11.5748  11.5748

     occupation numbers 
     1.0000   1.0000   1.0000   1.0000   1.0000   1.0000   1.0000   1.0000
     1.0000   1.0000   1.0000   1.0000   1.0000   1.0000   1.0000   1.0000
     1.0000   1.0000   1.0000   1.0000   1.0000   1.0000   1.0000   1.0000
     1.0000   1.0000   1.0000   1.0000   0.0000   0.0000   0.0000   0.0000
     0.0000   0.0000   0.0000   0.0000

          k = 0.3094 0.1326-0.1326 (  5302 PWs)   bands (ev):

   -14.5761 -14.5761 -14.5553 -14.5553 -14.4959 -14.4959 -14.4707 -14.4706
   -13.6177 -13.6177 -13.5233 -13.5233 -13.4894 -13.4894 -13.3923 -13.3923
   -13.3672 -13.3671 -13.3179 -13.3179  -2.0650  -2.0650   3.1275   3.1275
     6.0368   6.0368   6.3803   6.3803   8.8934   8.8934   9.9705   9.9705
    11.4832  11.4832  11.8660  11.8660

     occupation numbers 
     1.0000   1.0000   1.0000   1.0000   1.0000   1.0000   1.0000   1.0000
     1.0000   1.0000   1.0000   1.0000   1.0000   1.0000   1.0000   1.0000
     1.0000   1.0000   1.0000   1.0000   1.0000   1.0000   1.0000   1.0000
     1.0000   1.0000   1.0000   1.0000   0.0000   0.0000   0.0000   0.0000
     0.0000   0.0000   0.0000   0.0000

          k = 0.3536 0.1768-0.1768 (  5310 PWs)   bands (ev):

   -14.5778 -14.5778 -14.5490 -14.5490 -14.5022 -14.5022 -14.4680 -14.4679
   -13.6048 -13.6048 -13.5350 -13.5350 -13.4953 -13.4953 -13.3912 -13.3912
   -13.3587 -13.3586 -13.3212 -13.3212  -1.7593  -1.7593   2.4148   2.4148
     5.7952   5.7952   6.2591   6.2591   8.7484   8.7484  10.2829  10.2829
    11.5074  11.5074  12.2209  12.2209

     occupation numbers 
     1.0000   1.0000   1.0000   1.0000   1.0000   1.0000   1.0000   1.0000
     1.0000   1.0000   1.0000   1.0000   1.0000   1.0000   1.0000   1.0000
     1.0000   1.0000   1.0000   1.0000   1.0000   1.0000   1.0000   1.0000
     1.0000   1.0000   1.0000   1.0000   0.0000   0.0000   0.0000   0.0000
     0.0000   0.0000   0.0000   0.0000

          k = 0.3977 0.2210-0.2210 (  5322 PWs)   bands (ev):

   -14.5791 -14.5791 -14.5426 -14.5425 -14.5087 -14.5086 -14.4658 -14.4658
   -13.5924 -13.5924 -13.5453 -13.5453 -13.5000 -13.5000 -13.3909 -13.3909
   -13.3532 -13.3531 -13.3230 -13.3230  -1.4471  -1.4471   1.8127   1.8127
     5.5964   5.5964   6.2082   6.2082   8.6307   8.6307  10.4660  10.4660
    11.4379  11.4379  12.7570  12.7570

     occupation numbers 
     1.0000   1.0000   1.0000   1.0000   1.0000   1.0000   1.0000   1.0000
     1.0000   1.0000   1.0000   1.0000   1.0000   1.0000   1.0000   1.0000
     1.0000   1.0000   1.0000   1.0000   1.0000   1.0000   1.0000   1.0000
     1.0000   1.0000   1.0000   1.0000   0.0000   0.0000   0.0000   0.0000
     0.0000   0.0000   0.0000   0.0000

          k =-0.2652-0.4419 0.4419 (  5312 PWs)   bands (ev):

   -14.5799 -14.5799 -14.5372 -14.5371 -14.5141 -14.5140 -14.4645 -14.4645
   -13.5829 -13.5829 -13.5532 -13.5532 -13.5027 -13.5027 -13.3913 -13.3913
   -13.3504 -13.3503 -13.3236 -13.3236  -1.2097  -1.2097   1.4167   1.4167
     5.4531   5.4531   6.2258   6.2258   8.5544   8.5544  10.5741  10.5741
    11.3280  11.3280  13.3372  13.3372

     occupation numbers 
     1.0000   1.0000   1.0000   1.0000   1.0000   1.0000   1.0000   1.0000
     1.0000   1.0000   1.0000   1.0000   1.0000   1.0000   1.0000   1.0000
     1.0000   1.0000   1.0000   1.0000   1.0000   1.0000   1.0000   1.0000
     1.0000   1.0000   1.0000   1.0000   0.0000   0.0000   0.0000   0.0000
     0.0000   0.0000   0.0000   0.0000

          k =-0.2210-0.3977 0.3977 (  5311 PWs)   bands (ev):

   -14.5801 -14.5801 -14.5358 -14.5356 -14.5157 -14.5156 -14.4641 -14.4641
   -13.5814 -13.5813 -13.5546 -13.5546 -13.5028 -13.5028 -13.3921 -13.3921
   -13.3493 -13.3493 -13.3238 -13.3238  -1.1708  -1.1708   1.3565   1.3565
     5.3735   5.3735   6.3083   6.3083   8.5242   8.5242  10.6690  10.6690
    11.2085  11.2085  13.6454  13.6454

     occupation numbers 
     1.0000   1.0000   1.0000   1.0000   1.0000   1.0000   1.0000   1.0000
     1.0000   1.0000   1.0000   1.0000   1.0000   1.0000   1.0000   1.0000
     1.0000   1.0000   1.0000   1.0000   1.0000   1.0000   1.0000   1.0000
     1.0000   1.0000   1.0000   1.0000   0.0000   0.0000   0.0000   0.0000
     0.0000   0.0000   0.0000   0.0000

          k =-0.1768-0.3536 0.3536 (  5302 PWs)   bands (ev):

   -14.5798 -14.5797 -14.5395 -14.5395 -14.5119 -14.5118 -14.4647 -14.4647
   -13.5892 -13.5892 -13.5482 -13.5482 -13.5003 -13.5003 -13.3931 -13.3931
   -13.3499 -13.3499 -13.3238 -13.3238  -1.3583  -1.3583   1.6599   1.6599
     5.3646   5.3646   6.4501   6.4501   8.5391   8.5391  10.7680  10.7680
    11.0869  11.0869  13.4359  13.4359

     occupation numbers 
     1.0000   1.0000   1.0000   1.0000   1.0000   1.0000   1.0000   1.0000
     1.0000   1.0000   1.0000   1.0000   1.0000   1.0000   1.0000   1.0000
     1.0000   1.0000   1.0000   1.0000   1.0000   1.0000   1.0000   1.0000
     1.0000   1.0000   1.0000   1.0000   0.0000   0.0000   0.0000   0.0000
     0.0000   0.0000   0.0000   0.0000

          k =-0.1326-0.3094 0.3094 (  5317 PWs)   bands (ev):

   -14.5789 -14.5789 -14.5456 -14.5455 -14.5059 -14.5059 -14.4663 -14.4663
   -13.6010 -13.6010 -13.5386 -13.5386 -13.4958 -13.4958 -13.3944 -13.3944
   -13.3532 -13.3532 -13.3228 -13.3228  -1.6583  -1.6583   2.2072   2.2072
     5.4337   5.4337   6.6421   6.6421   8.5918   8.5918  10.8131  10.8131
    10.9803  10.9803  12.7895  12.7895

     occupation numbers 
     1.0000   1.0000   1.0000   1.0000   1.0000   1.0000   1.0000   1.0000
     1.0000   1.0000   1.0000   1.0000   1.0000   1.0000   1.0000   1.0000
     1.0000   1.0000   1.0000   1.0000   1.0000   1.0000   1.0000   1.0000
     1.0000   1.0000   1.0000   1.0000   0.0000   0.0000   0.0000   0.0000
     0.0000   0.0000   0.0000   0.0000

          k =-0.0884-0.2652 0.2652 (  5307 PWs)   bands (ev):

   -14.5775 -14.5775 -14.5519 -14.5518 -14.4996 -14.4996 -14.4687 -14.4686
   -13.6139 -13.6139 -13.5273 -13.5273 -13.4902 -13.4902 -13.3960 -13.3960
   -13.3598 -13.3598 -13.3201 -13.3201  -1.9713  -1.9713   2.8839   2.8839
     5.5909   5.5909   6.8696   6.8696   8.6641   8.6641  10.6589  10.6589
    10.9155  10.9155  12.1545  12.1546

     occupation numbers 
     1.0000   1.0000   1.0000   1.0000   1.0000   1.0000   1.0000   1.0000
     1.0000   1.0000   1.0000   1.0000   1.0000   1.0000   1.0000   1.0000
     1.0000   1.0000   1.0000   1.0000   1.0000   1.0000   1.0000   1.0000
     1.0000   1.0000   1.0000   1.0000   0.0000   0.0000   0.0000   0.0000
     0.0000   0.0000   0.0000   0.0000

          k =-0.0442-0.2210 0.2210 (  5294 PWs)   bands (ev):

   -14.5759 -14.5759 -14.5576 -14.5576 -14.4937 -14.4937 -14.4714 -14.4714
   -13.6264 -13.6264 -13.5148 -13.5148 -13.4843 -13.4843 -13.3979 -13.3979
   -13.3695 -13.3695 -13.3161 -13.3161  -2.2494  -2.2494   3.6120   3.6120
     5.8534   5.8534   7.1080   7.1080   8.7120   8.7120  10.4007  10.4007
    10.6625  10.6625  11.7594  11.7594

     occupation numbers 
     1.0000   1.0000   1.0000   1.0000   1.0000   1.0000   1.0000   1.0000
     1.0000   1.0000   1.0000   1.0000   1.0000   1.0000   1.0000   1.0000
     1.0000   1.0000   1.0000   1.0000   1.0000   1.0000   1.0000   1.0000
     1.0000   1.0000   1.0000   1.0000   0.0000   0.0000   0.0000   0.0000
     0.0000   0.0000   0.0000   0.0000

          k = 0.0000-0.1768 0.1768 (  5284 PWs)   bands (ev):

   -14.5743 -14.5743 -14.5623 -14.5623 -14.4887 -14.4887 -14.4742 -14.4741
   -13.6372 -13.6372 -13.5016 -13.5016 -13.4790 -13.4790 -13.4000 -13.4000
   -13.3810 -13.3809 -13.3120 -13.3120  -2.4712  -2.4712   4.3158   4.3158
     6.2464   6.2464   7.3162   7.3162   8.6414   8.6414  10.1351  10.1351
    10.3409  10.3409  11.4275  11.4275

     occupation numbers 
     1.0000   1.0000   1.0000   1.0000   1.0000   1.0000   1.0000   1.0000
     1.0000   1.0000   1.0000   1.0000   1.0000   1.0000   1.0000   1.0000
     1.0000   1.0000   1.0000   1.0000   1.0000   1.0000   1.0000   1.0000
     1.0000   1.0000   1.0000   1.0000   0.0000   0.0000   0.0000   0.0000
     0.0000   0.0000   0.0000   0.0000

          k = 0.2652 0.0000 0.0000 (  5297 PWs)   bands (ev):

   -14.5716 -14.5716 -14.5650 -14.5650 -14.4866 -14.4866 -14.4761 -14.4761
   -13.6343 -13.6343 -13.5063 -13.5063 -13.4791 -13.4791 -13.3913 -13.3913
   -13.3879 -13.3879 -13.3113 -13.3113  -2.4180  -2.4180   4.3001   4.3001
     6.3565   6.3565   6.5249   6.5249   8.8651   8.8651   9.5901   9.5901
    11.4459  11.4459  11.4674  11.4674

     occupation numbers 
     1.0000   1.0000   1.0000   1.0000   1.0000   1.0000   1.0000   1.0000
     1.0000   1.0000   1.0000   1.0000   1.0000   1.0000   1.0000   1.0000
     1.0000   1.0000   1.0000   1.0000   1.0000   1.0000   1.0000   1.0000
     1.0000   1.0000   1.0000   1.0000   0.0000   0.0000   0.0000   0.0000
     0.0000   0.0000   0.0000   0.0000

          k = 0.3094 0.0442-0.0442 (  5304 PWs)   bands (ev):

   -14.5726 -14.5725 -14.5621 -14.5621 -14.4894 -14.4894 -14.4745 -14.4745
   -13.6254 -13.6254 -13.5164 -13.5164 -13.4834 -13.4834 -13.3926 -13.3926
   -13.3777 -13.3776 -13.3134 -13.3134  -2.2381  -2.2381   3.7577   3.7577
     6.1074   6.1074   6.2878   6.2878   8.8516   8.8516   9.6672   9.6672
    11.7648  11.7648  11.8331  11.8331

     occupation numbers 
     1.0000   1.0000   1.0000   1.0000   1.0000   1.0000   1.0000   1.0000
     1.0000   1.0000   1.0000   1.0000   1.0000   1.0000   1.0000   1.0000
     1.0000   1.0000   1.0000   1.0000   1.0000   1.0000   1.0000   1.0000
     1.0000   1.0000   1.0000   1.0000   0.0000   0.0000   0.0000   0.0000
     0.0000   0.0000   0.0000   0.0000

          k = 0.3536 0.0884-0.0884 (  5313 PWs)   bands (ev):

   -14.5744 -14.5744 -14.5574 -14.5574 -14.4942 -14.4941 -14.4718 -14.4718
   -13.6146 -13.6145 -13.5268 -13.5268 -13.4880 -13.4880 -13.3956 -13.3956
   -13.3668 -13.3668 -13.3154 -13.3154  -1.9947  -1.9947   3.1191   3.1191
     5.7994   5.7994   6.0994   6.0994   8.9745   8.9745   9.7796   9.7796
    11.7906  11.7906  12.0653  12.0653

     occupation numbers 
     1.0000   1.0000   1.0000   1.0000   1.0000   1.0000   1.0000   1.0000
     1.0000   1.0000   1.0000   1.0000   1.0000   1.0000   1.0000   1.0000
     1.0000   1.0000   1.0000   1.0000   1.0000   1.0000   1.0000   1.0000
     1.0000   1.0000   1.0000   1.0000   0.0000   0.0000   0.0000   0.0000
     0.0000   0.0000   0.0000   0.0000

          k = 0.3977 0.1326-0.1326 (  5303 PWs)   bands (ev):

   -14.5763 -14.5762 -14.5517 -14.5517 -14.4999 -14.4999 -14.4688 -14.4688
   -13.6029 -13.6029 -13.5363 -13.5363 -13.4924 -13.4924 -13.3995 -13.3995
   -13.3581 -13.3581 -13.3163 -13.3163  -1.7002  -1.7002   2.4698   2.4698
     5.4807   5.4807   5.9836   5.9836   8.9825   8.9825  10.1374  10.1374
    11.7680  11.7680  12.1356  12.1356

     occupation numbers 
     1.0000   1.0000   1.0000   1.0000   1.0000   1.0000   1.0000   1.0000
     1.0000   1.0000   1.0000   1.0000   1.0000   1.0000   1.0000   1.0000
     1.0000   1.0000   1.0000   1.0000   1.0000   1.0000   1.0000   1.0000
     1.0000   1.0000   1.0000   1.0000   0.0000   0.0000   0.0000   0.0000
     0.0000   0.0000   0.0000   0.0000

          k = 0.4419 0.1768-0.1768 (  5304 PWs)   bands (ev):

   -14.5779 -14.5779 -14.5459 -14.5458 -14.5061 -14.5060 -14.4661 -14.4661
   -13.5922 -13.5922 -13.5437 -13.5437 -13.4963 -13.4963 -13.4036 -13.4036
   -13.3528 -13.3528 -13.3157 -13.3157  -1.3820  -1.3820   1.8782   1.8782
     5.2014   5.2014   5.9397   5.9397   8.9224   8.9224  10.5452  10.5452
    11.9150  11.9150  12.1050  12.1050

     occupation numbers 
     1.0000   1.0000   1.0000   1.0000   1.0000   1.0000   1.0000   1.0000
     1.0000   1.0000   1.0000   1.0000   1.0000   1.0000   1.0000   1.0000
     1.0000   1.0000   1.0000   1.0000   1.0000   1.0000   1.0000   1.0000
     1.0000   1.0000   1.0000   1.0000   0.0000   0.0000   0.0000   0.0000
     0.0000   0.0000   0.0000   0.0000

          k =-0.2210-0.4861 0.4861 (  5309 PWs)   bands (ev):

   -14.5791 -14.5791 -14.5405 -14.5404 -14.5117 -14.5116 -14.4640 -14.4640
   -13.5846 -13.5846 -13.5483 -13.5483 -13.4990 -13.4990 -13.4071 -13.4071
   -13.3502 -13.3502 -13.3143 -13.3143  -1.1042  -1.1042   1.4312   1.4312
     4.9859   4.9859   5.9659   5.9659   8.8750   8.8750  10.7786  10.7786
    11.9055  11.9055  12.5004  12.5004

     occupation numbers 
     1.0000   1.0000   1.0000   1.0000   1.0000   1.0000   1.0000   1.0000
     1.0000   1.0000   1.0000   1.0000   1.0000   1.0000   1.0000   1.0000
     1.0000   1.0000   1.0000   1.0000   1.0000   1.0000   1.0000   1.0000
     1.0000   1.0000   1.0000   1.0000   0.0000   0.0000   0.0000   0.0000
     0.0000   0.0000   0.0000   0.0000

          k =-0.1768-0.4419 0.4419 (  5315 PWs)   bands (ev):

   -14.5797 -14.5797 -14.5371 -14.5369 -14.5154 -14.5152 -14.4629 -14.4629
   -13.5822 -13.5822 -13.5496 -13.5496 -13.4995 -13.4995 -13.4094 -13.4094
   -13.3491 -13.3491 -13.3136 -13.3135  -0.9891  -0.9891   1.2623   1.2624
     4.8473   4.8473   6.0590   6.0590   8.8643   8.8643  10.8912  10.8912
    11.7475  11.7475  13.1904  13.1904

     occupation numbers 
     1.0000   1.0000   1.0000   1.0000   1.0000   1.0000   1.0000   1.0000
     1.0000   1.0000   1.0000   1.0000   1.0000   1.0000   1.0000   1.0000
     1.0000   1.0000   1.0000   1.0000   1.0000   1.0000   1.0000   1.0000
     1.0000   1.0000   1.0000   1.0000   0.0000   0.0000   0.0000   0.0000
     0.0000   0.0000   0.0000   0.0000

          k =-0.1326-0.3977 0.3977 (  5309 PWs)   bands (ev):

   -14.5799 -14.5798 -14.5379 -14.5377 -14.5147 -14.5145 -14.4628 -14.4628
   -13.5856 -13.5856 -13.5478 -13.5478 -13.4974 -13.4974 -13.4099 -13.4099
   -13.3487 -13.3487 -13.3143 -13.3143  -1.1188  -1.1188   1.4551   1.4551
     4.7966   4.7966   6.2133   6.2133   8.8911   8.8911  10.9889  10.9889
    11.5620  11.5620  13.3552  13.3552

     occupation numbers 
     1.0000   1.0000   1.0000   1.0000   1.0000   1.0000   1.0000   1.0000
     1.0000   1.0000   1.0000   1.0000   1.0000   1.0000   1.0000   1.0000
     1.0000   1.0000   1.0000   1.0000   1.0000   1.0000   1.0000   1.0000
     1.0000   1.0000   1.0000   1.0000   0.0000   0.0000   0.0000   0.0000
     0.0000   0.0000   0.0000   0.0000

          k =-0.0884-0.3536 0.3536 (  5310 PWs)   bands (ev):

   -14.5794 -14.5794 -14.5422 -14.5421 -14.5103 -14.5102 -14.4639 -14.4639
   -13.5936 -13.5936 -13.5433 -13.5432 -13.4937 -13.4937 -13.4085 -13.4085
   -13.3493 -13.3493 -13.3164 -13.3163  -1.4016  -1.4016   1.9083   1.9083
     4.8476   4.8476   6.4187   6.4187   8.9418   8.9418  11.0958  11.0958
    11.3397  11.3397  12.6502  12.6502

     occupation numbers 
     1.0000   1.0000   1.0000   1.0000   1.0000   1.0000   1.0000   1.0000
     1.0000   1.0000   1.0000   1.0000   1.0000   1.0000   1.0000   1.0000
     1.0000   1.0000   1.0000   1.0000   1.0000   1.0000   1.0000   1.0000
     1.0000   1.0000   1.0000   1.0000   0.0000   0.0000   0.0000   0.0000
     0.0000   0.0000   0.0000   0.0000

          k =-0.0442-0.3094 0.3094 (  5310 PWs)   bands (ev):

   -14.5785 -14.5785 -14.5476 -14.5476 -14.5047 -14.5046 -14.4660 -14.4659
   -13.6042 -13.6042 -13.5359 -13.5359 -13.4897 -13.4897 -13.4056 -13.4056
   -13.3525 -13.3524 -13.3181 -13.3181  -1.7186  -1.7186   2.4806   2.4806
     5.0218   5.0218   6.6582   6.6582   8.9827   8.9827  11.0282  11.0282
    11.1749  11.1749  11.9851  11.9851

     occupation numbers 
     1.0000   1.0000   1.0000   1.0000   1.0000   1.0000   1.0000   1.0000
     1.0000   1.0000   1.0000   1.0000   1.0000   1.0000   1.0000   1.0000
     1.0000   1.0000   1.0000   1.0000   1.0000   1.0000   1.0000   1.0000
     1.0000   1.0000   1.0000   1.0000   0.0000   0.0000   0.0000   0.0000
     0.0000   0.0000   0.0000   0.0000

          k = 0.0000-0.2652 0.2652 (  5314 PWs)   bands (ev):

   -14.5772 -14.5772 -14.5530 -14.5530 -14.4989 -14.4988 -14.4686 -14.4686
   -13.6157 -13.6157 -13.5262 -13.5262 -13.4865 -13.4865 -13.4018 -13.4018
   -13.3593 -13.3593 -13.3180 -13.3180  -2.0098  -2.0098   3.0724   3.0724
     5.3496   5.3496   6.9031   6.9031   8.9408   8.9408  10.7076  10.7076
    10.9275  10.9275  11.7690  11.7691

     occupation numbers 
     1.0000   1.0000   1.0000   1.0000   1.0000   1.0000   1.0000   1.0000
     1.0000   1.0000   1.0000   1.0000   1.0000   1.0000   1.0000   1.0000
     1.0000   1.0000   1.0000   1.0000   1.0000   1.0000   1.0000   1.0000
     1.0000   1.0000   1.0000   1.0000   0.0000   0.0000   0.0000   0.0000
     0.0000   0.0000   0.0000   0.0000

          k = 0.3536 0.0000 0.0000 (  5321 PWs)   bands (ev):

   -14.5715 -14.5715 -14.5620 -14.5620 -14.4897 -14.4897 -14.4749 -14.4749
   -13.6180 -13.6180 -13.5239 -13.5239 -13.4861 -13.4861 -13.3928 -13.3928
   -13.3731 -13.3731 -13.3138 -13.3138  -2.0795  -2.0795   3.3977   3.3977
     5.9444   5.9444   6.0613   6.0613   8.5711   8.5711   9.6832   9.6832
    12.2687  12.2687  12.3229  12.3229

     occupation numbers 
     1.0000   1.0000   1.0000   1.0000   1.0000   1.0000   1.0000   1.0000
     1.0000   1.0000   1.0000   1.0000   1.0000   1.0000   1.0000   1.0000
     1.0000   1.0000   1.0000   1.0000   1.0000   1.0000   1.0000   1.0000
     1.0000   1.0000   1.0000   1.0000   0.0000   0.0000   0.0000   0.0000
     0.0000   0.0000   0.0000   0.0000

          k = 0.3977 0.0442-0.0442 (  5315 PWs)   bands (ev):

   -14.5722 -14.5722 -14.5592 -14.5592 -14.4923 -14.4922 -14.4736 -14.4735
   -13.6085 -13.6085 -13.5323 -13.5323 -13.4889 -13.4889 -13.3980 -13.3980
   -13.3642 -13.3642 -13.3143 -13.3143  -1.8552  -1.8552   2.9000   2.9000
     5.7050   5.7050   5.8630   5.8630   8.5974   8.5974   9.6161   9.6161
    12.4074  12.4074  12.6570  12.6570

     occupation numbers 
     1.0000   1.0000   1.0000   1.0000   1.0000   1.0000   1.0000   1.0000
     1.0000   1.0000   1.0000   1.0000   1.0000   1.0000   1.0000   1.0000
     1.0000   1.0000   1.0000   1.0000   1.0000   1.0000   1.0000   1.0000
     1.0000   1.0000   1.0000   1.0000   0.0000   0.0000   0.0000   0.0000
     0.0000   0.0000   0.0000   0.0000

          k = 0.4419 0.0884-0.0884 (  5305 PWs)   bands (ev):

   -14.5739 -14.5739 -14.5548 -14.5548 -14.4968 -14.4967 -14.4709 -14.4708
   -13.5984 -13.5984 -13.5397 -13.5397 -13.4913 -13.4913 -13.4055 -13.4055
   -13.3560 -13.3560 -13.3139 -13.3139  -1.5744  -1.5744   2.3507   2.3507
     5.3640   5.3640   5.7370   5.7370   8.7588   8.7588   9.7390   9.7390
    12.2600  12.2600  12.8145  12.8145

     occupation numbers 
     1.0000   1.0000   1.0000   1.0000   1.0000   1.0000   1.0000   1.0000
     1.0000   1.0000   1.0000   1.0000   1.0000   1.0000   1.0000   1.0000
     1.0000   1.0000   1.0000   1.0000   1.0000   1.0000   1.0000   1.0000
     1.0000   1.0000   1.0000   1.0000   0.0000   0.0000   0.0000   0.0000
     0.0000   0.0000   0.0000   0.0000

          k = 0.4861 0.1326-0.1326 (  5299 PWs)   bands (ev):

   -14.5758 -14.5758 -14.5498 -14.5497 -14.5022 -14.5021 -14.4677 -14.4677
   -13.5897 -13.5897 -13.5446 -13.5446 -13.4931 -13.4931 -13.4137 -13.4137
   -13.3509 -13.3509 -13.3118 -13.3118  -1.2571  -1.2571   1.8136   1.8136
     5.0121   5.0121   5.6875   5.6875   8.8207   8.8207  10.2081  10.2081
    12.1161  12.1161  12.7906  12.7906

     occupation numbers 
     1.0000   1.0000   1.0000   1.0000   1.0000   1.0000   1.0000   1.0000
     1.0000   1.0000   1.0000   1.0000   1.0000   1.0000   1.0000   1.0000
     1.0000   1.0000   1.0000   1.0000   1.0000   1.0000   1.0000   1.0000
     1.0000   1.0000   1.0000   1.0000   0.0000   0.0000   0.0000   0.0000
     0.0000   0.0000   0.0000   0.0000

          k =-0.1768-0.5303 0.5303 (  5314 PWs)   bands (ev):

   -14.5775 -14.5775 -14.5449 -14.5448 -14.5077 -14.5076 -14.4649 -14.4648
   -13.5845 -13.5844 -13.5457 -13.5457 -13.4945 -13.4944 -13.4208 -13.4208
[...]

     occupation numbers 
     1.0000   1.0000   1.0000   1.0000   1.0000   1.0000   1.0000   1.0000
     1.0000   1.0000   1.0000   1.0000   1.0000   1.0000   1.0000   1.0000
     1.0000   1.0000   1.0000   1.0000   1.0000   1.0000   1.0000   1.0000
     1.0000   1.0000   1.0000   1.0000   0.0000   0.0000   0.0000   0.0000
     0.0000   0.0000   0.0000   0.0000

          k =-0.1326-0.3977 0.5745 (  5307 PWs)   bands (ev):

   -14.5786 -14.5786 -14.5413 -14.5411 -14.5122 -14.5120 -14.4622 -14.4622
   -13.5840 -13.5840 -13.5417 -13.5417 -13.4927 -13.4927 -13.4316 -13.4316
   -13.3491 -13.3491 -13.3035 -13.3035  -0.6748  -0.6748   1.0477   1.0477
     4.4630   4.4630   5.4999   5.4999   9.5775   9.5775  10.8119  10.8119
    12.1178  12.1179  12.9084  12.9085

     occupation numbers 
     1.0000   1.0000   1.0000   1.0000   1.0000   1.0000   1.0000   1.0000
     1.0000   1.0000   1.0000   1.0000   1.0000   1.0000   1.0000   1.0000
     1.0000   1.0000   1.0000   1.0000   1.0000   1.0000   1.0000   1.0000
     1.0000   1.0000   1.0000   1.0000   0.0000   0.0000   0.0000   0.0000
     0.0000   0.0000   0.0000   0.0000

          k =-0.0884-0.3536 0.5303 (  5303 PWs)   bands (ev):

   -14.5789 -14.5789 -14.5407 -14.5405 -14.5129 -14.5127 -14.4619 -14.4619
   -13.5846 -13.5845 -13.5418 -13.5418 -13.4922 -13.4922 -13.4312 -13.4311
   -13.3491 -13.3491 -13.3038 -13.3038  -0.7334  -0.7334   1.1221   1.1221
     4.4268   4.4268   5.5738   5.5738   9.6396   9.6396  10.7823  10.7823
    12.1956  12.1956  12.8763  12.8763

     occupation numbers 
     1.0000   1.0000   1.0000   1.0000   1.0000   1.0000   1.0000   1.0000
     1.0000   1.0000   1.0000   1.0000   1.0000   1.0000   1.0000   1.0000
     1.0000   1.0000   1.0000   1.0000   1.0000   1.0000   1.0000   1.0000
     1.0000   1.0000   1.0000   1.0000   0.0000   0.0000   0.0000   0.0000
     0.0000   0.0000   0.0000   0.0000

          k =-0.0442-0.3094 0.4861 (  5295 PWs)   bands (ev):

   -14.5787 -14.5787 -14.5423 -14.5421 -14.5111 -14.5109 -14.4627 -14.4627
   -13.5870 -13.5870 -13.5432 -13.5431 -13.4914 -13.4913 -13.4258 -13.4258
   -13.3494 -13.3494 -13.3066 -13.3066  -0.9959  -0.9959   1.4649   1.4649
     4.5000   4.5000   5.7270   5.7270   9.7085   9.7085  10.6812  10.6812
    11.5612  11.5612  13.1129  13.1129

     occupation numbers 
     1.0000   1.0000   1.0000   1.0000   1.0000   1.0000   1.0000   1.0000
     1.0000   1.0000   1.0000   1.0000   1.0000   1.0000   1.0000   1.0000
     1.0000   1.0000   1.0000   1.0000   1.0000   1.0000   1.0000   1.0000
     1.0000   1.0000   1.0000   1.0000   0.0000   0.0000   0.0000   0.0000
     0.0000   0.0000   0.0000   0.0000

          k = 0.0000-0.2652 0.4419 (  5290 PWs)   bands (ev):

   -14.5781 -14.5781 -14.5455 -14.5454 -14.5074 -14.5073 -14.4645 -14.4645
   -13.5924 -13.5924 -13.5425 -13.5424 -13.4909 -13.4909 -13.4169 -13.4169
   -13.3507 -13.3506 -13.3109 -13.3109  -1.3150  -1.3150   1.9101   1.9101
     4.7058   4.7058   5.9324   5.9324   9.7210   9.7210  10.3392  10.3392
    11.3406  11.3406  12.8681  12.8681

     occupation numbers 
     1.0000   1.0000   1.0000   1.0000   1.0000   1.0000   1.0000   1.0000
     1.0000   1.0000   1.0000   1.0000   1.0000   1.0000   1.0000   1.0000
     1.0000   1.0000   1.0000   1.0000   1.0000   1.0000   1.0000   1.0000
     1.0000   1.0000   1.0000   1.0000   0.0000   0.0000   0.0000   0.0000
     0.0000   0.0000   0.0000   0.0000

          k =-0.1768-0.5303 0.7071 (  5304 PWs)   bands (ev):

   -14.5748 -14.5748 -14.5507 -14.5506 -14.5015 -14.5015 -14.4679 -14.4679
   -13.5855 -13.5855 -13.5458 -13.5458 -13.4898 -13.4898 -13.4254 -13.4254
   -13.3478 -13.3477 -13.3084 -13.3084  -1.0076  -1.0076   1.5165   1.5165
     4.8830   4.8830   5.3682   5.3682   9.2234   9.2234   9.6754   9.6754
    12.1295  12.1295  13.8788  13.8788

     occupation numbers 
     1.0000   1.0000   1.0000   1.0000   1.0000   1.0000   1.0000   1.0000
     1.0000   1.0000   1.0000   1.0000   1.0000   1.0000   1.0000   1.0000
     1.0000   1.0000   1.0000   1.0000   1.0000   1.0000   1.0000   1.0000
     1.0000   1.0000   1.0000   1.0000   0.0000   0.0000   0.0000   0.0000
     0.0000   0.0000   0.0000   0.0000

          k =-0.1326-0.4861 0.6629 (  5306 PWs)   bands (ev):

   -14.5760 -14.5760 -14.5479 -14.5477 -14.5051 -14.5050 -14.4654 -14.4654
   -13.5836 -13.5836 -13.5433 -13.5432 -13.4878 -13.4878 -13.4363 -13.4362
   -13.3472 -13.3472 -13.3040 -13.3040  -0.6827  -0.6827   1.1091   1.1091
     4.6384   4.6384   5.2363   5.2363   9.4209   9.4209  10.1554  10.1554
    11.9365  11.9365  13.8294  13.8294

     occupation numbers 
     1.0000   1.0000   1.0000   1.0000   1.0000   1.0000   1.0000   1.0000
     1.0000   1.0000   1.0000   1.0000   1.0000   1.0000   1.0000   1.0000
     1.0000   1.0000   1.0000   1.0000   1.0000   1.0000   1.0000   1.0000
     1.0000   1.0000   1.0000   1.0000   0.0000   0.0000   0.0000   0.0000
     0.0000   0.0000   0.0000   0.0000

          k =-0.0884-0.4419 0.6187 (  5312 PWs)   bands (ev):

   -14.5772 -14.5771 -14.5451 -14.5450 -14.5085 -14.5083 -14.4633 -14.4632
   -13.5839 -13.5839 -13.5394 -13.5394 -13.4863 -13.4862 -13.4438 -13.4438
   -13.3479 -13.3478 -13.3007 -13.3007  -0.4263  -0.4263   0.8144   0.8144
     4.4280   4.4280   5.2244   5.2244   9.4957   9.4957  10.9191  10.9191
    11.8116  11.8117  13.1998  13.1998

     occupation numbers 
     1.0000   1.0000   1.0000   1.0000   1.0000   1.0000   1.0000   1.0000
     1.0000   1.0000   1.0000   1.0000   1.0000   1.0000   1.0000   1.0000
     1.0000   1.0000   1.0000   1.0000   1.0000   1.0000   1.0000   1.0000
     1.0000   1.0000   1.0000   1.0000   0.0000   0.0000   0.0000   0.0000
     0.0000   0.0000   0.0000   0.0000

          k =-0.0442-0.3977 0.5745 (  5309 PWs)   bands (ev):

   -14.5781 -14.5781 -14.5429 -14.5427 -14.5110 -14.5108 -14.4620 -14.4619
   -13.5846 -13.5846 -13.5380 -13.5380 -13.4865 -13.4865 -13.4446 -13.4445
   -13.3486 -13.3486 -13.2998 -13.2998  -0.4266  -0.4266   0.8178   0.8178
     4.3081   4.3081   5.3187   5.3187   9.5918   9.5919  11.3925  11.3925
    12.0630  12.0631  12.4090  12.4091

     occupation numbers 
     1.0000   1.0000   1.0000   1.0000   1.0000   1.0000   1.0000   1.0000
     1.0000   1.0000   1.0000   1.0000   1.0000   1.0000   1.0000   1.0000
     1.0000   1.0000   1.0000   1.0000   1.0000   1.0000   1.0000   1.0000
     1.0000   1.0000   1.0000   1.0000   0.0000   0.0000   0.0000   0.0000
     0.0000   0.0000   0.0000   0.0000

          k = 0.0000-0.3536 0.5303 (  5298 PWs)   bands (ev):

   -14.5786 -14.5786 -14.5418 -14.5416 -14.5121 -14.5119 -14.4618 -14.4618
   -13.5853 -13.5853 -13.5401 -13.5401 -13.4887 -13.4886 -13.4377 -13.4376
   -13.3490 -13.3490 -13.3019 -13.3019  -0.6782  -0.6782   1.1022   1.1022
     4.3224   4.3224   5.4957   5.4957   9.6966   9.6966  11.2303  11.2303
    11.6545  11.6545  12.9516  12.9516

     occupation numbers 
     1.0000   1.0000   1.0000   1.0000   1.0000   1.0000   1.0000   1.0000
     1.0000   1.0000   1.0000   1.0000   1.0000   1.0000   1.0000   1.0000
     1.0000   1.0000   1.0000   1.0000   1.0000   1.0000   1.0000   1.0000
     1.0000   1.0000   1.0000   1.0000   0.0000   0.0000   0.0000   0.0000
     0.0000   0.0000   0.0000   0.0000

          k =-0.0884-0.5303 0.7071 (  5309 PWs)   bands (ev):

   -14.5738 -14.5737 -14.5514 -14.5513 -14.5009 -14.5008 -14.4682 -14.4682
   -13.5810 -13.5810 -13.5459 -13.5459 -13.4820 -13.4819 -13.4443 -13.4443
   -13.3434 -13.3433 -13.3051 -13.3051  -0.4485  -0.4485   0.8286   0.8286
     4.7959   4.7959   5.0653   5.0653   9.1884   9.1884   9.4621   9.4621
    12.8512  12.8512  14.1810  14.1811

     occupation numbers 
     1.0000   1.0000   1.0000   1.0000   1.0000   1.0000   1.0000   1.0000
     1.0000   1.0000   1.0000   1.0000   1.0000   1.0000   1.0000   1.0000
     1.0000   1.0000   1.0000   1.0000   1.0000   1.0000   1.0000   1.0000
     1.0000   1.0000   1.0000   1.0000   0.0000   0.0000   0.0000   0.0000
     0.0000   0.0000   0.0000   0.0000

          k =-0.0442-0.4861 0.6629 (  5304 PWs)   bands (ev):

   -14.5752 -14.5752 -14.5488 -14.5487 -14.5043 -14.5042 -14.4655 -14.4655
   -13.5826 -13.5826 -13.5409 -13.5409 -13.4783 -13.4782 -13.4535 -13.4533
   -13.3453 -13.3452 -13.3010 -13.3010  -0.1449  -0.1449   0.5108   0.5108
     4.5749   4.5750   5.0154   5.0154   9.3629   9.3629  10.0779  10.0779
    12.6518  12.6518  13.4252  13.4252

     occupation numbers 
     1.0000   1.0000   1.0000   1.0000   1.0000   1.0000   1.0000   1.0000
     1.0000   1.0000   1.0000   1.0000   1.0000   1.0000   1.0000   1.0000
     1.0000   1.0000   1.0000   1.0000   1.0000   1.0000   1.0000   1.0000
     1.0000   1.0000   1.0000   1.0000   0.0000   0.0000   0.0000   0.0000
     0.0000   0.0000   0.0000   0.0000

          k = 0.0000-0.4419 0.6187 (  5317 PWs)   bands (ev):

   -14.5768 -14.5768 -14.5459 -14.5457 -14.5079 -14.5077 -14.4633 -14.4632
   -13.5841 -13.5841 -13.5376 -13.5375 -13.4803 -13.4802 -13.4537 -13.4535
   -13.3473 -13.3473 -13.2989 -13.2989  -0.1432  -0.1432   0.5200   0.5200
     4.3723   4.3723   5.1227   5.1227   9.4685   9.4685  10.9402  10.9402
    12.4385  12.4385  12.5494  12.5494

     occupation numbers 
     1.0000   1.0000   1.0000   1.0000   1.0000   1.0000   1.0000   1.0000
     1.0000   1.0000   1.0000   1.0000   1.0000   1.0000   1.0000   1.0000
     1.0000   1.0000   1.0000   1.0000   1.0000   1.0000   1.0000   1.0000
     1.0000   1.0000   1.0000   1.0000   0.0000   0.0000   0.0000   0.0000
     0.0000   0.0000   0.0000   0.0000

          k =-0.7071 0.1768 0.0000 (  5306 PWs)   bands (ev):

   -14.5733 -14.5732 -14.5519 -14.5518 -14.5004 -14.5003 -14.4684 -14.4684
   -13.5803 -13.5802 -13.5452 -13.5452 -13.4718 -13.4716 -13.4585 -13.4583
   -13.3417 -13.3417 -13.3039 -13.3039   0.1513   0.1513   0.1855   0.1855
     4.7945   4.7946   4.9352   4.9352   9.2123   9.2123   9.3455   9.3456
    13.5401  13.5402  13.7073  13.7073

     occupation numbers 
     1.0000   1.0000   1.0000   1.0000   1.0000   1.0000   1.0000   1.0000
     1.0000   1.0000   1.0000   1.0000   1.0000   1.0000   1.0000   1.0000
     1.0000   1.0000   1.0000   1.0000   1.0000   1.0000   1.0000   1.0000
     1.0000   1.0000   1.0000   1.0000   0.0000   0.0000   0.0000   0.0000
     0.0000   0.0000   0.0000   0.0000

          k =-0.1768-0.4419 0.7071 (  5301 PWs)   bands (ev):

   -14.5774 -14.5774 -14.5453 -14.5451 -14.5081 -14.5079 -14.4638 -14.4638
   -13.5857 -13.5857 -13.5424 -13.5424 -13.4899 -13.4898 -13.4312 -13.4312
   -13.3491 -13.3491 -13.3044 -13.3044  -0.8626  -0.8626   1.3305   1.3305
     4.5559   4.5559   5.4034   5.4034  10.0376  10.0376  10.2766  10.2766
    11.2939  11.2939  13.6032  13.6032

     occupation numbers 
     1.0000   1.0000   1.0000   1.0000   1.0000   1.0000   1.0000   1.0000
     1.0000   1.0000   1.0000   1.0000   1.0000   1.0000   1.0000   1.0000
     1.0000   1.0000   1.0000   1.0000   1.0000   1.0000   1.0000   1.0000
     1.0000   1.0000   1.0000   1.0000   0.0000   0.0000   0.0000   0.0000
     0.0000   0.0000   0.0000   0.0000

          k =-0.1326-0.3977 0.6629 (  5298 PWs)   bands (ev):

   -14.5779 -14.5778 -14.5438 -14.5436 -14.5101 -14.5099 -14.4624 -14.4624
   -13.5848 -13.5848 -13.5390 -13.5390 -13.4880 -13.4879 -13.4408 -13.4407
   -13.3490 -13.3490 -13.3007 -13.3007  -0.5590  -0.5590   0.9713   0.9713
     4.4191   4.4191   5.2366   5.2366  10.1208  10.1209  10.7178  10.7178
    11.4298  11.4298  13.0783  13.0783

     occupation numbers 
     1.0000   1.0000   1.0000   1.0000   1.0000   1.0000   1.0000   1.0000
     1.0000   1.0000   1.0000   1.0000   1.0000   1.0000   1.0000   1.0000
     1.0000   1.0000   1.0000   1.0000   1.0000   1.0000   1.0000   1.0000
     1.0000   1.0000   1.0000   1.0000   0.0000   0.0000   0.0000   0.0000
     0.0000   0.0000   0.0000   0.0000

          k =-0.0884-0.3536 0.6187 (  5288 PWs)   bands (ev):

   -14.5780 -14.5780 -14.5432 -14.5430 -14.5108 -14.5106 -14.4620 -14.4619
   -13.5848 -13.5848 -13.5373 -13.5372 -13.4872 -13.4871 -13.4445 -13.4445
   -13.3491 -13.3491 -13.2993 -13.2993  -0.4104  -0.4104   0.8029   0.8029
     4.3759   4.3759   5.1757   5.1757  10.1278  10.1278  10.8035  10.8035
    12.0287  12.0287  12.3377  12.3378

     occupation numbers 
     1.0000   1.0000   1.0000   1.0000   1.0000   1.0000   1.0000   1.0000
     1.0000   1.0000   1.0000   1.0000   1.0000   1.0000   1.0000   1.0000
     1.0000   1.0000   1.0000   1.0000   1.0000   1.0000   1.0000   1.0000
     1.0000   1.0000   1.0000   1.0000   0.0000   0.0000   0.0000   0.0000
     0.0000   0.0000   0.0000   0.0000

          k =-0.0884-0.4419 0.7071 (  5301 PWs)   bands (ev):

   -14.5765 -14.5765 -14.5467 -14.5465 -14.5070 -14.5068 -14.4638 -14.4637
   -13.5841 -13.5841 -13.5387 -13.5387 -13.4834 -13.4833 -13.4481 -13.4480
   -13.3478 -13.3477 -13.2998 -13.2998  -0.3568  -0.3568   0.7547   0.7547
     4.5367   4.5367   4.9873   4.9873  10.0501  10.0502  10.2681  10.2682
    11.7380  11.7380  13.2488  13.2488

     occupation numbers 
     1.0000   1.0000   1.0000   1.0000   1.0000   1.0000   1.0000   1.0000
     1.0000   1.0000   1.0000   1.0000   1.0000   1.0000   1.0000   1.0000
     1.0000   1.0000   1.0000   1.0000   1.0000   1.0000   1.0000   1.0000
     1.0000   1.0000   1.0000   1.0000   0.0000   0.0000   0.0000   0.0000
     0.0000   0.0000   0.0000   0.0000

          k =-0.0442-0.3977 0.6629 (  5300 PWs)   bands (ev):

   -14.5771 -14.5771 -14.5455 -14.5453 -14.5086 -14.5084 -14.4625 -14.4625
   -13.5849 -13.5849 -13.5353 -13.5353 -13.4805 -13.4804 -13.4551 -13.4550
   -13.3486 -13.3486 -13.2974 -13.2974  -0.1216  -0.1216   0.5122   0.5122
     4.4471   4.4471   4.9022   4.9022  10.2146  10.2146  10.9598  10.9598
    11.6373  11.6374  12.3230  12.3230

     occupation numbers 
     1.0000   1.0000   1.0000   1.0000   1.0000   1.0000   1.0000   1.0000
     1.0000   1.0000   1.0000   1.0000   1.0000   1.0000   1.0000   1.0000
     1.0000   1.0000   1.0000   1.0000   1.0000   1.0000   1.0000   1.0000
     1.0000   1.0000   1.0000   1.0000   0.0000   0.0000   0.0000   0.0000
     0.0000   0.0000   0.0000   0.0000

          k =-0.0000-0.3536 0.6187 (  5301 PWs)   bands (ev):

   -14.5776 -14.5775 -14.5444 -14.5442 -14.5098 -14.5096 -14.4621 -14.4620
   -13.5851 -13.5851 -13.5355 -13.5354 -13.4830 -13.4829 -13.4517 -13.4516
   -13.3490 -13.3490 -13.2977 -13.2977  -0.2502  -0.2502   0.6483   0.6483
     4.3819   4.3819   5.0093   5.0093  10.2924  10.2924  11.1367  11.1368
    11.5242  11.5243  12.2114  12.2114

     occupation numbers 
     1.0000   1.0000   1.0000   1.0000   1.0000   1.0000   1.0000   1.0000
     1.0000   1.0000   1.0000   1.0000   1.0000   1.0000   1.0000   1.0000
     1.0000   1.0000   1.0000   1.0000   1.0000   1.0000   1.0000   1.0000
     1.0000   1.0000   1.0000   1.0000   0.0000   0.0000   0.0000   0.0000
     0.0000   0.0000   0.0000   0.0000

          k =-0.7071 0.2652 0.0000 (  5304 PWs)   bands (ev):

   -14.5761 -14.5761 -14.5475 -14.5473 -14.5064 -14.5062 -14.4639 -14.4638
   -13.5841 -13.5840 -13.5369 -13.5369 -13.4755 -13.4753 -13.4599 -13.4597
   -13.3472 -13.3471 -13.2982 -13.2982   0.1650   0.1650   0.2107   0.2107
     4.6035   4.6035   4.7712   4.7712  10.0467  10.0467  10.2298  10.2299
    12.4094  12.4095  12.5252  12.5253

     occupation numbers 
     1.0000   1.0000   1.0000   1.0000   1.0000   1.0000   1.0000   1.0000
     1.0000   1.0000   1.0000   1.0000   1.0000   1.0000   1.0000   1.0000
     1.0000   1.0000   1.0000   1.0000   1.0000   1.0000   1.0000   1.0000
     1.0000   1.0000   1.0000   1.0000   0.0000   0.0000   0.0000   0.0000
     0.0000   0.0000   0.0000   0.0000

          k =-0.7071 0.3536 0.0000 (  5268 PWs)   bands (ev):

   -14.5770 -14.5770 -14.5457 -14.5455 -14.5086 -14.5084 -14.4623 -14.4622
   -13.5853 -13.5853 -13.5336 -13.5335 -13.4768 -13.4766 -13.4609 -13.4607
   -13.3490 -13.3490 -13.2962 -13.2962   0.1711   0.1711   0.2210   0.2210
     4.5319   4.5319   4.7078   4.7078  10.7333  10.7333  11.0520  11.0520
    11.5983  11.5984  11.6202  11.6203

     occupation numbers 
     1.0000   1.0000   1.0000   1.0000   1.0000   1.0000   1.0000   1.0000
     1.0000   1.0000   1.0000   1.0000   1.0000   1.0000   1.0000   1.0000
     1.0000   1.0000   1.0000   1.0000   1.0000   1.0000   1.0000   1.0000
     1.0000   1.0000   1.0000   1.0000   0.0000   0.0000   0.0000   0.0000
     0.0000   0.0000   0.0000   0.0000

     the Fermi energy is     7.6195 ev

!    total energy              =    -885.87916672 Ry
     Harris-Foulkes estimate   =    -885.87916673 Ry
     estimated scf accuracy    <       0.00000003 Ry

     total all-electron energy =    -24716.578916 Ry

     The total energy is the sum of the following terms:

     one-electron contribution =    -148.96305875 Ry
     hartree contribution      =      93.73414930 Ry
     xc contribution           =     -96.17796420 Ry
     ewald contribution        =    -170.59904351 Ry
     one-center paw contrib.   =    -563.87324950 Ry
     smearing contrib. (-TS)   =      -0.00000006 Ry

     convergence has been achieved in   6 iterations

     Writing output data file Sn.save
 
     init_run     :      4.69s CPU      4.97s WALL (       1 calls)
     electrons    :    113.14s CPU    118.76s WALL (       1 calls)

     Called by init_run:
     wfcinit      :      4.30s CPU      4.49s WALL (       1 calls)
     potinit      :      0.12s CPU      0.14s WALL (       1 calls)

     Called by electrons:
     c_bands      :     95.80s CPU    100.80s WALL (       7 calls)
     sum_band     :     16.30s CPU     16.75s WALL (       7 calls)
     v_of_rho     :      0.03s CPU      0.04s WALL (       7 calls)
     v_h          :      0.00s CPU      0.00s WALL (       7 calls)
     v_xc         :      0.03s CPU      0.03s WALL (       7 calls)
     newd         :      0.36s CPU      0.40s WALL (       7 calls)
     PAW_pot      :      0.79s CPU      0.86s WALL (       7 calls)
     mix_rho      :      0.01s CPU      0.02s WALL (       7 calls)

     Called by c_bands:
     init_us_2    :      0.39s CPU      0.43s WALL (    2175 calls)
     cegterg      :     87.75s CPU     92.62s WALL (    1015 calls)

     Called by sum_band:
     sum_band:bec :      2.25s CPU      2.30s WALL (    1015 calls)
     addusdens    :      0.15s CPU      0.20s WALL (       7 calls)

     Called by *egterg:
     h_psi        :     68.77s CPU     70.65s WALL (    3522 calls)
     s_psi        :      2.93s CPU      2.94s WALL (    3522 calls)
     g_psi        :      0.26s CPU      0.26s WALL (    2362 calls)
     cdiaghg      :      8.38s CPU      8.55s WALL (    3232 calls)
     cegterg:over :      4.36s CPU      4.38s WALL (    2362 calls)
     cegterg:upda :      2.13s CPU      2.15s WALL (    2362 calls)
     cegterg:last :      1.08s CPU      1.09s WALL (    1015 calls)

     Called by h_psi:
     h_psi:vloc   :     61.98s CPU     63.76s WALL (    3522 calls)
     h_psi:vnl    :      6.55s CPU      6.63s WALL (    3522 calls)
     add_vuspsi   :      3.16s CPU      3.19s WALL (    3522 calls)

     General routines
     calbec       :      4.51s CPU      4.59s WALL (    4537 calls)
     fft          :      0.04s CPU      0.05s WALL (     135 calls)
     fftw         :     69.60s CPU     71.59s WALL (  461648 calls)
     davcio       :      0.05s CPU      0.33s WALL (     145 calls)
 
     Parallel routines
     fft_scatter  :     42.99s CPU     44.39s WALL (  461783 calls)

     PAW routines
     PAW_pot      :      0.79s CPU      0.86s WALL (       7 calls)
     PAW_symme    :      0.02s CPU      0.02s WALL (      14 calls)
 
     PWSCF        :  1m59.06s CPU     2m 5.40s WALL

 
   This run was terminated on:   0:40:38   9Mar2020            

=------------------------------------------------------------------------------=
   JOB DONE.
=------------------------------------------------------------------------------=
