
     Program PWSCF v.5.4.0 starts on  9Mar2020 at  0:19: 4 

     This program is part of the open-source Quantum ESPRESSO suite
     for quantum simulation of materials; please cite
         "P. Giannozzi et al., J. Phys.:Condens. Matter 21 395502 (2009);
          URL http://www.quantum-espresso.org", 
     in publications or presentations arising from this work. More details at
     http://www.quantum-espresso.org/quote

     Parallel version (MPI & OpenMP), running on      16 processor cores
     Number of MPI processes:                16
     Threads/MPI process:                     1
     R & G space division:  proc/nbgrp/npool/nimage =      16
     Waiting for input...
     Reading input from standard input
Warning: card &IONS ignored
Warning: card / ignored
Warning: card &CELL ignored
Warning: card / ignored

     Current dimensions of program PWSCF are:
     Max number of different atomic species (ntypx) = 10
     Max number of k-points (npk) =  40000
     Max angular momentum in pseudopotentials (lmaxx) =  3
               file Sn.rel-pbe-dn-kjpaw_psl.1.0.0.UPF: wavefunction(s)  5S 5P 5P 4D 4D renormalized

     Subspace diagonalization in iterative solution of the eigenvalue problem:
     a serial algorithm will be used

 
     Parallelization info
     --------------------
     sticks:   dense  smooth     PW     G-vecs:    dense   smooth      PW
     Min         100     100     28                 2661     2661     413
     Max         101     101     29                 2664     2664     415
     Sum        1615    1615    463                42615    42615    6615
 

     Title: 
     Sn                                                                         


     bravais-lattice index     =            0
     lattice parameter (alat)  =       8.7524  a.u.
     unit-cell volume          =     474.0897 (a.u.)^3
     number of atoms/cell      =            2
     number of atomic types    =            1
     number of electrons       =        28.00
     number of Kohn-Sham states=           36
     kinetic-energy cutoff     =      76.0000  Ry
     charge density cutoff     =     304.0000  Ry
     convergence threshold     =      1.0E-06
     mixing beta               =       0.7000
     number of iterations used =            8  plain     mixing
     Exchange-correlation      =  SLA  PW   PBX  PBC ( 1  4  3  4 0 0)
     Non magnetic calculation with spin-orbit


     celldm(1)=   8.752360  celldm(2)=   0.000000  celldm(3)=   0.000000
     celldm(4)=   0.000000  celldm(5)=   0.000000  celldm(6)=   0.000000

     crystal axes: (cart. coord. in units of alat)
               a(1) = (   0.000000   0.707107   0.707107 )  
               a(2) = (   0.707107   0.000000   0.707107 )  
               a(3) = (   0.707107   0.707107   0.000000 )  

     reciprocal axes: (cart. coord. in units 2 pi/alat)
               b(1) = ( -0.707107  0.707107  0.707107 )  
               b(2) = (  0.707107 -0.707107  0.707107 )  
               b(3) = (  0.707107  0.707107 -0.707107 )  


     PseudoPot. # 1 for Sn read from file:
     ../PseudopotentialDatabase/Sn.rel-pbe-dn-kjpaw_psl.1.0.0.UPF
     MD5 check sum: 6bcaba2b82cf8d008985ef5bb9854e68
     Pseudo is Projector augmented-wave + core cor, Zval = 14.0
     Generated using "atomic" code by A. Dal Corso  v.6.3
     Shape of augmentation charge: PSQ
     Using radial grid of 1243 points, 10 beta functions with: 
                l(1) =   0
                l(2) =   0
                l(3) =   1
                l(4) =   1
                l(5) =   1
                l(6) =   1
                l(7) =   2
                l(8) =   2
                l(9) =   2
               l(10) =   2
     Q(r) pseudized with 0 coefficients 


     atomic species   valence    mass     pseudopotential
        Sn            14.00   118.71000     Sn( 1.00)

     24 Sym. Ops. (no inversion) found
          (note: 24 additional sym.ops. were found but ignored
           their fractional translations are incommensurate with FFT grid)

                                    s                        frac. trans.

      isym =  1     identity                                     

 cryst.   s( 1) = (     1          0          0      )
                  (     0          1          0      )
                  (     0          0          1      )

 cart.    s( 1) = (  1.0000000  0.0000000  0.0000000 )
                  (  0.0000000  1.0000000  0.0000000 )
                  (  0.0000000  0.0000000  1.0000000 )


      isym =  2     180 deg rotation - cart. axis [0,0,1]        

 cryst.   s( 2) = (     0          1         -1      )
                  (     1          0         -1      )
                  (     0          0         -1      )

 cart.    s( 2) = ( -1.0000000  0.0000000  0.0000000 )
                  (  0.0000000 -1.0000000  0.0000000 )
                  (  0.0000000  0.0000000  1.0000000 )


      isym =  3     180 deg rotation - cart. axis [0,1,0]        

 cryst.   s( 3) = (     0         -1          1      )
                  (     0         -1          0      )
                  (     1         -1          0      )

 cart.    s( 3) = ( -1.0000000  0.0000000  0.0000000 )
                  (  0.0000000  1.0000000  0.0000000 )
                  (  0.0000000  0.0000000 -1.0000000 )


      isym =  4     180 deg rotation - cart. axis [1,0,0]        

 cryst.   s( 4) = (    -1          0          0      )
                  (    -1          0          1      )
                  (    -1          1          0      )

 cart.    s( 4) = (  1.0000000  0.0000000  0.0000000 )
                  (  0.0000000 -1.0000000  0.0000000 )
                  (  0.0000000  0.0000000 -1.0000000 )


      isym =  5     120 deg rotation - cart. axis [-1,-1,-1]     

 cryst.   s( 5) = (     0          0          1      )
                  (     1          0          0      )
                  (     0          1          0      )

 cart.    s( 5) = (  0.0000000  1.0000000  0.0000000 )
                  (  0.0000000  0.0000000  1.0000000 )
                  (  1.0000000  0.0000000  0.0000000 )


      isym =  6     120 deg rotation - cart. axis [-1,1,1]       

 cryst.   s( 6) = (     1         -1          0      )
                  (     0         -1          1      )
                  (     0         -1          0      )

 cart.    s( 6) = (  0.0000000 -1.0000000  0.0000000 )
                  (  0.0000000  0.0000000  1.0000000 )
                  ( -1.0000000  0.0000000  0.0000000 )


      isym =  7     120 deg rotation - cart. axis [1,1,-1]       

 cryst.   s( 7) = (    -1          1          0      )
                  (    -1          0          0      )
                  (    -1          0          1      )

 cart.    s( 7) = (  0.0000000  1.0000000  0.0000000 )
                  (  0.0000000  0.0000000 -1.0000000 )
                  ( -1.0000000  0.0000000  0.0000000 )


      isym =  8     120 deg rotation - cart. axis [1,-1,1]       

 cryst.   s( 8) = (     0          0         -1      )
                  (     0          1         -1      )
                  (     1          0         -1      )

 cart.    s( 8) = (  0.0000000 -1.0000000  0.0000000 )
                  (  0.0000000  0.0000000 -1.0000000 )
                  (  1.0000000  0.0000000  0.0000000 )


      isym =  9     120 deg rotation - cart. axis [1,1,1]        

 cryst.   s( 9) = (     0          1          0      )
                  (     0          0          1      )
                  (     1          0          0      )

 cart.    s( 9) = (  0.0000000  0.0000000  1.0000000 )
                  (  1.0000000  0.0000000  0.0000000 )
                  (  0.0000000  1.0000000  0.0000000 )


      isym = 10     120 deg rotation - cart. axis [-1,1,-1]      

 cryst.   s(10) = (    -1          0          1      )
                  (    -1          1          0      )
                  (    -1          0          0      )

 cart.    s(10) = (  0.0000000  0.0000000  1.0000000 )
                  ( -1.0000000  0.0000000  0.0000000 )
                  (  0.0000000 -1.0000000  0.0000000 )


      isym = 11     120 deg rotation - cart. axis [1,-1,-1]      

 cryst.   s(11) = (     1          0         -1      )
                  (     0          0         -1      )
                  (     0          1         -1      )

 cart.    s(11) = (  0.0000000  0.0000000 -1.0000000 )
                  ( -1.0000000  0.0000000  0.0000000 )
                  (  0.0000000  1.0000000  0.0000000 )


      isym = 12     120 deg rotation - cart. axis [-1,-1,1]      

 cryst.   s(12) = (     0         -1          0      )
                  (     1         -1          0      )
                  (     0         -1          1      )

 cart.    s(12) = (  0.0000000  0.0000000 -1.0000000 )
                  (  1.0000000  0.0000000  0.0000000 )
                  (  0.0000000 -1.0000000  0.0000000 )


      isym = 13     inv. 180 deg rotation - cart. axis [1,1,0]   

 cryst.   s(13) = (     1          0         -1      )
                  (     0          1         -1      )
                  (     0          0         -1      )

 cart.    s(13) = (  0.0000000 -1.0000000  0.0000000 )
                  ( -1.0000000  0.0000000  0.0000000 )
                  (  0.0000000  0.0000000  1.0000000 )


      isym = 14     inv. 180 deg rotation - cart. axis [1,-1,0]  

 cryst.   s(14) = (     0          1          0      )
                  (     1          0          0      )
                  (     0          0          1      )

 cart.    s(14) = (  0.0000000  1.0000000  0.0000000 )
                  (  1.0000000  0.0000000  0.0000000 )
                  (  0.0000000  0.0000000  1.0000000 )


      isym = 15     inv.  90 deg rotation - cart. axis [0,0,-1]  

 cryst.   s(15) = (     0         -1          0      )
                  (     0         -1          1      )
                  (     1         -1          0      )

 cart.    s(15) = (  0.0000000 -1.0000000  0.0000000 )
                  (  1.0000000  0.0000000  0.0000000 )
                  (  0.0000000  0.0000000 -1.0000000 )


      isym = 16     inv.  90 deg rotation - cart. axis [0,0,1]   

 cryst.   s(16) = (    -1          0          1      )
                  (    -1          0          0      )
                  (    -1          1          0      )

 cart.    s(16) = (  0.0000000  1.0000000  0.0000000 )
                  ( -1.0000000  0.0000000  0.0000000 )
                  (  0.0000000  0.0000000 -1.0000000 )


      isym = 17     inv. 180 deg rotation - cart. axis [1,0,1]   

 cryst.   s(17) = (     1         -1          0      )
                  (     0         -1          0      )
                  (     0         -1          1      )

 cart.    s(17) = (  0.0000000  0.0000000 -1.0000000 )
                  (  0.0000000  1.0000000  0.0000000 )
                  ( -1.0000000  0.0000000  0.0000000 )


      isym = 18     inv. 180 deg rotation - cart. axis [-1,0,1]  

 cryst.   s(18) = (     0          0          1      )
                  (     0          1          0      )
                  (     1          0          0      )

 cart.    s(18) = (  0.0000000  0.0000000  1.0000000 )
                  (  0.0000000  1.0000000  0.0000000 )
                  (  1.0000000  0.0000000  0.0000000 )


      isym = 19     inv.  90 deg rotation - cart. axis [0,1,0]   

 cryst.   s(19) = (     0          0         -1      )
                  (     1          0         -1      )
                  (     0          1         -1      )

 cart.    s(19) = (  0.0000000  0.0000000 -1.0000000 )
                  (  0.0000000 -1.0000000  0.0000000 )
                  (  1.0000000  0.0000000  0.0000000 )


      isym = 20     inv.  90 deg rotation - cart. axis [0,-1,0]  

 cryst.   s(20) = (    -1          1          0      )
                  (    -1          0          1      )
                  (    -1          0          0      )

 cart.    s(20) = (  0.0000000  0.0000000  1.0000000 )
                  (  0.0000000 -1.0000000  0.0000000 )
                  ( -1.0000000  0.0000000  0.0000000 )


      isym = 21     inv. 180 deg rotation - cart. axis [0,1,1]   

 cryst.   s(21) = (    -1          0          0      )
                  (    -1          1          0      )
                  (    -1          0          1      )

 cart.    s(21) = (  1.0000000  0.0000000  0.0000000 )
                  (  0.0000000  0.0000000 -1.0000000 )
                  (  0.0000000 -1.0000000  0.0000000 )


      isym = 22     inv. 180 deg rotation - cart. axis [0,1,-1]  

 cryst.   s(22) = (     1          0          0      )
                  (     0          0          1      )
                  (     0          1          0      )

 cart.    s(22) = (  1.0000000  0.0000000  0.0000000 )
                  (  0.0000000  0.0000000  1.0000000 )
                  (  0.0000000  1.0000000  0.0000000 )


      isym = 23     inv.  90 deg rotation - cart. axis [-1,0,0]  

 cryst.   s(23) = (     0          1         -1      )
                  (     0          0         -1      )
                  (     1          0         -1      )

 cart.    s(23) = ( -1.0000000  0.0000000  0.0000000 )
                  (  0.0000000  0.0000000 -1.0000000 )
                  (  0.0000000  1.0000000  0.0000000 )


      isym = 24     inv.  90 deg rotation - cart. axis [1,0,0]   

 cryst.   s(24) = (     0         -1          1      )
                  (     1         -1          0      )
                  (     0         -1          0      )

 cart.    s(24) = ( -1.0000000  0.0000000  0.0000000 )
                  (  0.0000000  0.0000000  1.0000000 )
                  (  0.0000000 -1.0000000  0.0000000 )


   Cartesian axes

     site n.     atom                  positions (alat units)
         1           Sn  tau(   1) = (   0.0000000   0.0000000   0.0000000  )
         2           Sn  tau(   2) = (   0.3535534   0.3535534   0.3535534  )

   Crystallographic axes

     site n.     atom                  positions (cryst. coord.)
         1           Sn  tau(   1) = (  0.0000000  0.0000000  0.0000000  )
         2           Sn  tau(   2) = (  0.2500000  0.2500000  0.2500000  )

     number of k points=   145  gaussian smearing, width (Ry)=  0.0001
                       cart. coord. in units 2pi/alat
        k(    1) = (   0.0000000   0.0000000   0.0000000), wk =   0.0002441
        k(    2) = (   0.0441942   0.0441942  -0.0441942), wk =   0.0019531
        k(    3) = (   0.0883883   0.0883883  -0.0883883), wk =   0.0019531
        k(    4) = (   0.1325825   0.1325825  -0.1325825), wk =   0.0019531
        k(    5) = (   0.1767767   0.1767767  -0.1767767), wk =   0.0019531
        k(    6) = (   0.2209709   0.2209709  -0.2209709), wk =   0.0019531
        k(    7) = (   0.2651650   0.2651650  -0.2651650), wk =   0.0019531
        k(    8) = (   0.3093592   0.3093592  -0.3093592), wk =   0.0019531
        k(    9) = (  -0.3535534  -0.3535534   0.3535534), wk =   0.0009766
        k(   10) = (   0.0883883   0.0000000   0.0000000), wk =   0.0014648
        k(   11) = (   0.1325825   0.0441942  -0.0441942), wk =   0.0058594
        k(   12) = (   0.1767767   0.0883883  -0.0883883), wk =   0.0058594
        k(   13) = (   0.2209709   0.1325825  -0.1325825), wk =   0.0058594
        k(   14) = (   0.2651650   0.1767767  -0.1767767), wk =   0.0058594
        k(   15) = (   0.3093592   0.2209709  -0.2209709), wk =   0.0058594
        k(   16) = (   0.3535534   0.2651650  -0.2651650), wk =   0.0058594
        k(   17) = (  -0.3093592  -0.3977476   0.3977476), wk =   0.0058594
        k(   18) = (  -0.2651650  -0.3535534   0.3535534), wk =   0.0058594
        k(   19) = (  -0.2209709  -0.3093592   0.3093592), wk =   0.0058594
        k(   20) = (  -0.1767767  -0.2651650   0.2651650), wk =   0.0058594
        k(   21) = (  -0.1325825  -0.2209709   0.2209709), wk =   0.0058594
        k(   22) = (  -0.0883883  -0.1767767   0.1767767), wk =   0.0058594
        k(   23) = (  -0.0441942  -0.1325825   0.1325825), wk =   0.0058594
        k(   24) = (   0.0000000  -0.0883883   0.0883883), wk =   0.0029297
        k(   25) = (   0.1767767   0.0000000   0.0000000), wk =   0.0014648
        k(   26) = (   0.2209709   0.0441942  -0.0441942), wk =   0.0058594
        k(   27) = (   0.2651650   0.0883883  -0.0883883), wk =   0.0058594
        k(   28) = (   0.3093592   0.1325825  -0.1325825), wk =   0.0058594
        k(   29) = (   0.3535534   0.1767767  -0.1767767), wk =   0.0058594
        k(   30) = (   0.3977476   0.2209709  -0.2209709), wk =   0.0058594
        k(   31) = (  -0.2651650  -0.4419417   0.4419417), wk =   0.0058594
        k(   32) = (  -0.2209709  -0.3977476   0.3977476), wk =   0.0058594
        k(   33) = (  -0.1767767  -0.3535534   0.3535534), wk =   0.0058594
        k(   34) = (  -0.1325825  -0.3093592   0.3093592), wk =   0.0058594
        k(   35) = (  -0.0883883  -0.2651650   0.2651650), wk =   0.0058594
        k(   36) = (  -0.0441942  -0.2209709   0.2209709), wk =   0.0058594
        k(   37) = (   0.0000000  -0.1767767   0.1767767), wk =   0.0029297
        k(   38) = (   0.2651650   0.0000000   0.0000000), wk =   0.0014648
        k(   39) = (   0.3093592   0.0441942  -0.0441942), wk =   0.0058594
        k(   40) = (   0.3535534   0.0883883  -0.0883883), wk =   0.0058594
        k(   41) = (   0.3977476   0.1325825  -0.1325825), wk =   0.0058594
        k(   42) = (   0.4419417   0.1767767  -0.1767767), wk =   0.0058594
        k(   43) = (  -0.2209709  -0.4861359   0.4861359), wk =   0.0058594
        k(   44) = (  -0.1767767  -0.4419417   0.4419417), wk =   0.0058594
        k(   45) = (  -0.1325825  -0.3977476   0.3977476), wk =   0.0058594
        k(   46) = (  -0.0883883  -0.3535534   0.3535534), wk =   0.0058594
        k(   47) = (  -0.0441942  -0.3093592   0.3093592), wk =   0.0058594
        k(   48) = (   0.0000000  -0.2651650   0.2651650), wk =   0.0029297
        k(   49) = (   0.3535534   0.0000000   0.0000000), wk =   0.0014648
        k(   50) = (   0.3977476   0.0441942  -0.0441942), wk =   0.0058594
        k(   51) = (   0.4419417   0.0883883  -0.0883883), wk =   0.0058594
        k(   52) = (   0.4861359   0.1325825  -0.1325825), wk =   0.0058594
        k(   53) = (  -0.1767767  -0.5303301   0.5303301), wk =   0.0058594
        k(   54) = (  -0.1325825  -0.4861359   0.4861359), wk =   0.0058594
        k(   55) = (  -0.0883883  -0.4419417   0.4419417), wk =   0.0058594
        k(   56) = (  -0.0441942  -0.3977476   0.3977476), wk =   0.0058594
        k(   57) = (   0.0000000  -0.3535534   0.3535534), wk =   0.0029297
        k(   58) = (   0.4419417   0.0000000   0.0000000), wk =   0.0014648
        k(   59) = (   0.4861359   0.0441942  -0.0441942), wk =   0.0058594
        k(   60) = (   0.5303301   0.0883883  -0.0883883), wk =   0.0058594
        k(   61) = (  -0.1325825  -0.5745243   0.5745243), wk =   0.0058594
        k(   62) = (  -0.0883883  -0.5303301   0.5303301), wk =   0.0058594
        k(   63) = (  -0.0441942  -0.4861359   0.4861359), wk =   0.0058594
        k(   64) = (   0.0000000  -0.4419417   0.4419417), wk =   0.0029297
        k(   65) = (   0.5303301   0.0000000   0.0000000), wk =   0.0014648
        k(   66) = (   0.5745243   0.0441942  -0.0441942), wk =   0.0058594
        k(   67) = (  -0.0883883  -0.6187184   0.6187184), wk =   0.0058594
        k(   68) = (  -0.0441942  -0.5745243   0.5745243), wk =   0.0058594
        k(   69) = (   0.0000000  -0.5303301   0.5303301), wk =   0.0029297
        k(   70) = (   0.6187184   0.0000000   0.0000000), wk =   0.0014648
        k(   71) = (  -0.0441942  -0.6629126   0.6629126), wk =   0.0058594
        k(   72) = (   0.0000000  -0.6187184   0.6187184), wk =   0.0029297
        k(   73) = (  -0.7071068   0.0000000   0.0000000), wk =   0.0007324
        k(   74) = (   0.1767767   0.0883883   0.0000000), wk =   0.0058594
        k(   75) = (   0.2209709   0.1325825  -0.0441942), wk =   0.0117188
        k(   76) = (   0.2651650   0.1767767  -0.0883883), wk =   0.0117188
        k(   77) = (   0.3093592   0.2209709  -0.1325825), wk =   0.0117188
        k(   78) = (   0.3535534   0.2651650  -0.1767767), wk =   0.0117188
        k(   79) = (  -0.3093592  -0.3977476   0.4861359), wk =   0.0117188
        k(   80) = (  -0.2651650  -0.3535534   0.4419417), wk =   0.0058594
        k(   81) = (   0.2651650   0.0883883   0.0000000), wk =   0.0058594
        k(   82) = (   0.3093592   0.1325825  -0.0441942), wk =   0.0117188
        k(   83) = (   0.3535534   0.1767767  -0.0883883), wk =   0.0117188
        k(   84) = (   0.3977476   0.2209709  -0.1325825), wk =   0.0117188
        k(   85) = (  -0.2651650  -0.4419417   0.5303301), wk =   0.0117188
        k(   86) = (  -0.2209709  -0.3977476   0.4861359), wk =   0.0117188
        k(   87) = (  -0.1767767  -0.3535534   0.4419417), wk =   0.0117188
        k(   88) = (  -0.1325825  -0.3093592   0.3977476), wk =   0.0117188
        k(   89) = (  -0.0883883  -0.2651650   0.3535534), wk =   0.0117188
        k(   90) = (  -0.0441942  -0.2209709   0.3093592), wk =   0.0117188
        k(   91) = (   0.0000000  -0.1767767   0.2651650), wk =   0.0058594
        k(   92) = (   0.3535534   0.0883883   0.0000000), wk =   0.0058594
        k(   93) = (   0.3977476   0.1325825  -0.0441942), wk =   0.0117188
        k(   94) = (   0.4419417   0.1767767  -0.0883883), wk =   0.0117188
        k(   95) = (  -0.2209709  -0.4861359   0.5745243), wk =   0.0117188
        k(   96) = (  -0.1767767  -0.4419417   0.5303301), wk =   0.0117188
        k(   97) = (  -0.1325825  -0.3977476   0.4861359), wk =   0.0117188
        k(   98) = (  -0.0883883  -0.3535534   0.4419417), wk =   0.0117188
        k(   99) = (  -0.0441942  -0.3093592   0.3977476), wk =   0.0117188
        k(  100) = (   0.0000000  -0.2651650   0.3535534), wk =   0.0058594
        k(  101) = (   0.4419417   0.0883883   0.0000000), wk =   0.0058594
        k(  102) = (   0.4861359   0.1325825  -0.0441942), wk =   0.0117188
        k(  103) = (  -0.1767767  -0.5303301   0.6187184), wk =   0.0117188
        k(  104) = (  -0.1325825  -0.4861359   0.5745243), wk =   0.0117188
        k(  105) = (  -0.0883883  -0.4419417   0.5303301), wk =   0.0117188
        k(  106) = (  -0.0441942  -0.3977476   0.4861359), wk =   0.0117188
        k(  107) = (   0.0000000  -0.3535534   0.4419417), wk =   0.0058594
        k(  108) = (   0.5303301   0.0883883   0.0000000), wk =   0.0058594
        k(  109) = (  -0.1325825  -0.5745243   0.6629126), wk =   0.0117188
        k(  110) = (  -0.0883883  -0.5303301   0.6187184), wk =   0.0117188
        k(  111) = (  -0.0441942  -0.4861359   0.5745243), wk =   0.0117188
        k(  112) = (   0.0000000  -0.4419417   0.5303301), wk =   0.0058594
        k(  113) = (  -0.0883883  -0.6187184   0.7071068), wk =   0.0058594
        k(  114) = (  -0.0441942  -0.5745243   0.6629126), wk =   0.0117188
        k(  115) = (  -0.0000000  -0.5303301   0.6187184), wk =   0.0058594
        k(  116) = (  -0.7071068   0.0883883   0.0000000), wk =   0.0029297
        k(  117) = (   0.3535534   0.1767767   0.0000000), wk =   0.0058594
        k(  118) = (   0.3977476   0.2209709  -0.0441942), wk =   0.0117188
        k(  119) = (  -0.2651650  -0.4419417   0.6187184), wk =   0.0117188
        k(  120) = (  -0.2209709  -0.3977476   0.5745243), wk =   0.0117188
        k(  121) = (  -0.1767767  -0.3535534   0.5303301), wk =   0.0058594
        k(  122) = (   0.4419417   0.1767767   0.0000000), wk =   0.0058594
        k(  123) = (  -0.2209709  -0.4861359   0.6629126), wk =   0.0117188
        k(  124) = (  -0.1767767  -0.4419417   0.6187184), wk =   0.0117188
        k(  125) = (  -0.1325825  -0.3977476   0.5745243), wk =   0.0117188
        k(  126) = (  -0.0883883  -0.3535534   0.5303301), wk =   0.0117188
        k(  127) = (  -0.0441942  -0.3093592   0.4861359), wk =   0.0117188
        k(  128) = (   0.0000000  -0.2651650   0.4419417), wk =   0.0058594
        k(  129) = (  -0.1767767  -0.5303301   0.7071068), wk =   0.0058594
        k(  130) = (  -0.1325825  -0.4861359   0.6629126), wk =   0.0117188
        k(  131) = (  -0.0883883  -0.4419417   0.6187184), wk =   0.0117188
        k(  132) = (  -0.0441942  -0.3977476   0.5745243), wk =   0.0117188
        k(  133) = (   0.0000000  -0.3535534   0.5303301), wk =   0.0058594
        k(  134) = (  -0.0883883  -0.5303301   0.7071068), wk =   0.0058594
        k(  135) = (  -0.0441942  -0.4861359   0.6629126), wk =   0.0117188
        k(  136) = (   0.0000000  -0.4419417   0.6187184), wk =   0.0058594
        k(  137) = (  -0.7071068   0.1767767   0.0000000), wk =   0.0029297
        k(  138) = (  -0.1767767  -0.4419417   0.7071068), wk =   0.0058594
        k(  139) = (  -0.1325825  -0.3977476   0.6629126), wk =   0.0117188
        k(  140) = (  -0.0883883  -0.3535534   0.6187184), wk =   0.0058594
        k(  141) = (  -0.0883883  -0.4419417   0.7071068), wk =   0.0058594
        k(  142) = (  -0.0441942  -0.3977476   0.6629126), wk =   0.0117188
        k(  143) = (  -0.0000000  -0.3535534   0.6187184), wk =   0.0058594
        k(  144) = (  -0.7071068   0.2651650   0.0000000), wk =   0.0029297
        k(  145) = (  -0.7071068   0.3535534   0.0000000), wk =   0.0014648

                       cryst. coord.
        k(    1) = (   0.0000000   0.0000000   0.0000000), wk =   0.0002441
        k(    2) = (   0.0000000   0.0000000   0.0625000), wk =   0.0019531
        k(    3) = (   0.0000000   0.0000000   0.1250000), wk =   0.0019531
        k(    4) = (   0.0000000   0.0000000   0.1875000), wk =   0.0019531
        k(    5) = (   0.0000000   0.0000000   0.2500000), wk =   0.0019531
        k(    6) = (   0.0000000   0.0000000   0.3125000), wk =   0.0019531
        k(    7) = (   0.0000000   0.0000000   0.3750000), wk =   0.0019531
        k(    8) = (   0.0000000   0.0000000   0.4375000), wk =   0.0019531
        k(    9) = (   0.0000000   0.0000000  -0.5000000), wk =   0.0009766
        k(   10) = (   0.0000000   0.0625000   0.0625000), wk =   0.0014648
        k(   11) = (   0.0000000   0.0625000   0.1250000), wk =   0.0058594
        k(   12) = (   0.0000000   0.0625000   0.1875000), wk =   0.0058594
        k(   13) = (   0.0000000   0.0625000   0.2500000), wk =   0.0058594
        k(   14) = (   0.0000000   0.0625000   0.3125000), wk =   0.0058594
        k(   15) = (   0.0000000   0.0625000   0.3750000), wk =   0.0058594
        k(   16) = (   0.0000000   0.0625000   0.4375000), wk =   0.0058594
        k(   17) = (   0.0000000   0.0625000  -0.5000000), wk =   0.0058594
        k(   18) = (   0.0000000   0.0625000  -0.4375000), wk =   0.0058594
        k(   19) = (   0.0000000   0.0625000  -0.3750000), wk =   0.0058594
        k(   20) = (   0.0000000   0.0625000  -0.3125000), wk =   0.0058594
        k(   21) = (   0.0000000   0.0625000  -0.2500000), wk =   0.0058594
        k(   22) = (   0.0000000   0.0625000  -0.1875000), wk =   0.0058594
        k(   23) = (   0.0000000   0.0625000  -0.1250000), wk =   0.0058594
        k(   24) = (   0.0000000   0.0625000  -0.0625000), wk =   0.0029297
        k(   25) = (   0.0000000   0.1250000   0.1250000), wk =   0.0014648
        k(   26) = (   0.0000000   0.1250000   0.1875000), wk =   0.0058594
        k(   27) = (   0.0000000   0.1250000   0.2500000), wk =   0.0058594
        k(   28) = (   0.0000000   0.1250000   0.3125000), wk =   0.0058594
        k(   29) = (   0.0000000   0.1250000   0.3750000), wk =   0.0058594
        k(   30) = (   0.0000000   0.1250000   0.4375000), wk =   0.0058594
        k(   31) = (   0.0000000   0.1250000  -0.5000000), wk =   0.0058594
        k(   32) = (   0.0000000   0.1250000  -0.4375000), wk =   0.0058594
        k(   33) = (   0.0000000   0.1250000  -0.3750000), wk =   0.0058594
        k(   34) = (   0.0000000   0.1250000  -0.3125000), wk =   0.0058594
        k(   35) = (   0.0000000   0.1250000  -0.2500000), wk =   0.0058594
        k(   36) = (   0.0000000   0.1250000  -0.1875000), wk =   0.0058594
        k(   37) = (   0.0000000   0.1250000  -0.1250000), wk =   0.0029297
        k(   38) = (   0.0000000   0.1875000   0.1875000), wk =   0.0014648
        k(   39) = (   0.0000000   0.1875000   0.2500000), wk =   0.0058594
        k(   40) = (   0.0000000   0.1875000   0.3125000), wk =   0.0058594
        k(   41) = (   0.0000000   0.1875000   0.3750000), wk =   0.0058594
        k(   42) = (   0.0000000   0.1875000   0.4375000), wk =   0.0058594
        k(   43) = (   0.0000000   0.1875000  -0.5000000), wk =   0.0058594
        k(   44) = (   0.0000000   0.1875000  -0.4375000), wk =   0.0058594
        k(   45) = (   0.0000000   0.1875000  -0.3750000), wk =   0.0058594
        k(   46) = (   0.0000000   0.1875000  -0.3125000), wk =   0.0058594
        k(   47) = (   0.0000000   0.1875000  -0.2500000), wk =   0.0058594
        k(   48) = (   0.0000000   0.1875000  -0.1875000), wk =   0.0029297
        k(   49) = (   0.0000000   0.2500000   0.2500000), wk =   0.0014648
        k(   50) = (   0.0000000   0.2500000   0.3125000), wk =   0.0058594
        k(   51) = (   0.0000000   0.2500000   0.3750000), wk =   0.0058594
        k(   52) = (   0.0000000   0.2500000   0.4375000), wk =   0.0058594
        k(   53) = (   0.0000000   0.2500000  -0.5000000), wk =   0.0058594
        k(   54) = (   0.0000000   0.2500000  -0.4375000), wk =   0.0058594
        k(   55) = (   0.0000000   0.2500000  -0.3750000), wk =   0.0058594
        k(   56) = (   0.0000000   0.2500000  -0.3125000), wk =   0.0058594
        k(   57) = (   0.0000000   0.2500000  -0.2500000), wk =   0.0029297
        k(   58) = (   0.0000000   0.3125000   0.3125000), wk =   0.0014648
        k(   59) = (   0.0000000   0.3125000   0.3750000), wk =   0.0058594
        k(   60) = (   0.0000000   0.3125000   0.4375000), wk =   0.0058594
        k(   61) = (   0.0000000   0.3125000  -0.5000000), wk =   0.0058594
        k(   62) = (   0.0000000   0.3125000  -0.4375000), wk =   0.0058594
        k(   63) = (   0.0000000   0.3125000  -0.3750000), wk =   0.0058594
        k(   64) = (   0.0000000   0.3125000  -0.3125000), wk =   0.0029297
        k(   65) = (   0.0000000   0.3750000   0.3750000), wk =   0.0014648
        k(   66) = (   0.0000000   0.3750000   0.4375000), wk =   0.0058594
        k(   67) = (   0.0000000   0.3750000  -0.5000000), wk =   0.0058594
        k(   68) = (   0.0000000   0.3750000  -0.4375000), wk =   0.0058594
        k(   69) = (   0.0000000   0.3750000  -0.3750000), wk =   0.0029297
        k(   70) = (   0.0000000   0.4375000   0.4375000), wk =   0.0014648
        k(   71) = (   0.0000000   0.4375000  -0.5000000), wk =   0.0058594
        k(   72) = (   0.0000000   0.4375000  -0.4375000), wk =   0.0029297
        k(   73) = (   0.0000000  -0.5000000  -0.5000000), wk =   0.0007324
        k(   74) = (   0.0625000   0.1250000   0.1875000), wk =   0.0058594
        k(   75) = (   0.0625000   0.1250000   0.2500000), wk =   0.0117188
        k(   76) = (   0.0625000   0.1250000   0.3125000), wk =   0.0117188
        k(   77) = (   0.0625000   0.1250000   0.3750000), wk =   0.0117188
        k(   78) = (   0.0625000   0.1250000   0.4375000), wk =   0.0117188
        k(   79) = (   0.0625000   0.1250000  -0.5000000), wk =   0.0117188
        k(   80) = (   0.0625000   0.1250000  -0.4375000), wk =   0.0058594
        k(   81) = (   0.0625000   0.1875000   0.2500000), wk =   0.0058594
        k(   82) = (   0.0625000   0.1875000   0.3125000), wk =   0.0117188
        k(   83) = (   0.0625000   0.1875000   0.3750000), wk =   0.0117188
        k(   84) = (   0.0625000   0.1875000   0.4375000), wk =   0.0117188
        k(   85) = (   0.0625000   0.1875000  -0.5000000), wk =   0.0117188
        k(   86) = (   0.0625000   0.1875000  -0.4375000), wk =   0.0117188
        k(   87) = (   0.0625000   0.1875000  -0.3750000), wk =   0.0117188
        k(   88) = (   0.0625000   0.1875000  -0.3125000), wk =   0.0117188
        k(   89) = (   0.0625000   0.1875000  -0.2500000), wk =   0.0117188
        k(   90) = (   0.0625000   0.1875000  -0.1875000), wk =   0.0117188
        k(   91) = (   0.0625000   0.1875000  -0.1250000), wk =   0.0058594
        k(   92) = (   0.0625000   0.2500000   0.3125000), wk =   0.0058594
        k(   93) = (   0.0625000   0.2500000   0.3750000), wk =   0.0117188
        k(   94) = (   0.0625000   0.2500000   0.4375000), wk =   0.0117188
        k(   95) = (   0.0625000   0.2500000  -0.5000000), wk =   0.0117188
        k(   96) = (   0.0625000   0.2500000  -0.4375000), wk =   0.0117188
        k(   97) = (   0.0625000   0.2500000  -0.3750000), wk =   0.0117188
        k(   98) = (   0.0625000   0.2500000  -0.3125000), wk =   0.0117188
        k(   99) = (   0.0625000   0.2500000  -0.2500000), wk =   0.0117188
        k(  100) = (   0.0625000   0.2500000  -0.1875000), wk =   0.0058594
        k(  101) = (   0.0625000   0.3125000   0.3750000), wk =   0.0058594
        k(  102) = (   0.0625000   0.3125000   0.4375000), wk =   0.0117188
        k(  103) = (   0.0625000   0.3125000  -0.5000000), wk =   0.0117188
        k(  104) = (   0.0625000   0.3125000  -0.4375000), wk =   0.0117188
        k(  105) = (   0.0625000   0.3125000  -0.3750000), wk =   0.0117188
        k(  106) = (   0.0625000   0.3125000  -0.3125000), wk =   0.0117188
        k(  107) = (   0.0625000   0.3125000  -0.2500000), wk =   0.0058594
        k(  108) = (   0.0625000   0.3750000   0.4375000), wk =   0.0058594
        k(  109) = (   0.0625000   0.3750000  -0.5000000), wk =   0.0117188
        k(  110) = (   0.0625000   0.3750000  -0.4375000), wk =   0.0117188
        k(  111) = (   0.0625000   0.3750000  -0.3750000), wk =   0.0117188
        k(  112) = (   0.0625000   0.3750000  -0.3125000), wk =   0.0058594
        k(  113) = (   0.0625000   0.4375000  -0.5000000), wk =   0.0058594
        k(  114) = (   0.0625000   0.4375000  -0.4375000), wk =   0.0117188
        k(  115) = (   0.0625000   0.4375000  -0.3750000), wk =   0.0058594
        k(  116) = (   0.0625000  -0.5000000  -0.4375000), wk =   0.0029297
        k(  117) = (   0.1250000   0.2500000   0.3750000), wk =   0.0058594
        k(  118) = (   0.1250000   0.2500000   0.4375000), wk =   0.0117188
        k(  119) = (   0.1250000   0.2500000  -0.5000000), wk =   0.0117188
        k(  120) = (   0.1250000   0.2500000  -0.4375000), wk =   0.0117188
        k(  121) = (   0.1250000   0.2500000  -0.3750000), wk =   0.0058594
        k(  122) = (   0.1250000   0.3125000   0.4375000), wk =   0.0058594
        k(  123) = (   0.1250000   0.3125000  -0.5000000), wk =   0.0117188
        k(  124) = (   0.1250000   0.3125000  -0.4375000), wk =   0.0117188
        k(  125) = (   0.1250000   0.3125000  -0.3750000), wk =   0.0117188
        k(  126) = (   0.1250000   0.3125000  -0.3125000), wk =   0.0117188
        k(  127) = (   0.1250000   0.3125000  -0.2500000), wk =   0.0117188
        k(  128) = (   0.1250000   0.3125000  -0.1875000), wk =   0.0058594
        k(  129) = (   0.1250000   0.3750000  -0.5000000), wk =   0.0058594
        k(  130) = (   0.1250000   0.3750000  -0.4375000), wk =   0.0117188
        k(  131) = (   0.1250000   0.3750000  -0.3750000), wk =   0.0117188
        k(  132) = (   0.1250000   0.3750000  -0.3125000), wk =   0.0117188
        k(  133) = (   0.1250000   0.3750000  -0.2500000), wk =   0.0058594
        k(  134) = (   0.1250000   0.4375000  -0.4375000), wk =   0.0058594
        k(  135) = (   0.1250000   0.4375000  -0.3750000), wk =   0.0117188
        k(  136) = (   0.1250000   0.4375000  -0.3125000), wk =   0.0058594
        k(  137) = (   0.1250000  -0.5000000  -0.3750000), wk =   0.0029297
        k(  138) = (   0.1875000   0.3750000  -0.4375000), wk =   0.0058594
        k(  139) = (   0.1875000   0.3750000  -0.3750000), wk =   0.0117188
        k(  140) = (   0.1875000   0.3750000  -0.3125000), wk =   0.0058594
        k(  141) = (   0.1875000   0.4375000  -0.3750000), wk =   0.0058594
        k(  142) = (   0.1875000   0.4375000  -0.3125000), wk =   0.0117188
        k(  143) = (   0.1875000   0.4375000  -0.2500000), wk =   0.0058594
        k(  144) = (   0.1875000  -0.5000000  -0.3125000), wk =   0.0029297
        k(  145) = (   0.2500000  -0.5000000  -0.2500000), wk =   0.0014648

     Dense  grid:    42615 G-vectors     FFT dimensions: (  50,  50,  50)

     Largest allocated arrays     est. size (Mb)     dimensions
        Kohn-Sham Wavefunctions         0.37 Mb     (     678,   36)
        NL pseudopotentials             0.35 Mb     (     339,   68)
        Each V/rho on FFT grid          0.15 Mb     (   10000)
        Each G-vector array             0.02 Mb     (    2664)
        G-vector shells                 0.00 Mb     (     384)
     Largest temporary arrays     est. size (Mb)     dimensions
        Auxiliary wavefunctions         1.49 Mb     (     678,  144)
        Each subspace H/S matrix        0.32 Mb     (     144,  144)
        Each <psi_i|beta_j> matrix      0.07 Mb     (      68,   2,   36)
        Arrays for rho mixing           1.22 Mb     (   10000,    8)

     Initial potential from superposition of free atoms

     starting charge   27.99781, renormalised to   28.00000
     Starting wfc are   36 randomized atomic wfcs
     Checking if some PAW data can be deallocated... 

     total cpu time spent up to now is       11.9 secs

     Self-consistent Calculation

     iteration #  1     ecut=    76.00 Ry     beta=0.70
     Davidson diagonalization with overlap
     ethr =  1.00E-02,  avg # of iterations =  3.5

     Threshold (ethr) on eigenvalues was too large:
     Diagonalizing with lowered threshold

     Davidson diagonalization with overlap
     ethr =  6.08E-05,  avg # of iterations =  3.4

     total cpu time spent up to now is       87.6 secs

     total energy              =    -885.87751928 Ry
     Harris-Foulkes estimate   =    -885.88012610 Ry
     estimated scf accuracy    <       0.02019404 Ry

     iteration #  2     ecut=    76.00 Ry     beta=0.70
     Davidson diagonalization with overlap
     ethr =  7.21E-05,  avg # of iterations =  1.0

     total cpu time spent up to now is      116.8 secs

     total energy              =    -885.87852525 Ry
     Harris-Foulkes estimate   =    -885.87864731 Ry
     estimated scf accuracy    <       0.00182861 Ry

     iteration #  3     ecut=    76.00 Ry     beta=0.70
     Davidson diagonalization with overlap
     ethr =  6.53E-06,  avg # of iterations =  2.2

     total cpu time spent up to now is      156.0 secs

     total energy              =    -885.87883631 Ry
     Harris-Foulkes estimate   =    -885.87889230 Ry
     estimated scf accuracy    <       0.00010368 Ry

     iteration #  4     ecut=    76.00 Ry     beta=0.70
     Davidson diagonalization with overlap
     ethr =  3.70E-07,  avg # of iterations =  2.1

     total cpu time spent up to now is      194.7 secs

     total energy              =    -885.87887061 Ry
     Harris-Foulkes estimate   =    -885.87887187 Ry
     estimated scf accuracy    <       0.00000852 Ry

     iteration #  5     ecut=    76.00 Ry     beta=0.70
     Davidson diagonalization with overlap
     ethr =  3.04E-08,  avg # of iterations =  2.0

     total cpu time spent up to now is      229.0 secs

     total energy              =    -885.87887284 Ry
     Harris-Foulkes estimate   =    -885.87887272 Ry
     estimated scf accuracy    <       0.00000115 Ry

     iteration #  6     ecut=    76.00 Ry     beta=0.70
     Davidson diagonalization with overlap
     ethr =  4.12E-09,  avg # of iterations =  2.0

     total cpu time spent up to now is      264.6 secs

     End of self-consistent calculation

          k = 0.0000 0.0000 0.0000 (  5209 PWs)   bands (ev):

   -14.5718 -14.5718 -14.5718 -14.5718 -14.4809 -14.4809 -14.4809 -14.4809
   -13.6592 -13.6592 -13.4630 -13.4630 -13.4630 -13.4630 -13.4160 -13.4160
   -13.4160 -13.4160 -13.3034 -13.3034  -2.8592  -2.8592   6.7424   6.7424
     7.1900   7.1900   7.8580   7.8580   7.8580   7.8580   9.3974   9.3974
     9.8697   9.8697   9.8697   9.8697

     occupation numbers 
     1.0000   1.0000   1.0000   1.0000   1.0000   1.0000   1.0000   1.0000
     1.0000   1.0000   1.0000   1.0000   1.0000   1.0000   1.0000   1.0000
     1.0000   1.0000   1.0000   1.0000   1.0000   1.0000   1.0000   1.0000
     1.0000   1.0000   0.0000   0.0000   0.0000   0.0000   0.0000   0.0000
     0.0000   0.0000   0.0000   0.0000

          k = 0.0442 0.0442-0.0442 (  5248 PWs)   bands (ev):

   -14.5722 -14.5722 -14.5709 -14.5709 -14.4818 -14.4818 -14.4803 -14.4803
   -13.6571 -13.6571 -13.4685 -13.4685 -13.4662 -13.4662 -13.4126 -13.4125
   -13.4114 -13.4114 -13.3045 -13.3045  -2.8224  -2.8224   6.1962   6.1962
     7.2649   7.2649   7.7760   7.7760   7.9917   7.9917   9.5706   9.5706
     9.9660   9.9660   9.9745   9.9745

     occupation numbers 
     1.0000   1.0000   1.0000   1.0000   1.0000   1.0000   1.0000   1.0000
     1.0000   1.0000   1.0000   1.0000   1.0000   1.0000   1.0000   1.0000
     1.0000   1.0000   1.0000   1.0000   1.0000   1.0000   1.0000   1.0000
     1.0000   1.0000   0.0000   0.0000   0.0000   0.0000   0.0000   0.0000
     0.0000   0.0000   0.0000   0.0000

          k = 0.0884 0.0884-0.0884 (  5276 PWs)   bands (ev):

   -14.5735 -14.5735 -14.5683 -14.5683 -14.4844 -14.4844 -14.4786 -14.4785
   -13.6510 -13.6510 -13.4809 -13.4809 -13.4737 -13.4737 -13.4044 -13.4044
   -13.4017 -13.4017 -13.3075 -13.3075  -2.7128  -2.7128   5.3260   5.3260
     7.1249   7.1249   7.5787   7.5787   8.0821   8.0821   9.9114   9.9114
    10.2281  10.2281  10.3861  10.3861

     occupation numbers 
     1.0000   1.0000   1.0000   1.0000   1.0000   1.0000   1.0000   1.0000
     1.0000   1.0000   1.0000   1.0000   1.0000   1.0000   1.0000   1.0000
     1.0000   1.0000   1.0000   1.0000   1.0000   1.0000   1.0000   1.0000
     1.0000   1.0000   1.0000   1.0000   0.0000   0.0000   0.0000   0.0000
     0.0000   0.0000   0.0000   0.0000

          k = 0.1326 0.1326-0.1326 (  5291 PWs)   bands (ev):

   -14.5752 -14.5752 -14.5642 -14.5642 -14.4885 -14.4885 -14.4761 -14.4761
   -13.6414 -13.6414 -13.4958 -13.4958 -13.4823 -13.4823 -13.3948 -13.3948
   -13.3909 -13.3909 -13.3123 -13.3123  -2.5332  -2.5332   4.4187   4.4187
     6.9064   6.9064   7.3442   7.3442   7.9997   7.9997  10.2061  10.2061
    10.5161  10.5161  11.1255  11.1255

     occupation numbers 
     1.0000   1.0000   1.0000   1.0000   1.0000   1.0000   1.0000   1.0000
     1.0000   1.0000   1.0000   1.0000   1.0000   1.0000   1.0000   1.0000
     1.0000   1.0000   1.0000   1.0000   1.0000   1.0000   1.0000   1.0000
     1.0000   1.0000   1.0000   1.0000   0.0000   0.0000   0.0000   0.0000
     0.0000   0.0000   0.0000   0.0000

          k = 0.1768 0.1768-0.1768 (  5297 PWs)   bands (ev):

   -14.5771 -14.5771 -14.5587 -14.5587 -14.4938 -14.4938 -14.4733 -14.4733
   -13.6292 -13.6292 -13.5113 -13.5113 -13.4905 -13.4905 -13.3854 -13.3854
   -13.3806 -13.3806 -13.3185 -13.3185  -2.2901  -2.2901   3.5430   3.5430
     6.6901   6.6901   7.1213   7.1213   7.8525   7.8525  10.4438  10.4438
    10.7420  10.7420  11.9836  11.9836

     occupation numbers 
     1.0000   1.0000   1.0000   1.0000   1.0000   1.0000   1.0000   1.0000
     1.0000   1.0000   1.0000   1.0000   1.0000   1.0000   1.0000   1.0000
     1.0000   1.0000   1.0000   1.0000   1.0000   1.0000   1.0000   1.0000
     1.0000   1.0000   1.0000   1.0000   0.0000   0.0000   0.0000   0.0000
     0.0000   0.0000   0.0000   0.0000

          k = 0.2210 0.2210-0.2210 (  5303 PWs)   bands (ev):

   -14.5788 -14.5788 -14.5523 -14.5523 -14.5001 -14.5001 -14.4708 -14.4707
   -13.6155 -13.6155 -13.5265 -13.5265 -13.4974 -13.4974 -13.3773 -13.3773
   -13.3714 -13.3714 -13.3256 -13.3256  -1.9966  -1.9966   2.7398   2.7398
     6.5062   6.5062   6.9341   6.9341   7.7077   7.7077  10.5906  10.5906
    10.8609  10.8609  12.8712  12.8712

     occupation numbers 
     1.0000   1.0000   1.0000   1.0000   1.0000   1.0000   1.0000   1.0000
     1.0000   1.0000   1.0000   1.0000   1.0000   1.0000   1.0000   1.0000
     1.0000   1.0000   1.0000   1.0000   1.0000   1.0000   1.0000   1.0000
     1.0000   1.0000   1.0000   1.0000   0.0000   0.0000   0.0000   0.0000
     0.0000   0.0000   0.0000   0.0000

          k = 0.2652 0.2652-0.2652 (  5309 PWs)   bands (ev):

   -14.5801 -14.5801 -14.5455 -14.5455 -14.5067 -14.5067 -14.4687 -14.4687
   -13.6012 -13.6012 -13.5410 -13.5410 -13.5026 -13.5026 -13.3711 -13.3711
   -13.3632 -13.3632 -13.3330 -13.3330  -1.6815  -1.6815   2.0527   2.0527
     6.3685   6.3685   6.7948   6.7948   7.5937   7.5937  10.6527  10.6527
    10.8931  10.8931  13.3546  13.3546

     occupation numbers 
     1.0000   1.0000   1.0000   1.0000   1.0000   1.0000   1.0000   1.0000
     1.0000   1.0000   1.0000   1.0000   1.0000   1.0000   1.0000   1.0000
     1.0000   1.0000   1.0000   1.0000   1.0000   1.0000   1.0000   1.0000
     1.0000   1.0000   1.0000   1.0000   1.0000   1.0000   0.0000   0.0000
     0.0000   0.0000   0.0000   0.0000

          k = 0.3094 0.3094-0.3094 (  5294 PWs)   bands (ev):

   -14.5809 -14.5809 -14.5392 -14.5392 -14.5129 -14.5129 -14.4674 -14.4674
   -13.5875 -13.5875 -13.5543 -13.5543 -13.5058 -13.5058 -13.3672 -13.3672
   -13.3558 -13.3558 -13.3403 -13.3403  -1.4088  -1.4088   1.5538   1.5538
     6.2838   6.2838   6.7093   6.7093   7.5222   7.5222  10.6678  10.6678
    10.8879  10.8879  13.3018  13.3018

     occupation numbers 
     1.0000   1.0000   1.0000   1.0000   1.0000   1.0000   1.0000   1.0000
     1.0000   1.0000   1.0000   1.0000   1.0000   1.0000   1.0000   1.0000
     1.0000   1.0000   1.0000   1.0000   1.0000   1.0000   1.0000   1.0000
     1.0000   1.0000   1.0000   1.0000   1.0000   1.0000   0.0000   0.0000
     0.0000   0.0000   0.0000   0.0000

          k =-0.3536-0.3536 0.3536 (  5342 PWs)   bands (ev):

   -14.5812 -14.5812 -14.5362 -14.5362 -14.5158 -14.5158 -14.4669 -14.4669
   -13.5792 -13.5792 -13.5625 -13.5625 -13.5069 -13.5069 -13.3659 -13.3659
   -13.3506 -13.3506 -13.3456 -13.3456  -1.2923  -1.2923   1.3615   1.3615
     6.2553   6.2553   6.6806   6.6806   7.4980   7.4980  10.6688  10.6688
    10.8821  10.8821  13.2684  13.2684

     occupation numbers 
     1.0000   1.0000   1.0000   1.0000   1.0000   1.0000   1.0000   1.0000
     1.0000   1.0000   1.0000   1.0000   1.0000   1.0000   1.0000   1.0000
     1.0000   1.0000   1.0000   1.0000   1.0000   1.0000   1.0000   1.0000
     1.0000   1.0000   1.0000   1.0000   1.0000   1.0000   0.0000   0.0000
     0.0000   0.0000   0.0000   0.0000

          k = 0.0884 0.0000 0.0000 (  5249 PWs)   bands (ev):

   -14.5720 -14.5720 -14.5711 -14.5711 -14.4818 -14.4818 -14.4804 -14.4804
   -13.6564 -13.6564 -13.4713 -13.4713 -13.4658 -13.4658 -13.4121 -13.4121
   -13.4097 -13.4097 -13.3048 -13.3048  -2.8100  -2.8100   6.1130   6.1130
     7.1789   7.1789   7.5780   7.5780   8.2857   8.2857   9.4714   9.4714
     9.9844   9.9844  10.1210  10.1210

     occupation numbers 
     1.0000   1.0000   1.0000   1.0000   1.0000   1.0000   1.0000   1.0000
     1.0000   1.0000   1.0000   1.0000   1.0000   1.0000   1.0000   1.0000
     1.0000   1.0000   1.0000   1.0000   1.0000   1.0000   1.0000   1.0000
     1.0000   1.0000   1.0000   1.0000   0.0000   0.0000   0.0000   0.0000
     0.0000   0.0000   0.0000   0.0000

          k = 0.1326 0.0442-0.0442 (  5277 PWs)   bands (ev):

   -14.5729 -14.5729 -14.5692 -14.5692 -14.4837 -14.4837 -14.4791 -14.4790
   -13.6516 -13.6516 -13.4814 -13.4814 -13.4709 -13.4709 -13.4065 -13.4065
   -13.4018 -13.4018 -13.3070 -13.3070  -2.7245  -2.7245   5.4704   5.4704
     7.0151   7.0151   7.3591   7.3591   8.5206   8.5206   9.5403   9.5403
    10.3001  10.3001  10.4567  10.4567

     occupation numbers 
     1.0000   1.0000   1.0000   1.0000   1.0000   1.0000   1.0000   1.0000
     1.0000   1.0000   1.0000   1.0000   1.0000   1.0000   1.0000   1.0000
     1.0000   1.0000   1.0000   1.0000   1.0000   1.0000   1.0000   1.0000
     1.0000   1.0000   1.0000   1.0000   0.0000   0.0000   0.0000   0.0000
     0.0000   0.0000   0.0000   0.0000

          k = 0.1768 0.0884-0.0884 (  5282 PWs)   bands (ev):

   -14.5745 -14.5745 -14.5655 -14.5655 -14.4874 -14.4874 -14.4767 -14.4767
   -13.6432 -13.6432 -13.4947 -13.4947 -13.4787 -13.4787 -13.3993 -13.3993
   -13.3909 -13.3908 -13.3111 -13.3111  -2.5679  -2.5679   4.6391   4.6391
     6.7898   6.7898   7.1327   7.1327   8.5034   8.5034   9.7993   9.7993
    10.6453  10.6453  11.0331  11.0331

     occupation numbers 
     1.0000   1.0000   1.0000   1.0000   1.0000   1.0000   1.0000   1.0000
     1.0000   1.0000   1.0000   1.0000   1.0000   1.0000   1.0000   1.0000
     1.0000   1.0000   1.0000   1.0000   1.0000   1.0000   1.0000   1.0000
     1.0000   1.0000   1.0000   1.0000   0.0000   0.0000   0.0000   0.0000
     0.0000   0.0000   0.0000   0.0000

          k = 0.2210 0.1326-0.1326 (  5300 PWs)   bands (ev):

   -14.5764 -14.5764 -14.5605 -14.5605 -14.4924 -14.4923 -14.4740 -14.4740
   -13.6319 -13.6319 -13.5092 -13.5092 -13.4868 -13.4868 -13.3922 -13.3921
   -13.3796 -13.3796 -13.3164 -13.3164  -2.3450  -2.3450   3.7840   3.7840
     6.5602   6.5602   6.9029   6.9029   8.3696   8.3696  10.1163  10.1163
    10.9044  10.9044  11.7098  11.7098

     occupation numbers 
     1.0000   1.0000   1.0000   1.0000   1.0000   1.0000   1.0000   1.0000
     1.0000   1.0000   1.0000   1.0000   1.0000   1.0000   1.0000   1.0000
     1.0000   1.0000   1.0000   1.0000   1.0000   1.0000   1.0000   1.0000
     1.0000   1.0000   1.0000   1.0000   0.0000   0.0000   0.0000   0.0000
     0.0000   0.0000   0.0000   0.0000

          k = 0.2652 0.1768-0.1768 (  5302 PWs)   bands (ev):

   -14.5782 -14.5782 -14.5544 -14.5544 -14.4983 -14.4983 -14.4712 -14.4712
   -13.6187 -13.6187 -13.5235 -13.5235 -13.4942 -13.4942 -13.3859 -13.3859
   -13.3694 -13.3694 -13.3224 -13.3224  -2.0661  -2.0661   2.9724   2.9724
     6.3563   6.3563   6.7045   6.7045   8.2148   8.2148  10.3712  10.3712
    11.0375  11.0375  12.3942  12.3942

     occupation numbers 
     1.0000   1.0000   1.0000   1.0000   1.0000   1.0000   1.0000   1.0000
     1.0000   1.0000   1.0000   1.0000   1.0000   1.0000   1.0000   1.0000
     1.0000   1.0000   1.0000   1.0000   1.0000   1.0000   1.0000   1.0000
     1.0000   1.0000   1.0000   1.0000   0.0000   0.0000   0.0000   0.0000
     0.0000   0.0000   0.0000   0.0000

          k = 0.3094 0.2210-0.2210 (  5315 PWs)   bands (ev):

   -14.5797 -14.5797 -14.5477 -14.5477 -14.5049 -14.5049 -14.4689 -14.4689
   -13.6048 -13.6048 -13.5372 -13.5372 -13.5001 -13.5001 -13.3809 -13.3809
   -13.3609 -13.3609 -13.3284 -13.3284  -1.7532  -1.7532   2.2519   2.2519
     6.1895   6.1895   6.5602   6.5602   8.0802   8.0802  10.5210  10.5210
    11.0560  11.0560  13.0306  13.0306

     occupation numbers 
     1.0000   1.0000   1.0000   1.0000   1.0000   1.0000   1.0000   1.0000
     1.0000   1.0000   1.0000   1.0000   1.0000   1.0000   1.0000   1.0000
     1.0000   1.0000   1.0000   1.0000   1.0000   1.0000   1.0000   1.0000
     1.0000   1.0000   1.0000   1.0000   0.0000   0.0000   0.0000   0.0000
     0.0000   0.0000   0.0000   0.0000

          k = 0.3536 0.2652-0.2652 (  5301 PWs)   bands (ev):

   -14.5807 -14.5807 -14.5411 -14.5411 -14.5114 -14.5113 -14.4673 -14.4672
   -13.5913 -13.5913 -13.5499 -13.5499 -13.5042 -13.5041 -13.3775 -13.3775
   -13.3547 -13.3546 -13.3336 -13.3335  -1.4554  -1.4554   1.6851   1.6851
     6.0661   6.0661   6.4801   6.4801   7.9834   7.9834  10.5985  10.5985
    11.0120  11.0120  13.3644  13.3644

     occupation numbers 
     1.0000   1.0000   1.0000   1.0000   1.0000   1.0000   1.0000   1.0000
     1.0000   1.0000   1.0000   1.0000   1.0000   1.0000   1.0000   1.0000
     1.0000   1.0000   1.0000   1.0000   1.0000   1.0000   1.0000   1.0000
     1.0000   1.0000   1.0000   1.0000   0.0000   0.0000   0.0000   0.0000
     0.0000   0.0000   0.0000   0.0000

          k =-0.3094-0.3977 0.3977 (  5304 PWs)   bands (ev):

   -14.5812 -14.5812 -14.5366 -14.5366 -14.5159 -14.5158 -14.4665 -14.4664
   -13.5810 -13.5810 -13.5597 -13.5597 -13.5060 -13.5060 -13.3760 -13.3760
   -13.3511 -13.3511 -13.3367 -13.3367  -1.2721  -1.2721   1.3784   1.3784
     5.9917   5.9917   6.4666   6.4666   7.9319   7.9319  10.6494  10.6494
    10.9537  10.9537  13.4183  13.4183

     occupation numbers 
     1.0000   1.0000   1.0000   1.0000   1.0000   1.0000   1.0000   1.0000
     1.0000   1.0000   1.0000   1.0000   1.0000   1.0000   1.0000   1.0000
     1.0000   1.0000   1.0000   1.0000   1.0000   1.0000   1.0000   1.0000
     1.0000   1.0000   1.0000   1.0000   0.0000   0.0000   0.0000   0.0000
     0.0000   0.0000   0.0000   0.0000

          k =-0.2652-0.3536 0.3536 (  5306 PWs)   bands (ev):

   -14.5811 -14.5811 -14.5376 -14.5375 -14.5149 -14.5148 -14.4666 -14.4666
   -13.5837 -13.5837 -13.5571 -13.5571 -13.5056 -13.5056 -13.3766 -13.3766
   -13.3514 -13.3514 -13.3362 -13.3362  -1.3127  -1.3127   1.4440   1.4440
     5.9714   5.9714   6.5175   6.5175   7.9283   7.9283  10.6899  10.6899
    10.9117  10.9117  13.4353  13.4353

     occupation numbers 
     1.0000   1.0000   1.0000   1.0000   1.0000   1.0000   1.0000   1.0000
     1.0000   1.0000   1.0000   1.0000   1.0000   1.0000   1.0000   1.0000
     1.0000   1.0000   1.0000   1.0000   1.0000   1.0000   1.0000   1.0000
     1.0000   1.0000   1.0000   1.0000   0.0000   0.0000   0.0000   0.0000
     0.0000   0.0000   0.0000   0.0000

          k =-0.2210-0.3094 0.3094 (  5305 PWs)   bands (ev):

   -14.5805 -14.5804 -14.5431 -14.5431 -14.5095 -14.5095 -14.4676 -14.4676
   -13.5958 -13.5957 -13.5458 -13.5458 -13.5029 -13.5029 -13.3792 -13.3792
   -13.3556 -13.3556 -13.3322 -13.3322  -1.5486  -1.5486   1.8527   1.8527
     6.0091   6.0091   6.6281   6.6281   7.9723   7.9723  10.6939  10.6939
    10.9053  10.9053  13.3897  13.3898

     occupation numbers 
     1.0000   1.0000   1.0000   1.0000   1.0000   1.0000   1.0000   1.0000
     1.0000   1.0000   1.0000   1.0000   1.0000   1.0000   1.0000   1.0000
     1.0000   1.0000   1.0000   1.0000   1.0000   1.0000   1.0000   1.0000
     1.0000   1.0000   1.0000   1.0000   0.0000   0.0000   0.0000   0.0000
     0.0000   0.0000   0.0000   0.0000

          k =-0.1768-0.2652 0.2652 (  5317 PWs)   bands (ev):

   -14.5793 -14.5793 -14.5498 -14.5498 -14.5029 -14.5029 -14.4695 -14.4695
   -13.6095 -13.6095 -13.5328 -13.5328 -13.4981 -13.4981 -13.3834 -13.3834
   -13.3624 -13.3624 -13.3267 -13.3267  -1.8597  -1.8597   2.4798   2.4798
     6.1073   6.1073   6.7915   6.7915   8.0594   8.0594  10.6250  10.6250
    10.9095  10.9095  12.9292  12.9292

     occupation numbers 
     1.0000   1.0000   1.0000   1.0000   1.0000   1.0000   1.0000   1.0000
     1.0000   1.0000   1.0000   1.0000   1.0000   1.0000   1.0000   1.0000
     1.0000   1.0000   1.0000   1.0000   1.0000   1.0000   1.0000   1.0000
     1.0000   1.0000   1.0000   1.0000   0.0000   0.0000   0.0000   0.0000
     0.0000   0.0000   0.0000   0.0000

          k =-0.1326-0.2210 0.2210 (  5300 PWs)   bands (ev):

   -14.5777 -14.5777 -14.5563 -14.5563 -14.4965 -14.4965 -14.4720 -14.4719
   -13.6233 -13.6233 -13.5188 -13.5188 -13.4916 -13.4916 -13.3891 -13.3891
   -13.3714 -13.3713 -13.3205 -13.3205  -2.1648  -2.1648   3.2352   3.2352
     6.2669   6.2669   6.9969   6.9969   8.1785   8.1785  10.4691  10.4691
    10.8315  10.8315  12.2009  12.2009

     occupation numbers 
     1.0000   1.0000   1.0000   1.0000   1.0000   1.0000   1.0000   1.0000
     1.0000   1.0000   1.0000   1.0000   1.0000   1.0000   1.0000   1.0000
     1.0000   1.0000   1.0000   1.0000   1.0000   1.0000   1.0000   1.0000
     1.0000   1.0000   1.0000   1.0000   0.0000   0.0000   0.0000   0.0000
     0.0000   0.0000   0.0000   0.0000

          k =-0.0884-0.1768 0.1768 (  5292 PWs)   bands (ev):

   -14.5759 -14.5759 -14.5621 -14.5621 -14.4908 -14.4908 -14.4747 -14.4747
   -13.6359 -13.6359 -13.5043 -13.5043 -13.4840 -13.4840 -13.3957 -13.3957
   -13.3820 -13.3820 -13.3146 -13.3146  -2.4265  -2.4265   4.0632   4.0632
     6.4873   6.4873   7.2262   7.2262   8.3025   8.3025  10.2309  10.2309
    10.5842  10.5842  11.5195  11.5195

     occupation numbers 
     1.0000   1.0000   1.0000   1.0000   1.0000   1.0000   1.0000   1.0000
     1.0000   1.0000   1.0000   1.0000   1.0000   1.0000   1.0000   1.0000
     1.0000   1.0000   1.0000   1.0000   1.0000   1.0000   1.0000   1.0000
     1.0000   1.0000   1.0000   1.0000   0.0000   0.0000   0.0000   0.0000
     0.0000   0.0000   0.0000   0.0000

          k =-0.0442-0.1326 0.1326 (  5279 PWs)   bands (ev):

   -14.5742 -14.5741 -14.5666 -14.5666 -14.4862 -14.4862 -14.4774 -14.4773
   -13.6464 -13.6464 -13.4899 -13.4899 -13.4762 -13.4761 -13.4028 -13.4028
   -13.3935 -13.3935 -13.3096 -13.3096  -2.6280  -2.6280   4.9104   4.9104
     6.7645   6.7645   7.4475   7.4475   8.3657   8.3657   9.9565   9.9565
    10.2226  10.2226  10.9094  10.9095

     occupation numbers 
     1.0000   1.0000   1.0000   1.0000   1.0000   1.0000   1.0000   1.0000
     1.0000   1.0000   1.0000   1.0000   1.0000   1.0000   1.0000   1.0000
     1.0000   1.0000   1.0000   1.0000   1.0000   1.0000   1.0000   1.0000
     1.0000   1.0000   1.0000   1.0000   0.0000   0.0000   0.0000   0.0000
     0.0000   0.0000   0.0000   0.0000

          k = 0.0000-0.0884 0.0884 (  5261 PWs)   bands (ev):

   -14.5728 -14.5728 -14.5696 -14.5696 -14.4832 -14.4832 -14.4794 -14.4794
   -13.6537 -13.6537 -13.4768 -13.4768 -13.4695 -13.4695 -13.4090 -13.4090
   -13.4045 -13.4044 -13.3061 -13.3061  -2.7612  -2.7612   5.6865   5.6865
     7.0779   7.0779   7.6199   7.6199   8.2490   8.2490   9.7086   9.7086
     9.9846   9.9846  10.3559  10.3559

     occupation numbers 
     1.0000   1.0000   1.0000   1.0000   1.0000   1.0000   1.0000   1.0000
     1.0000   1.0000   1.0000   1.0000   1.0000   1.0000   1.0000   1.0000
     1.0000   1.0000   1.0000   1.0000   1.0000   1.0000   1.0000   1.0000
     1.0000   1.0000   0.0834   0.0833   0.0000   0.0000   0.0000   0.0000
     0.0000   0.0000   0.0000   0.0000

          k = 0.1768 0.0000 0.0000 (  5265 PWs)   bands (ev):

   -14.5724 -14.5724 -14.5690 -14.5690 -14.4843 -14.4843 -14.4789 -14.4789
   -13.6482 -13.6482 -13.4886 -13.4886 -13.4724 -13.4724 -13.4022 -13.4022
   -13.3990 -13.3990 -13.3083 -13.3083  -2.6630  -2.6630   5.2141   5.2141
     6.8028   6.8028   7.0519   7.0519   9.0346   9.0346   9.2080   9.2080
    10.6228  10.6228  10.7185  10.7185

     occupation numbers 
     1.0000   1.0000   1.0000   1.0000   1.0000   1.0000   1.0000   1.0000
     1.0000   1.0000   1.0000   1.0000   1.0000   1.0000   1.0000   1.0000
     1.0000   1.0000   1.0000   1.0000   1.0000   1.0000   1.0000   1.0000
     1.0000   1.0000   1.0000   1.0000   0.0000   0.0000   0.0000   0.0000
     0.0000   0.0000   0.0000   0.0000

          k = 0.2210 0.0442-0.0442 (  5286 PWs)   bands (ev):

   -14.5734 -14.5734 -14.5664 -14.5664 -14.4869 -14.4869 -14.4773 -14.4772
   -13.6411 -13.6411 -13.4994 -13.4994 -13.4775 -13.4775 -13.3980 -13.3980
   -13.3904 -13.3904 -13.3111 -13.3111  -2.5296  -2.5296   4.6220   4.6220
     6.5642   6.5642   6.7993   6.7993   9.1014   9.1014   9.3153   9.3153
    11.0124  11.0124  11.1469  11.1469

     occupation numbers 
     1.0000   1.0000   1.0000   1.0000   1.0000   1.0000   1.0000   1.0000
     1.0000   1.0000   1.0000   1.0000   1.0000   1.0000   1.0000   1.0000
     1.0000   1.0000   1.0000   1.0000   1.0000   1.0000   1.0000   1.0000
     1.0000   1.0000   1.0000   1.0000   0.0000   0.0000   0.0000   0.0000
     0.0000   0.0000   0.0000   0.0000

          k = 0.2652 0.0884-0.0884 (  5293 PWs)   bands (ev):

   -14.5752 -14.5752 -14.5619 -14.5619 -14.4913 -14.4913 -14.4746 -14.4746
   -13.6309 -13.6309 -13.5118 -13.5118 -13.4839 -13.4839 -13.3953 -13.3953
   -13.3789 -13.3789 -13.3149 -13.3149  -2.3280  -2.3280   3.8860   3.8860
     6.3002   6.3002   6.5671   6.5671   9.0306   9.0307   9.5959   9.5959
    11.3156  11.3156  11.5726  11.5726

     occupation numbers 
     1.0000   1.0000   1.0000   1.0000   1.0000   1.0000   1.0000   1.0000
     1.0000   1.0000   1.0000   1.0000   1.0000   1.0000   1.0000   1.0000
     1.0000   1.0000   1.0000   1.0000   1.0000   1.0000   1.0000   1.0000
     1.0000   1.0000   1.0000   1.0000   0.0000   0.0000   0.0000   0.0000
     0.0000   0.0000   0.0000   0.0000

          k = 0.3094 0.1326-0.1326 (  5302 PWs)   bands (ev):

   -14.5771 -14.5771 -14.5563 -14.5563 -14.4969 -14.4969 -14.4717 -14.4717
   -13.6188 -13.6188 -13.5243 -13.5243 -13.4904 -13.4904 -13.3933 -13.3933
   -13.3682 -13.3682 -13.3189 -13.3189  -2.0661  -2.0661   3.1265   3.1265
     6.0356   6.0356   6.3792   6.3792   8.8916   8.8916   9.9690   9.9690
    11.4821  11.4821  11.8625  11.8625

     occupation numbers 
     1.0000   1.0000   1.0000   1.0000   1.0000   1.0000   1.0000   1.0000
     1.0000   1.0000   1.0000   1.0000   1.0000   1.0000   1.0000   1.0000
     1.0000   1.0000   1.0000   1.0000   1.0000   1.0000   1.0000   1.0000
     1.0000   1.0000   1.0000   1.0000   0.0000   0.0000   0.0000   0.0000
     0.0000   0.0000   0.0000   0.0000

          k = 0.3536 0.1768-0.1768 (  5310 PWs)   bands (ev):

   -14.5788 -14.5788 -14.5500 -14.5500 -14.5033 -14.5032 -14.4690 -14.4690
   -13.6058 -13.6058 -13.5360 -13.5360 -13.4964 -13.4963 -13.3922 -13.3922
   -13.3597 -13.3597 -13.3222 -13.3222  -1.7604  -1.7604   2.4137   2.4137
     5.7939   5.7939   6.2581   6.2581   8.7465   8.7465  10.2813  10.2813
    11.5063  11.5063  12.2169  12.2169

     occupation numbers 
     1.0000   1.0000   1.0000   1.0000   1.0000   1.0000   1.0000   1.0000
     1.0000   1.0000   1.0000   1.0000   1.0000   1.0000   1.0000   1.0000
     1.0000   1.0000   1.0000   1.0000   1.0000   1.0000   1.0000   1.0000
     1.0000   1.0000   1.0000   1.0000   0.0000   0.0000   0.0000   0.0000
     0.0000   0.0000   0.0000   0.0000

          k = 0.3977 0.2210-0.2210 (  5322 PWs)   bands (ev):

   -14.5801 -14.5801 -14.5436 -14.5436 -14.5097 -14.5097 -14.4668 -14.4668
   -13.5935 -13.5935 -13.5463 -13.5463 -13.5010 -13.5010 -13.3919 -13.3919
   -13.3542 -13.3542 -13.3241 -13.3241  -1.4481  -1.4481   1.8116   1.8116
     5.5950   5.5950   6.2072   6.2072   8.6288   8.6288  10.4641  10.4641
    11.4367  11.4367  12.7528  12.7528

     occupation numbers 
     1.0000   1.0000   1.0000   1.0000   1.0000   1.0000   1.0000   1.0000
     1.0000   1.0000   1.0000   1.0000   1.0000   1.0000   1.0000   1.0000
     1.0000   1.0000   1.0000   1.0000   1.0000   1.0000   1.0000   1.0000
     1.0000   1.0000   1.0000   1.0000   0.0000   0.0000   0.0000   0.0000
     0.0000   0.0000   0.0000   0.0000

          k =-0.2652-0.4419 0.4419 (  5312 PWs)   bands (ev):

   -14.5809 -14.5809 -14.5383 -14.5382 -14.5152 -14.5150 -14.4655 -14.4655
   -13.5840 -13.5839 -13.5543 -13.5542 -13.5037 -13.5037 -13.3923 -13.3923
   -13.3514 -13.3514 -13.3246 -13.3246  -1.2106  -1.2106   1.4155   1.4155
     5.4516   5.4516   6.2249   6.2249   8.5526   8.5526  10.5719  10.5719
    11.3268  11.3268  13.3326  13.3326

     occupation numbers 
     1.0000   1.0000   1.0000   1.0000   1.0000   1.0000   1.0000   1.0000
     1.0000   1.0000   1.0000   1.0000   1.0000   1.0000   1.0000   1.0000
     1.0000   1.0000   1.0000   1.0000   1.0000   1.0000   1.0000   1.0000
     1.0000   1.0000   1.0000   1.0000   0.0000   0.0000   0.0000   0.0000
     0.0000   0.0000   0.0000   0.0000

          k =-0.2210-0.3977 0.3977 (  5311 PWs)   bands (ev):

   -14.5811 -14.5811 -14.5368 -14.5367 -14.5167 -14.5166 -14.4651 -14.4651
   -13.5824 -13.5824 -13.5557 -13.5557 -13.5038 -13.5038 -13.3931 -13.3931
   -13.3504 -13.3504 -13.3248 -13.3248  -1.1718  -1.1718   1.3552   1.3552
     5.3721   5.3721   6.3074   6.3074   8.5224   8.5225  10.6665  10.6665
    11.2073  11.2073  13.6403  13.6403

     occupation numbers 
     1.0000   1.0000   1.0000   1.0000   1.0000   1.0000   1.0000   1.0000
     1.0000   1.0000   1.0000   1.0000   1.0000   1.0000   1.0000   1.0000
     1.0000   1.0000   1.0000   1.0000   1.0000   1.0000   1.0000   1.0000
     1.0000   1.0000   1.0000   1.0000   0.0000   0.0000   0.0000   0.0000
     0.0000   0.0000   0.0000   0.0000

          k =-0.1768-0.3536 0.3536 (  5302 PWs)   bands (ev):

   -14.5808 -14.5808 -14.5406 -14.5405 -14.5130 -14.5129 -14.4658 -14.4658
   -13.5902 -13.5902 -13.5492 -13.5492 -13.5013 -13.5013 -13.3941 -13.3941
   -13.3510 -13.3510 -13.3248 -13.3248  -1.3592  -1.3592   1.6586   1.6586
     5.3631   5.3631   6.4492   6.4492   8.5374   8.5374  10.7655  10.7655
    11.0857  11.0857  13.4316  13.4316

     occupation numbers 
     1.0000   1.0000   1.0000   1.0000   1.0000   1.0000   1.0000   1.0000
     1.0000   1.0000   1.0000   1.0000   1.0000   1.0000   1.0000   1.0000
     1.0000   1.0000   1.0000   1.0000   1.0000   1.0000   1.0000   1.0000
     1.0000   1.0000   1.0000   1.0000   0.0000   0.0000   0.0000   0.0000
     0.0000   0.0000   0.0000   0.0000

          k =-0.1326-0.3094 0.3094 (  5317 PWs)   bands (ev):

   -14.5799 -14.5799 -14.5466 -14.5465 -14.5070 -14.5069 -14.4673 -14.4673
   -13.6020 -13.6020 -13.5396 -13.5396 -13.4969 -13.4969 -13.3954 -13.3954
   -13.3542 -13.3542 -13.3238 -13.3238  -1.6593  -1.6593   2.2061   2.2061
     5.4322   5.4322   6.6412   6.6412   8.5902   8.5902  10.8113  10.8113
    10.9786  10.9786  12.7856  12.7856

     occupation numbers 
     1.0000   1.0000   1.0000   1.0000   1.0000   1.0000   1.0000   1.0000
     1.0000   1.0000   1.0000   1.0000   1.0000   1.0000   1.0000   1.0000
     1.0000   1.0000   1.0000   1.0000   1.0000   1.0000   1.0000   1.0000
     1.0000   1.0000   1.0000   1.0000   0.0000   0.0000   0.0000   0.0000
     0.0000   0.0000   0.0000   0.0000

          k =-0.0884-0.2652 0.2652 (  5307 PWs)   bands (ev):

   -14.5786 -14.5786 -14.5529 -14.5529 -14.5006 -14.5006 -14.4697 -14.4697
   -13.6149 -13.6149 -13.5284 -13.5284 -13.4912 -13.4912 -13.3970 -13.3970
   -13.3609 -13.3608 -13.3211 -13.3211  -1.9724  -1.9724   2.8829   2.8829
     5.5894   5.5894   6.8688   6.8688   8.6627   8.6627  10.6578  10.6578
    10.9132  10.9132  12.1510  12.1510

     occupation numbers 
     1.0000   1.0000   1.0000   1.0000   1.0000   1.0000   1.0000   1.0000
     1.0000   1.0000   1.0000   1.0000   1.0000   1.0000   1.0000   1.0000
     1.0000   1.0000   1.0000   1.0000   1.0000   1.0000   1.0000   1.0000
     1.0000   1.0000   1.0000   1.0000   0.0000   0.0000   0.0000   0.0000
     0.0000   0.0000   0.0000   0.0000

          k =-0.0442-0.2210 0.2210 (  5294 PWs)   bands (ev):

   -14.5770 -14.5769 -14.5587 -14.5586 -14.4947 -14.4947 -14.4724 -14.4724
   -13.6274 -13.6274 -13.5159 -13.5158 -13.4853 -13.4853 -13.3990 -13.3990
   -13.3705 -13.3705 -13.3172 -13.3172  -2.2505  -2.2505   3.6110   3.6110
     5.8520   5.8520   7.1072   7.1072   8.7109   8.7109  10.3997  10.3997
    10.6598  10.6598  11.7568  11.7568

     occupation numbers 
     1.0000   1.0000   1.0000   1.0000   1.0000   1.0000   1.0000   1.0000
     1.0000   1.0000   1.0000   1.0000   1.0000   1.0000   1.0000   1.0000
     1.0000   1.0000   1.0000   1.0000   1.0000   1.0000   1.0000   1.0000
     1.0000   1.0000   1.0000   1.0000   0.0000   0.0000   0.0000   0.0000
     0.0000   0.0000   0.0000   0.0000

          k = 0.0000-0.1768 0.1768 (  5284 PWs)   bands (ev):

   -14.5754 -14.5753 -14.5634 -14.5634 -14.4898 -14.4898 -14.4752 -14.4752
   -13.6383 -13.6383 -13.5026 -13.5026 -13.4800 -13.4800 -13.4011 -13.4010
   -13.3820 -13.3820 -13.3131 -13.3131  -2.4724  -2.4724   4.3149   4.3149
     6.2451   6.2451   7.3153   7.3153   8.6405   8.6405  10.1342  10.1342
    10.3383  10.3383  11.4259  11.4259

     occupation numbers 
     1.0000   1.0000   1.0000   1.0000   1.0000   1.0000   1.0000   1.0000
     1.0000   1.0000   1.0000   1.0000   1.0000   1.0000   1.0000   1.0000
     1.0000   1.0000   1.0000   1.0000   1.0000   1.0000   1.0000   1.0000
     1.0000   1.0000   1.0000   1.0000   0.0000   0.0000   0.0000   0.0000
     0.0000   0.0000   0.0000   0.0000

          k = 0.2652 0.0000 0.0000 (  5297 PWs)   bands (ev):

   -14.5727 -14.5727 -14.5661 -14.5661 -14.4876 -14.4876 -14.4771 -14.4771
   -13.6353 -13.6353 -13.5074 -13.5074 -13.4801 -13.4801 -13.3923 -13.3923
   -13.3890 -13.3890 -13.3124 -13.3124  -2.4192  -2.4192   4.2992   4.2992
     6.3555   6.3555   6.5240   6.5240   8.8623   8.8623   9.5888   9.5888
    11.4451  11.4451  11.4666  11.4666

     occupation numbers 
     1.0000   1.0000   1.0000   1.0000   1.0000   1.0000   1.0000   1.0000
     1.0000   1.0000   1.0000   1.0000   1.0000   1.0000   1.0000   1.0000
     1.0000   1.0000   1.0000   1.0000   1.0000   1.0000   1.0000   1.0000
     1.0000   1.0000   1.0000   1.0000   0.0000   0.0000   0.0000   0.0000
     0.0000   0.0000   0.0000   0.0000

          k = 0.3094 0.0442-0.0442 (  5304 PWs)   bands (ev):

   -14.5736 -14.5736 -14.5631 -14.5631 -14.4905 -14.4905 -14.4755 -14.4755
   -13.6265 -13.6265 -13.5174 -13.5174 -13.4845 -13.4844 -13.3936 -13.3936
   -13.3787 -13.3787 -13.3144 -13.3144  -2.2393  -2.2393   3.7568   3.7568
     6.1064   6.1064   6.2868   6.2868   8.8487   8.8487   9.6657   9.6657
    11.7633  11.7633  11.8321  11.8321

     occupation numbers 
     1.0000   1.0000   1.0000   1.0000   1.0000   1.0000   1.0000   1.0000
     1.0000   1.0000   1.0000   1.0000   1.0000   1.0000   1.0000   1.0000
     1.0000   1.0000   1.0000   1.0000   1.0000   1.0000   1.0000   1.0000
     1.0000   1.0000   1.0000   1.0000   0.0000   0.0000   0.0000   0.0000
     0.0000   0.0000   0.0000   0.0000

          k = 0.3536 0.0884-0.0884 (  5313 PWs)   bands (ev):

   -14.5754 -14.5754 -14.5584 -14.5584 -14.4952 -14.4952 -14.4728 -14.4728
   -13.6156 -13.6156 -13.5278 -13.5278 -13.4891 -13.4891 -13.3967 -13.3967
   -13.3678 -13.3678 -13.3164 -13.3164  -1.9958  -1.9958   3.1182   3.1182
     5.7982   5.7982   6.0984   6.0984   8.9717   8.9717   9.7781   9.7781
    11.7877  11.7877  12.0643  12.0643

     occupation numbers 
     1.0000   1.0000   1.0000   1.0000   1.0000   1.0000   1.0000   1.0000
     1.0000   1.0000   1.0000   1.0000   1.0000   1.0000   1.0000   1.0000
     1.0000   1.0000   1.0000   1.0000   1.0000   1.0000   1.0000   1.0000
     1.0000   1.0000   1.0000   1.0000   0.0000   0.0000   0.0000   0.0000
     0.0000   0.0000   0.0000   0.0000

          k = 0.3977 0.1326-0.1326 (  5303 PWs)   bands (ev):

   -14.5773 -14.5773 -14.5528 -14.5527 -14.5010 -14.5009 -14.4698 -14.4698
   -13.6039 -13.6039 -13.5373 -13.5373 -13.4935 -13.4935 -13.4006 -13.4006
   -13.3592 -13.3592 -13.3173 -13.3173  -1.7013  -1.7013   2.4688   2.4688
     5.4792   5.4792   5.9827   5.9827   8.9799   8.9799  10.1360  10.1360
    11.7641  11.7641  12.1345  12.1345

     occupation numbers 
     1.0000   1.0000   1.0000   1.0000   1.0000   1.0000   1.0000   1.0000
     1.0000   1.0000   1.0000   1.0000   1.0000   1.0000   1.0000   1.0000
     1.0000   1.0000   1.0000   1.0000   1.0000   1.0000   1.0000   1.0000
     1.0000   1.0000   1.0000   1.0000   0.0000   0.0000   0.0000   0.0000
     0.0000   0.0000   0.0000   0.0000

          k = 0.4419 0.1768-0.1768 (  5304 PWs)   bands (ev):

   -14.5789 -14.5789 -14.5469 -14.5468 -14.5071 -14.5070 -14.4671 -14.4671
   -13.5933 -13.5933 -13.5447 -13.5447 -13.4974 -13.4974 -13.4047 -13.4046
   -13.3538 -13.3538 -13.3167 -13.3167  -1.3831  -1.3831   1.8772   1.8772
     5.1998   5.1998   5.9388   5.9388   8.9199   8.9199  10.5438  10.5438
    11.9112  11.9112  12.1032  12.1032

     occupation numbers 
     1.0000   1.0000   1.0000   1.0000   1.0000   1.0000   1.0000   1.0000
     1.0000   1.0000   1.0000   1.0000   1.0000   1.0000   1.0000   1.0000
     1.0000   1.0000   1.0000   1.0000   1.0000   1.0000   1.0000   1.0000
     1.0000   1.0000   1.0000   1.0000   0.0000   0.0000   0.0000   0.0000
     0.0000   0.0000   0.0000   0.0000

          k =-0.2210-0.4861 0.4861 (  5309 PWs)   bands (ev):

   -14.5801 -14.5801 -14.5415 -14.5414 -14.5128 -14.5126 -14.4650 -14.4650
   -13.5857 -13.5857 -13.5493 -13.5493 -13.5001 -13.5001 -13.4082 -13.4082
   -13.3513 -13.3512 -13.3153 -13.3153  -1.1051  -1.1051   1.4301   1.4301
     4.9842   4.9842   5.9649   5.9649   8.8727   8.8727  10.7767  10.7767
    11.9043  11.9043  12.4964  12.4964

     occupation numbers 
     1.0000   1.0000   1.0000   1.0000   1.0000   1.0000   1.0000   1.0000
     1.0000   1.0000   1.0000   1.0000   1.0000   1.0000   1.0000   1.0000
     1.0000   1.0000   1.0000   1.0000   1.0000   1.0000   1.0000   1.0000
     1.0000   1.0000   1.0000   1.0000   0.0000   0.0000   0.0000   0.0000
     0.0000   0.0000   0.0000   0.0000

          k =-0.1768-0.4419 0.4419 (  5315 PWs)   bands (ev):

   -14.5808 -14.5808 -14.5381 -14.5380 -14.5164 -14.5162 -14.4639 -14.4639
   -13.5833 -13.5832 -13.5506 -13.5506 -13.5006 -13.5005 -13.4104 -13.4104
   -13.3501 -13.3501 -13.3146 -13.3146  -0.9900  -0.9900   1.2612   1.2612
     4.8456   4.8456   6.0581   6.0581   8.8622   8.8622  10.8887  10.8887
    11.7463  11.7463  13.1870  13.1870

     occupation numbers 
     1.0000   1.0000   1.0000   1.0000   1.0000   1.0000   1.0000   1.0000
     1.0000   1.0000   1.0000   1.0000   1.0000   1.0000   1.0000   1.0000
     1.0000   1.0000   1.0000   1.0000   1.0000   1.0000   1.0000   1.0000
     1.0000   1.0000   1.0000   1.0000   0.0000   0.0000   0.0000   0.0000
     0.0000   0.0000   0.0000   0.0000

          k =-0.1326-0.3977 0.3977 (  5309 PWs)   bands (ev):

   -14.5809 -14.5809 -14.5389 -14.5388 -14.5157 -14.5156 -14.4639 -14.4639
   -13.5866 -13.5866 -13.5489 -13.5489 -13.4984 -13.4984 -13.4109 -13.4109
   -13.3497 -13.3497 -13.3154 -13.3154  -1.1198  -1.1198   1.4539   1.4539
     4.7949   4.7949   6.2124   6.2124   8.8892   8.8892  10.9859  10.9859
    11.5609  11.5609  13.3522  13.3522

     occupation numbers 
     1.0000   1.0000   1.0000   1.0000   1.0000   1.0000   1.0000   1.0000
     1.0000   1.0000   1.0000   1.0000   1.0000   1.0000   1.0000   1.0000
     1.0000   1.0000   1.0000   1.0000   1.0000   1.0000   1.0000   1.0000
     1.0000   1.0000   1.0000   1.0000   0.0000   0.0000   0.0000   0.0000
     0.0000   0.0000   0.0000   0.0000

          k =-0.0884-0.3536 0.3536 (  5310 PWs)   bands (ev):

   -14.5804 -14.5804 -14.5432 -14.5431 -14.5114 -14.5113 -14.4650 -14.4649
   -13.5946 -13.5946 -13.5443 -13.5443 -13.4947 -13.4947 -13.4095 -13.4095
   -13.3504 -13.3504 -13.3174 -13.3174  -1.4026  -1.4026   1.9073   1.9073
     4.8459   4.8459   6.4178   6.4178   8.9402   8.9402  11.0927  11.0927
    11.3387  11.3387  12.6467  12.6467

     occupation numbers 
     1.0000   1.0000   1.0000   1.0000   1.0000   1.0000   1.0000   1.0000
     1.0000   1.0000   1.0000   1.0000   1.0000   1.0000   1.0000   1.0000
     1.0000   1.0000   1.0000   1.0000   1.0000   1.0000   1.0000   1.0000
     1.0000   1.0000   1.0000   1.0000   0.0000   0.0000   0.0000   0.0000
     0.0000   0.0000   0.0000   0.0000

          k =-0.0442-0.3094 0.3094 (  5310 PWs)   bands (ev):

   -14.5795 -14.5795 -14.5487 -14.5486 -14.5057 -14.5056 -14.4670 -14.4670
   -13.6053 -13.6053 -13.5369 -13.5369 -13.4907 -13.4907 -13.4066 -13.4066
   -13.3535 -13.3535 -13.3191 -13.3191  -1.7196  -1.7196   2.4797   2.4797
     5.0202   5.0202   6.6573   6.6573   8.9814   8.9814  11.0272  11.0272
    11.1719  11.1719  11.9814  11.9814

     occupation numbers 
     1.0000   1.0000   1.0000   1.0000   1.0000   1.0000   1.0000   1.0000
     1.0000   1.0000   1.0000   1.0000   1.0000   1.0000   1.0000   1.0000
     1.0000   1.0000   1.0000   1.0000   1.0000   1.0000   1.0000   1.0000
     1.0000   1.0000   1.0000   1.0000   0.0000   0.0000   0.0000   0.0000
     0.0000   0.0000   0.0000   0.0000

          k = 0.0000-0.2652 0.2652 (  5314 PWs)   bands (ev):

   -14.5783 -14.5782 -14.5540 -14.5540 -14.4999 -14.4998 -14.4697 -14.4696
   -13.6167 -13.6167 -13.5272 -13.5272 -13.4875 -13.4875 -13.4028 -13.4028
   -13.3604 -13.3604 -13.3190 -13.3190  -2.0109  -2.0109   3.0714   3.0714
     5.3480   5.3480   6.9023   6.9023   8.9398   8.9398  10.7068  10.7068
    10.9243  10.9243  11.7658  11.7658

     occupation numbers 
     1.0000   1.0000   1.0000   1.0000   1.0000   1.0000   1.0000   1.0000
     1.0000   1.0000   1.0000   1.0000   1.0000   1.0000   1.0000   1.0000
     1.0000   1.0000   1.0000   1.0000   1.0000   1.0000   1.0000   1.0000
     1.0000   1.0000   1.0000   1.0000   0.0000   0.0000   0.0000   0.0000
     0.0000   0.0000   0.0000   0.0000

          k = 0.3536 0.0000 0.0000 (  5321 PWs)   bands (ev):

   -14.5725 -14.5725 -14.5630 -14.5630 -14.4907 -14.4907 -14.4759 -14.4759
   -13.6190 -13.6190 -13.5249 -13.5249 -13.4871 -13.4871 -13.3938 -13.3938
   -13.3741 -13.3741 -13.3148 -13.3148  -2.0806  -2.0806   3.3969   3.3969
     5.9434   5.9434   6.0604   6.0604   8.5678   8.5678   9.6811   9.6811
    12.2677  12.2677  12.3220  12.3220

     occupation numbers 
     1.0000   1.0000   1.0000   1.0000   1.0000   1.0000   1.0000   1.0000
     1.0000   1.0000   1.0000   1.0000   1.0000   1.0000   1.0000   1.0000
     1.0000   1.0000   1.0000   1.0000   1.0000   1.0000   1.0000   1.0000
     1.0000   1.0000   1.0000   1.0000   0.0000   0.0000   0.0000   0.0000
     0.0000   0.0000   0.0000   0.0000

          k = 0.3977 0.0442-0.0442 (  5315 PWs)   bands (ev):

   -14.5732 -14.5732 -14.5603 -14.5603 -14.4933 -14.4933 -14.4746 -14.4746
   -13.6095 -13.6095 -13.5333 -13.5333 -13.4900 -13.4900 -13.3990 -13.3990
   -13.3652 -13.3652 -13.3153 -13.3153  -1.8563  -1.8563   2.8992   2.8992
     5.7039   5.7039   5.8620   5.8620   8.5941   8.5941   9.6137   9.6137
    12.4054  12.4054  12.6560  12.6560

     occupation numbers 
     1.0000   1.0000   1.0000   1.0000   1.0000   1.0000   1.0000   1.0000
     1.0000   1.0000   1.0000   1.0000   1.0000   1.0000   1.0000   1.0000
     1.0000   1.0000   1.0000   1.0000   1.0000   1.0000   1.0000   1.0000
     1.0000   1.0000   1.0000   1.0000   0.0000   0.0000   0.0000   0.0000
     0.0000   0.0000   0.0000   0.0000

          k = 0.4419 0.0884-0.0884 (  5305 PWs)   bands (ev):

   -14.5749 -14.5749 -14.5558 -14.5558 -14.4978 -14.4978 -14.4719 -14.4719
   -13.5994 -13.5994 -13.5408 -13.5407 -13.4923 -13.4923 -13.4066 -13.4065
   -13.3570 -13.3570 -13.3149 -13.3149  -1.5755  -1.5755   2.3498   2.3498
     5.3626   5.3626   5.7360   5.7360   8.7556   8.7556   9.7366   9.7366
    12.2573  12.2573  12.8135  12.8135

     occupation numbers 
     1.0000   1.0000   1.0000   1.0000   1.0000   1.0000   1.0000   1.0000
     1.0000   1.0000   1.0000   1.0000   1.0000   1.0000   1.0000   1.0000
     1.0000   1.0000   1.0000   1.0000   1.0000   1.0000   1.0000   1.0000
     1.0000   1.0000   1.0000   1.0000   0.0000   0.0000   0.0000   0.0000
     0.0000   0.0000   0.0000   0.0000

          k = 0.4861 0.1326-0.1326 (  5299 PWs)   bands (ev):

   -14.5768 -14.5768 -14.5508 -14.5508 -14.5032 -14.5032 -14.4687 -14.4687
   -13.5907 -13.5907 -13.5456 -13.5456 -13.4941 -13.4941 -13.4147 -13.4147
   -13.3519 -13.3519 -13.3128 -13.3128  -1.2582  -1.2582   1.8127   1.8127
     5.0105   5.0105   5.6866   5.6866   8.8176   8.8176  10.2060  10.2060
    12.1127  12.1127  12.7895  12.7895

     occupation numbers 
     1.0000   1.0000   1.0000   1.0000   1.0000   1.0000   1.0000   1.0000
     1.0000   1.0000   1.0000   1.0000   1.0000   1.0000   1.0000   1.0000
     1.0000   1.0000   1.0000   1.0000   1.0000   1.0000   1.0000   1.0000
     1.0000   1.0000   1.0000   1.0000   0.0000   0.0000   0.0000   0.0000
     0.0000   0.0000   0.0000   0.0000

          k =-0.1768-0.5303 0.5303 (  5314 PWs)   bands (ev):

   -14.5785 -14.5785 -14.5459 -14.5458 -14.5087 -14.5086 -14.4659 -14.4659
   -13.5855 -13.5855 -13.5467 -13.5467 -13.4955 -13.4955 -13.4218 -13.4218
   -13.3499 -13.3499 -13.3098 -13.3098  -0.9524  -0.9524   1.3601   1.3601
[...]

     occupation numbers 
     1.0000   1.0000   1.0000   1.0000   1.0000   1.0000   1.0000   1.0000
     1.0000   1.0000   1.0000   1.0000   1.0000   1.0000   1.0000   1.0000
     1.0000   1.0000   1.0000   1.0000   1.0000   1.0000   1.0000   1.0000
     1.0000   1.0000   1.0000   1.0000   0.0000   0.0000   0.0000   0.0000
     0.0000   0.0000   0.0000   0.0000

          k =-0.1326-0.3977 0.5745 (  5307 PWs)   bands (ev):

   -14.5797 -14.5796 -14.5423 -14.5422 -14.5133 -14.5131 -14.4632 -14.4632
   -13.5850 -13.5850 -13.5427 -13.5427 -13.4938 -13.4937 -13.4326 -13.4326
   -13.3501 -13.3501 -13.3045 -13.3045  -0.6757  -0.6757   1.0467   1.0467
     4.4612   4.4612   5.4986   5.4986   9.5755   9.5755  10.8092  10.8092
    12.1149  12.1150  12.9068  12.9068

     occupation numbers 
     1.0000   1.0000   1.0000   1.0000   1.0000   1.0000   1.0000   1.0000
     1.0000   1.0000   1.0000   1.0000   1.0000   1.0000   1.0000   1.0000
     1.0000   1.0000   1.0000   1.0000   1.0000   1.0000   1.0000   1.0000
     1.0000   1.0000   1.0000   1.0000   0.0000   0.0000   0.0000   0.0000
     0.0000   0.0000   0.0000   0.0000

          k =-0.0884-0.3536 0.5303 (  5303 PWs)   bands (ev):

   -14.5799 -14.5799 -14.5417 -14.5415 -14.5140 -14.5138 -14.4630 -14.4629
   -13.5856 -13.5856 -13.5429 -13.5428 -13.4933 -13.4932 -13.4322 -13.4322
   -13.3502 -13.3502 -13.3048 -13.3048  -0.7343  -0.7343   1.1212   1.1212
     4.4250   4.4250   5.5725   5.5725   9.6379   9.6379  10.7792  10.7792
    12.1931  12.1931  12.8747  12.8747

     occupation numbers 
     1.0000   1.0000   1.0000   1.0000   1.0000   1.0000   1.0000   1.0000
     1.0000   1.0000   1.0000   1.0000   1.0000   1.0000   1.0000   1.0000
     1.0000   1.0000   1.0000   1.0000   1.0000   1.0000   1.0000   1.0000
     1.0000   1.0000   1.0000   1.0000   0.0000   0.0000   0.0000   0.0000
     0.0000   0.0000   0.0000   0.0000

          k =-0.0442-0.3094 0.4861 (  5295 PWs)   bands (ev):

   -14.5797 -14.5797 -14.5433 -14.5432 -14.5121 -14.5120 -14.4638 -14.4637
   -13.5880 -13.5880 -13.5442 -13.5442 -13.4924 -13.4923 -13.4268 -13.4268
   -13.3504 -13.3504 -13.3076 -13.3076  -0.9968  -0.9968   1.4640   1.4640
     4.4982   4.4982   5.7258   5.7258   9.7071   9.7071  10.6785  10.6785
    11.5575  11.5575  13.1118  13.1118

     occupation numbers 
     1.0000   1.0000   1.0000   1.0000   1.0000   1.0000   1.0000   1.0000
     1.0000   1.0000   1.0000   1.0000   1.0000   1.0000   1.0000   1.0000
     1.0000   1.0000   1.0000   1.0000   1.0000   1.0000   1.0000   1.0000
     1.0000   1.0000   1.0000   1.0000   0.0000   0.0000   0.0000   0.0000
     0.0000   0.0000   0.0000   0.0000

          k = 0.0000-0.2652 0.4419 (  5290 PWs)   bands (ev):

   -14.5792 -14.5791 -14.5465 -14.5464 -14.5085 -14.5084 -14.4655 -14.4655
   -13.5934 -13.5934 -13.5435 -13.5435 -13.4919 -13.4919 -13.4179 -13.4179
   -13.3517 -13.3517 -13.3119 -13.3119  -1.3160  -1.3160   1.9092   1.9092
     4.7040   4.7041   5.9313   5.9313   9.7198   9.7198  10.3368  10.3368
    11.3364  11.3364  12.8667  12.8667

     occupation numbers 
     1.0000   1.0000   1.0000   1.0000   1.0000   1.0000   1.0000   1.0000
     1.0000   1.0000   1.0000   1.0000   1.0000   1.0000   1.0000   1.0000
     1.0000   1.0000   1.0000   1.0000   1.0000   1.0000   1.0000   1.0000
     1.0000   1.0000   1.0000   1.0000   0.0000   0.0000   0.0000   0.0000
     0.0000   0.0000   0.0000   0.0000

          k =-0.1768-0.5303 0.7071 (  5304 PWs)   bands (ev):

   -14.5759 -14.5758 -14.5518 -14.5517 -14.5026 -14.5025 -14.4689 -14.4689
   -13.5865 -13.5865 -13.5469 -13.5468 -13.4909 -13.4908 -13.4264 -13.4264
   -13.3488 -13.3488 -13.3095 -13.3095  -1.0086  -1.0086   1.5156   1.5156
     4.8814   4.8815   5.3670   5.3670   9.2203   9.2204   9.6727   9.6727
    12.1267  12.1267  13.8779  13.8779

     occupation numbers 
     1.0000   1.0000   1.0000   1.0000   1.0000   1.0000   1.0000   1.0000
     1.0000   1.0000   1.0000   1.0000   1.0000   1.0000   1.0000   1.0000
     1.0000   1.0000   1.0000   1.0000   1.0000   1.0000   1.0000   1.0000
     1.0000   1.0000   1.0000   1.0000   0.0000   0.0000   0.0000   0.0000
     0.0000   0.0000   0.0000   0.0000

          k =-0.1326-0.4861 0.6629 (  5306 PWs)   bands (ev):

   -14.5770 -14.5770 -14.5489 -14.5488 -14.5062 -14.5060 -14.4664 -14.4664
   -13.5846 -13.5846 -13.5443 -13.5443 -13.4889 -13.4888 -13.4373 -13.4373
   -13.3482 -13.3482 -13.3051 -13.3051  -0.6837  -0.6837   1.1082   1.1082
     4.6367   4.6367   5.2350   5.2350   9.4180   9.4180  10.1529  10.1529
    11.9334  11.9334  13.8283  13.8283

     occupation numbers 
     1.0000   1.0000   1.0000   1.0000   1.0000   1.0000   1.0000   1.0000
     1.0000   1.0000   1.0000   1.0000   1.0000   1.0000   1.0000   1.0000
     1.0000   1.0000   1.0000   1.0000   1.0000   1.0000   1.0000   1.0000
     1.0000   1.0000   1.0000   1.0000   0.0000   0.0000   0.0000   0.0000
     0.0000   0.0000   0.0000   0.0000

          k =-0.0884-0.4419 0.6187 (  5312 PWs)   bands (ev):

   -14.5782 -14.5782 -14.5462 -14.5460 -14.5095 -14.5094 -14.4643 -14.4643
   -13.5850 -13.5849 -13.5405 -13.5404 -13.4873 -13.4873 -13.4449 -13.4448
   -13.3489 -13.3489 -13.3017 -13.3017  -0.4272  -0.4272   0.8135   0.8135
     4.4262   4.4262   5.2231   5.2231   9.4931   9.4931  10.9172  10.9172
    11.8080  11.8080  13.1978  13.1978

     occupation numbers 
     1.0000   1.0000   1.0000   1.0000   1.0000   1.0000   1.0000   1.0000
     1.0000   1.0000   1.0000   1.0000   1.0000   1.0000   1.0000   1.0000
     1.0000   1.0000   1.0000   1.0000   1.0000   1.0000   1.0000   1.0000
     1.0000   1.0000   1.0000   1.0000   0.0000   0.0000   0.0000   0.0000
     0.0000   0.0000   0.0000   0.0000

          k =-0.0442-0.3977 0.5745 (  5309 PWs)   bands (ev):

   -14.5791 -14.5791 -14.5440 -14.5438 -14.5121 -14.5119 -14.4630 -14.4630
   -13.5857 -13.5856 -13.5390 -13.5390 -13.4876 -13.4875 -13.4456 -13.4456
   -13.3496 -13.3496 -13.3008 -13.3008  -0.4275  -0.4275   0.8169   0.8169
     4.3062   4.3062   5.3174   5.3174   9.5895   9.5895  11.3906  11.3906
    12.0599  12.0600  12.4060  12.4060

     occupation numbers 
     1.0000   1.0000   1.0000   1.0000   1.0000   1.0000   1.0000   1.0000
     1.0000   1.0000   1.0000   1.0000   1.0000   1.0000   1.0000   1.0000
     1.0000   1.0000   1.0000   1.0000   1.0000   1.0000   1.0000   1.0000
     1.0000   1.0000   1.0000   1.0000   0.0000   0.0000   0.0000   0.0000
     0.0000   0.0000   0.0000   0.0000

          k = 0.0000-0.3536 0.5303 (  5298 PWs)   bands (ev):

   -14.5796 -14.5796 -14.5428 -14.5427 -14.5131 -14.5129 -14.4628 -14.4628
   -13.5863 -13.5863 -13.5411 -13.5411 -13.4897 -13.4896 -13.4387 -13.4387
   -13.3500 -13.3500 -13.3029 -13.3029  -0.6791  -0.6791   1.1012   1.1012
     4.3205   4.3205   5.4944   5.4944   9.6946   9.6946  11.2282  11.2282
    11.6509  11.6509  12.9498  12.9498

     occupation numbers 
     1.0000   1.0000   1.0000   1.0000   1.0000   1.0000   1.0000   1.0000
     1.0000   1.0000   1.0000   1.0000   1.0000   1.0000   1.0000   1.0000
     1.0000   1.0000   1.0000   1.0000   1.0000   1.0000   1.0000   1.0000
     1.0000   1.0000   1.0000   1.0000   0.0000   0.0000   0.0000   0.0000
     0.0000   0.0000   0.0000   0.0000

          k =-0.0884-0.5303 0.7071 (  5309 PWs)   bands (ev):

   -14.5748 -14.5748 -14.5524 -14.5523 -14.5019 -14.5018 -14.4692 -14.4692
   -13.5820 -13.5820 -13.5470 -13.5469 -13.4830 -13.4829 -13.4453 -13.4453
   -13.3444 -13.3444 -13.3061 -13.3061  -0.4494  -0.4494   0.8277   0.8277
     4.7945   4.7945   5.0639   5.0639   9.1853   9.1853   9.4591   9.4591
    12.8486  12.8486  14.1797  14.1797

     occupation numbers 
     1.0000   1.0000   1.0000   1.0000   1.0000   1.0000   1.0000   1.0000
     1.0000   1.0000   1.0000   1.0000   1.0000   1.0000   1.0000   1.0000
     1.0000   1.0000   1.0000   1.0000   1.0000   1.0000   1.0000   1.0000
     1.0000   1.0000   1.0000   1.0000   0.0000   0.0000   0.0000   0.0000
     0.0000   0.0000   0.0000   0.0000

          k =-0.0442-0.4861 0.6629 (  5304 PWs)   bands (ev):

   -14.5763 -14.5763 -14.5498 -14.5497 -14.5054 -14.5052 -14.4666 -14.4665
   -13.5836 -13.5836 -13.5420 -13.5419 -13.4793 -13.4792 -13.4545 -13.4544
   -13.3463 -13.3463 -13.3020 -13.3020  -0.1458  -0.1458   0.5099   0.5099
     4.5733   4.5733   5.0140   5.0140   9.3599   9.3599  10.0751  10.0751
    12.6490  12.6490  13.4230  13.4230

     occupation numbers 
     1.0000   1.0000   1.0000   1.0000   1.0000   1.0000   1.0000   1.0000
     1.0000   1.0000   1.0000   1.0000   1.0000   1.0000   1.0000   1.0000
     1.0000   1.0000   1.0000   1.0000   1.0000   1.0000   1.0000   1.0000
     1.0000   1.0000   1.0000   1.0000   0.0000   0.0000   0.0000   0.0000
     0.0000   0.0000   0.0000   0.0000

          k = 0.0000-0.4419 0.6187 (  5317 PWs)   bands (ev):

   -14.5778 -14.5778 -14.5469 -14.5467 -14.5089 -14.5088 -14.4643 -14.4642
   -13.5851 -13.5851 -13.5386 -13.5386 -13.4813 -13.4812 -13.4547 -13.4546
   -13.3483 -13.3483 -13.3000 -13.3000  -0.1441  -0.1441   0.5191   0.5191
     4.3705   4.3705   5.1214   5.1214   9.4657   9.4657  10.9380  10.9380
    12.4355  12.4355  12.5466  12.5466

     occupation numbers 
     1.0000   1.0000   1.0000   1.0000   1.0000   1.0000   1.0000   1.0000
     1.0000   1.0000   1.0000   1.0000   1.0000   1.0000   1.0000   1.0000
     1.0000   1.0000   1.0000   1.0000   1.0000   1.0000   1.0000   1.0000
     1.0000   1.0000   1.0000   1.0000   0.0000   0.0000   0.0000   0.0000
     0.0000   0.0000   0.0000   0.0000

          k =-0.7071 0.1768 0.0000 (  5306 PWs)   bands (ev):

   -14.5743 -14.5743 -14.5529 -14.5528 -14.5014 -14.5013 -14.4695 -14.4694
   -13.5813 -13.5813 -13.5463 -13.5462 -13.4729 -13.4727 -13.4595 -13.4593
   -13.3428 -13.3427 -13.3049 -13.3049   0.1504   0.1504   0.1846   0.1846
     4.7931   4.7931   4.9338   4.9338   9.2092   9.2092   9.3423   9.3423
    13.5378  13.5378  13.7051  13.7051

     occupation numbers 
     1.0000   1.0000   1.0000   1.0000   1.0000   1.0000   1.0000   1.0000
     1.0000   1.0000   1.0000   1.0000   1.0000   1.0000   1.0000   1.0000
     1.0000   1.0000   1.0000   1.0000   1.0000   1.0000   1.0000   1.0000
     1.0000   1.0000   1.0000   1.0000   0.0000   0.0000   0.0000   0.0000
     0.0000   0.0000   0.0000   0.0000

          k =-0.1768-0.4419 0.7071 (  5301 PWs)   bands (ev):

   -14.5785 -14.5785 -14.5463 -14.5462 -14.5091 -14.5090 -14.4648 -14.4648
   -13.5867 -13.5867 -13.5435 -13.5434 -13.4909 -13.4908 -13.4322 -13.4322
   -13.3502 -13.3501 -13.3055 -13.3055  -0.8636  -0.8636   1.3296   1.3296
     4.5541   4.5541   5.4021   5.4021  10.0357  10.0358  10.2745  10.2745
    11.2897  11.2897  13.6023  13.6023

     occupation numbers 
     1.0000   1.0000   1.0000   1.0000   1.0000   1.0000   1.0000   1.0000
     1.0000   1.0000   1.0000   1.0000   1.0000   1.0000   1.0000   1.0000
     1.0000   1.0000   1.0000   1.0000   1.0000   1.0000   1.0000   1.0000
     1.0000   1.0000   1.0000   1.0000   0.0000   0.0000   0.0000   0.0000
     0.0000   0.0000   0.0000   0.0000

          k =-0.1326-0.3977 0.6629 (  5298 PWs)   bands (ev):

   -14.5789 -14.5789 -14.5448 -14.5446 -14.5111 -14.5109 -14.4635 -14.4634
   -13.5859 -13.5858 -13.5400 -13.5400 -13.4890 -13.4890 -13.4418 -13.4417
   -13.3501 -13.3500 -13.3017 -13.3017  -0.5599  -0.5599   0.9704   0.9704
     4.4173   4.4173   5.2352   5.2352  10.1193  10.1193  10.7154  10.7154
    11.4257  11.4257  13.0762  13.0762

     occupation numbers 
     1.0000   1.0000   1.0000   1.0000   1.0000   1.0000   1.0000   1.0000
     1.0000   1.0000   1.0000   1.0000   1.0000   1.0000   1.0000   1.0000
     1.0000   1.0000   1.0000   1.0000   1.0000   1.0000   1.0000   1.0000
     1.0000   1.0000   1.0000   1.0000   0.0000   0.0000   0.0000   0.0000
     0.0000   0.0000   0.0000   0.0000

          k =-0.0884-0.3536 0.6187 (  5288 PWs)   bands (ev):

   -14.5790 -14.5790 -14.5443 -14.5441 -14.5118 -14.5116 -14.4630 -14.4629
   -13.5858 -13.5858 -13.5383 -13.5382 -13.4882 -13.4881 -13.4456 -13.4455
   -13.3502 -13.3501 -13.3003 -13.3003  -0.4113  -0.4113   0.8020   0.8020
     4.3741   4.3741   5.1742   5.1742  10.1263  10.1263  10.8003  10.8003
    12.0261  12.0261  12.3345  12.3345

     occupation numbers 
     1.0000   1.0000   1.0000   1.0000   1.0000   1.0000   1.0000   1.0000
     1.0000   1.0000   1.0000   1.0000   1.0000   1.0000   1.0000   1.0000
     1.0000   1.0000   1.0000   1.0000   1.0000   1.0000   1.0000   1.0000
     1.0000   1.0000   1.0000   1.0000   0.0000   0.0000   0.0000   0.0000
     0.0000   0.0000   0.0000   0.0000

          k =-0.0884-0.4419 0.7071 (  5301 PWs)   bands (ev):

   -14.5776 -14.5775 -14.5477 -14.5475 -14.5080 -14.5079 -14.4648 -14.4648
   -13.5851 -13.5851 -13.5398 -13.5397 -13.4844 -13.4844 -13.4491 -13.4491
   -13.3488 -13.3488 -13.3009 -13.3008  -0.3577  -0.3577   0.7538   0.7538
     4.5350   4.5350   4.9858   4.9858  10.0477  10.0477  10.2658  10.2658
    11.7346  11.7346  13.2465  13.2465

     occupation numbers 
     1.0000   1.0000   1.0000   1.0000   1.0000   1.0000   1.0000   1.0000
     1.0000   1.0000   1.0000   1.0000   1.0000   1.0000   1.0000   1.0000
     1.0000   1.0000   1.0000   1.0000   1.0000   1.0000   1.0000   1.0000
     1.0000   1.0000   1.0000   1.0000   0.0000   0.0000   0.0000   0.0000
     0.0000   0.0000   0.0000   0.0000

          k =-0.0442-0.3977 0.6629 (  5300 PWs)   bands (ev):

   -14.5781 -14.5781 -14.5465 -14.5463 -14.5097 -14.5095 -14.4636 -14.4635
   -13.5859 -13.5859 -13.5363 -13.5363 -13.4815 -13.4814 -13.4561 -13.4560
   -13.3496 -13.3496 -13.2985 -13.2984  -0.1225  -0.1225   0.5113   0.5113
     4.4453   4.4453   4.9006   4.9006  10.2125  10.2125  10.9580  10.9580
    11.6334  11.6334  12.3199  12.3200

     occupation numbers 
     1.0000   1.0000   1.0000   1.0000   1.0000   1.0000   1.0000   1.0000
     1.0000   1.0000   1.0000   1.0000   1.0000   1.0000   1.0000   1.0000
     1.0000   1.0000   1.0000   1.0000   1.0000   1.0000   1.0000   1.0000
     1.0000   1.0000   1.0000   1.0000   0.0000   0.0000   0.0000   0.0000
     0.0000   0.0000   0.0000   0.0000

          k =-0.0000-0.3536 0.6187 (  5301 PWs)   bands (ev):

   -14.5786 -14.5786 -14.5455 -14.5453 -14.5108 -14.5106 -14.4631 -14.4630
   -13.5861 -13.5861 -13.5365 -13.5364 -13.4840 -13.4839 -13.4527 -13.4526
   -13.3501 -13.3500 -13.2987 -13.2987  -0.2511  -0.2511   0.6474   0.6474
     4.3801   4.3801   5.0077   5.0077  10.2907  10.2907  11.1348  11.1349
    11.5203  11.5204  12.2081  12.2081

     occupation numbers 
     1.0000   1.0000   1.0000   1.0000   1.0000   1.0000   1.0000   1.0000
     1.0000   1.0000   1.0000   1.0000   1.0000   1.0000   1.0000   1.0000
     1.0000   1.0000   1.0000   1.0000   1.0000   1.0000   1.0000   1.0000
     1.0000   1.0000   1.0000   1.0000   0.0000   0.0000   0.0000   0.0000
     0.0000   0.0000   0.0000   0.0000

          k =-0.7071 0.2652 0.0000 (  5304 PWs)   bands (ev):

   -14.5771 -14.5771 -14.5485 -14.5483 -14.5074 -14.5072 -14.4649 -14.4649
   -13.5851 -13.5851 -13.5379 -13.5379 -13.4765 -13.4763 -13.4609 -13.4607
   -13.3482 -13.3482 -13.2992 -13.2992   0.1641   0.1642   0.2098   0.2098
     4.6019   4.6019   4.7695   4.7695  10.0442  10.0442  10.2272  10.2272
    12.4064  12.4064  12.5224  12.5224

     occupation numbers 
     1.0000   1.0000   1.0000   1.0000   1.0000   1.0000   1.0000   1.0000
     1.0000   1.0000   1.0000   1.0000   1.0000   1.0000   1.0000   1.0000
     1.0000   1.0000   1.0000   1.0000   1.0000   1.0000   1.0000   1.0000
     1.0000   1.0000   1.0000   1.0000   0.0000   0.0000   0.0000   0.0000
     0.0000   0.0000   0.0000   0.0000

          k =-0.7071 0.3536 0.0000 (  5268 PWs)   bands (ev):

   -14.5781 -14.5780 -14.5467 -14.5465 -14.5097 -14.5095 -14.4633 -14.4632
   -13.5863 -13.5863 -13.5346 -13.5346 -13.4778 -13.4776 -13.4619 -13.4617
   -13.3500 -13.3500 -13.2972 -13.2972   0.1702   0.1703   0.2201   0.2201
     4.5302   4.5302   4.7061   4.7061  10.7320  10.7320  11.0508  11.0508
    11.5940  11.5941  11.6160  11.6160

     occupation numbers 
     1.0000   1.0000   1.0000   1.0000   1.0000   1.0000   1.0000   1.0000
     1.0000   1.0000   1.0000   1.0000   1.0000   1.0000   1.0000   1.0000
     1.0000   1.0000   1.0000   1.0000   1.0000   1.0000   1.0000   1.0000
     1.0000   1.0000   1.0000   1.0000   0.0000   0.0000   0.0000   0.0000
     0.0000   0.0000   0.0000   0.0000

     the Fermi energy is     7.6186 ev

!    total energy              =    -885.87887309 Ry
     Harris-Foulkes estimate   =    -885.87887310 Ry
     estimated scf accuracy    <       0.00000002 Ry

     total all-electron energy =    -24716.578623 Ry

     The total energy is the sum of the following terms:

     one-electron contribution =    -148.96106954 Ry
     hartree contribution      =      93.73185675 Ry
     xc contribution           =     -96.17740620 Ry
     ewald contribution        =    -170.59904349 Ry
     one-center paw contrib.   =    -563.87321055 Ry
     smearing contrib. (-TS)   =      -0.00000006 Ry

     convergence has been achieved in   6 iterations

     Writing output data file Sn.save
 
     init_run     :      9.57s CPU     10.62s WALL (       1 calls)
     electrons    :    229.33s CPU    252.86s WALL (       1 calls)

     Called by init_run:
     wfcinit      :      8.85s CPU      9.80s WALL (       1 calls)
     potinit      :      0.29s CPU      0.31s WALL (       1 calls)

     Called by electrons:
     c_bands      :    190.83s CPU    210.50s WALL (       7 calls)
     sum_band     :     36.28s CPU     39.89s WALL (       7 calls)
     v_of_rho     :      0.08s CPU      0.09s WALL (       7 calls)
     v_h          :      0.01s CPU      0.01s WALL (       7 calls)
     v_xc         :      0.08s CPU      0.09s WALL (       7 calls)
     newd         :      0.59s CPU      0.67s WALL (       7 calls)
     PAW_pot      :      1.84s CPU      1.93s WALL (       7 calls)
     mix_rho      :      0.04s CPU      0.05s WALL (       7 calls)

     Called by c_bands:
     init_us_2    :      0.79s CPU      0.88s WALL (    2175 calls)
     cegterg      :    178.39s CPU    197.80s WALL (    1015 calls)

     Called by sum_band:
     sum_band:bec :      3.47s CPU      3.55s WALL (    1015 calls)
     addusdens    :      0.48s CPU      0.60s WALL (       7 calls)

     Called by *egterg:
     h_psi        :    141.82s CPU    157.91s WALL (    3518 calls)
     s_psi        :      5.80s CPU      5.83s WALL (    3518 calls)
     g_psi        :      0.55s CPU      0.56s WALL (    2358 calls)
     cdiaghg      :     13.69s CPU     13.92s WALL (    3228 calls)
     cegterg:over :      9.89s CPU      9.93s WALL (    2358 calls)
     cegterg:upda :      5.00s CPU      5.02s WALL (    2358 calls)
     cegterg:last :      2.71s CPU      2.72s WALL (    1015 calls)

     Called by h_psi:
     h_psi:vloc   :    127.64s CPU    143.41s WALL (    3518 calls)
     h_psi:vnl    :     13.51s CPU     13.77s WALL (    3518 calls)
     add_vuspsi   :      6.25s CPU      6.31s WALL (    3518 calls)

     General routines
     calbec       :      9.81s CPU     10.04s WALL (    4533 calls)
     fft          :      0.09s CPU      0.11s WALL (     135 calls)
     fftw         :    135.59s CPU    152.53s WALL (  462044 calls)
     davcio       :      0.06s CPU      0.58s WALL (     145 calls)
 
     Parallel routines
     fft_scatter  :     59.10s CPU     66.41s WALL (  462179 calls)

     PAW routines
     PAW_pot      :      1.84s CPU      1.93s WALL (       7 calls)
     PAW_symme    :      0.03s CPU      0.03s WALL (      14 calls)
 
     PWSCF        :  4m 0.47s CPU     4m25.74s WALL

 
   This run was terminated on:   0:23:30   9Mar2020            

=------------------------------------------------------------------------------=
   JOB DONE.
=------------------------------------------------------------------------------=
