
     Program PWSCF v.5.4.0 starts on 27Feb2020 at 21:23:20 

     This program is part of the open-source Quantum ESPRESSO suite
     for quantum simulation of materials; please cite
         "P. Giannozzi et al., J. Phys.:Condens. Matter 21 395502 (2009);
          URL http://www.quantum-espresso.org", 
     in publications or presentations arising from this work. More details at
     http://www.quantum-espresso.org/quote

     Parallel version (MPI & OpenMP), running on      16 processor cores
     Number of MPI processes:                16
     Threads/MPI process:                     1
     R & G space division:  proc/nbgrp/npool/nimage =      16
     Waiting for input...
     Reading input from standard input
Warning: card &IONS ignored
Warning: card / ignored
Warning: card &CELL ignored
Warning: card / ignored

     Current dimensions of program PWSCF are:
     Max number of different atomic species (ntypx) = 10
     Max number of k-points (npk) =  40000
     Max angular momentum in pseudopotentials (lmaxx) =  3

     Subspace diagonalization in iterative solution of the eigenvalue problem:
     a serial algorithm will be used

 
     Parallelization info
     --------------------
     sticks:   dense  smooth     PW     G-vecs:    dense   smooth      PW
     Min         217     217     59                 8498     8498    1239
     Max         218     218     60                 8501     8501    1245
     Sum        3481    3481    955               135995   135995   19891
 

     Title: 
     Sn                                                                         


     bravais-lattice index     =            0
     lattice parameter (alat)  =       8.8993  a.u.
     unit-cell volume          =     498.3785 (a.u.)^3
     number of atoms/cell      =            2
     number of atomic types    =            1
     number of electrons       =        28.00
     number of Kohn-Sham states=           18
     kinetic-energy cutoff     =     160.0000  Ry
     charge density cutoff     =     640.0000  Ry
     convergence threshold     =      1.0E-06
     mixing beta               =       0.7000
     number of iterations used =            8  plain     mixing
     Exchange-correlation      = PBE ( 1  4  3  4 0 0)

     celldm(1)=   8.899346  celldm(2)=   0.000000  celldm(3)=   0.000000
     celldm(4)=   0.000000  celldm(5)=   0.000000  celldm(6)=   0.000000

     crystal axes: (cart. coord. in units of alat)
               a(1) = (   0.000000   0.707107   0.707107 )  
               a(2) = (   0.707107   0.000000   0.707107 )  
               a(3) = (   0.707107   0.707107   0.000000 )  

     reciprocal axes: (cart. coord. in units 2 pi/alat)
               b(1) = ( -0.707107  0.707107  0.707107 )  
               b(2) = (  0.707107 -0.707107  0.707107 )  
               b(3) = (  0.707107  0.707107 -0.707107 )  


     PseudoPot. # 1 for Sn read from file:
     ../PseudopotentialDatabase/Sn_ONCV_PBE_FR-1.1.upf
     MD5 check sum: 6dd2180f739ea5ae1610ead5e1628a0e
     Pseudo is Norm-conserving, Zval = 14.0
     Generated using ONCVPSP code by D. R. Hamann
     Using radial grid of  602 points,  6 beta functions with: 
                l(1) =   0
                l(2) =   0
                l(3) =   1
                l(4) =   1
                l(5) =   2
                l(6) =   2

     atomic species   valence    mass     pseudopotential
        Sn            14.00   118.71000     Sn( 1.00)

     48 Sym. Ops., with inversion, found (24 have fractional translation)


                                    s                        frac. trans.

      isym =  1     identity                                     

 cryst.   s( 1) = (     1          0          0      )
                  (     0          1          0      )
                  (     0          0          1      )

 cart.    s( 1) = (  1.0000000  0.0000000  0.0000000 )
                  (  0.0000000  1.0000000  0.0000000 )
                  (  0.0000000  0.0000000  1.0000000 )


      isym =  2     180 deg rotation - cart. axis [0,0,1]        

 cryst.   s( 2) = (     0          1         -1      )
                  (     1          0         -1      )
                  (     0          0         -1      )

 cart.    s( 2) = ( -1.0000000  0.0000000  0.0000000 )
                  (  0.0000000 -1.0000000  0.0000000 )
                  (  0.0000000  0.0000000  1.0000000 )


      isym =  3     180 deg rotation - cart. axis [0,1,0]        

 cryst.   s( 3) = (     0         -1          1      )
                  (     0         -1          0      )
                  (     1         -1          0      )

 cart.    s( 3) = ( -1.0000000  0.0000000  0.0000000 )
                  (  0.0000000  1.0000000  0.0000000 )
                  (  0.0000000  0.0000000 -1.0000000 )


      isym =  4     180 deg rotation - cart. axis [1,0,0]        

 cryst.   s( 4) = (    -1          0          0      )
                  (    -1          0          1      )
                  (    -1          1          0      )

 cart.    s( 4) = (  1.0000000  0.0000000  0.0000000 )
                  (  0.0000000 -1.0000000  0.0000000 )
                  (  0.0000000  0.0000000 -1.0000000 )


      isym =  5     180 deg rotation - cart. axis [1,1,0]        

 cryst.   s( 5) = (    -1          0          1      )    f =( -0.2500000 )
                  (     0         -1          1      )       ( -0.2500000 )
                  (     0          0          1      )       ( -0.2500000 )

 cart.    s( 5) = (  0.0000000  1.0000000  0.0000000 )    f =( -0.3535534 )
                  (  1.0000000  0.0000000  0.0000000 )       ( -0.3535534 )
                  (  0.0000000  0.0000000 -1.0000000 )       ( -0.3535534 )


      isym =  6     180 deg rotation - cart. axis [1,-1,0]       

 cryst.   s( 6) = (     0         -1          0      )    f =( -0.2500000 )
                  (    -1          0          0      )       ( -0.2500000 )
                  (     0          0         -1      )       ( -0.2500000 )

 cart.    s( 6) = (  0.0000000 -1.0000000  0.0000000 )    f =( -0.3535534 )
                  ( -1.0000000  0.0000000  0.0000000 )       ( -0.3535534 )
                  (  0.0000000  0.0000000 -1.0000000 )       ( -0.3535534 )


      isym =  7      90 deg rotation - cart. axis [0,0,-1]       

 cryst.   s( 7) = (     0          1          0      )    f =( -0.2500000 )
                  (     0          1         -1      )       ( -0.2500000 )
                  (    -1          1          0      )       ( -0.2500000 )

 cart.    s( 7) = (  0.0000000  1.0000000  0.0000000 )    f =( -0.3535534 )
                  ( -1.0000000  0.0000000  0.0000000 )       ( -0.3535534 )
                  (  0.0000000  0.0000000  1.0000000 )       ( -0.3535534 )


      isym =  8      90 deg rotation - cart. axis [0,0,1]        

 cryst.   s( 8) = (     1          0         -1      )    f =( -0.2500000 )
                  (     1          0          0      )       ( -0.2500000 )
                  (     1         -1          0      )       ( -0.2500000 )

 cart.    s( 8) = (  0.0000000 -1.0000000  0.0000000 )    f =( -0.3535534 )
                  (  1.0000000  0.0000000  0.0000000 )       ( -0.3535534 )
                  (  0.0000000  0.0000000  1.0000000 )       ( -0.3535534 )


      isym =  9     180 deg rotation - cart. axis [1,0,1]        

 cryst.   s( 9) = (    -1          1          0      )    f =( -0.2500000 )
                  (     0          1          0      )       ( -0.2500000 )
                  (     0          1         -1      )       ( -0.2500000 )

 cart.    s( 9) = (  0.0000000  0.0000000  1.0000000 )    f =( -0.3535534 )
                  (  0.0000000 -1.0000000  0.0000000 )       ( -0.3535534 )
                  (  1.0000000  0.0000000  0.0000000 )       ( -0.3535534 )


      isym = 10     180 deg rotation - cart. axis [-1,0,1]       

 cryst.   s(10) = (     0          0         -1      )    f =( -0.2500000 )
                  (     0         -1          0      )       ( -0.2500000 )
                  (    -1          0          0      )       ( -0.2500000 )

 cart.    s(10) = (  0.0000000  0.0000000 -1.0000000 )    f =( -0.3535534 )
                  (  0.0000000 -1.0000000  0.0000000 )       ( -0.3535534 )
                  ( -1.0000000  0.0000000  0.0000000 )       ( -0.3535534 )


      isym = 11      90 deg rotation - cart. axis [0,1,0]        

 cryst.   s(11) = (     0          0          1      )    f =( -0.2500000 )
                  (    -1          0          1      )       ( -0.2500000 )
                  (     0         -1          1      )       ( -0.2500000 )

 cart.    s(11) = (  0.0000000  0.0000000  1.0000000 )    f =( -0.3535534 )
                  (  0.0000000  1.0000000  0.0000000 )       ( -0.3535534 )
                  ( -1.0000000  0.0000000  0.0000000 )       ( -0.3535534 )


      isym = 12      90 deg rotation - cart. axis [0,-1,0]       

 cryst.   s(12) = (     1         -1          0      )    f =( -0.2500000 )
                  (     1          0         -1      )       ( -0.2500000 )
                  (     1          0          0      )       ( -0.2500000 )

 cart.    s(12) = (  0.0000000  0.0000000 -1.0000000 )    f =( -0.3535534 )
                  (  0.0000000  1.0000000  0.0000000 )       ( -0.3535534 )
                  (  1.0000000  0.0000000  0.0000000 )       ( -0.3535534 )


      isym = 13     180 deg rotation - cart. axis [0,1,1]        

 cryst.   s(13) = (     1          0          0      )    f =( -0.2500000 )
                  (     1         -1          0      )       ( -0.2500000 )
                  (     1          0         -1      )       ( -0.2500000 )

 cart.    s(13) = ( -1.0000000  0.0000000  0.0000000 )    f =( -0.3535534 )
                  (  0.0000000  0.0000000  1.0000000 )       ( -0.3535534 )
                  (  0.0000000  1.0000000  0.0000000 )       ( -0.3535534 )


      isym = 14     180 deg rotation - cart. axis [0,1,-1]       

 cryst.   s(14) = (    -1          0          0      )    f =( -0.2500000 )
                  (     0          0         -1      )       ( -0.2500000 )
                  (     0         -1          0      )       ( -0.2500000 )

 cart.    s(14) = ( -1.0000000  0.0000000  0.0000000 )    f =( -0.3535534 )
                  (  0.0000000  0.0000000 -1.0000000 )       ( -0.3535534 )
                  (  0.0000000 -1.0000000  0.0000000 )       ( -0.3535534 )


      isym = 15      90 deg rotation - cart. axis [-1,0,0]       

 cryst.   s(15) = (     0         -1          1      )    f =( -0.2500000 )
                  (     0          0          1      )       ( -0.2500000 )
                  (    -1          0          1      )       ( -0.2500000 )

 cart.    s(15) = (  1.0000000  0.0000000  0.0000000 )    f =( -0.3535534 )
                  (  0.0000000  0.0000000  1.0000000 )       ( -0.3535534 )
                  (  0.0000000 -1.0000000  0.0000000 )       ( -0.3535534 )


      isym = 16      90 deg rotation - cart. axis [1,0,0]        

 cryst.   s(16) = (     0          1         -1      )    f =( -0.2500000 )
                  (    -1          1          0      )       ( -0.2500000 )
                  (     0          1          0      )       ( -0.2500000 )

 cart.    s(16) = (  1.0000000  0.0000000  0.0000000 )    f =( -0.3535534 )
                  (  0.0000000  0.0000000 -1.0000000 )       ( -0.3535534 )
                  (  0.0000000  1.0000000  0.0000000 )       ( -0.3535534 )


      isym = 17     120 deg rotation - cart. axis [-1,-1,-1]     

 cryst.   s(17) = (     0          0          1      )
                  (     1          0          0      )
                  (     0          1          0      )

 cart.    s(17) = (  0.0000000  1.0000000  0.0000000 )
                  (  0.0000000  0.0000000  1.0000000 )
                  (  1.0000000  0.0000000  0.0000000 )


      isym = 18     120 deg rotation - cart. axis [-1,1,1]       

 cryst.   s(18) = (     1         -1          0      )
                  (     0         -1          1      )
                  (     0         -1          0      )

 cart.    s(18) = (  0.0000000 -1.0000000  0.0000000 )
                  (  0.0000000  0.0000000  1.0000000 )
                  ( -1.0000000  0.0000000  0.0000000 )


      isym = 19     120 deg rotation - cart. axis [1,1,-1]       

 cryst.   s(19) = (    -1          1          0      )
                  (    -1          0          0      )
                  (    -1          0          1      )

 cart.    s(19) = (  0.0000000  1.0000000  0.0000000 )
                  (  0.0000000  0.0000000 -1.0000000 )
                  ( -1.0000000  0.0000000  0.0000000 )


      isym = 20     120 deg rotation - cart. axis [1,-1,1]       

 cryst.   s(20) = (     0          0         -1      )
                  (     0          1         -1      )
                  (     1          0         -1      )

 cart.    s(20) = (  0.0000000 -1.0000000  0.0000000 )
                  (  0.0000000  0.0000000 -1.0000000 )
                  (  1.0000000  0.0000000  0.0000000 )


      isym = 21     120 deg rotation - cart. axis [1,1,1]        

 cryst.   s(21) = (     0          1          0      )
                  (     0          0          1      )
                  (     1          0          0      )

 cart.    s(21) = (  0.0000000  0.0000000  1.0000000 )
                  (  1.0000000  0.0000000  0.0000000 )
                  (  0.0000000  1.0000000  0.0000000 )


      isym = 22     120 deg rotation - cart. axis [-1,1,-1]      

 cryst.   s(22) = (    -1          0          1      )
                  (    -1          1          0      )
                  (    -1          0          0      )

 cart.    s(22) = (  0.0000000  0.0000000  1.0000000 )
                  ( -1.0000000  0.0000000  0.0000000 )
                  (  0.0000000 -1.0000000  0.0000000 )


      isym = 23     120 deg rotation - cart. axis [1,-1,-1]      

 cryst.   s(23) = (     1          0         -1      )
                  (     0          0         -1      )
                  (     0          1         -1      )

 cart.    s(23) = (  0.0000000  0.0000000 -1.0000000 )
                  ( -1.0000000  0.0000000  0.0000000 )
                  (  0.0000000  1.0000000  0.0000000 )


      isym = 24     120 deg rotation - cart. axis [-1,-1,1]      

 cryst.   s(24) = (     0         -1          0      )
                  (     1         -1          0      )
                  (     0         -1          1      )

 cart.    s(24) = (  0.0000000  0.0000000 -1.0000000 )
                  (  1.0000000  0.0000000  0.0000000 )
                  (  0.0000000 -1.0000000  0.0000000 )


      isym = 25     inversion                                    

 cryst.   s(25) = (    -1          0          0      )    f =( -0.2500000 )
                  (     0         -1          0      )       ( -0.2500000 )
                  (     0          0         -1      )       ( -0.2500000 )

 cart.    s(25) = ( -1.0000000  0.0000000  0.0000000 )    f =( -0.3535534 )
                  (  0.0000000 -1.0000000  0.0000000 )       ( -0.3535534 )
                  (  0.0000000  0.0000000 -1.0000000 )       ( -0.3535534 )


      isym = 26     inv. 180 deg rotation - cart. axis [0,0,1]   

 cryst.   s(26) = (     0         -1          1      )    f =( -0.2500000 )
                  (    -1          0          1      )       ( -0.2500000 )
                  (     0          0          1      )       ( -0.2500000 )

 cart.    s(26) = (  1.0000000  0.0000000  0.0000000 )    f =( -0.3535534 )
                  (  0.0000000  1.0000000  0.0000000 )       ( -0.3535534 )
                  (  0.0000000  0.0000000 -1.0000000 )       ( -0.3535534 )


      isym = 27     inv. 180 deg rotation - cart. axis [0,1,0]   

 cryst.   s(27) = (     0          1         -1      )    f =( -0.2500000 )
                  (     0          1          0      )       ( -0.2500000 )
                  (    -1          1          0      )       ( -0.2500000 )

 cart.    s(27) = (  1.0000000  0.0000000  0.0000000 )    f =( -0.3535534 )
                  (  0.0000000 -1.0000000  0.0000000 )       ( -0.3535534 )
                  (  0.0000000  0.0000000  1.0000000 )       ( -0.3535534 )


      isym = 28     inv. 180 deg rotation - cart. axis [1,0,0]   

 cryst.   s(28) = (     1          0          0      )    f =( -0.2500000 )
                  (     1          0         -1      )       ( -0.2500000 )
                  (     1         -1          0      )       ( -0.2500000 )

 cart.    s(28) = ( -1.0000000  0.0000000  0.0000000 )    f =( -0.3535534 )
                  (  0.0000000  1.0000000  0.0000000 )       ( -0.3535534 )
                  (  0.0000000  0.0000000  1.0000000 )       ( -0.3535534 )


      isym = 29     inv. 180 deg rotation - cart. axis [1,1,0]   

 cryst.   s(29) = (     1          0         -1      )
                  (     0          1         -1      )
                  (     0          0         -1      )

 cart.    s(29) = (  0.0000000 -1.0000000  0.0000000 )
                  ( -1.0000000  0.0000000  0.0000000 )
                  (  0.0000000  0.0000000  1.0000000 )


      isym = 30     inv. 180 deg rotation - cart. axis [1,-1,0]  

 cryst.   s(30) = (     0          1          0      )
                  (     1          0          0      )
                  (     0          0          1      )

 cart.    s(30) = (  0.0000000  1.0000000  0.0000000 )
                  (  1.0000000  0.0000000  0.0000000 )
                  (  0.0000000  0.0000000  1.0000000 )


      isym = 31     inv.  90 deg rotation - cart. axis [0,0,-1]  

 cryst.   s(31) = (     0         -1          0      )
                  (     0         -1          1      )
                  (     1         -1          0      )

 cart.    s(31) = (  0.0000000 -1.0000000  0.0000000 )
                  (  1.0000000  0.0000000  0.0000000 )
                  (  0.0000000  0.0000000 -1.0000000 )


      isym = 32     inv.  90 deg rotation - cart. axis [0,0,1]   

 cryst.   s(32) = (    -1          0          1      )
                  (    -1          0          0      )
                  (    -1          1          0      )

 cart.    s(32) = (  0.0000000  1.0000000  0.0000000 )
                  ( -1.0000000  0.0000000  0.0000000 )
                  (  0.0000000  0.0000000 -1.0000000 )


      isym = 33     inv. 180 deg rotation - cart. axis [1,0,1]   

 cryst.   s(33) = (     1         -1          0      )
                  (     0         -1          0      )
                  (     0         -1          1      )

 cart.    s(33) = (  0.0000000  0.0000000 -1.0000000 )
                  (  0.0000000  1.0000000  0.0000000 )
                  ( -1.0000000  0.0000000  0.0000000 )


      isym = 34     inv. 180 deg rotation - cart. axis [-1,0,1]  

 cryst.   s(34) = (     0          0          1      )
                  (     0          1          0      )
                  (     1          0          0      )

 cart.    s(34) = (  0.0000000  0.0000000  1.0000000 )
                  (  0.0000000  1.0000000  0.0000000 )
                  (  1.0000000  0.0000000  0.0000000 )


      isym = 35     inv.  90 deg rotation - cart. axis [0,1,0]   

 cryst.   s(35) = (     0          0         -1      )
                  (     1          0         -1      )
                  (     0          1         -1      )

 cart.    s(35) = (  0.0000000  0.0000000 -1.0000000 )
                  (  0.0000000 -1.0000000  0.0000000 )
                  (  1.0000000  0.0000000  0.0000000 )


      isym = 36     inv.  90 deg rotation - cart. axis [0,-1,0]  

 cryst.   s(36) = (    -1          1          0      )
                  (    -1          0          1      )
                  (    -1          0          0      )

 cart.    s(36) = (  0.0000000  0.0000000  1.0000000 )
                  (  0.0000000 -1.0000000  0.0000000 )
                  ( -1.0000000  0.0000000  0.0000000 )


      isym = 37     inv. 180 deg rotation - cart. axis [0,1,1]   

 cryst.   s(37) = (    -1          0          0      )
                  (    -1          1          0      )
                  (    -1          0          1      )

 cart.    s(37) = (  1.0000000  0.0000000  0.0000000 )
                  (  0.0000000  0.0000000 -1.0000000 )
                  (  0.0000000 -1.0000000  0.0000000 )


      isym = 38     inv. 180 deg rotation - cart. axis [0,1,-1]  

 cryst.   s(38) = (     1          0          0      )
                  (     0          0          1      )
                  (     0          1          0      )

 cart.    s(38) = (  1.0000000  0.0000000  0.0000000 )
                  (  0.0000000  0.0000000  1.0000000 )
                  (  0.0000000  1.0000000  0.0000000 )


      isym = 39     inv.  90 deg rotation - cart. axis [-1,0,0]  

 cryst.   s(39) = (     0          1         -1      )
                  (     0          0         -1      )
                  (     1          0         -1      )

 cart.    s(39) = ( -1.0000000  0.0000000  0.0000000 )
                  (  0.0000000  0.0000000 -1.0000000 )
                  (  0.0000000  1.0000000  0.0000000 )


      isym = 40     inv.  90 deg rotation - cart. axis [1,0,0]   

 cryst.   s(40) = (     0         -1          1      )
                  (     1         -1          0      )
                  (     0         -1          0      )

 cart.    s(40) = ( -1.0000000  0.0000000  0.0000000 )
                  (  0.0000000  0.0000000  1.0000000 )
                  (  0.0000000 -1.0000000  0.0000000 )


      isym = 41     inv. 120 deg rotation - cart. axis [-1,-1,-1]

 cryst.   s(41) = (     0          0         -1      )    f =( -0.2500000 )
                  (    -1          0          0      )       ( -0.2500000 )
                  (     0         -1          0      )       ( -0.2500000 )

 cart.    s(41) = (  0.0000000 -1.0000000  0.0000000 )    f =( -0.3535534 )
                  (  0.0000000  0.0000000 -1.0000000 )       ( -0.3535534 )
                  ( -1.0000000  0.0000000  0.0000000 )       ( -0.3535534 )


      isym = 42     inv. 120 deg rotation - cart. axis [-1,1,1]  

 cryst.   s(42) = (    -1          1          0      )    f =( -0.2500000 )
                  (     0          1         -1      )       ( -0.2500000 )
                  (     0          1          0      )       ( -0.2500000 )

 cart.    s(42) = (  0.0000000  1.0000000  0.0000000 )    f =( -0.3535534 )
                  (  0.0000000  0.0000000 -1.0000000 )       ( -0.3535534 )
                  (  1.0000000  0.0000000  0.0000000 )       ( -0.3535534 )


      isym = 43     inv. 120 deg rotation - cart. axis [1,1,-1]  

 cryst.   s(43) = (     1         -1          0      )    f =( -0.2500000 )
                  (     1          0          0      )       ( -0.2500000 )
                  (     1          0         -1      )       ( -0.2500000 )

 cart.    s(43) = (  0.0000000 -1.0000000  0.0000000 )    f =( -0.3535534 )
                  (  0.0000000  0.0000000  1.0000000 )       ( -0.3535534 )
                  (  1.0000000  0.0000000  0.0000000 )       ( -0.3535534 )


      isym = 44     inv. 120 deg rotation - cart. axis [1,-1,1]  

 cryst.   s(44) = (     0          0          1      )    f =( -0.2500000 )
                  (     0         -1          1      )       ( -0.2500000 )
                  (    -1          0          1      )       ( -0.2500000 )

 cart.    s(44) = (  0.0000000  1.0000000  0.0000000 )    f =( -0.3535534 )
                  (  0.0000000  0.0000000  1.0000000 )       ( -0.3535534 )
                  ( -1.0000000  0.0000000  0.0000000 )       ( -0.3535534 )


      isym = 45     inv. 120 deg rotation - cart. axis [1,1,1]   

 cryst.   s(45) = (     0         -1          0      )    f =( -0.2500000 )
                  (     0          0         -1      )       ( -0.2500000 )
                  (    -1          0          0      )       ( -0.2500000 )

 cart.    s(45) = (  0.0000000  0.0000000 -1.0000000 )    f =( -0.3535534 )
                  ( -1.0000000  0.0000000  0.0000000 )       ( -0.3535534 )
                  (  0.0000000 -1.0000000  0.0000000 )       ( -0.3535534 )


      isym = 46     inv. 120 deg rotation - cart. axis [-1,1,-1] 

 cryst.   s(46) = (     1          0         -1      )    f =( -0.2500000 )
                  (     1         -1          0      )       ( -0.2500000 )
                  (     1          0          0      )       ( -0.2500000 )

 cart.    s(46) = (  0.0000000  0.0000000 -1.0000000 )    f =( -0.3535534 )
                  (  1.0000000  0.0000000  0.0000000 )       ( -0.3535534 )
                  (  0.0000000  1.0000000  0.0000000 )       ( -0.3535534 )


      isym = 47     inv. 120 deg rotation - cart. axis [1,-1,-1] 

 cryst.   s(47) = (    -1          0          1      )    f =( -0.2500000 )
                  (     0          0          1      )       ( -0.2500000 )
                  (     0         -1          1      )       ( -0.2500000 )

 cart.    s(47) = (  0.0000000  0.0000000  1.0000000 )    f =( -0.3535534 )
                  (  1.0000000  0.0000000  0.0000000 )       ( -0.3535534 )
                  (  0.0000000 -1.0000000  0.0000000 )       ( -0.3535534 )


      isym = 48     inv. 120 deg rotation - cart. axis [-1,-1,1] 

 cryst.   s(48) = (     0          1          0      )    f =( -0.2500000 )
                  (    -1          1          0      )       ( -0.2500000 )
                  (     0          1         -1      )       ( -0.2500000 )

 cart.    s(48) = (  0.0000000  0.0000000  1.0000000 )    f =( -0.3535534 )
                  ( -1.0000000  0.0000000  0.0000000 )       ( -0.3535534 )
                  (  0.0000000  1.0000000  0.0000000 )       ( -0.3535534 )


   Cartesian axes

     site n.     atom                  positions (alat units)
         1           Sn  tau(   1) = (   0.0000000   0.0000000   0.0000000  )
         2           Sn  tau(   2) = (   0.3535534   0.3535534   0.3535534  )

   Crystallographic axes

     site n.     atom                  positions (cryst. coord.)
         1           Sn  tau(   1) = (  0.0000000  0.0000000  0.0000000  )
         2           Sn  tau(   2) = (  0.2500000  0.2500000  0.2500000  )

     number of k points=  1140  gaussian smearing, width (Ry)=  0.0001
                       cart. coord. in units 2pi/alat
        k(    1) = (   0.0000000   0.0000000   0.0000000), wk =   0.0000466
        k(    2) = (   0.0202031   0.0202031  -0.0202031), wk =   0.0003732
        k(    3) = (   0.0404061   0.0404061  -0.0404061), wk =   0.0003732
        k(    4) = (   0.0606092   0.0606092  -0.0606092), wk =   0.0003732
        k(    5) = (   0.0808122   0.0808122  -0.0808122), wk =   0.0003732
        k(    6) = (   0.1010153   0.1010153  -0.1010153), wk =   0.0003732
        k(    7) = (   0.1212183   0.1212183  -0.1212183), wk =   0.0003732
        k(    8) = (   0.1414214   0.1414214  -0.1414214), wk =   0.0003732
        k(    9) = (   0.1616244   0.1616244  -0.1616244), wk =   0.0003732
        k(   10) = (   0.1818275   0.1818275  -0.1818275), wk =   0.0003732
        k(   11) = (   0.2020305   0.2020305  -0.2020305), wk =   0.0003732
        k(   12) = (   0.2222336   0.2222336  -0.2222336), wk =   0.0003732
        k(   13) = (   0.2424366   0.2424366  -0.2424366), wk =   0.0003732
        k(   14) = (   0.2626397   0.2626397  -0.2626397), wk =   0.0003732
        k(   15) = (   0.2828427   0.2828427  -0.2828427), wk =   0.0003732
        k(   16) = (   0.3030458   0.3030458  -0.3030458), wk =   0.0003732
        k(   17) = (   0.3232488   0.3232488  -0.3232488), wk =   0.0003732
        k(   18) = (   0.3434519   0.3434519  -0.3434519), wk =   0.0003732
        k(   19) = (   0.0404061   0.0000000   0.0000000), wk =   0.0002799
        k(   20) = (   0.0606092   0.0202031  -0.0202031), wk =   0.0011195
        k(   21) = (   0.0808122   0.0404061  -0.0404061), wk =   0.0011195
        k(   22) = (   0.1010153   0.0606092  -0.0606092), wk =   0.0011195
        k(   23) = (   0.1212183   0.0808122  -0.0808122), wk =   0.0011195
        k(   24) = (   0.1414214   0.1010153  -0.1010153), wk =   0.0011195
        k(   25) = (   0.1616244   0.1212183  -0.1212183), wk =   0.0011195
        k(   26) = (   0.1818275   0.1414214  -0.1414214), wk =   0.0011195
        k(   27) = (   0.2020305   0.1616244  -0.1616244), wk =   0.0011195
        k(   28) = (   0.2222336   0.1818275  -0.1818275), wk =   0.0011195
        k(   29) = (   0.2424366   0.2020305  -0.2020305), wk =   0.0011195
        k(   30) = (   0.2626397   0.2222336  -0.2222336), wk =   0.0011195
        k(   31) = (   0.2828427   0.2424366  -0.2424366), wk =   0.0011195
        k(   32) = (   0.3030458   0.2626397  -0.2626397), wk =   0.0011195
        k(   33) = (   0.3232488   0.2828427  -0.2828427), wk =   0.0011195
        k(   34) = (   0.3434519   0.3030458  -0.3030458), wk =   0.0011195
        k(   35) = (   0.3636549   0.3232488  -0.3232488), wk =   0.0011195
        k(   36) = (  -0.3232488  -0.3636549   0.3636549), wk =   0.0011195
        k(   37) = (  -0.3030458  -0.3434519   0.3434519), wk =   0.0011195
        k(   38) = (  -0.2828427  -0.3232488   0.3232488), wk =   0.0011195
        k(   39) = (  -0.2626397  -0.3030458   0.3030458), wk =   0.0011195
        k(   40) = (  -0.2424366  -0.2828427   0.2828427), wk =   0.0011195
        k(   41) = (  -0.2222336  -0.2626397   0.2626397), wk =   0.0011195
        k(   42) = (  -0.2020305  -0.2424366   0.2424366), wk =   0.0011195
        k(   43) = (  -0.1818275  -0.2222336   0.2222336), wk =   0.0011195
        k(   44) = (  -0.1616244  -0.2020305   0.2020305), wk =   0.0011195
        k(   45) = (  -0.1414214  -0.1818275   0.1818275), wk =   0.0011195
        k(   46) = (  -0.1212183  -0.1616244   0.1616244), wk =   0.0011195
        k(   47) = (  -0.1010153  -0.1414214   0.1414214), wk =   0.0011195
        k(   48) = (  -0.0808122  -0.1212183   0.1212183), wk =   0.0011195
        k(   49) = (  -0.0606092  -0.1010153   0.1010153), wk =   0.0011195
        k(   50) = (  -0.0404061  -0.0808122   0.0808122), wk =   0.0011195
        k(   51) = (  -0.0202031  -0.0606092   0.0606092), wk =   0.0011195
        k(   52) = (  -0.0000000  -0.0404061   0.0404061), wk =   0.0005598
        k(   53) = (   0.0808122   0.0000000   0.0000000), wk =   0.0002799
        k(   54) = (   0.1010153   0.0202031  -0.0202031), wk =   0.0011195
        k(   55) = (   0.1212183   0.0404061  -0.0404061), wk =   0.0011195
        k(   56) = (   0.1414214   0.0606092  -0.0606092), wk =   0.0011195
        k(   57) = (   0.1616244   0.0808122  -0.0808122), wk =   0.0011195
        k(   58) = (   0.1818275   0.1010153  -0.1010153), wk =   0.0011195
        k(   59) = (   0.2020305   0.1212183  -0.1212183), wk =   0.0011195
        k(   60) = (   0.2222336   0.1414214  -0.1414214), wk =   0.0011195
        k(   61) = (   0.2424366   0.1616244  -0.1616244), wk =   0.0011195
        k(   62) = (   0.2626397   0.1818275  -0.1818275), wk =   0.0011195
        k(   63) = (   0.2828427   0.2020305  -0.2020305), wk =   0.0011195
        k(   64) = (   0.3030458   0.2222336  -0.2222336), wk =   0.0011195
        k(   65) = (   0.3232488   0.2424366  -0.2424366), wk =   0.0011195
        k(   66) = (   0.3434519   0.2626397  -0.2626397), wk =   0.0011195
        k(   67) = (   0.3636549   0.2828427  -0.2828427), wk =   0.0011195
        k(   68) = (   0.3838580   0.3030458  -0.3030458), wk =   0.0011195
        k(   69) = (  -0.3030458  -0.3838580   0.3838580), wk =   0.0011195
        k(   70) = (  -0.2828427  -0.3636549   0.3636549), wk =   0.0011195
        k(   71) = (  -0.2626397  -0.3434519   0.3434519), wk =   0.0011195
        k(   72) = (  -0.2424366  -0.3232488   0.3232488), wk =   0.0011195
        k(   73) = (  -0.2222336  -0.3030458   0.3030458), wk =   0.0011195
        k(   74) = (  -0.2020305  -0.2828427   0.2828427), wk =   0.0011195
        k(   75) = (  -0.1818275  -0.2626397   0.2626397), wk =   0.0011195
        k(   76) = (  -0.1616244  -0.2424366   0.2424366), wk =   0.0011195
        k(   77) = (  -0.1414214  -0.2222336   0.2222336), wk =   0.0011195
        k(   78) = (  -0.1212183  -0.2020305   0.2020305), wk =   0.0011195
        k(   79) = (  -0.1010153  -0.1818275   0.1818275), wk =   0.0011195
        k(   80) = (  -0.0808122  -0.1616244   0.1616244), wk =   0.0011195
        k(   81) = (  -0.0606092  -0.1414214   0.1414214), wk =   0.0011195
        k(   82) = (  -0.0404061  -0.1212183   0.1212183), wk =   0.0011195
        k(   83) = (  -0.0202031  -0.1010153   0.1010153), wk =   0.0011195
        k(   84) = (  -0.0000000  -0.0808122   0.0808122), wk =   0.0005598
        k(   85) = (   0.1212183   0.0000000   0.0000000), wk =   0.0002799
        k(   86) = (   0.1414214   0.0202031  -0.0202031), wk =   0.0011195
        k(   87) = (   0.1616244   0.0404061  -0.0404061), wk =   0.0011195
        k(   88) = (   0.1818275   0.0606092  -0.0606092), wk =   0.0011195
        k(   89) = (   0.2020305   0.0808122  -0.0808122), wk =   0.0011195
        k(   90) = (   0.2222336   0.1010153  -0.1010153), wk =   0.0011195
        k(   91) = (   0.2424366   0.1212183  -0.1212183), wk =   0.0011195
        k(   92) = (   0.2626397   0.1414214  -0.1414214), wk =   0.0011195
        k(   93) = (   0.2828427   0.1616244  -0.1616244), wk =   0.0011195
        k(   94) = (   0.3030458   0.1818275  -0.1818275), wk =   0.0011195
        k(   95) = (   0.3232488   0.2020305  -0.2020305), wk =   0.0011195
        k(   96) = (   0.3434519   0.2222336  -0.2222336), wk =   0.0011195
        k(   97) = (   0.3636549   0.2424366  -0.2424366), wk =   0.0011195
        k(   98) = (   0.3838580   0.2626397  -0.2626397), wk =   0.0011195
        k(   99) = (   0.4040610   0.2828427  -0.2828427), wk =   0.0011195
        k(  100) = (  -0.2828427  -0.4040610   0.4040610), wk =   0.0011195
        k(  101) = (  -0.2626397  -0.3838580   0.3838580), wk =   0.0011195
        k(  102) = (  -0.2424366  -0.3636549   0.3636549), wk =   0.0011195
        k(  103) = (  -0.2222336  -0.3434519   0.3434519), wk =   0.0011195
        k(  104) = (  -0.2020305  -0.3232488   0.3232488), wk =   0.0011195
        k(  105) = (  -0.1818275  -0.3030458   0.3030458), wk =   0.0011195
        k(  106) = (  -0.1616244  -0.2828427   0.2828427), wk =   0.0011195
        k(  107) = (  -0.1414214  -0.2626397   0.2626397), wk =   0.0011195
        k(  108) = (  -0.1212183  -0.2424366   0.2424366), wk =   0.0011195
        k(  109) = (  -0.1010153  -0.2222336   0.2222336), wk =   0.0011195
        k(  110) = (  -0.0808122  -0.2020305   0.2020305), wk =   0.0011195
        k(  111) = (  -0.0606092  -0.1818275   0.1818275), wk =   0.0011195
        k(  112) = (  -0.0404061  -0.1616244   0.1616244), wk =   0.0011195
        k(  113) = (  -0.0202031  -0.1414214   0.1414214), wk =   0.0011195
        k(  114) = (  -0.0000000  -0.1212183   0.1212183), wk =   0.0005598
        k(  115) = (   0.1616244   0.0000000   0.0000000), wk =   0.0002799
        k(  116) = (   0.1818275   0.0202031  -0.0202031), wk =   0.0011195
        k(  117) = (   0.2020305   0.0404061  -0.0404061), wk =   0.0011195
        k(  118) = (   0.2222336   0.0606092  -0.0606092), wk =   0.0011195
        k(  119) = (   0.2424366   0.0808122  -0.0808122), wk =   0.0011195
        k(  120) = (   0.2626397   0.1010153  -0.1010153), wk =   0.0011195
        k(  121) = (   0.2828427   0.1212183  -0.1212183), wk =   0.0011195
        k(  122) = (   0.3030458   0.1414214  -0.1414214), wk =   0.0011195
        k(  123) = (   0.3232488   0.1616244  -0.1616244), wk =   0.0011195
        k(  124) = (   0.3434519   0.1818275  -0.1818275), wk =   0.0011195
        k(  125) = (   0.3636549   0.2020305  -0.2020305), wk =   0.0011195
        k(  126) = (   0.3838580   0.2222336  -0.2222336), wk =   0.0011195
        k(  127) = (   0.4040610   0.2424366  -0.2424366), wk =   0.0011195
        k(  128) = (   0.4242641   0.2626397  -0.2626397), wk =   0.0011195
        k(  129) = (  -0.2626397  -0.4242641   0.4242641), wk =   0.0011195
        k(  130) = (  -0.2424366  -0.4040610   0.4040610), wk =   0.0011195
        k(  131) = (  -0.2222336  -0.3838580   0.3838580), wk =   0.0011195
        k(  132) = (  -0.2020305  -0.3636549   0.3636549), wk =   0.0011195
        k(  133) = (  -0.1818275  -0.3434519   0.3434519), wk =   0.0011195
        k(  134) = (  -0.1616244  -0.3232488   0.3232488), wk =   0.0011195
        k(  135) = (  -0.1414214  -0.3030458   0.3030458), wk =   0.0011195
        k(  136) = (  -0.1212183  -0.2828427   0.2828427), wk =   0.0011195
        k(  137) = (  -0.1010153  -0.2626397   0.2626397), wk =   0.0011195
        k(  138) = (  -0.0808122  -0.2424366   0.2424366), wk =   0.0011195
        k(  139) = (  -0.0606092  -0.2222336   0.2222336), wk =   0.0011195
        k(  140) = (  -0.0404061  -0.2020305   0.2020305), wk =   0.0011195
        k(  141) = (  -0.0202031  -0.1818275   0.1818275), wk =   0.0011195
        k(  142) = (  -0.0000000  -0.1616244   0.1616244), wk =   0.0005598
        k(  143) = (   0.2020305   0.0000000   0.0000000), wk =   0.0002799
        k(  144) = (   0.2222336   0.0202031  -0.0202031), wk =   0.0011195
        k(  145) = (   0.2424366   0.0404061  -0.0404061), wk =   0.0011195
        k(  146) = (   0.2626397   0.0606092  -0.0606092), wk =   0.0011195
        k(  147) = (   0.2828427   0.0808122  -0.0808122), wk =   0.0011195
        k(  148) = (   0.3030458   0.1010153  -0.1010153), wk =   0.0011195
        k(  149) = (   0.3232488   0.1212183  -0.1212183), wk =   0.0011195
        k(  150) = (   0.3434519   0.1414214  -0.1414214), wk =   0.0011195
        k(  151) = (   0.3636549   0.1616244  -0.1616244), wk =   0.0011195
        k(  152) = (   0.3838580   0.1818275  -0.1818275), wk =   0.0011195
        k(  153) = (   0.4040610   0.2020305  -0.2020305), wk =   0.0011195
        k(  154) = (   0.4242641   0.2222336  -0.2222336), wk =   0.0011195
        k(  155) = (   0.4444671   0.2424366  -0.2424366), wk =   0.0011195
        k(  156) = (  -0.2424366  -0.4444671   0.4444671), wk =   0.0011195
        k(  157) = (  -0.2222336  -0.4242641   0.4242641), wk =   0.0011195
        k(  158) = (  -0.2020305  -0.4040610   0.4040610), wk =   0.0011195
        k(  159) = (  -0.1818275  -0.3838580   0.3838580), wk =   0.0011195
        k(  160) = (  -0.1616244  -0.3636549   0.3636549), wk =   0.0011195
        k(  161) = (  -0.1414214  -0.3434519   0.3434519), wk =   0.0011195
        k(  162) = (  -0.1212183  -0.3232488   0.3232488), wk =   0.0011195
        k(  163) = (  -0.1010153  -0.3030458   0.3030458), wk =   0.0011195
        k(  164) = (  -0.0808122  -0.2828427   0.2828427), wk =   0.0011195
        k(  165) = (  -0.0606092  -0.2626397   0.2626397), wk =   0.0011195
        k(  166) = (  -0.0404061  -0.2424366   0.2424366), wk =   0.0011195
        k(  167) = (  -0.0202031  -0.2222336   0.2222336), wk =   0.0011195
        k(  168) = (  -0.0000000  -0.2020305   0.2020305), wk =   0.0005598
        k(  169) = (   0.2424366   0.0000000   0.0000000), wk =   0.0002799
        k(  170) = (   0.2626397   0.0202031  -0.0202031), wk =   0.0011195
        k(  171) = (   0.2828427   0.0404061  -0.0404061), wk =   0.0011195
        k(  172) = (   0.3030458   0.0606092  -0.0606092), wk =   0.0011195
        k(  173) = (   0.3232488   0.0808122  -0.0808122), wk =   0.0011195
        k(  174) = (   0.3434519   0.1010153  -0.1010153), wk =   0.0011195
        k(  175) = (   0.3636549   0.1212183  -0.1212183), wk =   0.0011195
        k(  176) = (   0.3838580   0.1414214  -0.1414214), wk =   0.0011195
        k(  177) = (   0.4040610   0.1616244  -0.1616244), wk =   0.0011195
        k(  178) = (   0.4242641   0.1818275  -0.1818275), wk =   0.0011195
        k(  179) = (   0.4444671   0.2020305  -0.2020305), wk =   0.0011195
        k(  180) = (   0.4646702   0.2222336  -0.2222336), wk =   0.0011195
        k(  181) = (  -0.2222336  -0.4646702   0.4646702), wk =   0.0011195
        k(  182) = (  -0.2020305  -0.4444671   0.4444671), wk =   0.0011195
        k(  183) = (  -0.1818275  -0.4242641   0.4242641), wk =   0.0011195
        k(  184) = (  -0.1616244  -0.4040610   0.4040610), wk =   0.0011195
        k(  185) = (  -0.1414214  -0.3838580   0.3838580), wk =   0.0011195
        k(  186) = (  -0.1212183  -0.3636549   0.3636549), wk =   0.0011195
        k(  187) = (  -0.1010153  -0.3434519   0.3434519), wk =   0.0011195
        k(  188) = (  -0.0808122  -0.3232488   0.3232488), wk =   0.0011195
        k(  189) = (  -0.0606092  -0.3030458   0.3030458), wk =   0.0011195
        k(  190) = (  -0.0404061  -0.2828427   0.2828427), wk =   0.0011195
        k(  191) = (  -0.0202031  -0.2626397   0.2626397), wk =   0.0011195
        k(  192) = (   0.0000000  -0.2424366   0.2424366), wk =   0.0005598
        k(  193) = (   0.2828427   0.0000000   0.0000000), wk =   0.0002799
        k(  194) = (   0.3030458   0.0202031  -0.0202031), wk =   0.0011195
        k(  195) = (   0.3232488   0.0404061  -0.0404061), wk =   0.0011195
        k(  196) = (   0.3434519   0.0606092  -0.0606092), wk =   0.0011195
        k(  197) = (   0.3636549   0.0808122  -0.0808122), wk =   0.0011195
        k(  198) = (   0.3838580   0.1010153  -0.1010153), wk =   0.0011195
        k(  199) = (   0.4040610   0.1212183  -0.1212183), wk =   0.0011195
        k(  200) = (   0.4242641   0.1414214  -0.1414214), wk =   0.0011195
        k(  201) = (   0.4444671   0.1616244  -0.1616244), wk =   0.0011195
        k(  202) = (   0.4646702   0.1818275  -0.1818275), wk =   0.0011195
        k(  203) = (   0.4848732   0.2020305  -0.2020305), wk =   0.0011195
        k(  204) = (  -0.2020305  -0.4848732   0.4848732), wk =   0.0011195
        k(  205) = (  -0.1818275  -0.4646702   0.4646702), wk =   0.0011195
        k(  206) = (  -0.1616244  -0.4444671   0.4444671), wk =   0.0011195
        k(  207) = (  -0.1414214  -0.4242641   0.4242641), wk =   0.0011195
        k(  208) = (  -0.1212183  -0.4040610   0.4040610), wk =   0.0011195
        k(  209) = (  -0.1010153  -0.3838580   0.3838580), wk =   0.0011195
        k(  210) = (  -0.0808122  -0.3636549   0.3636549), wk =   0.0011195
        k(  211) = (  -0.0606092  -0.3434519   0.3434519), wk =   0.0011195
        k(  212) = (  -0.0404061  -0.3232488   0.3232488), wk =   0.0011195
        k(  213) = (  -0.0202031  -0.3030458   0.3030458), wk =   0.0011195
        k(  214) = (   0.0000000  -0.2828427   0.2828427), wk =   0.0005598
        k(  215) = (   0.3232488   0.0000000   0.0000000), wk =   0.0002799
        k(  216) = (   0.3434519   0.0202031  -0.0202031), wk =   0.0011195
        k(  217) = (   0.3636549   0.0404061  -0.0404061), wk =   0.0011195
        k(  218) = (   0.3838580   0.0606092  -0.0606092), wk =   0.0011195
        k(  219) = (   0.4040610   0.0808122  -0.0808122), wk =   0.0011195
        k(  220) = (   0.4242641   0.1010153  -0.1010153), wk =   0.0011195
        k(  221) = (   0.4444671   0.1212183  -0.1212183), wk =   0.0011195
        k(  222) = (   0.4646702   0.1414214  -0.1414214), wk =   0.0011195
        k(  223) = (   0.4848732   0.1616244  -0.1616244), wk =   0.0011195
        k(  224) = (   0.5050763   0.1818275  -0.1818275), wk =   0.0011195
        k(  225) = (  -0.1818275  -0.5050763   0.5050763), wk =   0.0011195
        k(  226) = (  -0.1616244  -0.4848732   0.4848732), wk =   0.0011195
        k(  227) = (  -0.1414214  -0.4646702   0.4646702), wk =   0.0011195
        k(  228) = (  -0.1212183  -0.4444671   0.4444671), wk =   0.0011195
        k(  229) = (  -0.1010153  -0.4242641   0.4242641), wk =   0.0011195
        k(  230) = (  -0.0808122  -0.4040610   0.4040610), wk =   0.0011195
        k(  231) = (  -0.0606092  -0.3838580   0.3838580), wk =   0.0011195
        k(  232) = (  -0.0404061  -0.3636549   0.3636549), wk =   0.0011195
        k(  233) = (  -0.0202031  -0.3434519   0.3434519), wk =   0.0011195
        k(  234) = (   0.0000000  -0.3232488   0.3232488), wk =   0.0005598
        k(  235) = (   0.3636549   0.0000000   0.0000000), wk =   0.0002799
        k(  236) = (   0.3838580   0.0202031  -0.0202031), wk =   0.0011195
        k(  237) = (   0.4040610   0.0404061  -0.0404061), wk =   0.0011195
        k(  238) = (   0.4242641   0.0606092  -0.0606092), wk =   0.0011195
        k(  239) = (   0.4444671   0.0808122  -0.0808122), wk =   0.0011195
        k(  240) = (   0.4646702   0.1010153  -0.1010153), wk =   0.0011195
        k(  241) = (   0.4848732   0.1212183  -0.1212183), wk =   0.0011195
        k(  242) = (   0.5050763   0.1414214  -0.1414214), wk =   0.0011195
        k(  243) = (   0.5252793   0.1616244  -0.1616244), wk =   0.0011195
        k(  244) = (  -0.1616244  -0.5252793   0.5252793), wk =   0.0011195
        k(  245) = (  -0.1414214  -0.5050763   0.5050763), wk =   0.0011195
        k(  246) = (  -0.1212183  -0.4848732   0.4848732), wk =   0.0011195
        k(  247) = (  -0.1010153  -0.4646702   0.4646702), wk =   0.0011195
        k(  248) = (  -0.0808122  -0.4444671   0.4444671), wk =   0.0011195
        k(  249) = (  -0.0606092  -0.4242641   0.4242641), wk =   0.0011195
        k(  250) = (  -0.0404061  -0.4040610   0.4040610), wk =   0.0011195
        k(  251) = (  -0.0202031  -0.3838580   0.3838580), wk =   0.0011195
        k(  252) = (   0.0000000  -0.3636549   0.3636549), wk =   0.0005598
        k(  253) = (   0.4040610   0.0000000   0.0000000), wk =   0.0002799
        k(  254) = (   0.4242641   0.0202031  -0.0202031), wk =   0.0011195
        k(  255) = (   0.4444671   0.0404061  -0.0404061), wk =   0.0011195
        k(  256) = (   0.4646702   0.0606092  -0.0606092), wk =   0.0011195
        k(  257) = (   0.4848732   0.0808122  -0.0808122), wk =   0.0011195
        k(  258) = (   0.5050763   0.1010153  -0.1010153), wk =   0.0011195
        k(  259) = (   0.5252793   0.1212183  -0.1212183), wk =   0.0011195
        k(  260) = (   0.5454824   0.1414214  -0.1414214), wk =   0.0011195
        k(  261) = (  -0.1414214  -0.5454824   0.5454824), wk =   0.0011195
        k(  262) = (  -0.1212183  -0.5252793   0.5252793), wk =   0.0011195
        k(  263) = (  -0.1010153  -0.5050763   0.5050763), wk =   0.0011195
        k(  264) = (  -0.0808122  -0.4848732   0.4848732), wk =   0.0011195
        k(  265) = (  -0.0606092  -0.4646702   0.4646702), wk =   0.0011195
        k(  266) = (  -0.0404061  -0.4444671   0.4444671), wk =   0.0011195
        k(  267) = (  -0.0202031  -0.4242641   0.4242641), wk =   0.0011195
        k(  268) = (   0.0000000  -0.4040610   0.4040610), wk =   0.0005598
        k(  269) = (   0.4444671   0.0000000   0.0000000), wk =   0.0002799
        k(  270) = (   0.4646702   0.0202031  -0.0202031), wk =   0.0011195
        k(  271) = (   0.4848732   0.0404061  -0.0404061), wk =   0.0011195
        k(  272) = (   0.5050763   0.0606092  -0.0606092), wk =   0.0011195
        k(  273) = (   0.5252793   0.0808122  -0.0808122), wk =   0.0011195
        k(  274) = (   0.5454824   0.1010153  -0.1010153), wk =   0.0011195
        k(  275) = (   0.5656854   0.1212183  -0.1212183), wk =   0.0011195
        k(  276) = (  -0.1212183  -0.5656854   0.5656854), wk =   0.0011195
        k(  277) = (  -0.1010153  -0.5454824   0.5454824), wk =   0.0011195
        k(  278) = (  -0.0808122  -0.5252793   0.5252793), wk =   0.0011195
        k(  279) = (  -0.0606092  -0.5050763   0.5050763), wk =   0.0011195
        k(  280) = (  -0.0404061  -0.4848732   0.4848732), wk =   0.0011195
        k(  281) = (  -0.0202031  -0.4646702   0.4646702), wk =   0.0011195
        k(  282) = (   0.0000000  -0.4444671   0.4444671), wk =   0.0005598
        k(  283) = (   0.4848732   0.0000000   0.0000000), wk =   0.0002799
        k(  284) = (   0.5050763   0.0202031  -0.0202031), wk =   0.0011195
        k(  285) = (   0.5252793   0.0404061  -0.0404061), wk =   0.0011195
        k(  286) = (   0.5454824   0.0606092  -0.0606092), wk =   0.0011195
        k(  287) = (   0.5656854   0.0808122  -0.0808122), wk =   0.0011195
        k(  288) = (   0.5858885   0.1010153  -0.1010153), wk =   0.0011195
        k(  289) = (  -0.1010153  -0.5858885   0.5858885), wk =   0.0011195
        k(  290) = (  -0.0808122  -0.5656854   0.5656854), wk =   0.0011195
        k(  291) = (  -0.0606092  -0.5454824   0.5454824), wk =   0.0011195
        k(  292) = (  -0.0404061  -0.5252793   0.5252793), wk =   0.0011195
        k(  293) = (  -0.0202031  -0.5050763   0.5050763), wk =   0.0011195
        k(  294) = (   0.0000000  -0.4848732   0.4848732), wk =   0.0005598
        k(  295) = (   0.5252793   0.0000000   0.0000000), wk =   0.0002799
        k(  296) = (   0.5454824   0.0202031  -0.0202031), wk =   0.0011195
        k(  297) = (   0.5656854   0.0404061  -0.0404061), wk =   0.0011195
        k(  298) = (   0.5858885   0.0606092  -0.0606092), wk =   0.0011195
        k(  299) = (   0.6060915   0.0808122  -0.0808122), wk =   0.0011195
        k(  300) = (  -0.0808122  -0.6060915   0.6060915), wk =   0.0011195
        k(  301) = (  -0.0606092  -0.5858885   0.5858885), wk =   0.0011195
        k(  302) = (  -0.0404061  -0.5656854   0.5656854), wk =   0.0011195
        k(  303) = (  -0.0202031  -0.5454824   0.5454824), wk =   0.0011195
        k(  304) = (   0.0000000  -0.5252793   0.5252793), wk =   0.0005598
        k(  305) = (   0.5656854   0.0000000   0.0000000), wk =   0.0002799
        k(  306) = (   0.5858885   0.0202031  -0.0202031), wk =   0.0011195
        k(  307) = (   0.6060915   0.0404061  -0.0404061), wk =   0.0011195
        k(  308) = (   0.6262946   0.0606092  -0.0606092), wk =   0.0011195
        k(  309) = (  -0.0606092  -0.6262946   0.6262946), wk =   0.0011195
        k(  310) = (  -0.0404061  -0.6060915   0.6060915), wk =   0.0011195
        k(  311) = (  -0.0202031  -0.5858885   0.5858885), wk =   0.0011195
        k(  312) = (   0.0000000  -0.5656854   0.5656854), wk =   0.0005598
        k(  313) = (   0.6060915   0.0000000   0.0000000), wk =   0.0002799
        k(  314) = (   0.6262946   0.0202031  -0.0202031), wk =   0.0011195
        k(  315) = (   0.6464976   0.0404061  -0.0404061), wk =   0.0011195
        k(  316) = (  -0.0404061  -0.6464976   0.6464976), wk =   0.0011195
        k(  317) = (  -0.0202031  -0.6262946   0.6262946), wk =   0.0011195
        k(  318) = (   0.0000000  -0.6060915   0.6060915), wk =   0.0005598
        k(  319) = (   0.6464976   0.0000000   0.0000000), wk =   0.0002799
        k(  320) = (   0.6667007   0.0202031  -0.0202031), wk =   0.0011195
        k(  321) = (  -0.0202031  -0.6667007   0.6667007), wk =   0.0011195
        k(  322) = (  -0.0000000  -0.6464976   0.6464976), wk =   0.0005598
        k(  323) = (   0.6869037   0.0000000   0.0000000), wk =   0.0002799
        k(  324) = (  -0.0000000  -0.6869037   0.6869037), wk =   0.0005598
        k(  325) = (   0.0808122   0.0404061   0.0000000), wk =   0.0011195
        k(  326) = (   0.1010153   0.0606092  -0.0202031), wk =   0.0022391
        k(  327) = (   0.1212183   0.0808122  -0.0404061), wk =   0.0022391
        k(  328) = (   0.1414214   0.1010153  -0.0606092), wk =   0.0022391
        k(  329) = (   0.1616244   0.1212183  -0.0808122), wk =   0.0022391
        k(  330) = (   0.1818275   0.1414214  -0.1010153), wk =   0.0022391
        k(  331) = (   0.2020305   0.1616244  -0.1212183), wk =   0.0022391
        k(  332) = (   0.2222336   0.1818275  -0.1414214), wk =   0.0022391
        k(  333) = (   0.2424366   0.2020305  -0.1616244), wk =   0.0022391
        k(  334) = (   0.2626397   0.2222336  -0.1818275), wk =   0.0022391
        k(  335) = (   0.2828427   0.2424366  -0.2020305), wk =   0.0022391
        k(  336) = (   0.3030458   0.2626397  -0.2222336), wk =   0.0022391
        k(  337) = (   0.3232488   0.2828427  -0.2424366), wk =   0.0022391
        k(  338) = (   0.3434519   0.3030458  -0.2626397), wk =   0.0022391
        k(  339) = (   0.3636549   0.3232488  -0.2828427), wk =   0.0022391
        k(  340) = (  -0.3232488  -0.3636549   0.4040610), wk =   0.0022391
        k(  341) = (   0.1212183   0.0404061   0.0000000), wk =   0.0011195
        k(  342) = (   0.1414214   0.0606092  -0.0202031), wk =   0.0022391
        k(  343) = (   0.1616244   0.0808122  -0.0404061), wk =   0.0022391
        k(  344) = (   0.1818275   0.1010153  -0.0606092), wk =   0.0022391
        k(  345) = (   0.2020305   0.1212183  -0.0808122), wk =   0.0022391
        k(  346) = (   0.2222336   0.1414214  -0.1010153), wk =   0.0022391
        k(  347) = (   0.2424366   0.1616244  -0.1212183), wk =   0.0022391
        k(  348) = (   0.2626397   0.1818275  -0.1414214), wk =   0.0022391
        k(  349) = (   0.2828427   0.2020305  -0.1616244), wk =   0.0022391
        k(  350) = (   0.3030458   0.2222336  -0.1818275), wk =   0.0022391
        k(  351) = (   0.3232488   0.2424366  -0.2020305), wk =   0.0022391
        k(  352) = (   0.3434519   0.2626397  -0.2222336), wk =   0.0022391
        k(  353) = (   0.3636549   0.2828427  -0.2424366), wk =   0.0022391
        k(  354) = (   0.3838580   0.3030458  -0.2626397), wk =   0.0022391
        k(  355) = (  -0.3030458  -0.3838580   0.4242641), wk =   0.0022391
        k(  356) = (  -0.2828427  -0.3636549   0.4040610), wk =   0.0022391
        k(  357) = (  -0.2626397  -0.3434519   0.3838580), wk =   0.0022391
        k(  358) = (  -0.2424366  -0.3232488   0.3636549), wk =   0.0022391
        k(  359) = (  -0.2222336  -0.3030458   0.3434519), wk =   0.0022391
        k(  360) = (  -0.2020305  -0.2828427   0.3232488), wk =   0.0022391
        k(  361) = (  -0.1818275  -0.2626397   0.3030458), wk =   0.0022391
        k(  362) = (  -0.1616244  -0.2424366   0.2828427), wk =   0.0022391
        k(  363) = (  -0.1414214  -0.2222336   0.2626397), wk =   0.0022391
        k(  364) = (  -0.1212183  -0.2020305   0.2424366), wk =   0.0022391
        k(  365) = (  -0.1010153  -0.1818275   0.2222336), wk =   0.0022391
        k(  366) = (  -0.0808122  -0.1616244   0.2020305), wk =   0.0022391
        k(  367) = (  -0.0606092  -0.1414214   0.1818275), wk =   0.0022391
        k(  368) = (  -0.0404061  -0.1212183   0.1616244), wk =   0.0022391
        k(  369) = (  -0.0202031  -0.1010153   0.1414214), wk =   0.0022391
        k(  370) = (  -0.0000000  -0.0808122   0.1212183), wk =   0.0011195
        k(  371) = (   0.1616244   0.0404061  -0.0000000), wk =   0.0011195
        k(  372) = (   0.1818275   0.0606092  -0.0202031), wk =   0.0022391
        k(  373) = (   0.2020305   0.0808122  -0.0404061), wk =   0.0022391
        k(  374) = (   0.2222336   0.1010153  -0.0606092), wk =   0.0022391
        k(  375) = (   0.2424366   0.1212183  -0.0808122), wk =   0.0022391
        k(  376) = (   0.2626397   0.1414214  -0.1010153), wk =   0.0022391
        k(  377) = (   0.2828427   0.1616244  -0.1212183), wk =   0.0022391
        k(  378) = (   0.3030458   0.1818275  -0.1414214), wk =   0.0022391
        k(  379) = (   0.3232488   0.2020305  -0.1616244), wk =   0.0022391
        k(  380) = (   0.3434519   0.2222336  -0.1818275), wk =   0.0022391
        k(  381) = (   0.3636549   0.2424366  -0.2020305), wk =   0.0022391
        k(  382) = (   0.3838580   0.2626397  -0.2222336), wk =   0.0022391
        k(  383) = (   0.4040610   0.2828427  -0.2424366), wk =   0.0022391
        k(  384) = (  -0.2828427  -0.4040610   0.4444671), wk =   0.0022391
        k(  385) = (  -0.2626397  -0.3838580   0.4242641), wk =   0.0022391
        k(  386) = (  -0.2424366  -0.3636549   0.4040610), wk =   0.0022391
        k(  387) = (  -0.2222336  -0.3434519   0.3838580), wk =   0.0022391
        k(  388) = (  -0.2020305  -0.3232488   0.3636549), wk =   0.0022391
        k(  389) = (  -0.1818275  -0.3030458   0.3434519), wk =   0.0022391
        k(  390) = (  -0.1616244  -0.2828427   0.3232488), wk =   0.0022391
        k(  391) = (  -0.1414214  -0.2626397   0.3030458), wk =   0.0022391
        k(  392) = (  -0.1212183  -0.2424366   0.2828427), wk =   0.0022391
        k(  393) = (  -0.1010153  -0.2222336   0.2626397), wk =   0.0022391
        k(  394) = (  -0.0808122  -0.2020305   0.2424366), wk =   0.0022391
        k(  395) = (  -0.0606092  -0.1818275   0.2222336), wk =   0.0022391
        k(  396) = (  -0.0404061  -0.1616244   0.2020305), wk =   0.0022391
        k(  397) = (  -0.0202031  -0.1414214   0.1818275), wk =   0.0022391
        k(  398) = (  -0.0000000  -0.1212183   0.1616244), wk =   0.0011195
        k(  399) = (   0.2020305   0.0404061   0.0000000), wk =   0.0011195
        k(  400) = (   0.2222336   0.0606092  -0.0202031), wk =   0.0022391
        k(  401) = (   0.2424366   0.0808122  -0.0404061), wk =   0.0022391
        k(  402) = (   0.2626397   0.1010153  -0.0606092), wk =   0.0022391
        k(  403) = (   0.2828427   0.1212183  -0.0808122), wk =   0.0022391
        k(  404) = (   0.3030458   0.1414214  -0.1010153), wk =   0.0022391
        k(  405) = (   0.3232488   0.1616244  -0.1212183), wk =   0.0022391
        k(  406) = (   0.3434519   0.1818275  -0.1414214), wk =   0.0022391
        k(  407) = (   0.3636549   0.2020305  -0.1616244), wk =   0.0022391
        k(  408) = (   0.3838580   0.2222336  -0.1818275), wk =   0.0022391
        k(  409) = (   0.4040610   0.2424366  -0.2020305), wk =   0.0022391
        k(  410) = (   0.4242641   0.2626397  -0.2222336), wk =   0.0022391
        k(  411) = (  -0.2626397  -0.4242641   0.4646702), wk =   0.0022391
        k(  412) = (  -0.2424366  -0.4040610   0.4444671), wk =   0.0022391
        k(  413) = (  -0.2222336  -0.3838580   0.4242641), wk =   0.0022391
        k(  414) = (  -0.2020305  -0.3636549   0.4040610), wk =   0.0022391
        k(  415) = (  -0.1818275  -0.3434519   0.3838580), wk =   0.0022391
        k(  416) = (  -0.1616244  -0.3232488   0.3636549), wk =   0.0022391
        k(  417) = (  -0.1414214  -0.3030458   0.3434519), wk =   0.0022391
        k(  418) = (  -0.1212183  -0.2828427   0.3232488), wk =   0.0022391
        k(  419) = (  -0.1010153  -0.2626397   0.3030458), wk =   0.0022391
        k(  420) = (  -0.0808122  -0.2424366   0.2828427), wk =   0.0022391
        k(  421) = (  -0.0606092  -0.2222336   0.2626397), wk =   0.0022391
        k(  422) = (  -0.0404061  -0.2020305   0.2424366), wk =   0.0022391
        k(  423) = (  -0.0202031  -0.1818275   0.2222336), wk =   0.0022391
        k(  424) = (  -0.0000000  -0.1616244   0.2020305), wk =   0.0011195
        k(  425) = (   0.2424366   0.0404061  -0.0000000), wk =   0.0011195
        k(  426) = (   0.2626397   0.0606092  -0.0202031), wk =   0.0022391
        k(  427) = (   0.2828427   0.0808122  -0.0404061), wk =   0.0022391
        k(  428) = (   0.3030458   0.1010153  -0.0606092), wk =   0.0022391
        k(  429) = (   0.3232488   0.1212183  -0.0808122), wk =   0.0022391
        k(  430) = (   0.3434519   0.1414214  -0.1010153), wk =   0.0022391
        k(  431) = (   0.3636549   0.1616244  -0.1212183), wk =   0.0022391
        k(  432) = (   0.3838580   0.1818275  -0.1414214), wk =   0.0022391
        k(  433) = (   0.4040610   0.2020305  -0.1616244), wk =   0.0022391
        k(  434) = (   0.4242641   0.2222336  -0.1818275), wk =   0.0022391
        k(  435) = (   0.4444671   0.2424366  -0.2020305), wk =   0.0022391
        k(  436) = (  -0.2424366  -0.4444671   0.4848732), wk =   0.0022391
        k(  437) = (  -0.2222336  -0.4242641   0.4646702), wk =   0.0022391
        k(  438) = (  -0.2020305  -0.4040610   0.4444671), wk =   0.0022391
        k(  439) = (  -0.1818275  -0.3838580   0.4242641), wk =   0.0022391
        k(  440) = (  -0.1616244  -0.3636549   0.4040610), wk =   0.0022391
        k(  441) = (  -0.1414214  -0.3434519   0.3838580), wk =   0.0022391
        k(  442) = (  -0.1212183  -0.3232488   0.3636549), wk =   0.0022391
        k(  443) = (  -0.1010153  -0.3030458   0.3434519), wk =   0.0022391
        k(  444) = (  -0.0808122  -0.2828427   0.3232488), wk =   0.0022391
        k(  445) = (  -0.0606092  -0.2626397   0.3030458), wk =   0.0022391
        k(  446) = (  -0.0404061  -0.2424366   0.2828427), wk =   0.0022391
        k(  447) = (  -0.0202031  -0.2222336   0.2626397), wk =   0.0022391
        k(  448) = (  -0.0000000  -0.2020305   0.2424366), wk =   0.0011195
        k(  449) = (   0.2828427   0.0404061   0.0000000), wk =   0.0011195
        k(  450) = (   0.3030458   0.0606092  -0.0202031), wk =   0.0022391
        k(  451) = (   0.3232488   0.0808122  -0.0404061), wk =   0.0022391
        k(  452) = (   0.3434519   0.1010153  -0.0606092), wk =   0.0022391
        k(  453) = (   0.3636549   0.1212183  -0.0808122), wk =   0.0022391
        k(  454) = (   0.3838580   0.1414214  -0.1010153), wk =   0.0022391
        k(  455) = (   0.4040610   0.1616244  -0.1212183), wk =   0.0022391
        k(  456) = (   0.4242641   0.1818275  -0.1414214), wk =   0.0022391
        k(  457) = (   0.4444671   0.2020305  -0.1616244), wk =   0.0022391
        k(  458) = (   0.4646702   0.2222336  -0.1818275), wk =   0.0022391
        k(  459) = (  -0.2222336  -0.4646702   0.5050763), wk =   0.0022391
        k(  460) = (  -0.2020305  -0.4444671   0.4848732), wk =   0.0022391
        k(  461) = (  -0.1818275  -0.4242641   0.4646702), wk =   0.0022391
        k(  462) = (  -0.1616244  -0.4040610   0.4444671), wk =   0.0022391
        k(  463) = (  -0.1414214  -0.3838580   0.4242641), wk =   0.0022391
        k(  464) = (  -0.1212183  -0.3636549   0.4040610), wk =   0.0022391
        k(  465) = (  -0.1010153  -0.3434519   0.3838580), wk =   0.0022391
        k(  466) = (  -0.0808122  -0.3232488   0.3636549), wk =   0.0022391
        k(  467) = (  -0.0606092  -0.3030458   0.3434519), wk =   0.0022391
        k(  468) = (  -0.0404061  -0.2828427   0.3232488), wk =   0.0022391
        k(  469) = (  -0.0202031  -0.2626397   0.3030458), wk =   0.0022391
        k(  470) = (   0.0000000  -0.2424366   0.2828427), wk =   0.0011195
        k(  471) = (   0.3232488   0.0404061   0.0000000), wk =   0.0011195
        k(  472) = (   0.3434519   0.0606092  -0.0202031), wk =   0.0022391
        k(  473) = (   0.3636549   0.0808122  -0.0404061), wk =   0.0022391
        k(  474) = (   0.3838580   0.1010153  -0.0606092), wk =   0.0022391
        k(  475) = (   0.4040610   0.1212183  -0.0808122), wk =   0.0022391
        k(  476) = (   0.4242641   0.1414214  -0.1010153), wk =   0.0022391
        k(  477) = (   0.4444671   0.1616244  -0.1212183), wk =   0.0022391
        k(  478) = (   0.4646702   0.1818275  -0.1414214), wk =   0.0022391
        k(  479) = (   0.4848732   0.2020305  -0.1616244), wk =   0.0022391
        k(  480) = (  -0.2020305  -0.4848732   0.5252793), wk =   0.0022391
        k(  481) = (  -0.1818275  -0.4646702   0.5050763), wk =   0.0022391
        k(  482) = (  -0.1616244  -0.4444671   0.4848732), wk =   0.0022391
        k(  483) = (  -0.1414214  -0.4242641   0.4646702), wk =   0.0022391
        k(  484) = (  -0.1212183  -0.4040610   0.4444671), wk =   0.0022391
        k(  485) = (  -0.1010153  -0.3838580   0.4242641), wk =   0.0022391
        k(  486) = (  -0.0808122  -0.3636549   0.4040610), wk =   0.0022391
        k(  487) = (  -0.0606092  -0.3434519   0.3838580), wk =   0.0022391
        k(  488) = (  -0.0404061  -0.3232488   0.3636549), wk =   0.0022391
        k(  489) = (  -0.0202031  -0.3030458   0.3434519), wk =   0.0022391
        k(  490) = (   0.0000000  -0.2828427   0.3232488), wk =   0.0011195
        k(  491) = (   0.3636549   0.0404061  -0.0000000), wk =   0.0011195
        k(  492) = (   0.3838580   0.0606092  -0.0202031), wk =   0.0022391
        k(  493) = (   0.4040610   0.0808122  -0.0404061), wk =   0.0022391
        k(  494) = (   0.4242641   0.1010153  -0.0606092), wk =   0.0022391
        k(  495) = (   0.4444671   0.1212183  -0.0808122), wk =   0.0022391
        k(  496) = (   0.4646702   0.1414214  -0.1010153), wk =   0.0022391
        k(  497) = (   0.4848732   0.1616244  -0.1212183), wk =   0.0022391
        k(  498) = (   0.5050763   0.1818275  -0.1414214), wk =   0.0022391
        k(  499) = (  -0.1818275  -0.5050763   0.5454824), wk =   0.0022391
        k(  500) = (  -0.1616244  -0.4848732   0.5252793), wk =   0.0022391
        k(  501) = (  -0.1414214  -0.4646702   0.5050763), wk =   0.0022391
        k(  502) = (  -0.1212183  -0.4444671   0.4848732), wk =   0.0022391
        k(  503) = (  -0.1010153  -0.4242641   0.4646702), wk =   0.0022391
        k(  504) = (  -0.0808122  -0.4040610   0.4444671), wk =   0.0022391
        k(  505) = (  -0.0606092  -0.3838580   0.4242641), wk =   0.0022391
        k(  506) = (  -0.0404061  -0.3636549   0.4040610), wk =   0.0022391
        k(  507) = (  -0.0202031  -0.3434519   0.3838580), wk =   0.0022391
        k(  508) = (   0.0000000  -0.3232488   0.3636549), wk =   0.0011195
        k(  509) = (   0.4040610   0.0404061   0.0000000), wk =   0.0011195
        k(  510) = (   0.4242641   0.0606092  -0.0202031), wk =   0.0022391
        k(  511) = (   0.4444671   0.0808122  -0.0404061), wk =   0.0022391
        k(  512) = (   0.4646702   0.1010153  -0.0606092), wk =   0.0022391
        k(  513) = (   0.4848732   0.1212183  -0.0808122), wk =   0.0022391
        k(  514) = (   0.5050763   0.1414214  -0.1010153), wk =   0.0022391
        k(  515) = (   0.5252793   0.1616244  -0.1212183), wk =   0.0022391
        k(  516) = (  -0.1616244  -0.5252793   0.5656854), wk =   0.0022391
        k(  517) = (  -0.1414214  -0.5050763   0.5454824), wk =   0.0022391
        k(  518) = (  -0.1212183  -0.4848732   0.5252793), wk =   0.0022391
        k(  519) = (  -0.1010153  -0.4646702   0.5050763), wk =   0.0022391
        k(  520) = (  -0.0808122  -0.4444671   0.4848732), wk =   0.0022391
        k(  521) = (  -0.0606092  -0.4242641   0.4646702), wk =   0.0022391
        k(  522) = (  -0.0404061  -0.4040610   0.4444671), wk =   0.0022391
        k(  523) = (  -0.0202031  -0.3838580   0.4242641), wk =   0.0022391
        k(  524) = (   0.0000000  -0.3636549   0.4040610), wk =   0.0011195
        k(  525) = (   0.4444671   0.0404061   0.0000000), wk =   0.0011195
        k(  526) = (   0.4646702   0.0606092  -0.0202031), wk =   0.0022391
        k(  527) = (   0.4848732   0.0808122  -0.0404061), wk =   0.0022391
        k(  528) = (   0.5050763   0.1010153  -0.0606092), wk =   0.0022391
        k(  529) = (   0.5252793   0.1212183  -0.0808122), wk =   0.0022391
        k(  530) = (   0.5454824   0.1414214  -0.1010153), wk =   0.0022391
        k(  531) = (  -0.1414214  -0.5454824   0.5858885), wk =   0.0022391
        k(  532) = (  -0.1212183  -0.5252793   0.5656854), wk =   0.0022391
        k(  533) = (  -0.1010153  -0.5050763   0.5454824), wk =   0.0022391
        k(  534) = (  -0.0808122  -0.4848732   0.5252793), wk =   0.0022391
        k(  535) = (  -0.0606092  -0.4646702   0.5050763), wk =   0.0022391
        k(  536) = (  -0.0404061  -0.4444671   0.4848732), wk =   0.0022391
        k(  537) = (  -0.0202031  -0.4242641   0.4646702), wk =   0.0022391
        k(  538) = (   0.0000000  -0.4040610   0.4444671), wk =   0.0011195
        k(  539) = (   0.4848732   0.0404061   0.0000000), wk =   0.0011195
        k(  540) = (   0.5050763   0.0606092  -0.0202031), wk =   0.0022391
        k(  541) = (   0.5252793   0.0808122  -0.0404061), wk =   0.0022391
        k(  542) = (   0.5454824   0.1010153  -0.0606092), wk =   0.0022391
        k(  543) = (   0.5656854   0.1212183  -0.0808122), wk =   0.0022391
        k(  544) = (  -0.1212183  -0.5656854   0.6060915), wk =   0.0022391
        k(  545) = (  -0.1010153  -0.5454824   0.5858885), wk =   0.0022391
        k(  546) = (  -0.0808122  -0.5252793   0.5656854), wk =   0.0022391
        k(  547) = (  -0.0606092  -0.5050763   0.5454824), wk =   0.0022391
        k(  548) = (  -0.0404061  -0.4848732   0.5252793), wk =   0.0022391
        k(  549) = (  -0.0202031  -0.4646702   0.5050763), wk =   0.0022391
        k(  550) = (   0.0000000  -0.4444671   0.4848732), wk =   0.0011195
        k(  551) = (   0.5252793   0.0404061   0.0000000), wk =   0.0011195
        k(  552) = (   0.5454824   0.0606092  -0.0202031), wk =   0.0022391
        k(  553) = (   0.5656854   0.0808122  -0.0404061), wk =   0.0022391
        k(  554) = (   0.5858885   0.1010153  -0.0606092), wk =   0.0022391
        k(  555) = (  -0.1010153  -0.5858885   0.6262946), wk =   0.0022391
        k(  556) = (  -0.0808122  -0.5656854   0.6060915), wk =   0.0022391
        k(  557) = (  -0.0606092  -0.5454824   0.5858885), wk =   0.0022391
        k(  558) = (  -0.0404061  -0.5252793   0.5656854), wk =   0.0022391
        k(  559) = (  -0.0202031  -0.5050763   0.5454824), wk =   0.0022391
        k(  560) = (   0.0000000  -0.4848732   0.5252793), wk =   0.0011195
        k(  561) = (   0.5656854   0.0404061   0.0000000), wk =   0.0011195
        k(  562) = (   0.5858885   0.0606092  -0.0202031), wk =   0.0022391
        k(  563) = (   0.6060915   0.0808122  -0.0404061), wk =   0.0022391
        k(  564) = (  -0.0808122  -0.6060915   0.6464976), wk =   0.0022391
        k(  565) = (  -0.0606092  -0.5858885   0.6262946), wk =   0.0022391
        k(  566) = (  -0.0404061  -0.5656854   0.6060915), wk =   0.0022391
        k(  567) = (  -0.0202031  -0.5454824   0.5858885), wk =   0.0022391
        k(  568) = (   0.0000000  -0.5252793   0.5656854), wk =   0.0011195
        k(  569) = (   0.6060915   0.0404061   0.0000000), wk =   0.0011195
        k(  570) = (   0.6262946   0.0606092  -0.0202031), wk =   0.0022391
        k(  571) = (  -0.0606092  -0.6262946   0.6667007), wk =   0.0022391
        k(  572) = (  -0.0404061  -0.6060915   0.6464976), wk =   0.0022391
        k(  573) = (  -0.0202031  -0.5858885   0.6262946), wk =   0.0022391
        k(  574) = (  -0.0000000  -0.5656854   0.6060915), wk =   0.0011195
        k(  575) = (   0.6464976   0.0404061   0.0000000), wk =   0.0011195
        k(  576) = (  -0.0404061  -0.6464976   0.6869037), wk =   0.0022391
        k(  577) = (  -0.0202031  -0.6262946   0.6667007), wk =   0.0022391
        k(  578) = (  -0.0000000  -0.6060915   0.6464976), wk =   0.0011195
        k(  579) = (  -0.0202031  -0.6667007   0.7071068), wk =   0.0011195
        k(  580) = (  -0.0000000  -0.6464976   0.6869037), wk =   0.0011195
        k(  581) = (   0.1616244   0.0808122   0.0000000), wk =   0.0011195
        k(  582) = (   0.1818275   0.1010153  -0.0202031), wk =   0.0022391
        k(  583) = (   0.2020305   0.1212183  -0.0404061), wk =   0.0022391
        k(  584) = (   0.2222336   0.1414214  -0.0606092), wk =   0.0022391
        k(  585) = (   0.2424366   0.1616244  -0.0808122), wk =   0.0022391
        k(  586) = (   0.2626397   0.1818275  -0.1010153), wk =   0.0022391
        k(  587) = (   0.2828427   0.2020305  -0.1212183), wk =   0.0022391
        k(  588) = (   0.3030458   0.2222336  -0.1414214), wk =   0.0022391
        k(  589) = (   0.3232488   0.2424366  -0.1616244), wk =   0.0022391
        k(  590) = (   0.3434519   0.2626397  -0.1818275), wk =   0.0022391
        k(  591) = (   0.3636549   0.2828427  -0.2020305), wk =   0.0022391
        k(  592) = (   0.3838580   0.3030458  -0.2222336), wk =   0.0022391
        k(  593) = (  -0.3030458  -0.3838580   0.4646702), wk =   0.0022391
        k(  594) = (  -0.2828427  -0.3636549   0.4444671), wk =   0.0022391
        k(  595) = (   0.2020305   0.0808122  -0.0000000), wk =   0.0011195
        k(  596) = (   0.2222336   0.1010153  -0.0202031), wk =   0.0022391
        k(  597) = (   0.2424366   0.1212183  -0.0404061), wk =   0.0022391
        k(  598) = (   0.2626397   0.1414214  -0.0606092), wk =   0.0022391
        k(  599) = (   0.2828427   0.1616244  -0.0808122), wk =   0.0022391
        k(  600) = (   0.3030458   0.1818275  -0.1010153), wk =   0.0022391
        k(  601) = (   0.3232488   0.2020305  -0.1212183), wk =   0.0022391
        k(  602) = (   0.3434519   0.2222336  -0.1414214), wk =   0.0022391
        k(  603) = (   0.3636549   0.2424366  -0.1616244), wk =   0.0022391
        k(  604) = (   0.3838580   0.2626397  -0.1818275), wk =   0.0022391
        k(  605) = (   0.4040610   0.2828427  -0.2020305), wk =   0.0022391
        k(  606) = (  -0.2828427  -0.4040610   0.4848732), wk =   0.0022391
        k(  607) = (  -0.2626397  -0.3838580   0.4646702), wk =   0.0022391
        k(  608) = (  -0.2424366  -0.3636549   0.4444671), wk =   0.0022391
        k(  609) = (  -0.2222336  -0.3434519   0.4242641), wk =   0.0022391
        k(  610) = (  -0.2020305  -0.3232488   0.4040610), wk =   0.0022391
        k(  611) = (  -0.1818275  -0.3030458   0.3838580), wk =   0.0022391
        k(  612) = (  -0.1616244  -0.2828427   0.3636549), wk =   0.0022391
        k(  613) = (  -0.1414214  -0.2626397   0.3434519), wk =   0.0022391
        k(  614) = (  -0.1212183  -0.2424366   0.3232488), wk =   0.0022391
        k(  615) = (  -0.1010153  -0.2222336   0.3030458), wk =   0.0022391
        k(  616) = (  -0.0808122  -0.2020305   0.2828427), wk =   0.0022391
        k(  617) = (  -0.0606092  -0.1818275   0.2626397), wk =   0.0022391
        k(  618) = (  -0.0404061  -0.1616244   0.2424366), wk =   0.0022391
        k(  619) = (  -0.0202031  -0.1414214   0.2222336), wk =   0.0022391
        k(  620) = (  -0.0000000  -0.1212183   0.2020305), wk =   0.0011195
        k(  621) = (   0.2424366   0.0808122   0.0000000), wk =   0.0011195
        k(  622) = (   0.2626397   0.1010153  -0.0202031), wk =   0.0022391
        k(  623) = (   0.2828427   0.1212183  -0.0404061), wk =   0.0022391
        k(  624) = (   0.3030458   0.1414214  -0.0606092), wk =   0.0022391
        k(  625) = (   0.3232488   0.1616244  -0.0808122), wk =   0.0022391
        k(  626) = (   0.3434519   0.1818275  -0.1010153), wk =   0.0022391
        k(  627) = (   0.3636549   0.2020305  -0.1212183), wk =   0.0022391
        k(  628) = (   0.3838580   0.2222336  -0.1414214), wk =   0.0022391
        k(  629) = (   0.4040610   0.2424366  -0.1616244), wk =   0.0022391
        k(  630) = (   0.4242641   0.2626397  -0.1818275), wk =   0.0022391
        k(  631) = (  -0.2626397  -0.4242641   0.5050763), wk =   0.0022391
        k(  632) = (  -0.2424366  -0.4040610   0.4848732), wk =   0.0022391
        k(  633) = (  -0.2222336  -0.3838580   0.4646702), wk =   0.0022391
        k(  634) = (  -0.2020305  -0.3636549   0.4444671), wk =   0.0022391
        k(  635) = (  -0.1818275  -0.3434519   0.4242641), wk =   0.0022391
        k(  636) = (  -0.1616244  -0.3232488   0.4040610), wk =   0.0022391
        k(  637) = (  -0.1414214  -0.3030458   0.3838580), wk =   0.0022391
        k(  638) = (  -0.1212183  -0.2828427   0.3636549), wk =   0.0022391
        k(  639) = (  -0.1010153  -0.2626397   0.3434519), wk =   0.0022391
        k(  640) = (  -0.0808122  -0.2424366   0.3232488), wk =   0.0022391
        k(  641) = (  -0.0606092  -0.2222336   0.3030458), wk =   0.0022391
        k(  642) = (  -0.0404061  -0.2020305   0.2828427), wk =   0.0022391
        k(  643) = (  -0.0202031  -0.1818275   0.2626397), wk =   0.0022391
        k(  644) = (  -0.0000000  -0.1616244   0.2424366), wk =   0.0011195
        k(  645) = (   0.2828427   0.0808122   0.0000000), wk =   0.0011195
        k(  646) = (   0.3030458   0.1010153  -0.0202031), wk =   0.0022391
        k(  647) = (   0.3232488   0.1212183  -0.0404061), wk =   0.0022391
        k(  648) = (   0.3434519   0.1414214  -0.0606092), wk =   0.0022391
        k(  649) = (   0.3636549   0.1616244  -0.0808122), wk =   0.0022391
        k(  650) = (   0.3838580   0.1818275  -0.1010153), wk =   0.0022391
        k(  651) = (   0.4040610   0.2020305  -0.1212183), wk =   0.0022391
        k(  652) = (   0.4242641   0.2222336  -0.1414214), wk =   0.0022391
        k(  653) = (   0.4444671   0.2424366  -0.1616244), wk =   0.0022391
        k(  654) = (  -0.2424366  -0.4444671   0.5252793), wk =   0.0022391
        k(  655) = (  -0.2222336  -0.4242641   0.5050763), wk =   0.0022391
        k(  656) = (  -0.2020305  -0.4040610   0.4848732), wk =   0.0022391
        k(  657) = (  -0.1818275  -0.3838580   0.4646702), wk =   0.0022391
        k(  658) = (  -0.1616244  -0.3636549   0.4444671), wk =   0.0022391
        k(  659) = (  -0.1414214  -0.3434519   0.4242641), wk =   0.0022391
        k(  660) = (  -0.1212183  -0.3232488   0.4040610), wk =   0.0022391
        k(  661) = (  -0.1010153  -0.3030458   0.3838580), wk =   0.0022391
        k(  662) = (  -0.0808122  -0.2828427   0.3636549), wk =   0.0022391
        k(  663) = (  -0.0606092  -0.2626397   0.3434519), wk =   0.0022391
        k(  664) = (  -0.0404061  -0.2424366   0.3232488), wk =   0.0022391
        k(  665) = (  -0.0202031  -0.2222336   0.3030458), wk =   0.0022391
        k(  666) = (   0.0000000  -0.2020305   0.2828427), wk =   0.0011195
        k(  667) = (   0.3232488   0.0808122  -0.0000000), wk =   0.0011195
        k(  668) = (   0.3434519   0.1010153  -0.0202031), wk =   0.0022391
        k(  669) = (   0.3636549   0.1212183  -0.0404061), wk =   0.0022391
        k(  670) = (   0.3838580   0.1414214  -0.0606092), wk =   0.0022391
        k(  671) = (   0.4040610   0.1616244  -0.0808122), wk =   0.0022391
        k(  672) = (   0.4242641   0.1818275  -0.1010153), wk =   0.0022391
        k(  673) = (   0.4444671   0.2020305  -0.1212183), wk =   0.0022391
        k(  674) = (   0.4646702   0.2222336  -0.1414214), wk =   0.0022391
        k(  675) = (  -0.2222336  -0.4646702   0.5454824), wk =   0.0022391
        k(  676) = (  -0.2020305  -0.4444671   0.5252793), wk =   0.0022391
        k(  677) = (  -0.1818275  -0.4242641   0.5050763), wk =   0.0022391
        k(  678) = (  -0.1616244  -0.4040610   0.4848732), wk =   0.0022391
        k(  679) = (  -0.1414214  -0.3838580   0.4646702), wk =   0.0022391
        k(  680) = (  -0.1212183  -0.3636549   0.4444671), wk =   0.0022391
        k(  681) = (  -0.1010153  -0.3434519   0.4242641), wk =   0.0022391
        k(  682) = (  -0.0808122  -0.3232488   0.4040610), wk =   0.0022391
        k(  683) = (  -0.0606092  -0.3030458   0.3838580), wk =   0.0022391
        k(  684) = (  -0.0404061  -0.2828427   0.3636549), wk =   0.0022391
        k(  685) = (  -0.0202031  -0.2626397   0.3434519), wk =   0.0022391
        k(  686) = (   0.0000000  -0.2424366   0.3232488), wk =   0.0011195
        k(  687) = (   0.3636549   0.0808122  -0.0000000), wk =   0.0011195
        k(  688) = (   0.3838580   0.1010153  -0.0202031), wk =   0.0022391
        k(  689) = (   0.4040610   0.1212183  -0.0404061), wk =   0.0022391
        k(  690) = (   0.4242641   0.1414214  -0.0606092), wk =   0.0022391
        k(  691) = (   0.4444671   0.1616244  -0.0808122), wk =   0.0022391
        k(  692) = (   0.4646702   0.1818275  -0.1010153), wk =   0.0022391
        k(  693) = (   0.4848732   0.2020305  -0.1212183), wk =   0.0022391
        k(  694) = (  -0.2020305  -0.4848732   0.5656854), wk =   0.0022391
        k(  695) = (  -0.1818275  -0.4646702   0.5454824), wk =   0.0022391
        k(  696) = (  -0.1616244  -0.4444671   0.5252793), wk =   0.0022391
        k(  697) = (  -0.1414214  -0.4242641   0.5050763), wk =   0.0022391
        k(  698) = (  -0.1212183  -0.4040610   0.4848732), wk =   0.0022391
        k(  699) = (  -0.1010153  -0.3838580   0.4646702), wk =   0.0022391
        k(  700) = (  -0.0808122  -0.3636549   0.4444671), wk =   0.0022391
        k(  701) = (  -0.0606092  -0.3434519   0.4242641), wk =   0.0022391
        k(  702) = (  -0.0404061  -0.3232488   0.4040610), wk =   0.0022391
        k(  703) = (  -0.0202031  -0.3030458   0.3838580), wk =   0.0022391
        k(  704) = (   0.0000000  -0.2828427   0.3636549), wk =   0.0011195
[...]
    12.9548  14.3173

     occupation numbers 
     1.0000   1.0000   1.0000   1.0000   1.0000   1.0000   1.0000   1.0000
     1.0000   1.0000   1.0000   1.0000   1.0000   1.0000   0.0000   0.0000
     0.0000   0.0000

          k =-0.1212-0.4445 0.6869 ( 17046 PWs)   bands (ev):

   -12.4202 -12.4154 -12.3055 -12.2455 -12.2415 -12.2101 -12.1852 -12.1598
   -12.0505 -12.0463  -0.3633   1.0049   5.8019   6.3321  10.5951  11.0506
    12.9133  14.1534

     occupation numbers 
     1.0000   1.0000   1.0000   1.0000   1.0000   1.0000   1.0000   1.0000
     1.0000   1.0000   1.0000   1.0000   1.0000   1.0000   0.0000   0.0000
     0.0000   0.0000

          k =-0.1010-0.4243 0.6667 ( 17052 PWs)   bands (ev):

   -12.4219 -12.4161 -12.2996 -12.2470 -12.2373 -12.2088 -12.1906 -12.1645
   -12.0499 -12.0444  -0.2509   0.8768   5.7489   6.2871  10.6153  11.3066
    12.8997  13.9166

     occupation numbers 
     1.0000   1.0000   1.0000   1.0000   1.0000   1.0000   1.0000   1.0000
     1.0000   1.0000   1.0000   1.0000   1.0000   1.0000   0.0000   0.0000
     0.0000   0.0000

          k =-0.0808-0.4041 0.6465 ( 17050 PWs)   bands (ev):

   -12.4231 -12.4164 -12.2956 -12.2470 -12.2336 -12.2096 -12.1946 -12.1675
   -12.0495 -12.0429  -0.1695   0.7864   5.7047   6.2691  10.6240  11.5394
    12.9232  13.6542

     occupation numbers 
     1.0000   1.0000   1.0000   1.0000   1.0000   1.0000   1.0000   1.0000
     1.0000   1.0000   1.0000   1.0000   1.0000   1.0000   0.0000   0.0000
     0.0000   0.0000

          k =-0.0606-0.3839 0.6263 ( 17046 PWs)   bands (ev):

   -12.4238 -12.4164 -12.2940 -12.2455 -12.2320 -12.2114 -12.1966 -12.1686
   -12.0494 -12.0422  -0.1418   0.7564   5.6717   6.2781  10.6262  11.7056
    12.9695  13.4377

     occupation numbers 
     1.0000   1.0000   1.0000   1.0000   1.0000   1.0000   1.0000   1.0000
     1.0000   1.0000   1.0000   1.0000   1.0000   1.0000   0.0000   0.0000
     0.0000   0.0000

          k =-0.0404-0.3637 0.6061 ( 17044 PWs)   bands (ev):

   -12.4240 -12.4161 -12.2947 -12.2426 -12.2339 -12.2123 -12.1966 -12.1680
   -12.0496 -12.0421  -0.1784   0.7972   5.6532   6.3121  10.6200  11.7721
    12.9329  13.4143

     occupation numbers 
     1.0000   1.0000   1.0000   1.0000   1.0000   1.0000   1.0000   1.0000
     1.0000   1.0000   1.0000   1.0000   1.0000   1.0000   0.0000   0.0000
     0.0000   0.0000

          k =-0.0202-0.3435 0.5859 ( 17051 PWs)   bands (ev):

   -12.4236 -12.4157 -12.2975 -12.2404 -12.2368 -12.2138 -12.1935 -12.1660
   -12.0501 -12.0427  -0.2650   0.8942   5.6523   6.3679  10.5993  11.7319
    12.8229  13.5829

     occupation numbers 
     1.0000   1.0000   1.0000   1.0000   1.0000   1.0000   1.0000   1.0000
     1.0000   1.0000   1.0000   1.0000   1.0000   1.0000   0.0000   0.0000
     0.0000   0.0000

          k = 0.0000-0.3232 0.5657 ( 17043 PWs)   bands (ev):

   -12.4227 -12.4149 -12.3020 -12.2447 -12.2336 -12.2170 -12.1876 -12.1630
   -12.0509 -12.0439  -0.3790   1.0242   5.6718   6.4420  10.5538  11.6135
    12.7547  13.7917

     occupation numbers 
     1.0000   1.0000   1.0000   1.0000   1.0000   1.0000   1.0000   1.0000
     1.0000   1.0000   1.0000   1.0000   1.0000   1.0000   0.0000   0.0000
     0.0000   0.0000

          k =-0.1010-0.4647 0.7071 ( 17051 PWs)   bands (ev):

   -12.4193 -12.4162 -12.3043 -12.2543 -12.2368 -12.2032 -12.1887 -12.1603
   -12.0497 -12.0472  -0.2759   0.9028   5.8604   6.2468  10.6132  10.7871
    13.1248  14.2518

     occupation numbers 
     1.0000   1.0000   1.0000   1.0000   1.0000   1.0000   1.0000   1.0000
     1.0000   1.0000   1.0000   1.0000   1.0000   1.0000   0.0000   0.0000
     0.0000   0.0000

          k =-0.0808-0.4445 0.6869 ( 17061 PWs)   bands (ev):

   -12.4208 -12.4171 -12.2972 -12.2563 -12.2326 -12.2010 -12.1944 -12.1663
   -12.0487 -12.0453  -0.1536   0.7679   5.8140   6.1864  10.6690  11.0302
    13.0757  13.9985

     occupation numbers 
     1.0000   1.0000   1.0000   1.0000   1.0000   1.0000   1.0000   1.0000
     1.0000   1.0000   1.0000   1.0000   1.0000   1.0000   0.0000   0.0000
     0.0000   0.0000

          k =-0.0606-0.4243 0.6667 ( 17056 PWs)   bands (ev):

   -12.4223 -12.4175 -12.2919 -12.2565 -12.2289 -12.2025 -12.1977 -12.1705
   -12.0483 -12.0436  -0.0565   0.6638   5.7640   6.1631  10.6824  11.3104
    13.0464  13.7129

     occupation numbers 
     1.0000   1.0000   1.0000   1.0000   1.0000   1.0000   1.0000   1.0000
     1.0000   1.0000   1.0000   1.0000   1.0000   1.0000   0.0000   0.0000
     0.0000   0.0000

          k =-0.0404-0.4041 0.6465 ( 17055 PWs)   bands (ev):

   -12.4234 -12.4175 -12.2895 -12.2542 -12.2270 -12.2058 -12.1995 -12.1721
   -12.0483 -12.0425  -0.0156   0.6213   5.7152   6.1758  10.6864  11.5615
    13.0370  13.4490

     occupation numbers 
     1.0000   1.0000   1.0000   1.0000   1.0000   1.0000   1.0000   1.0000
     1.0000   1.0000   1.0000   1.0000   1.0000   1.0000   0.0000   0.0000
     0.0000   0.0000

          k =-0.0202-0.3839 0.6263 ( 17055 PWs)   bands (ev):

   -12.4240 -12.4172 -12.2901 -12.2495 -12.2289 -12.2063 -12.2019 -12.1714
   -12.0486 -12.0419  -0.0525   0.6617   5.6760   6.2180  10.6799  11.7354
    12.9968  13.3159

     occupation numbers 
     1.0000   1.0000   1.0000   1.0000   1.0000   1.0000   1.0000   1.0000
     1.0000   1.0000   1.0000   1.0000   1.0000   1.0000   0.0000   0.0000
     0.0000   0.0000

          k = 0.0000-0.3637 0.6061 ( 17052 PWs)   bands (ev):

   -12.4240 -12.4166 -12.2930 -12.2437 -12.2338 -12.2089 -12.1995 -12.1691
   -12.0491 -12.0420  -0.1460   0.7632   5.6535   6.2837  10.6550  11.7894
    12.8902  13.3986

     occupation numbers 
     1.0000   1.0000   1.0000   1.0000   1.0000   1.0000   1.0000   1.0000
     1.0000   1.0000   1.0000   1.0000   1.0000   1.0000   0.0000   0.0000
     0.0000   0.0000

          k =-0.0606-0.4647 0.7071 ( 17062 PWs)   bands (ev):

   -12.4197 -12.4177 -12.2955 -12.2653 -12.2273 -12.1983 -12.1937 -12.1676
   -12.0481 -12.0464  -0.0535   0.6559   5.8844   6.1170  10.6648  10.7533
    13.3405  14.0755

     occupation numbers 
     1.0000   1.0000   1.0000   1.0000   1.0000   1.0000   1.0000   1.0000
     1.0000   1.0000   1.0000   1.0000   1.0000   1.0000   0.0000   0.0000
     0.0000   0.0000

          k =-0.0404-0.4445 0.6869 ( 17056 PWs)   bands (ev):

   -12.4210 -12.4184 -12.2886 -12.2665 -12.2233 -12.2040 -12.1921 -12.1733
   -12.0474 -12.0449   0.0602   0.5378   5.8460   6.0734  10.7059  11.0224
    13.2847  13.7746

     occupation numbers 
     1.0000   1.0000   1.0000   1.0000   1.0000   1.0000   1.0000   1.0000
     1.0000   1.0000   1.0000   1.0000   1.0000   1.0000   0.0000   0.0000
     0.0000   0.0000

          k =-0.0202-0.4243 0.6667 ( 17055 PWs)   bands (ev):

   -12.4224 -12.4183 -12.2855 -12.2639 -12.2211 -12.2081 -12.1940 -12.1755
   -12.0475 -12.0434   0.1126   0.4855   5.7835   6.0887  10.7117  11.3164
    13.2377  13.4831

     occupation numbers 
     1.0000   1.0000   1.0000   1.0000   1.0000   1.0000   1.0000   1.0000
     1.0000   1.0000   1.0000   1.0000   1.0000   1.0000   0.0000   0.0000
     0.0000   0.0000

          k =-0.0000-0.4041 0.6465 ( 17066 PWs)   bands (ev):

   -12.4234 -12.4179 -12.2867 -12.2574 -12.2235 -12.2074 -12.1990 -12.1742
   -12.0479 -12.0424   0.0586   0.5435   5.7217   6.1415  10.7059  11.5716
    13.1450  13.3060

     occupation numbers 
     1.0000   1.0000   1.0000   1.0000   1.0000   1.0000   1.0000   1.0000
     1.0000   1.0000   1.0000   1.0000   1.0000   1.0000   0.0000   0.0000
     0.0000   0.0000

          k =-0.0202-0.4647 0.7071 ( 17059 PWs)   bands (ev):

   -12.4195 -12.4189 -12.2860 -12.2759 -12.2177 -12.2080 -12.1845 -12.1757
   -12.0469 -12.0464   0.1766   0.4135   5.9353   6.0129  10.6989  10.7258
    13.5859  13.8402

     occupation numbers 
     1.0000   1.0000   1.0000   1.0000   1.0000   1.0000   1.0000   1.0000
     1.0000   1.0000   1.0000   1.0000   1.0000   1.0000   0.0000   0.0000
     0.0000   0.0000

          k = 0.0000-0.4445 0.6869 ( 17063 PWs)   bands (ev):

   -12.4210 -12.4189 -12.2825 -12.2732 -12.2157 -12.2116 -12.1867 -12.1783
   -12.0469 -12.0448   0.2261   0.3665   5.8711   6.0212  10.7166  11.0207
    13.5041  13.5474

     occupation numbers 
     1.0000   1.0000   1.0000   1.0000   1.0000   1.0000   1.0000   1.0000
     1.0000   1.0000   1.0000   1.0000   1.0000   1.0000   0.0000   0.0000
     0.0000   0.0000

          k =-0.1414-0.4243 0.7071 ( 17068 PWs)   bands (ev):

   -12.4207 -12.4149 -12.3062 -12.2460 -12.2375 -12.2155 -12.1826 -12.1598
   -12.0510 -12.0460  -0.4367   1.0920   5.7569   6.4153  10.6027  11.2259
    12.7753  14.0636

     occupation numbers 
     1.0000   1.0000   1.0000   1.0000   1.0000   1.0000   1.0000   1.0000
     1.0000   1.0000   1.0000   1.0000   1.0000   1.0000   0.0000   0.0000
     0.0000   0.0000

          k =-0.1212-0.4041 0.6869 ( 17041 PWs)   bands (ev):

   -12.4221 -12.4158 -12.3003 -12.2423 -12.2396 -12.2125 -12.1889 -12.1643
   -12.0500 -12.0443  -0.3158   0.9519   5.7158   6.3427  10.6704  11.4052
    12.7804  13.8562

     occupation numbers 
     1.0000   1.0000   1.0000   1.0000   1.0000   1.0000   1.0000   1.0000
     1.0000   1.0000   1.0000   1.0000   1.0000   1.0000   0.0000   0.0000
     0.0000   0.0000

          k =-0.1010-0.3839 0.6667 ( 17045 PWs)   bands (ev):

   -12.4232 -12.4164 -12.2958 -12.2436 -12.2362 -12.2112 -12.1937 -12.1675
   -12.0494 -12.0430  -0.2149   0.8381   5.6899   6.2912  10.7019  11.5711
    12.8346  13.6136

     occupation numbers 
     1.0000   1.0000   1.0000   1.0000   1.0000   1.0000   1.0000   1.0000
     1.0000   1.0000   1.0000   1.0000   1.0000   1.0000   0.0000   0.0000
     0.0000   0.0000

          k =-0.0808-0.3637 0.6465 ( 17052 PWs)   bands (ev):

   -12.4237 -12.4167 -12.2934 -12.2449 -12.2330 -12.2116 -12.1960 -12.1692
   -12.0491 -12.0423  -0.1542   0.7709   5.6774   6.2644  10.7142  11.6693
    12.9213  13.4146

     occupation numbers 
     1.0000   1.0000   1.0000   1.0000   1.0000   1.0000   1.0000   1.0000
     1.0000   1.0000   1.0000   1.0000   1.0000   1.0000   0.0000   0.0000
     0.0000   0.0000

          k =-0.1010-0.4243 0.7071 ( 17052 PWs)   bands (ev):

   -12.4214 -12.4169 -12.2983 -12.2488 -12.2372 -12.2063 -12.1915 -12.1657
   -12.0489 -12.0450  -0.2356   0.8613   5.7689   6.2430  10.7596  11.1642
    12.8759  13.9294

     occupation numbers 
     1.0000   1.0000   1.0000   1.0000   1.0000   1.0000   1.0000   1.0000
     1.0000   1.0000   1.0000   1.0000   1.0000   1.0000   0.0000   0.0000
     0.0000   0.0000

          k =-0.0808-0.4041 0.6869 ( 17050 PWs)   bands (ev):

   -12.4224 -12.4178 -12.2922 -12.2514 -12.2329 -12.2041 -12.1971 -12.1703
   -12.0480 -12.0437  -0.1209   0.7358   5.7447   6.1787  10.8349  11.3492
    12.8690  13.6614

     occupation numbers 
     1.0000   1.0000   1.0000   1.0000   1.0000   1.0000   1.0000   1.0000
     1.0000   1.0000   1.0000   1.0000   1.0000   1.0000   0.0000   0.0000
     0.0000   0.0000

          k =-0.0606-0.3839 0.6667 ( 17054 PWs)   bands (ev):

   -12.4231 -12.4181 -12.2883 -12.2526 -12.2294 -12.2055 -12.1991 -12.1732
   -12.0476 -12.0427  -0.0407   0.6500   5.7251   6.1471  10.8604  11.5282
    12.8985  13.4096

     occupation numbers 
     1.0000   1.0000   1.0000   1.0000   1.0000   1.0000   1.0000   1.0000
     1.0000   1.0000   1.0000   1.0000   1.0000   1.0000   0.0000   0.0000
     0.0000   0.0000

          k =-0.0404-0.3637 0.6465 ( 17051 PWs)   bands (ev):

   -12.4235 -12.4181 -12.2874 -12.2517 -12.2288 -12.2067 -12.1998 -12.1737
   -12.0476 -12.0423  -0.0268   0.6356   5.7084   6.1515  10.8610  11.6287
    12.9186  13.2817

     occupation numbers 
     1.0000   1.0000   1.0000   1.0000   1.0000   1.0000   1.0000   1.0000
     1.0000   1.0000   1.0000   1.0000   1.0000   1.0000   0.0000   0.0000
     0.0000   0.0000

          k =-0.0202-0.3435 0.6263 ( 17054 PWs)   bands (ev):

   -12.4235 -12.4178 -12.2897 -12.2488 -12.2318 -12.2058 -12.2000 -12.1720
   -12.0479 -12.0425  -0.0869   0.7002   5.6979   6.1896  10.8382  11.6181
    12.8497  13.3914

     occupation numbers 
     1.0000   1.0000   1.0000   1.0000   1.0000   1.0000   1.0000   1.0000
     1.0000   1.0000   1.0000   1.0000   1.0000   1.0000   0.0000   0.0000
     0.0000   0.0000

          k = 0.0000-0.3232 0.6061 ( 17044 PWs)   bands (ev):

   -12.4230 -12.4170 -12.2943 -12.2448 -12.2365 -12.2083 -12.1955 -12.1686
   -12.0487 -12.0432  -0.1920   0.8145   5.6988   6.2556  10.7808  11.5221
    12.7907  13.6181

     occupation numbers 
     1.0000   1.0000   1.0000   1.0000   1.0000   1.0000   1.0000   1.0000
     1.0000   1.0000   1.0000   1.0000   1.0000   1.0000   0.0000   0.0000
     0.0000   0.0000

          k =-0.0606-0.4243 0.7071 ( 17051 PWs)   bands (ev):

   -12.4214 -12.4186 -12.2896 -12.2597 -12.2282 -12.2007 -12.1973 -12.1726
   -12.0471 -12.0446  -0.0270   0.6332   5.8088   6.0947  10.8818  11.1060
    13.0323  13.7148

     occupation numbers 
     1.0000   1.0000   1.0000   1.0000   1.0000   1.0000   1.0000   1.0000
     1.0000   1.0000   1.0000   1.0000   1.0000   1.0000   0.0000   0.0000
     0.0000   0.0000

          k =-0.0404-0.4041 0.6869 ( 17064 PWs)   bands (ev):

   -12.4222 -12.4193 -12.2837 -12.2615 -12.2244 -12.2062 -12.1952 -12.1770
   -12.0464 -12.0436   0.0754   0.5270   5.7958   6.0455  10.9494  11.3046
    13.0115  13.4318

     occupation numbers 
     1.0000   1.0000   1.0000   1.0000   1.0000   1.0000   1.0000   1.0000
     1.0000   1.0000   1.0000   1.0000   1.0000   1.0000   0.0000   0.0000
     0.0000   0.0000

          k =-0.0202-0.3839 0.6667 ( 17061 PWs)   bands (ev):

   -12.4229 -12.4192 -12.2820 -12.2598 -12.2233 -12.2087 -12.1962 -12.1780
   -12.0464 -12.0428   0.1022   0.5003   5.7634   6.0537  10.9502  11.5030
    13.0011  13.2223

     occupation numbers 
     1.0000   1.0000   1.0000   1.0000   1.0000   1.0000   1.0000   1.0000
     1.0000   1.0000   1.0000   1.0000   1.0000   1.0000   0.0000   0.0000
     0.0000   0.0000

          k =-0.0000-0.3637 0.6465 ( 17066 PWs)   bands (ev):

   -12.4234 -12.4187 -12.2847 -12.2548 -12.2267 -12.2060 -12.2001 -12.1758
   -12.0470 -12.0424   0.0297   0.5765   5.7251   6.1073  10.9166  11.6126
    12.9208  13.2279

     occupation numbers 
     1.0000   1.0000   1.0000   1.0000   1.0000   1.0000   1.0000   1.0000
     1.0000   1.0000   1.0000   1.0000   1.0000   1.0000   0.0000   0.0000
     0.0000   0.0000

          k =-0.0202-0.4243 0.7071 ( 17065 PWs)   bands (ev):

   -12.4210 -12.4200 -12.2802 -12.2702 -12.2191 -12.2099 -12.1885 -12.1802
   -12.0457 -12.0448   0.1881   0.4085   5.8767   5.9722  10.9740  11.0454
    13.2365  13.4721

     occupation numbers 
     1.0000   1.0000   1.0000   1.0000   1.0000   1.0000   1.0000   1.0000
     1.0000   1.0000   1.0000   1.0000   1.0000   1.0000   0.0000   0.0000
     0.0000   0.0000

          k =-0.0000-0.4041 0.6869 ( 17067 PWs)   bands (ev):

   -12.4219 -12.4200 -12.2778 -12.2680 -12.2180 -12.2126 -12.1901 -12.1817
   -12.0457 -12.0438   0.2182   0.3800   5.8364   5.9773  10.9931  11.2850
    13.1792  13.2316

     occupation numbers 
     1.0000   1.0000   1.0000   1.0000   1.0000   1.0000   1.0000   1.0000
     1.0000   1.0000   1.0000   1.0000   1.0000   1.0000   0.0000   0.0000
     0.0000   0.0000

          k =-0.0606-0.3839 0.7071 ( 17063 PWs)   bands (ev):

   -12.4227 -12.4190 -12.2857 -12.2558 -12.2283 -12.2035 -12.1995 -12.1753
   -12.0467 -12.0432   0.0010   0.6066   5.7547   6.0912  10.9859  11.4222
    12.8723  13.4005

     occupation numbers 
     1.0000   1.0000   1.0000   1.0000   1.0000   1.0000   1.0000   1.0000
     1.0000   1.0000   1.0000   1.0000   1.0000   1.0000   0.0000   0.0000
     0.0000   0.0000

          k =-0.0404-0.3637 0.6869 ( 17054 PWs)   bands (ev):

   -12.4228 -12.4196 -12.2813 -12.2590 -12.2245 -12.2081 -12.1966 -12.1786
   -12.0461 -12.0429   0.0896   0.5144   5.7676   6.0387  11.0513  11.4926
    12.9120  13.2034

     occupation numbers 
     1.0000   1.0000   1.0000   1.0000   1.0000   1.0000   1.0000   1.0000
     1.0000   1.0000   1.0000   1.0000   1.0000   1.0000   0.0000   0.0000
     0.0000   0.0000

          k =-0.0202-0.3839 0.7071 ( 17058 PWs)   bands (ev):

   -12.4219 -12.4206 -12.2763 -12.2663 -12.2200 -12.2117 -12.1910 -12.1828
   -12.0450 -12.0438   0.1991   0.4012   5.8392   5.9518  11.1611  11.3048
    13.0053  13.1866

     occupation numbers 
     1.0000   1.0000   1.0000   1.0000   1.0000   1.0000   1.0000   1.0000
     1.0000   1.0000   1.0000   1.0000   1.0000   1.0000   0.0000   0.0000
     0.0000   0.0000

          k = 0.0000-0.3637 0.6869 ( 17056 PWs)   bands (ev):

   -12.4222 -12.4206 -12.2755 -12.2655 -12.2196 -12.2128 -12.1915 -12.1833
   -12.0450 -12.0435   0.2092   0.3917   5.8255   5.9536  11.1703  11.4053
    12.9835  13.0855

     occupation numbers 
     1.0000   1.0000   1.0000   1.0000   1.0000   1.0000   1.0000   1.0000
     1.0000   1.0000   1.0000   1.0000   1.0000   1.0000   0.0000   0.0000
     0.0000   0.0000

     the Fermi energy is     8.2877 ev

!    total energy              =    -233.44839502 Ry
     Harris-Foulkes estimate   =    -233.44839518 Ry
     estimated scf accuracy    <       0.00000042 Ry

     The total energy is the sum of the following terms:

     one-electron contribution =     -95.31672686 Ry
     hartree contribution      =      58.35662535 Ry
     xc contribution           =     -28.70695187 Ry
     ewald contribution        =    -167.78134157 Ry
     smearing contrib. (-TS)   =      -0.00000006 Ry

     convergence has been achieved in   5 iterations

     Writing output data file Sn.save
 
     init_run     :     18.84s CPU     21.57s WALL (       1 calls)
     electrons    :    378.53s CPU    429.74s WALL (       1 calls)

     Called by init_run:
     wfcinit      :     18.44s CPU     21.02s WALL (       1 calls)
     potinit      :      0.03s CPU      0.04s WALL (       1 calls)

     Called by electrons:
     c_bands      :    334.41s CPU    379.76s WALL (       5 calls)
     sum_band     :     43.99s CPU     49.67s WALL (       5 calls)
     v_of_rho     :      0.10s CPU      0.17s WALL (       6 calls)
     v_h          :      0.00s CPU      0.02s WALL (       6 calls)
     v_xc         :      0.09s CPU      0.15s WALL (       6 calls)
     mix_rho      :      0.01s CPU      0.02s WALL (       5 calls)

     Called by c_bands:
     init_us_2    :      3.66s CPU      5.10s WALL (   12540 calls)
     cegterg      :    313.51s CPU    356.67s WALL (    5700 calls)

     Called by sum_band:

     Called by *egterg:
     h_psi        :    281.91s CPU    319.05s WALL (   24729 calls)
     g_psi        :      1.67s CPU      1.69s WALL (   17889 calls)
     cdiaghg      :     16.14s CPU     16.36s WALL (   23589 calls)
     cegterg:over :     10.93s CPU     11.26s WALL (   17889 calls)
     cegterg:upda :      6.03s CPU      6.10s WALL (   17889 calls)
     cegterg:last :      3.44s CPU      3.47s WALL (    7732 calls)

     Called by h_psi:
     h_psi:vloc   :    268.11s CPU    304.01s WALL (   24729 calls)
     h_psi:vnl    :     12.51s CPU     13.55s WALL (   24729 calls)
     add_vuspsi   :      4.92s CPU      5.27s WALL (   24729 calls)

     General routines
     calbec       :      7.46s CPU      8.18s WALL (   24729 calls)
     fft          :      0.06s CPU      0.16s WALL (      65 calls)
     fftw         :    281.28s CPU    318.95s WALL (  817868 calls)
     davcio       :      0.14s CPU      2.14s WALL (    1140 calls)
 
     Parallel routines
     fft_scatter  :    113.43s CPU    129.01s WALL (  817933 calls)
 
     PWSCF        :  6m38.64s CPU     7m34.90s WALL

 
   This run was terminated on:  21:30:55  27Feb2020            

=------------------------------------------------------------------------------=
   JOB DONE.
=------------------------------------------------------------------------------=
