
     Program PWSCF v.5.4.0 starts on 21Feb2020 at  0:53:43 

     This program is part of the open-source Quantum ESPRESSO suite
     for quantum simulation of materials; please cite
         "P. Giannozzi et al., J. Phys.:Condens. Matter 21 395502 (2009);
          URL http://www.quantum-espresso.org", 
     in publications or presentations arising from this work. More details at
     http://www.quantum-espresso.org/quote

     Parallel version (MPI & OpenMP), running on      16 processor cores
     Number of MPI processes:                16
     Threads/MPI process:                     1
     R & G space division:  proc/nbgrp/npool/nimage =      16
     Waiting for input...
     Reading input from standard input
Warning: card &IONS ignored
Warning: card / ignored
Warning: card &CELL ignored
Warning: card / ignored

     Current dimensions of program PWSCF are:
     Max number of different atomic species (ntypx) = 10
     Max number of k-points (npk) =  40000
     Max angular momentum in pseudopotentials (lmaxx) =  3

     Subspace diagonalization in iterative solution of the eigenvalue problem:
     a serial algorithm will be used

 
     Parallelization info
     --------------------
     sticks:   dense  smooth     PW     G-vecs:    dense   smooth      PW
     Min         109     109     31                 3006     3006     461
     Max         111     111     32                 3009     3009     465
     Sum        1759    1759    499                48119    48119    7391
 

     Title: 
     Sn                                                                         


     bravais-lattice index     =            0
     lattice parameter (alat)  =       8.8993  a.u.
     unit-cell volume          =     498.3785 (a.u.)^3
     number of atoms/cell      =            2
     number of atomic types    =            1
     number of electrons       =        28.00
     number of Kohn-Sham states=           18
     kinetic-energy cutoff     =      80.0000  Ry
     charge density cutoff     =     320.0000  Ry
     convergence threshold     =      1.0E-06
     mixing beta               =       0.7000
     number of iterations used =            8  plain     mixing
     Exchange-correlation      = PBE ( 1  4  3  4 0 0)

     celldm(1)=   8.899346  celldm(2)=   0.000000  celldm(3)=   0.000000
     celldm(4)=   0.000000  celldm(5)=   0.000000  celldm(6)=   0.000000

     crystal axes: (cart. coord. in units of alat)
               a(1) = (   0.000000   0.707107   0.707107 )  
               a(2) = (   0.707107   0.000000   0.707107 )  
               a(3) = (   0.707107   0.707107   0.000000 )  

     reciprocal axes: (cart. coord. in units 2 pi/alat)
               b(1) = ( -0.707107  0.707107  0.707107 )  
               b(2) = (  0.707107 -0.707107  0.707107 )  
               b(3) = (  0.707107  0.707107 -0.707107 )  


     PseudoPot. # 1 for Sn read from file:
     ../PseudopotentialDatabase/Sn_ONCV_PBE-1.2.upf
     MD5 check sum: 6680f7ee4d83b53e0fcd4167fcb72813
     Pseudo is Norm-conserving, Zval = 14.0
     Generated using ONCVPSP code by D. R. Hamann
     Using radial grid of  602 points,  6 beta functions with: 
                l(1) =   0
                l(2) =   0
                l(3) =   1
                l(4) =   1
                l(5) =   2
                l(6) =   2

     atomic species   valence    mass     pseudopotential
        Sn            14.00   118.71000     Sn( 1.00)

     24 Sym. Ops. (no inversion) found
          (note: 24 additional sym.ops. were found but ignored
           their fractional translations are incommensurate with FFT grid)

                                    s                        frac. trans.

      isym =  1     identity                                     

 cryst.   s( 1) = (     1          0          0      )
                  (     0          1          0      )
                  (     0          0          1      )

 cart.    s( 1) = (  1.0000000  0.0000000  0.0000000 )
                  (  0.0000000  1.0000000  0.0000000 )
                  (  0.0000000  0.0000000  1.0000000 )


      isym =  2     180 deg rotation - cart. axis [0,0,1]        

 cryst.   s( 2) = (     0          1         -1      )
                  (     1          0         -1      )
                  (     0          0         -1      )

 cart.    s( 2) = ( -1.0000000  0.0000000  0.0000000 )
                  (  0.0000000 -1.0000000  0.0000000 )
                  (  0.0000000  0.0000000  1.0000000 )


      isym =  3     180 deg rotation - cart. axis [0,1,0]        

 cryst.   s( 3) = (     0         -1          1      )
                  (     0         -1          0      )
                  (     1         -1          0      )

 cart.    s( 3) = ( -1.0000000  0.0000000  0.0000000 )
                  (  0.0000000  1.0000000  0.0000000 )
                  (  0.0000000  0.0000000 -1.0000000 )


      isym =  4     180 deg rotation - cart. axis [1,0,0]        

 cryst.   s( 4) = (    -1          0          0      )
                  (    -1          0          1      )
                  (    -1          1          0      )

 cart.    s( 4) = (  1.0000000  0.0000000  0.0000000 )
                  (  0.0000000 -1.0000000  0.0000000 )
                  (  0.0000000  0.0000000 -1.0000000 )


      isym =  5     120 deg rotation - cart. axis [-1,-1,-1]     

 cryst.   s( 5) = (     0          0          1      )
                  (     1          0          0      )
                  (     0          1          0      )

 cart.    s( 5) = (  0.0000000  1.0000000  0.0000000 )
                  (  0.0000000  0.0000000  1.0000000 )
                  (  1.0000000  0.0000000  0.0000000 )


      isym =  6     120 deg rotation - cart. axis [-1,1,1]       

 cryst.   s( 6) = (     1         -1          0      )
                  (     0         -1          1      )
                  (     0         -1          0      )

 cart.    s( 6) = (  0.0000000 -1.0000000  0.0000000 )
                  (  0.0000000  0.0000000  1.0000000 )
                  ( -1.0000000  0.0000000  0.0000000 )


      isym =  7     120 deg rotation - cart. axis [1,1,-1]       

 cryst.   s( 7) = (    -1          1          0      )
                  (    -1          0          0      )
                  (    -1          0          1      )

 cart.    s( 7) = (  0.0000000  1.0000000  0.0000000 )
                  (  0.0000000  0.0000000 -1.0000000 )
                  ( -1.0000000  0.0000000  0.0000000 )


      isym =  8     120 deg rotation - cart. axis [1,-1,1]       

 cryst.   s( 8) = (     0          0         -1      )
                  (     0          1         -1      )
                  (     1          0         -1      )

 cart.    s( 8) = (  0.0000000 -1.0000000  0.0000000 )
                  (  0.0000000  0.0000000 -1.0000000 )
                  (  1.0000000  0.0000000  0.0000000 )


      isym =  9     120 deg rotation - cart. axis [1,1,1]        

 cryst.   s( 9) = (     0          1          0      )
                  (     0          0          1      )
                  (     1          0          0      )

 cart.    s( 9) = (  0.0000000  0.0000000  1.0000000 )
                  (  1.0000000  0.0000000  0.0000000 )
                  (  0.0000000  1.0000000  0.0000000 )


      isym = 10     120 deg rotation - cart. axis [-1,1,-1]      

 cryst.   s(10) = (    -1          0          1      )
                  (    -1          1          0      )
                  (    -1          0          0      )

 cart.    s(10) = (  0.0000000  0.0000000  1.0000000 )
                  ( -1.0000000  0.0000000  0.0000000 )
                  (  0.0000000 -1.0000000  0.0000000 )


      isym = 11     120 deg rotation - cart. axis [1,-1,-1]      

 cryst.   s(11) = (     1          0         -1      )
                  (     0          0         -1      )
                  (     0          1         -1      )

 cart.    s(11) = (  0.0000000  0.0000000 -1.0000000 )
                  ( -1.0000000  0.0000000  0.0000000 )
                  (  0.0000000  1.0000000  0.0000000 )


      isym = 12     120 deg rotation - cart. axis [-1,-1,1]      

 cryst.   s(12) = (     0         -1          0      )
                  (     1         -1          0      )
                  (     0         -1          1      )

 cart.    s(12) = (  0.0000000  0.0000000 -1.0000000 )
                  (  1.0000000  0.0000000  0.0000000 )
                  (  0.0000000 -1.0000000  0.0000000 )


      isym = 13     inv. 180 deg rotation - cart. axis [1,1,0]   

 cryst.   s(13) = (     1          0         -1      )
                  (     0          1         -1      )
                  (     0          0         -1      )

 cart.    s(13) = (  0.0000000 -1.0000000  0.0000000 )
                  ( -1.0000000  0.0000000  0.0000000 )
                  (  0.0000000  0.0000000  1.0000000 )


      isym = 14     inv. 180 deg rotation - cart. axis [1,-1,0]  

 cryst.   s(14) = (     0          1          0      )
                  (     1          0          0      )
                  (     0          0          1      )

 cart.    s(14) = (  0.0000000  1.0000000  0.0000000 )
                  (  1.0000000  0.0000000  0.0000000 )
                  (  0.0000000  0.0000000  1.0000000 )


      isym = 15     inv.  90 deg rotation - cart. axis [0,0,-1]  

 cryst.   s(15) = (     0         -1          0      )
                  (     0         -1          1      )
                  (     1         -1          0      )

 cart.    s(15) = (  0.0000000 -1.0000000  0.0000000 )
                  (  1.0000000  0.0000000  0.0000000 )
                  (  0.0000000  0.0000000 -1.0000000 )


      isym = 16     inv.  90 deg rotation - cart. axis [0,0,1]   

 cryst.   s(16) = (    -1          0          1      )
                  (    -1          0          0      )
                  (    -1          1          0      )

 cart.    s(16) = (  0.0000000  1.0000000  0.0000000 )
                  ( -1.0000000  0.0000000  0.0000000 )
                  (  0.0000000  0.0000000 -1.0000000 )


      isym = 17     inv. 180 deg rotation - cart. axis [1,0,1]   

 cryst.   s(17) = (     1         -1          0      )
                  (     0         -1          0      )
                  (     0         -1          1      )

 cart.    s(17) = (  0.0000000  0.0000000 -1.0000000 )
                  (  0.0000000  1.0000000  0.0000000 )
                  ( -1.0000000  0.0000000  0.0000000 )


      isym = 18     inv. 180 deg rotation - cart. axis [-1,0,1]  

 cryst.   s(18) = (     0          0          1      )
                  (     0          1          0      )
                  (     1          0          0      )

 cart.    s(18) = (  0.0000000  0.0000000  1.0000000 )
                  (  0.0000000  1.0000000  0.0000000 )
                  (  1.0000000  0.0000000  0.0000000 )


      isym = 19     inv.  90 deg rotation - cart. axis [0,1,0]   

 cryst.   s(19) = (     0          0         -1      )
                  (     1          0         -1      )
                  (     0          1         -1      )

 cart.    s(19) = (  0.0000000  0.0000000 -1.0000000 )
                  (  0.0000000 -1.0000000  0.0000000 )
                  (  1.0000000  0.0000000  0.0000000 )


      isym = 20     inv.  90 deg rotation - cart. axis [0,-1,0]  

 cryst.   s(20) = (    -1          1          0      )
                  (    -1          0          1      )
                  (    -1          0          0      )

 cart.    s(20) = (  0.0000000  0.0000000  1.0000000 )
                  (  0.0000000 -1.0000000  0.0000000 )
                  ( -1.0000000  0.0000000  0.0000000 )


      isym = 21     inv. 180 deg rotation - cart. axis [0,1,1]   

 cryst.   s(21) = (    -1          0          0      )
                  (    -1          1          0      )
                  (    -1          0          1      )

 cart.    s(21) = (  1.0000000  0.0000000  0.0000000 )
                  (  0.0000000  0.0000000 -1.0000000 )
                  (  0.0000000 -1.0000000  0.0000000 )


      isym = 22     inv. 180 deg rotation - cart. axis [0,1,-1]  

 cryst.   s(22) = (     1          0          0      )
                  (     0          0          1      )
                  (     0          1          0      )

 cart.    s(22) = (  1.0000000  0.0000000  0.0000000 )
                  (  0.0000000  0.0000000  1.0000000 )
                  (  0.0000000  1.0000000  0.0000000 )


      isym = 23     inv.  90 deg rotation - cart. axis [-1,0,0]  

 cryst.   s(23) = (     0          1         -1      )
                  (     0          0         -1      )
                  (     1          0         -1      )

 cart.    s(23) = ( -1.0000000  0.0000000  0.0000000 )
                  (  0.0000000  0.0000000 -1.0000000 )
                  (  0.0000000  1.0000000  0.0000000 )


      isym = 24     inv.  90 deg rotation - cart. axis [1,0,0]   

 cryst.   s(24) = (     0         -1          1      )
                  (     1         -1          0      )
                  (     0         -1          0      )

 cart.    s(24) = ( -1.0000000  0.0000000  0.0000000 )
                  (  0.0000000  0.0000000  1.0000000 )
                  (  0.0000000 -1.0000000  0.0000000 )


   Cartesian axes

     site n.     atom                  positions (alat units)
         1           Sn  tau(   1) = (   0.0000000   0.0000000   0.0000000  )
         2           Sn  tau(   2) = (   0.3535534   0.3535534   0.3535534  )

   Crystallographic axes

     site n.     atom                  positions (cryst. coord.)
         1           Sn  tau(   1) = (  0.0000000  0.0000000  0.0000000  )
         2           Sn  tau(   2) = (  0.2500000  0.2500000  0.2500000  )

     number of k points=    47  gaussian smearing, width (Ry)=  0.0100
                       cart. coord. in units 2pi/alat
        k(    1) = (   0.0000000   0.0000000   0.0000000), wk =   0.0020000
        k(    2) = (   0.0707107   0.0707107  -0.0707107), wk =   0.0160000
        k(    3) = (   0.1414214   0.1414214  -0.1414214), wk =   0.0160000
        k(    4) = (   0.2121320   0.2121320  -0.2121320), wk =   0.0160000
        k(    5) = (   0.2828427   0.2828427  -0.2828427), wk =   0.0160000
        k(    6) = (  -0.3535534  -0.3535534   0.3535534), wk =   0.0080000
        k(    7) = (   0.1414214   0.0000000   0.0000000), wk =   0.0120000
        k(    8) = (   0.2121320   0.0707107  -0.0707107), wk =   0.0480000
        k(    9) = (   0.2828427   0.1414214  -0.1414214), wk =   0.0480000
        k(   10) = (   0.3535534   0.2121320  -0.2121320), wk =   0.0480000
        k(   11) = (  -0.2828427  -0.4242641   0.4242641), wk =   0.0480000
        k(   12) = (  -0.2121320  -0.3535534   0.3535534), wk =   0.0480000
        k(   13) = (  -0.1414214  -0.2828427   0.2828427), wk =   0.0480000
        k(   14) = (  -0.0707107  -0.2121320   0.2121320), wk =   0.0480000
        k(   15) = (   0.0000000  -0.1414214   0.1414214), wk =   0.0240000
        k(   16) = (   0.2828427   0.0000000   0.0000000), wk =   0.0120000
        k(   17) = (   0.3535534   0.0707107  -0.0707107), wk =   0.0480000
        k(   18) = (   0.4242641   0.1414214  -0.1414214), wk =   0.0480000
        k(   19) = (  -0.2121320  -0.4949747   0.4949747), wk =   0.0480000
        k(   20) = (  -0.1414214  -0.4242641   0.4242641), wk =   0.0480000
        k(   21) = (  -0.0707107  -0.3535534   0.3535534), wk =   0.0480000
        k(   22) = (   0.0000000  -0.2828427   0.2828427), wk =   0.0240000
        k(   23) = (   0.4242641   0.0000000   0.0000000), wk =   0.0120000
        k(   24) = (   0.4949747   0.0707107  -0.0707107), wk =   0.0480000
        k(   25) = (  -0.1414214  -0.5656854   0.5656854), wk =   0.0480000
        k(   26) = (  -0.0707107  -0.4949747   0.4949747), wk =   0.0480000
        k(   27) = (  -0.0000000  -0.4242641   0.4242641), wk =   0.0240000
        k(   28) = (   0.5656854   0.0000000   0.0000000), wk =   0.0120000
        k(   29) = (  -0.0707107  -0.6363961   0.6363961), wk =   0.0480000
        k(   30) = (   0.0000000  -0.5656854   0.5656854), wk =   0.0240000
        k(   31) = (  -0.7071068   0.0000000   0.0000000), wk =   0.0060000
        k(   32) = (   0.2828427   0.1414214   0.0000000), wk =   0.0480000
        k(   33) = (   0.3535534   0.2121320  -0.0707107), wk =   0.0960000
        k(   34) = (  -0.2828427  -0.4242641   0.5656854), wk =   0.0960000
        k(   35) = (  -0.2121320  -0.3535534   0.4949747), wk =   0.0480000
        k(   36) = (   0.4242641   0.1414214  -0.0000000), wk =   0.0480000
        k(   37) = (  -0.2121320  -0.4949747   0.6363961), wk =   0.0960000
        k(   38) = (  -0.1414214  -0.4242641   0.5656854), wk =   0.0960000
        k(   39) = (  -0.0707107  -0.3535534   0.4949747), wk =   0.0960000
        k(   40) = (   0.0000000  -0.2828427   0.4242641), wk =   0.0480000
        k(   41) = (  -0.1414214  -0.5656854   0.7071068), wk =   0.0480000
        k(   42) = (  -0.0707107  -0.4949747   0.6363961), wk =   0.0960000
        k(   43) = (  -0.0000000  -0.4242641   0.5656854), wk =   0.0480000
        k(   44) = (  -0.7071068   0.1414214   0.0000000), wk =   0.0240000
        k(   45) = (  -0.1414214  -0.4242641   0.7071068), wk =   0.0480000
        k(   46) = (  -0.0707107  -0.3535534   0.6363961), wk =   0.0480000
        k(   47) = (  -0.7071068   0.2828427   0.0000000), wk =   0.0240000

                       cryst. coord.
        k(    1) = (   0.0000000   0.0000000   0.0000000), wk =   0.0020000
        k(    2) = (   0.0000000   0.0000000   0.1000000), wk =   0.0160000
        k(    3) = (   0.0000000   0.0000000   0.2000000), wk =   0.0160000
        k(    4) = (   0.0000000   0.0000000   0.3000000), wk =   0.0160000
        k(    5) = (   0.0000000   0.0000000   0.4000000), wk =   0.0160000
        k(    6) = (   0.0000000   0.0000000  -0.5000000), wk =   0.0080000
        k(    7) = (   0.0000000   0.1000000   0.1000000), wk =   0.0120000
        k(    8) = (   0.0000000   0.1000000   0.2000000), wk =   0.0480000
        k(    9) = (   0.0000000   0.1000000   0.3000000), wk =   0.0480000
        k(   10) = (   0.0000000   0.1000000   0.4000000), wk =   0.0480000
        k(   11) = (   0.0000000   0.1000000  -0.5000000), wk =   0.0480000
        k(   12) = (   0.0000000   0.1000000  -0.4000000), wk =   0.0480000
        k(   13) = (   0.0000000   0.1000000  -0.3000000), wk =   0.0480000
        k(   14) = (   0.0000000   0.1000000  -0.2000000), wk =   0.0480000
        k(   15) = (   0.0000000   0.1000000  -0.1000000), wk =   0.0240000
        k(   16) = (   0.0000000   0.2000000   0.2000000), wk =   0.0120000
        k(   17) = (   0.0000000   0.2000000   0.3000000), wk =   0.0480000
        k(   18) = (   0.0000000   0.2000000   0.4000000), wk =   0.0480000
        k(   19) = (   0.0000000   0.2000000  -0.5000000), wk =   0.0480000
        k(   20) = (   0.0000000   0.2000000  -0.4000000), wk =   0.0480000
        k(   21) = (   0.0000000   0.2000000  -0.3000000), wk =   0.0480000
        k(   22) = (   0.0000000   0.2000000  -0.2000000), wk =   0.0240000
        k(   23) = (   0.0000000   0.3000000   0.3000000), wk =   0.0120000
        k(   24) = (   0.0000000   0.3000000   0.4000000), wk =   0.0480000
        k(   25) = (   0.0000000   0.3000000  -0.5000000), wk =   0.0480000
        k(   26) = (   0.0000000   0.3000000  -0.4000000), wk =   0.0480000
        k(   27) = (   0.0000000   0.3000000  -0.3000000), wk =   0.0240000
        k(   28) = (   0.0000000   0.4000000   0.4000000), wk =   0.0120000
        k(   29) = (   0.0000000   0.4000000  -0.5000000), wk =   0.0480000
        k(   30) = (   0.0000000   0.4000000  -0.4000000), wk =   0.0240000
        k(   31) = (   0.0000000  -0.5000000  -0.5000000), wk =   0.0060000
        k(   32) = (   0.1000000   0.2000000   0.3000000), wk =   0.0480000
        k(   33) = (   0.1000000   0.2000000   0.4000000), wk =   0.0960000
        k(   34) = (   0.1000000   0.2000000  -0.5000000), wk =   0.0960000
        k(   35) = (   0.1000000   0.2000000  -0.4000000), wk =   0.0480000
        k(   36) = (   0.1000000   0.3000000   0.4000000), wk =   0.0480000
        k(   37) = (   0.1000000   0.3000000  -0.5000000), wk =   0.0960000
        k(   38) = (   0.1000000   0.3000000  -0.4000000), wk =   0.0960000
        k(   39) = (   0.1000000   0.3000000  -0.3000000), wk =   0.0960000
        k(   40) = (   0.1000000   0.3000000  -0.2000000), wk =   0.0480000
        k(   41) = (   0.1000000   0.4000000  -0.5000000), wk =   0.0480000
        k(   42) = (   0.1000000   0.4000000  -0.4000000), wk =   0.0960000
        k(   43) = (   0.1000000   0.4000000  -0.3000000), wk =   0.0480000
        k(   44) = (   0.1000000  -0.5000000  -0.4000000), wk =   0.0240000
        k(   45) = (   0.2000000   0.4000000  -0.4000000), wk =   0.0480000
        k(   46) = (   0.2000000   0.4000000  -0.3000000), wk =   0.0480000
        k(   47) = (   0.2000000  -0.5000000  -0.3000000), wk =   0.0240000

     Dense  grid:    48119 G-vectors     FFT dimensions: (  54,  54,  54)

     Largest allocated arrays     est. size (Mb)     dimensions
        Kohn-Sham Wavefunctions         0.10 Mb     (     381,   18)
        NL pseudopotentials             0.21 Mb     (     381,   36)
        Each V/rho on FFT grid          0.18 Mb     (   11664)
        Each G-vector array             0.02 Mb     (    3009)
        G-vector shells                 0.00 Mb     (     410)
     Largest temporary arrays     est. size (Mb)     dimensions
        Auxiliary wavefunctions         0.42 Mb     (     381,   72)
        Each subspace H/S matrix        0.08 Mb     (      72,   72)
        Each <psi_i|beta_j> matrix      0.01 Mb     (      36,   18)
        Arrays for rho mixing           1.42 Mb     (   11664,    8)

     Initial potential from superposition of free atoms

     starting charge   27.82674, renormalised to   28.00000
     Starting wfc are random

     total cpu time spent up to now is        1.7 secs

     Self-consistent Calculation

     iteration #  1     ecut=    80.00 Ry     beta=0.70
     Davidson diagonalization with overlap
     ethr =  1.00E-02,  avg # of iterations =  7.0

     Threshold (ethr) on eigenvalues was too large:
     Diagonalizing with lowered threshold

     Davidson diagonalization with overlap
     ethr =  1.07E-04,  avg # of iterations =  2.0

     total cpu time spent up to now is        9.6 secs

     total energy              =    -241.29470373 Ry
     Harris-Foulkes estimate   =    -241.30544026 Ry
     estimated scf accuracy    <       0.02973064 Ry

     iteration #  2     ecut=    80.00 Ry     beta=0.70
     Davidson diagonalization with overlap
     ethr =  1.06E-04,  avg # of iterations =  2.0

     total cpu time spent up to now is       11.8 secs

     total energy              =    -241.29864394 Ry
     Harris-Foulkes estimate   =    -241.29866563 Ry
     estimated scf accuracy    <       0.00159187 Ry

     iteration #  3     ecut=    80.00 Ry     beta=0.70
     Davidson diagonalization with overlap
     ethr =  5.69E-06,  avg # of iterations =  2.8

     total cpu time spent up to now is       13.9 secs

     total energy              =    -241.29878392 Ry
     Harris-Foulkes estimate   =    -241.29875676 Ry
     estimated scf accuracy    <       0.00008889 Ry

     iteration #  4     ecut=    80.00 Ry     beta=0.70
     Davidson diagonalization with overlap
     ethr =  3.17E-07,  avg # of iterations =  2.0

     total cpu time spent up to now is       15.9 secs

     total energy              =    -241.29878857 Ry
     Harris-Foulkes estimate   =    -241.29878860 Ry
     estimated scf accuracy    <       0.00000127 Ry

     iteration #  5     ecut=    80.00 Ry     beta=0.70
     Davidson diagonalization with overlap
     ethr =  4.55E-09,  avg # of iterations =  2.3

     total cpu time spent up to now is       18.0 secs

     End of self-consistent calculation

          k = 0.0000 0.0000 0.0000 (  5985 PWs)   bands (ev):

   -13.2675 -13.2675 -13.2675 -13.2134 -13.2134 -12.9666 -12.9666 -12.9666
   -12.9621 -12.9621  -1.7710   7.1724   8.4236   8.4236   8.4236  10.4985
    10.4985  10.4985

     occupation numbers 
     1.0000   1.0000   1.0000   1.0000   1.0000   1.0000   1.0000   1.0000
     1.0000   1.0000   1.0000   1.0000   0.0979   0.0979   0.0979   0.0000
     0.0000   0.0000

          k = 0.0707 0.0707-0.0707 (  6030 PWs)   bands (ev):

   -13.2732 -13.2732 -13.2654 -13.2055 -13.2055 -12.9813 -12.9813 -12.9691
   -12.9489 -12.9489  -1.6819   6.3229   8.2525   8.2525   8.7240  10.7239
    10.7239  10.8506

     occupation numbers 
     1.0000   1.0000   1.0000   1.0000   1.0000   1.0000   1.0000   1.0000
     1.0000   1.0000   1.0000   1.0000   0.6864   0.6864   0.0000   0.0000
     0.0000   0.0000

          k = 0.1414 0.1414-0.1414 (  6036 PWs)   bands (ev):

   -13.2832 -13.2832 -13.2598 -13.1899 -13.1899 -12.9968 -12.9968 -12.9758
   -12.9368 -12.9368  -1.4207   4.9966   7.9153   7.9153   8.6614  11.1566
    11.1566  11.9012

     occupation numbers 
     1.0000   1.0000   1.0000   1.0000   1.0000   1.0000   1.0000   1.0000
     1.0000   1.0000   1.0000   1.0000   1.0000   1.0000   0.0001   0.0000
     0.0000   0.0000

          k = 0.2121 0.2121-0.2121 (  6033 PWs)   bands (ev):

   -13.2910 -13.2910 -13.2526 -13.1760 -13.1760 -13.0084 -13.0084 -12.9843
   -12.9287 -12.9287  -1.0140   3.7382   7.6080   7.6080   8.4303  11.4541
    11.4541  13.2546

     occupation numbers 
     1.0000   1.0000   1.0000   1.0000   1.0000   1.0000   1.0000   1.0000
     1.0000   1.0000   1.0000   1.0000   1.0000   1.0000   0.0864   0.0000
     0.0000   0.0000

          k = 0.2828 0.2828-0.2828 (  6026 PWs)   bands (ev):

   -13.2954 -13.2954 -13.2465 -13.1675 -13.1675 -13.0147 -13.0147 -12.9915
   -12.9244 -12.9244  -0.5502   2.7392   7.4068   7.4068   8.2564  11.5378
    11.5378  14.1201

     occupation numbers 
     1.0000   1.0000   1.0000   1.0000   1.0000   1.0000   1.0000   1.0000
     1.0000   1.0000   1.0000   1.0000   1.0000   1.0000   0.6719   0.0000
     0.0000   0.0000

          k =-0.3536-0.3536 0.3536 (  6062 PWs)   bands (ev):

   -13.2967 -13.2967 -13.2441 -13.1649 -13.1649 -13.0165 -13.0165 -12.9943
   -12.9231 -12.9231  -0.3017   2.3089   7.3376   7.3376   8.1949  11.5415
    11.5415  14.0734

     occupation numbers 
     1.0000   1.0000   1.0000   1.0000   1.0000   1.0000   1.0000   1.0000
     1.0000   1.0000   1.0000   1.0000   1.0000   1.0000   0.8609   0.0000
     0.0000   0.0000

          k = 0.1414 0.0000 0.0000 (  6034 PWs)   bands (ev):

   -13.2721 -13.2721 -13.2710 -13.2071 -13.1974 -12.9990 -12.9681 -12.9603
   -12.9603 -12.9443  -1.6518   6.2052   7.9701   7.9701   9.3309  10.1675
    11.1047  11.1047

     occupation numbers 
     1.0000   1.0000   1.0000   1.0000   1.0000   1.0000   1.0000   1.0000
     1.0000   1.0000   1.0000   1.0000   0.9997   0.9997   0.0000   0.0000
     0.0000   0.0000

          k = 0.2121 0.0707-0.0707 (  6024 PWs)   bands (ev):

   -13.2840 -13.2796 -13.2644 -13.1960 -13.1806 -13.0181 -12.9827 -12.9626
   -12.9471 -12.9344  -1.4463   5.2244   7.5938   7.6105   9.5613  10.2779
    11.6267  11.8385

     occupation numbers 
     1.0000   1.0000   1.0000   1.0000   1.0000   1.0000   1.0000   1.0000
     1.0000   1.0000   1.0000   1.0000   1.0000   1.0000   0.0000   0.0000
     0.0000   0.0000

          k = 0.2828 0.1414-0.1414 (  6033 PWs)   bands (ev):

   -13.2954 -13.2881 -13.2530 -13.1813 -13.1648 -13.0318 -12.9978 -12.9749
   -12.9353 -12.9231  -1.0830   4.0410   7.1691   7.3259   9.3624  10.8241
    11.9678  12.6196

     occupation numbers 
     1.0000   1.0000   1.0000   1.0000   1.0000   1.0000   1.0000   1.0000
     1.0000   1.0000   1.0000   1.0000   1.0000   1.0000   0.0000   0.0000
     0.0000   0.0000

          k = 0.3536 0.2121-0.2121 (  6030 PWs)   bands (ev):

   -13.3032 -13.2946 -13.2408 -13.1686 -13.1565 -13.0360 -13.0107 -12.9898
   -12.9267 -12.9155  -0.6196   2.9835   6.8175   7.1739   9.1421  11.2066
    12.0036  13.4342

     occupation numbers 
     1.0000   1.0000   1.0000   1.0000   1.0000   1.0000   1.0000   1.0000
     1.0000   1.0000   1.0000   1.0000   1.0000   1.0000   0.0000   0.0000
     0.0000   0.0000

          k =-0.2828-0.4243 0.4243 (  6031 PWs)   bands (ev):

   -13.3063 -13.2985 -13.2325 -13.1596 -13.1574 -13.0295 -13.0210 -13.0019
   -12.9210 -12.9129  -0.2507   2.3331   6.5989   7.1719   9.0109  11.3762
    11.8803  14.1947

     occupation numbers 
     1.0000   1.0000   1.0000   1.0000   1.0000   1.0000   1.0000   1.0000
     1.0000   1.0000   1.0000   1.0000   1.0000   1.0000   0.0000   0.0000
     0.0000   0.0000

          k =-0.2121-0.3536 0.3536 (  6030 PWs)   bands (ev):

   -13.3046 -13.2997 -13.2322 -13.1644 -13.1557 -13.0274 -13.0167 -13.0060
   -12.9185 -12.9158  -0.3419   2.4825   6.5376   7.3169   8.9948  11.5158
    11.7233  14.2342

     occupation numbers 
     1.0000   1.0000   1.0000   1.0000   1.0000   1.0000   1.0000   1.0000
     1.0000   1.0000   1.0000   1.0000   1.0000   1.0000   0.0000   0.0000
     0.0000   0.0000

          k =-0.1414-0.2828 0.2828 (  6034 PWs)   bands (ev):

   -13.2983 -13.2977 -13.2403 -13.1742 -13.1599 -13.0264 -13.0103 -12.9925
   -12.9241 -12.9196  -0.7804   3.3117   6.6514   7.5876   9.0851  11.5101
    11.6111  13.3310

     occupation numbers 
     1.0000   1.0000   1.0000   1.0000   1.0000   1.0000   1.0000   1.0000
     1.0000   1.0000   1.0000   1.0000   1.0000   1.0000   0.0000   0.0000
     0.0000   0.0000

          k =-0.0707-0.2121 0.2121 (  6016 PWs)   bands (ev):

   -13.2917 -13.2882 -13.2525 -13.1862 -13.1731 -13.0164 -13.0025 -12.9738
   -12.9374 -12.9251  -1.2214   4.4261   6.9641   7.9328   9.2173  11.1536
    11.3545  12.4274

     occupation numbers 
     1.0000   1.0000   1.0000   1.0000   1.0000   1.0000   1.0000   1.0000
     1.0000   1.0000   1.0000   1.0000   1.0000   0.9999   0.0000   0.0000
     0.0000   0.0000

          k = 0.0000-0.1414 0.1414 (  6017 PWs)   bands (ev):

   -13.2823 -13.2771 -13.2627 -13.1990 -13.1910 -12.9999 -12.9901 -12.9594
   -12.9537 -12.9352  -1.5348   5.5524   7.5234   8.2287   9.1463  10.7734
    10.8453  11.6858

     occupation numbers 
     1.0000   1.0000   1.0000   1.0000   1.0000   1.0000   1.0000   1.0000
     1.0000   1.0000   1.0000   1.0000   1.0000   0.7682   0.0000   0.0000
     0.0000   0.0000

          k = 0.2828 0.0000 0.0000 (  6050 PWs)   bands (ev):

   -13.2835 -13.2835 -13.2708 -13.1889 -13.1612 -13.0443 -12.9856 -12.9445
   -12.9445 -12.9408  -1.2965   4.8339   7.2392   7.2392   9.6216  10.2538
    12.2827  12.2827

     occupation numbers 
     1.0000   1.0000   1.0000   1.0000   1.0000   1.0000   1.0000   1.0000
     1.0000   1.0000   1.0000   1.0000   1.0000   1.0000   0.0000   0.0000
     0.0000   0.0000

          k = 0.3536 0.0707-0.0707 (  6029 PWs)   bands (ev):

   -13.2960 -13.2908 -13.2583 -13.1748 -13.1415 -13.0654 -13.0002 -12.9593
   -12.9337 -12.9246  -0.9813   3.9912   6.7875   6.9483   9.6897  10.3750
    12.5916  12.7925

     occupation numbers 
     1.0000   1.0000   1.0000   1.0000   1.0000   1.0000   1.0000   1.0000
     1.0000   1.0000   1.0000   1.0000   1.0000   1.0000   0.0000   0.0000
     0.0000   0.0000

          k = 0.4243 0.1414-0.1414 (  6018 PWs)   bands (ev):

   -13.3091 -13.2975 -13.2380 -13.1594 -13.1298 -13.0756 -13.0168 -12.9821
   -12.9237 -12.9095  -0.5374   3.0587   6.2682   6.7988   9.7130  10.9410
    12.5448  12.9155

     occupation numbers 
     1.0000   1.0000   1.0000   1.0000   1.0000   1.0000   1.0000   1.0000
     1.0000   1.0000   1.0000   1.0000   1.0000   1.0000   0.0000   0.0000
     0.0000   0.0000

          k =-0.2121-0.4950 0.4950 (  6022 PWs)   bands (ev):

   -13.3175 -13.3023 -13.2193 -13.1455 -13.1318 -13.0702 -13.0327 -13.0032
   -12.9163 -12.9003  -0.0930   2.3223   5.8772   6.8110   9.6295  11.5377
    12.7494  13.0236

     occupation numbers 
     1.0000   1.0000   1.0000   1.0000   1.0000   1.0000   1.0000   1.0000
     1.0000   1.0000   1.0000   1.0000   1.0000   1.0000   0.0000   0.0000
     0.0000   0.0000

          k =-0.1414-0.4243 0.4243 (  6039 PWs)   bands (ev):

   -13.3192 -13.3048 -13.2104 -13.1456 -13.1364 -13.0511 -13.0449 -13.0152
   -12.9123 -12.8991  -0.0140   2.2076   5.6891   6.9818   9.6255  11.7560
    12.4726  13.9437

     occupation numbers 
     1.0000   1.0000   1.0000   1.0000   1.0000   1.0000   1.0000   1.0000
     1.0000   1.0000   1.0000   1.0000   1.0000   1.0000   0.0000   0.0000
     0.0000   0.0000

          k =-0.0707-0.3536 0.3536 (  6024 PWs)   bands (ev):

   -13.3136 -13.3041 -13.2161 -13.1631 -13.1384 -13.0465 -13.0240 -13.0161
   -12.9122 -12.9066  -0.4017   2.8092   5.7547   7.2845   9.6865  11.9274
    12.0957  13.0949

     occupation numbers 
     1.0000   1.0000   1.0000   1.0000   1.0000   1.0000   1.0000   1.0000
     1.0000   1.0000   1.0000   1.0000   1.0000   1.0000   0.0000   0.0000
     0.0000   0.0000

          k = 0.0000-0.2828 0.2828 (  6041 PWs)   bands (ev):

   -13.3018 -13.2996 -13.2340 -13.1766 -13.1531 -13.0350 -13.0127 -12.9928
   -12.9217 -12.9165  -0.8646   3.6543   6.1537   7.6517   9.6586  11.5839
    11.7455  12.4612

     occupation numbers 
     1.0000   1.0000   1.0000   1.0000   1.0000   1.0000   1.0000   1.0000
     1.0000   1.0000   1.0000   1.0000   1.0000   1.0000   0.0000   0.0000
     0.0000   0.0000

          k = 0.4243 0.0000 0.0000 (  6046 PWs)   bands (ev):

   -13.2964 -13.2964 -13.2585 -13.1606 -13.1159 -13.0956 -13.0129 -12.9539
   -12.9261 -12.9261  -0.7131   3.4854   6.6362   6.6362   9.2313  10.1958
    13.5990  13.5991

     occupation numbers 
     1.0000   1.0000   1.0000   1.0000   1.0000   1.0000   1.0000   1.0000
     1.0000   1.0000   1.0000   1.0000   1.0000   1.0000   0.0000   0.0000
     0.0000   0.0000

          k = 0.4950 0.0707-0.0707 (  6038 PWs)   bands (ev):

   -13.3072 -13.3019 -13.2397 -13.1436 -13.1163 -13.0960 -13.0302 -12.9754
   -12.9178 -12.9117  -0.3000   2.7708   6.2060   6.4625   9.3902  10.1742
    13.5474  14.0011

     occupation numbers 
     1.0000   1.0000   1.0000   1.0000   1.0000   1.0000   1.0000   1.0000
     1.0000   1.0000   1.0000   1.0000   1.0000   1.0000   0.0000   0.0000
     0.0000   0.0000

          k =-0.1414-0.5657 0.5657 (  6027 PWs)   bands (ev):

   -13.3196 -13.3062 -13.2138 -13.1267 -13.1217 -13.0893 -13.0488 -13.0030
   -12.9115 -12.8975   0.1806   2.0918   5.6649   6.4540   9.5041  10.9876
    13.2852  13.9001

     occupation numbers 
     1.0000   1.0000   1.0000   1.0000   1.0000   1.0000   1.0000   1.0000
     1.0000   1.0000   1.0000   1.0000   1.0000   1.0000   0.0000   0.0000
     0.0000   0.0000

          k =-0.0707-0.4950 0.4950 (  5997 PWs)   bands (ev):

   -13.3263 -13.3083 -13.1986 -13.1141 -13.1107 -13.0980 -13.0642 -13.0187
   -12.9080 -12.8905   0.4071   1.8164   5.3140   6.6114   9.5839  12.2259
    13.1743  13.5109

     occupation numbers 
     1.0000   1.0000   1.0000   1.0000   1.0000   1.0000   1.0000   1.0000
     1.0000   1.0000   1.0000   1.0000   1.0000   1.0000   0.0000   0.0000
     0.0000   0.0000

          k =-0.0000-0.4243 0.4243 (  6013 PWs)   bands (ev):

   -13.3243 -13.3078 -13.1998 -13.1384 -13.1186 -13.0642 -13.0632 -13.0205
   -12.9082 -12.8936   0.0670   2.2284   5.3071   6.9102   9.7199  12.8370
    12.8783  12.9403

     occupation numbers 
     1.0000   1.0000   1.0000   1.0000   1.0000   1.0000   1.0000   1.0000
     1.0000   1.0000   1.0000   1.0000   1.0000   1.0000   0.0000   0.0000
     0.0000   0.0000

          k = 0.5657 0.0000 0.0000 (  6026 PWs)   bands (ev):

   -13.3060 -13.3060 -13.2326 -13.1474 -13.1252 -13.0675 -13.0476 -12.9818
   -12.9120 -12.9120   0.0836   2.2174   6.2543   6.2543   9.0973   9.6595
    14.8811  14.8812

     occupation numbers 
     1.0000   1.0000   1.0000   1.0000   1.0000   1.0000   1.0000   1.0000
     1.0000   1.0000   1.0000   1.0000   1.0000   1.0000   0.0000   0.0000
     0.0000   0.0000

          k =-0.0707-0.6364 0.6364 (  6008 PWs)   bands (ev):

   -13.3139 -13.3087 -13.2087 -13.1644 -13.1064 -13.0670 -13.0505 -13.0068
   -12.9080 -12.9027   0.5736   1.6190   5.9070   6.2098   9.2904   9.8087
    14.7587  15.0471

     occupation numbers 
     1.0000   1.0000   1.0000   1.0000   1.0000   1.0000   1.0000   1.0000
     1.0000   1.0000   1.0000   1.0000   1.0000   1.0000   0.0000   0.0000
     0.0000   0.0000

          k = 0.0000-0.5657 0.5657 (  5994 PWs)   bands (ev):

   -13.3235 -13.3096 -13.1940 -13.1478 -13.0948 -13.0805 -13.0656 -13.0216
   -12.9066 -12.8928   0.8298   1.3609   5.4555   6.3352   9.4027  10.9043
    14.2092  14.5010

     occupation numbers 
     1.0000   1.0000   1.0000   1.0000   1.0000   1.0000   1.0000   1.0000
     1.0000   1.0000   1.0000   1.0000   1.0000   1.0000   0.0000   0.0000
     0.0000   0.0000

          k =-0.7071 0.0000 0.0000 (  5962 PWs)   bands (ev):

   -13.3095 -13.3095 -13.1946 -13.1946 -13.0863 -13.0862 -13.0211 -13.0211
   -12.9068 -12.9068   1.0708   1.0709   6.1243   6.1243   9.2457   9.2457
    15.6032  15.6032

     occupation numbers 
     1.0000   1.0000   1.0000   1.0000   1.0000   1.0000   1.0000   1.0000
     1.0000   1.0000   1.0000   1.0000   1.0000   1.0000   0.0000   0.0000
     0.0000   0.0000

          k = 0.2828 0.1414 0.0000 (  6017 PWs)   bands (ev):

   -13.2921 -13.2891 -13.2557 -13.1850 -13.1621 -13.0384 -12.9940 -12.9670
   -12.9376 -12.9255  -1.1870   4.4407   6.8159   7.5321   9.9348  10.2872
    12.0818  12.2969

     occupation numbers 
     1.0000   1.0000   1.0000   1.0000   1.0000   1.0000   1.0000   1.0000
     1.0000   1.0000   1.0000   1.0000   1.0000   1.0000   0.0000   0.0000
     0.0000   0.0000

          k = 0.3536 0.2121-0.0707 (  6031 PWs)   bands (ev):

   -13.3033 -13.2980 -13.2383 -13.1716 -13.1461 -13.0522 -13.0074 -12.9874
   -12.9233 -12.9154  -0.7816   3.4774   6.2962   7.2589   9.8775  10.8610
    12.3059  12.6339

     occupation numbers 
     1.0000   1.0000   1.0000   1.0000   1.0000   1.0000   1.0000   1.0000
     1.0000   1.0000   1.0000   1.0000   1.0000   1.0000   0.0000   0.0000
     0.0000   0.0000

          k =-0.2828-0.4243 0.5657 (  6019 PWs)   bands (ev):

   -13.3126 -13.3024 -13.2221 -13.1586 -13.1395 -13.0547 -13.0213 -13.0069
   -12.9161 -12.9062  -0.3127   2.6054   6.0242   7.0155   9.7452  11.2410
    12.4097  13.2967

     occupation numbers 
     1.0000   1.0000   1.0000   1.0000   1.0000   1.0000   1.0000   1.0000
     1.0000   1.0000   1.0000   1.0000   1.0000   1.0000   0.0000   0.0000
     0.0000   0.0000

          k =-0.2121-0.3536 0.4950 (  6018 PWs)   bands (ev):

   -13.3159 -13.3038 -13.2154 -13.1501 -13.1417 -13.0492 -13.0336 -13.0130
   -12.9141 -12.9025  -0.0547   2.2030   5.9411   6.9231   9.6933  11.2937
    12.4566  14.0482

     occupation numbers 
     1.0000   1.0000   1.0000   1.0000   1.0000   1.0000   1.0000   1.0000
     1.0000   1.0000   1.0000   1.0000   1.0000   1.0000   0.0000   0.0000
     0.0000   0.0000

          k = 0.4243 0.1414-0.0000 (  6024 PWs)   bands (ev):

   -13.3022 -13.3020 -13.2427 -13.1600 -13.1214 -13.0867 -13.0152 -12.9754
   -12.9195 -12.9167  -0.6191   3.2823   6.2594   6.7462   9.8840  10.3904
    12.5466  13.5014

     occupation numbers 
     1.0000   1.0000   1.0000   1.0000   1.0000   1.0000   1.0000   1.0000
     1.0000   1.0000   1.0000   1.0000   1.0000   1.0000   0.0000   0.0000
     0.0000   0.0000

          k =-0.2121-0.4950 0.6364 (  6023 PWs)   bands (ev):

   -13.3154 -13.3068 -13.2183 -13.1443 -13.1106 -13.0957 -13.0328 -13.0012
   -12.9114 -12.9027  -0.1502   2.5239   5.8016   6.5331  10.0630  10.9934
    12.3295  13.8029

     occupation numbers 
     1.0000   1.0000   1.0000   1.0000   1.0000   1.0000   1.0000   1.0000
     1.0000   1.0000   1.0000   1.0000   1.0000   1.0000   0.0000   0.0000
     0.0000   0.0000

          k =-0.1414-0.4243 0.5657 (  6021 PWs)   bands (ev):

   -13.3232 -13.3094 -13.2000 -13.1319 -13.1134 -13.0892 -13.0502 -13.0191
   -12.9076 -12.8940   0.2358   1.9956   5.5033   6.4945  10.0831  11.6498
    12.6966  13.5836

     occupation numbers 
     1.0000   1.0000   1.0000   1.0000   1.0000   1.0000   1.0000   1.0000
     1.0000   1.0000   1.0000   1.0000   1.0000   1.0000   0.0000   0.0000
     0.0000   0.0000

          k =-0.0707-0.3536 0.4950 (  6017 PWs)   bands (ev):

   -13.3228 -13.3096 -13.1987 -13.1394 -13.1164 -13.0787 -13.0489 -13.0221
   -12.9070 -12.8949   0.1119   2.1574   5.4334   6.6576  10.1707  11.6653
    12.7701  13.5410

     occupation numbers 
     1.0000   1.0000   1.0000   1.0000   1.0000   1.0000   1.0000   1.0000
     1.0000   1.0000   1.0000   1.0000   1.0000   1.0000   0.0000   0.0000
     0.0000   0.0000

          k = 0.0000-0.2828 0.4243 (  6033 PWs)   bands (ev):

   -13.3145 -13.3066 -13.2148 -13.1579 -13.1267 -13.0693 -13.0219 -13.0133
   -12.9099 -12.9054  -0.3480   2.7996   5.6748   6.9619  10.2243  11.2870
    12.2071  13.2467

     occupation numbers 
     1.0000   1.0000   1.0000   1.0000   1.0000   1.0000   1.0000   1.0000
     1.0000   1.0000   1.0000   1.0000   1.0000   1.0000   0.0000   0.0000
     0.0000   0.0000

          k =-0.1414-0.5657 0.7071 (  6015 PWs)   bands (ev):

   -13.3116 -13.3107 -13.2177 -13.1360 -13.1258 -13.0768 -13.0486 -12.9981
   -12.9065 -12.9061   0.1491   2.1477   5.9497   6.1897   9.7080  10.1000
    13.4949  14.7588

     occupation numbers 
     1.0000   1.0000   1.0000   1.0000   1.0000   1.0000   1.0000   1.0000
     1.0000   1.0000   1.0000   1.0000   1.0000   1.0000   0.0000   0.0000
     0.0000   0.0000

          k =-0.0707-0.4950 0.6364 (  6013 PWs)   bands (ev):

   -13.3221 -13.3132 -13.1909 -13.1393 -13.1088 -13.0727 -13.0678 -13.0245
   -12.9033 -12.8943   0.6175   1.6036   5.5399   6.1269   9.9284  10.9645
    13.2057  14.2588

     occupation numbers 
     1.0000   1.0000   1.0000   1.0000   1.0000   1.0000   1.0000   1.0000
     1.0000   1.0000   1.0000   1.0000   1.0000   1.0000   0.0000   0.0000
     0.0000   0.0000

          k =-0.0000-0.4243 0.5657 (  5996 PWs)   bands (ev):

   -13.3268 -13.3129 -13.1861 -13.1124 -13.1107 -13.0923 -13.0740 -13.0290
   -12.9033 -12.8897   0.5719   1.6612   5.2881   6.3165  10.0710  12.2453
    12.9804  13.0512

     occupation numbers 
     1.0000   1.0000   1.0000   1.0000   1.0000   1.0000   1.0000   1.0000
     1.0000   1.0000   1.0000   1.0000   1.0000   1.0000   0.0000   0.0000
     0.0000   0.0000

          k =-0.7071 0.1414 0.0000 (  6014 PWs)   bands (ev):

   -13.3146 -13.3146 -13.1811 -13.1811 -13.0871 -13.0871 -13.0338 -13.0338
   -12.9016 -12.9016   1.0860   1.0861   5.9216   5.9216   9.7897   9.7898
    14.6409  14.6409

     occupation numbers 
     1.0000   1.0000   1.0000   1.0000   1.0000   1.0000   1.0000   1.0000
     1.0000   1.0000   1.0000   1.0000   1.0000   1.0000   0.0000   0.0000
     0.0000   0.0000

          k =-0.1414-0.4243 0.7071 (  6022 PWs)   bands (ev):

   -13.3218 -13.3152 -13.1903 -13.1271 -13.1134 -13.0913 -13.0551 -13.0267
   -12.9013 -12.8954   0.3278   1.9470   5.4916   6.1735  10.9305  11.0785
    12.0766  14.0182

     occupation numbers 
     1.0000   1.0000   1.0000   1.0000   1.0000   1.0000   1.0000   1.0000
     1.0000   1.0000   1.0000   1.0000   1.0000   1.0000   0.0000   0.0000
     0.0000   0.0000

          k =-0.0707-0.3536 0.6364 (  6010 PWs)   bands (ev):

   -13.3252 -13.3173 -13.1754 -13.1224 -13.1107 -13.0870 -13.0705 -13.0383
   -12.8990 -12.8912   0.6466   1.5916   5.4017   6.0099  10.9723  11.6035
    12.5464  12.8662

     occupation numbers 
     1.0000   1.0000   1.0000   1.0000   1.0000   1.0000   1.0000   1.0000
     1.0000   1.0000   1.0000   1.0000   1.0000   1.0000   0.0000   0.0000
     0.0000   0.0000

          k =-0.7071 0.2828 0.0000 (  6012 PWs)   bands (ev):

   -13.3216 -13.3216 -13.1556 -13.1556 -13.0913 -13.0913 -13.0553 -13.0552
   -12.8945 -12.8945   1.1113   1.1114   5.6546   5.6546  11.0459  11.0459
    12.9206  12.9206

     occupation numbers 
     1.0000   1.0000   1.0000   1.0000   1.0000   1.0000   1.0000   1.0000
     1.0000   1.0000   1.0000   1.0000   1.0000   1.0000   0.0000   0.0000
     0.0000   0.0000

     the Fermi energy is     8.2992 ev

!    total energy              =    -241.29878890 Ry
     Harris-Foulkes estimate   =    -241.29878889 Ry
     estimated scf accuracy    <       0.00000005 Ry

     The total energy is the sum of the following terms:

     one-electron contribution =    -109.44810153 Ry
     hartree contribution      =      65.33899551 Ry
     xc contribution           =     -29.40813039 Ry
     ewald contribution        =    -167.78134157 Ry
     smearing contrib. (-TS)   =      -0.00021092 Ry

     convergence has been achieved in   5 iterations

     Writing output data file Sn.save
 
     init_run     :      0.80s CPU      1.40s WALL (       1 calls)
     electrons    :     14.33s CPU     16.37s WALL (       1 calls)

     Called by init_run:
     wfcinit      :      0.65s CPU      0.92s WALL (       1 calls)
     potinit      :      0.02s CPU      0.05s WALL (       1 calls)

     Called by electrons:
     c_bands      :     12.63s CPU     14.57s WALL (       6 calls)
     sum_band     :      1.62s CPU      1.65s WALL (       6 calls)
     v_of_rho     :      0.07s CPU      0.08s WALL (       6 calls)
     v_h          :      0.00s CPU      0.00s WALL (       6 calls)
     v_xc         :      0.07s CPU      0.07s WALL (       6 calls)
     mix_rho      :      0.01s CPU      0.02s WALL (       6 calls)

     Called by c_bands:
     init_us_2    :      0.11s CPU      0.12s WALL (     611 calls)
     cegterg      :     11.98s CPU     13.87s WALL (     282 calls)

     Called by sum_band:

     Called by *egterg:
     h_psi        :     10.21s CPU     12.02s WALL (    1181 calls)
     g_psi        :      0.02s CPU      0.03s WALL (     852 calls)
     cdiaghg      :      1.25s CPU      1.44s WALL (    1087 calls)
     cegterg:over :      0.42s CPU      0.45s WALL (     852 calls)
     cegterg:upda :      0.15s CPU      0.15s WALL (     852 calls)
     cegterg:last :      0.08s CPU      0.09s WALL (     359 calls)

     Called by h_psi:
     h_psi:vloc   :      9.74s CPU     11.46s WALL (    1181 calls)
     h_psi:vnl    :      0.44s CPU      0.52s WALL (    1181 calls)
     add_vuspsi   :      0.13s CPU      0.14s WALL (    1181 calls)

     General routines
     calbec       :      0.31s CPU      0.37s WALL (    1181 calls)
     fft          :      0.03s CPU      0.24s WALL (      67 calls)
     fftw         :     10.54s CPU     12.20s WALL (   38086 calls)
     davcio       :      0.00s CPU      0.04s WALL (      47 calls)
 
     Parallel routines
     fft_scatter  :      5.70s CPU      6.57s WALL (   38153 calls)
 
     PWSCF        :    15.30s CPU        18.22s WALL

 
   This run was terminated on:   0:54: 2  21Feb2020            

=------------------------------------------------------------------------------=
   JOB DONE.
=------------------------------------------------------------------------------=
