
     Program PWSCF v.5.4.0 starts on 28Feb2020 at  0:16:42 

     This program is part of the open-source Quantum ESPRESSO suite
     for quantum simulation of materials; please cite
         "P. Giannozzi et al., J. Phys.:Condens. Matter 21 395502 (2009);
          URL http://www.quantum-espresso.org", 
     in publications or presentations arising from this work. More details at
     http://www.quantum-espresso.org/quote

     Parallel version (MPI & OpenMP), running on      16 processor cores
     Number of MPI processes:                16
     Threads/MPI process:                     1
     R & G space division:  proc/nbgrp/npool/nimage =      16
     Waiting for input...
     Reading input from standard input
Warning: card &IONS ignored
Warning: card / ignored
Warning: card &CELL ignored
Warning: card / ignored

     Current dimensions of program PWSCF are:
     Max number of different atomic species (ntypx) = 10
     Max number of k-points (npk) =  40000
     Max angular momentum in pseudopotentials (lmaxx) =  3

     Subspace diagonalization in iterative solution of the eigenvalue problem:
     a serial algorithm will be used

 
     Parallelization info
     --------------------
     sticks:   dense  smooth     PW     G-vecs:    dense   smooth      PW
     Min         190     190     52                 6969     6969    1019
     Max         191     191     53                 6973     6973    1023
     Sum        3055    3055    847               111547   111547   16361
 

     Title: 
     Sn                                                                         


     bravais-lattice index     =            0
     lattice parameter (alat)  =       8.8993  a.u.
     unit-cell volume          =     498.3785 (a.u.)^3
     number of atoms/cell      =            2
     number of atomic types    =            1
     number of electrons       =        28.00
     number of Kohn-Sham states=           18
     kinetic-energy cutoff     =     140.0000  Ry
     charge density cutoff     =     560.0000  Ry
     convergence threshold     =      1.0E-06
     mixing beta               =       0.7000
     number of iterations used =            8  plain     mixing
     Exchange-correlation      = PBE ( 1  4  3  4 0 0)

     celldm(1)=   8.899346  celldm(2)=   0.000000  celldm(3)=   0.000000
     celldm(4)=   0.000000  celldm(5)=   0.000000  celldm(6)=   0.000000

     crystal axes: (cart. coord. in units of alat)
               a(1) = (   0.000000   0.707107   0.707107 )  
               a(2) = (   0.707107   0.000000   0.707107 )  
               a(3) = (   0.707107   0.707107   0.000000 )  

     reciprocal axes: (cart. coord. in units 2 pi/alat)
               b(1) = ( -0.707107  0.707107  0.707107 )  
               b(2) = (  0.707107 -0.707107  0.707107 )  
               b(3) = (  0.707107  0.707107 -0.707107 )  


     PseudoPot. # 1 for Sn read from file:
     ../PseudopotentialDatabase/Sn_ONCV_PBE_FR-1.1.upf
     MD5 check sum: 6dd2180f739ea5ae1610ead5e1628a0e
     Pseudo is Norm-conserving, Zval = 14.0
     Generated using ONCVPSP code by D. R. Hamann
     Using radial grid of  602 points,  6 beta functions with: 
                l(1) =   0
                l(2) =   0
                l(3) =   1
                l(4) =   1
                l(5) =   2
                l(6) =   2

     atomic species   valence    mass     pseudopotential
        Sn            14.00   118.71000     Sn( 1.00)

     48 Sym. Ops., with inversion, found (24 have fractional translation)


                                    s                        frac. trans.

      isym =  1     identity                                     

 cryst.   s( 1) = (     1          0          0      )
                  (     0          1          0      )
                  (     0          0          1      )

 cart.    s( 1) = (  1.0000000  0.0000000  0.0000000 )
                  (  0.0000000  1.0000000  0.0000000 )
                  (  0.0000000  0.0000000  1.0000000 )


      isym =  2     180 deg rotation - cart. axis [0,0,1]        

 cryst.   s( 2) = (     0          1         -1      )
                  (     1          0         -1      )
                  (     0          0         -1      )

 cart.    s( 2) = ( -1.0000000  0.0000000  0.0000000 )
                  (  0.0000000 -1.0000000  0.0000000 )
                  (  0.0000000  0.0000000  1.0000000 )


      isym =  3     180 deg rotation - cart. axis [0,1,0]        

 cryst.   s( 3) = (     0         -1          1      )
                  (     0         -1          0      )
                  (     1         -1          0      )

 cart.    s( 3) = ( -1.0000000  0.0000000  0.0000000 )
                  (  0.0000000  1.0000000  0.0000000 )
                  (  0.0000000  0.0000000 -1.0000000 )


      isym =  4     180 deg rotation - cart. axis [1,0,0]        

 cryst.   s( 4) = (    -1          0          0      )
                  (    -1          0          1      )
                  (    -1          1          0      )

 cart.    s( 4) = (  1.0000000  0.0000000  0.0000000 )
                  (  0.0000000 -1.0000000  0.0000000 )
                  (  0.0000000  0.0000000 -1.0000000 )


      isym =  5     180 deg rotation - cart. axis [1,1,0]        

 cryst.   s( 5) = (    -1          0          1      )    f =( -0.2500000 )
                  (     0         -1          1      )       ( -0.2500000 )
                  (     0          0          1      )       ( -0.2500000 )

 cart.    s( 5) = (  0.0000000  1.0000000  0.0000000 )    f =( -0.3535534 )
                  (  1.0000000  0.0000000  0.0000000 )       ( -0.3535534 )
                  (  0.0000000  0.0000000 -1.0000000 )       ( -0.3535534 )


      isym =  6     180 deg rotation - cart. axis [1,-1,0]       

 cryst.   s( 6) = (     0         -1          0      )    f =( -0.2500000 )
                  (    -1          0          0      )       ( -0.2500000 )
                  (     0          0         -1      )       ( -0.2500000 )

 cart.    s( 6) = (  0.0000000 -1.0000000  0.0000000 )    f =( -0.3535534 )
                  ( -1.0000000  0.0000000  0.0000000 )       ( -0.3535534 )
                  (  0.0000000  0.0000000 -1.0000000 )       ( -0.3535534 )


      isym =  7      90 deg rotation - cart. axis [0,0,-1]       

 cryst.   s( 7) = (     0          1          0      )    f =( -0.2500000 )
                  (     0          1         -1      )       ( -0.2500000 )
                  (    -1          1          0      )       ( -0.2500000 )

 cart.    s( 7) = (  0.0000000  1.0000000  0.0000000 )    f =( -0.3535534 )
                  ( -1.0000000  0.0000000  0.0000000 )       ( -0.3535534 )
                  (  0.0000000  0.0000000  1.0000000 )       ( -0.3535534 )


      isym =  8      90 deg rotation - cart. axis [0,0,1]        

 cryst.   s( 8) = (     1          0         -1      )    f =( -0.2500000 )
                  (     1          0          0      )       ( -0.2500000 )
                  (     1         -1          0      )       ( -0.2500000 )

 cart.    s( 8) = (  0.0000000 -1.0000000  0.0000000 )    f =( -0.3535534 )
                  (  1.0000000  0.0000000  0.0000000 )       ( -0.3535534 )
                  (  0.0000000  0.0000000  1.0000000 )       ( -0.3535534 )


      isym =  9     180 deg rotation - cart. axis [1,0,1]        

 cryst.   s( 9) = (    -1          1          0      )    f =( -0.2500000 )
                  (     0          1          0      )       ( -0.2500000 )
                  (     0          1         -1      )       ( -0.2500000 )

 cart.    s( 9) = (  0.0000000  0.0000000  1.0000000 )    f =( -0.3535534 )
                  (  0.0000000 -1.0000000  0.0000000 )       ( -0.3535534 )
                  (  1.0000000  0.0000000  0.0000000 )       ( -0.3535534 )


      isym = 10     180 deg rotation - cart. axis [-1,0,1]       

 cryst.   s(10) = (     0          0         -1      )    f =( -0.2500000 )
                  (     0         -1          0      )       ( -0.2500000 )
                  (    -1          0          0      )       ( -0.2500000 )

 cart.    s(10) = (  0.0000000  0.0000000 -1.0000000 )    f =( -0.3535534 )
                  (  0.0000000 -1.0000000  0.0000000 )       ( -0.3535534 )
                  ( -1.0000000  0.0000000  0.0000000 )       ( -0.3535534 )


      isym = 11      90 deg rotation - cart. axis [0,1,0]        

 cryst.   s(11) = (     0          0          1      )    f =( -0.2500000 )
                  (    -1          0          1      )       ( -0.2500000 )
                  (     0         -1          1      )       ( -0.2500000 )

 cart.    s(11) = (  0.0000000  0.0000000  1.0000000 )    f =( -0.3535534 )
                  (  0.0000000  1.0000000  0.0000000 )       ( -0.3535534 )
                  ( -1.0000000  0.0000000  0.0000000 )       ( -0.3535534 )


      isym = 12      90 deg rotation - cart. axis [0,-1,0]       

 cryst.   s(12) = (     1         -1          0      )    f =( -0.2500000 )
                  (     1          0         -1      )       ( -0.2500000 )
                  (     1          0          0      )       ( -0.2500000 )

 cart.    s(12) = (  0.0000000  0.0000000 -1.0000000 )    f =( -0.3535534 )
                  (  0.0000000  1.0000000  0.0000000 )       ( -0.3535534 )
                  (  1.0000000  0.0000000  0.0000000 )       ( -0.3535534 )


      isym = 13     180 deg rotation - cart. axis [0,1,1]        

 cryst.   s(13) = (     1          0          0      )    f =( -0.2500000 )
                  (     1         -1          0      )       ( -0.2500000 )
                  (     1          0         -1      )       ( -0.2500000 )

 cart.    s(13) = ( -1.0000000  0.0000000  0.0000000 )    f =( -0.3535534 )
                  (  0.0000000  0.0000000  1.0000000 )       ( -0.3535534 )
                  (  0.0000000  1.0000000  0.0000000 )       ( -0.3535534 )


      isym = 14     180 deg rotation - cart. axis [0,1,-1]       

 cryst.   s(14) = (    -1          0          0      )    f =( -0.2500000 )
                  (     0          0         -1      )       ( -0.2500000 )
                  (     0         -1          0      )       ( -0.2500000 )

 cart.    s(14) = ( -1.0000000  0.0000000  0.0000000 )    f =( -0.3535534 )
                  (  0.0000000  0.0000000 -1.0000000 )       ( -0.3535534 )
                  (  0.0000000 -1.0000000  0.0000000 )       ( -0.3535534 )


      isym = 15      90 deg rotation - cart. axis [-1,0,0]       

 cryst.   s(15) = (     0         -1          1      )    f =( -0.2500000 )
                  (     0          0          1      )       ( -0.2500000 )
                  (    -1          0          1      )       ( -0.2500000 )

 cart.    s(15) = (  1.0000000  0.0000000  0.0000000 )    f =( -0.3535534 )
                  (  0.0000000  0.0000000  1.0000000 )       ( -0.3535534 )
                  (  0.0000000 -1.0000000  0.0000000 )       ( -0.3535534 )


      isym = 16      90 deg rotation - cart. axis [1,0,0]        

 cryst.   s(16) = (     0          1         -1      )    f =( -0.2500000 )
                  (    -1          1          0      )       ( -0.2500000 )
                  (     0          1          0      )       ( -0.2500000 )

 cart.    s(16) = (  1.0000000  0.0000000  0.0000000 )    f =( -0.3535534 )
                  (  0.0000000  0.0000000 -1.0000000 )       ( -0.3535534 )
                  (  0.0000000  1.0000000  0.0000000 )       ( -0.3535534 )


      isym = 17     120 deg rotation - cart. axis [-1,-1,-1]     

 cryst.   s(17) = (     0          0          1      )
                  (     1          0          0      )
                  (     0          1          0      )

 cart.    s(17) = (  0.0000000  1.0000000  0.0000000 )
                  (  0.0000000  0.0000000  1.0000000 )
                  (  1.0000000  0.0000000  0.0000000 )


      isym = 18     120 deg rotation - cart. axis [-1,1,1]       

 cryst.   s(18) = (     1         -1          0      )
                  (     0         -1          1      )
                  (     0         -1          0      )

 cart.    s(18) = (  0.0000000 -1.0000000  0.0000000 )
                  (  0.0000000  0.0000000  1.0000000 )
                  ( -1.0000000  0.0000000  0.0000000 )


      isym = 19     120 deg rotation - cart. axis [1,1,-1]       

 cryst.   s(19) = (    -1          1          0      )
                  (    -1          0          0      )
                  (    -1          0          1      )

 cart.    s(19) = (  0.0000000  1.0000000  0.0000000 )
                  (  0.0000000  0.0000000 -1.0000000 )
                  ( -1.0000000  0.0000000  0.0000000 )


      isym = 20     120 deg rotation - cart. axis [1,-1,1]       

 cryst.   s(20) = (     0          0         -1      )
                  (     0          1         -1      )
                  (     1          0         -1      )

 cart.    s(20) = (  0.0000000 -1.0000000  0.0000000 )
                  (  0.0000000  0.0000000 -1.0000000 )
                  (  1.0000000  0.0000000  0.0000000 )


      isym = 21     120 deg rotation - cart. axis [1,1,1]        

 cryst.   s(21) = (     0          1          0      )
                  (     0          0          1      )
                  (     1          0          0      )

 cart.    s(21) = (  0.0000000  0.0000000  1.0000000 )
                  (  1.0000000  0.0000000  0.0000000 )
                  (  0.0000000  1.0000000  0.0000000 )


      isym = 22     120 deg rotation - cart. axis [-1,1,-1]      

 cryst.   s(22) = (    -1          0          1      )
                  (    -1          1          0      )
                  (    -1          0          0      )

 cart.    s(22) = (  0.0000000  0.0000000  1.0000000 )
                  ( -1.0000000  0.0000000  0.0000000 )
                  (  0.0000000 -1.0000000  0.0000000 )


      isym = 23     120 deg rotation - cart. axis [1,-1,-1]      

 cryst.   s(23) = (     1          0         -1      )
                  (     0          0         -1      )
                  (     0          1         -1      )

 cart.    s(23) = (  0.0000000  0.0000000 -1.0000000 )
                  ( -1.0000000  0.0000000  0.0000000 )
                  (  0.0000000  1.0000000  0.0000000 )


      isym = 24     120 deg rotation - cart. axis [-1,-1,1]      

 cryst.   s(24) = (     0         -1          0      )
                  (     1         -1          0      )
                  (     0         -1          1      )

 cart.    s(24) = (  0.0000000  0.0000000 -1.0000000 )
                  (  1.0000000  0.0000000  0.0000000 )
                  (  0.0000000 -1.0000000  0.0000000 )


      isym = 25     inversion                                    

 cryst.   s(25) = (    -1          0          0      )    f =( -0.2500000 )
                  (     0         -1          0      )       ( -0.2500000 )
                  (     0          0         -1      )       ( -0.2500000 )

 cart.    s(25) = ( -1.0000000  0.0000000  0.0000000 )    f =( -0.3535534 )
                  (  0.0000000 -1.0000000  0.0000000 )       ( -0.3535534 )
                  (  0.0000000  0.0000000 -1.0000000 )       ( -0.3535534 )


      isym = 26     inv. 180 deg rotation - cart. axis [0,0,1]   

 cryst.   s(26) = (     0         -1          1      )    f =( -0.2500000 )
                  (    -1          0          1      )       ( -0.2500000 )
                  (     0          0          1      )       ( -0.2500000 )

 cart.    s(26) = (  1.0000000  0.0000000  0.0000000 )    f =( -0.3535534 )
                  (  0.0000000  1.0000000  0.0000000 )       ( -0.3535534 )
                  (  0.0000000  0.0000000 -1.0000000 )       ( -0.3535534 )


      isym = 27     inv. 180 deg rotation - cart. axis [0,1,0]   

 cryst.   s(27) = (     0          1         -1      )    f =( -0.2500000 )
                  (     0          1          0      )       ( -0.2500000 )
                  (    -1          1          0      )       ( -0.2500000 )

 cart.    s(27) = (  1.0000000  0.0000000  0.0000000 )    f =( -0.3535534 )
                  (  0.0000000 -1.0000000  0.0000000 )       ( -0.3535534 )
                  (  0.0000000  0.0000000  1.0000000 )       ( -0.3535534 )


      isym = 28     inv. 180 deg rotation - cart. axis [1,0,0]   

 cryst.   s(28) = (     1          0          0      )    f =( -0.2500000 )
                  (     1          0         -1      )       ( -0.2500000 )
                  (     1         -1          0      )       ( -0.2500000 )

 cart.    s(28) = ( -1.0000000  0.0000000  0.0000000 )    f =( -0.3535534 )
                  (  0.0000000  1.0000000  0.0000000 )       ( -0.3535534 )
                  (  0.0000000  0.0000000  1.0000000 )       ( -0.3535534 )


      isym = 29     inv. 180 deg rotation - cart. axis [1,1,0]   

 cryst.   s(29) = (     1          0         -1      )
                  (     0          1         -1      )
                  (     0          0         -1      )

 cart.    s(29) = (  0.0000000 -1.0000000  0.0000000 )
                  ( -1.0000000  0.0000000  0.0000000 )
                  (  0.0000000  0.0000000  1.0000000 )


      isym = 30     inv. 180 deg rotation - cart. axis [1,-1,0]  

 cryst.   s(30) = (     0          1          0      )
                  (     1          0          0      )
                  (     0          0          1      )

 cart.    s(30) = (  0.0000000  1.0000000  0.0000000 )
                  (  1.0000000  0.0000000  0.0000000 )
                  (  0.0000000  0.0000000  1.0000000 )


      isym = 31     inv.  90 deg rotation - cart. axis [0,0,-1]  

 cryst.   s(31) = (     0         -1          0      )
                  (     0         -1          1      )
                  (     1         -1          0      )

 cart.    s(31) = (  0.0000000 -1.0000000  0.0000000 )
                  (  1.0000000  0.0000000  0.0000000 )
                  (  0.0000000  0.0000000 -1.0000000 )


      isym = 32     inv.  90 deg rotation - cart. axis [0,0,1]   

 cryst.   s(32) = (    -1          0          1      )
                  (    -1          0          0      )
                  (    -1          1          0      )

 cart.    s(32) = (  0.0000000  1.0000000  0.0000000 )
                  ( -1.0000000  0.0000000  0.0000000 )
                  (  0.0000000  0.0000000 -1.0000000 )


      isym = 33     inv. 180 deg rotation - cart. axis [1,0,1]   

 cryst.   s(33) = (     1         -1          0      )
                  (     0         -1          0      )
                  (     0         -1          1      )

 cart.    s(33) = (  0.0000000  0.0000000 -1.0000000 )
                  (  0.0000000  1.0000000  0.0000000 )
                  ( -1.0000000  0.0000000  0.0000000 )


      isym = 34     inv. 180 deg rotation - cart. axis [-1,0,1]  

 cryst.   s(34) = (     0          0          1      )
                  (     0          1          0      )
                  (     1          0          0      )

 cart.    s(34) = (  0.0000000  0.0000000  1.0000000 )
                  (  0.0000000  1.0000000  0.0000000 )
                  (  1.0000000  0.0000000  0.0000000 )


      isym = 35     inv.  90 deg rotation - cart. axis [0,1,0]   

 cryst.   s(35) = (     0          0         -1      )
                  (     1          0         -1      )
                  (     0          1         -1      )

 cart.    s(35) = (  0.0000000  0.0000000 -1.0000000 )
                  (  0.0000000 -1.0000000  0.0000000 )
                  (  1.0000000  0.0000000  0.0000000 )


      isym = 36     inv.  90 deg rotation - cart. axis [0,-1,0]  

 cryst.   s(36) = (    -1          1          0      )
                  (    -1          0          1      )
                  (    -1          0          0      )

 cart.    s(36) = (  0.0000000  0.0000000  1.0000000 )
                  (  0.0000000 -1.0000000  0.0000000 )
                  ( -1.0000000  0.0000000  0.0000000 )


      isym = 37     inv. 180 deg rotation - cart. axis [0,1,1]   

 cryst.   s(37) = (    -1          0          0      )
                  (    -1          1          0      )
                  (    -1          0          1      )

 cart.    s(37) = (  1.0000000  0.0000000  0.0000000 )
                  (  0.0000000  0.0000000 -1.0000000 )
                  (  0.0000000 -1.0000000  0.0000000 )


      isym = 38     inv. 180 deg rotation - cart. axis [0,1,-1]  

 cryst.   s(38) = (     1          0          0      )
                  (     0          0          1      )
                  (     0          1          0      )

 cart.    s(38) = (  1.0000000  0.0000000  0.0000000 )
                  (  0.0000000  0.0000000  1.0000000 )
                  (  0.0000000  1.0000000  0.0000000 )


      isym = 39     inv.  90 deg rotation - cart. axis [-1,0,0]  

 cryst.   s(39) = (     0          1         -1      )
                  (     0          0         -1      )
                  (     1          0         -1      )

 cart.    s(39) = ( -1.0000000  0.0000000  0.0000000 )
                  (  0.0000000  0.0000000 -1.0000000 )
                  (  0.0000000  1.0000000  0.0000000 )


      isym = 40     inv.  90 deg rotation - cart. axis [1,0,0]   

 cryst.   s(40) = (     0         -1          1      )
                  (     1         -1          0      )
                  (     0         -1          0      )

 cart.    s(40) = ( -1.0000000  0.0000000  0.0000000 )
                  (  0.0000000  0.0000000  1.0000000 )
                  (  0.0000000 -1.0000000  0.0000000 )


      isym = 41     inv. 120 deg rotation - cart. axis [-1,-1,-1]

 cryst.   s(41) = (     0          0         -1      )    f =( -0.2500000 )
                  (    -1          0          0      )       ( -0.2500000 )
                  (     0         -1          0      )       ( -0.2500000 )

 cart.    s(41) = (  0.0000000 -1.0000000  0.0000000 )    f =( -0.3535534 )
                  (  0.0000000  0.0000000 -1.0000000 )       ( -0.3535534 )
                  ( -1.0000000  0.0000000  0.0000000 )       ( -0.3535534 )


      isym = 42     inv. 120 deg rotation - cart. axis [-1,1,1]  

 cryst.   s(42) = (    -1          1          0      )    f =( -0.2500000 )
                  (     0          1         -1      )       ( -0.2500000 )
                  (     0          1          0      )       ( -0.2500000 )

 cart.    s(42) = (  0.0000000  1.0000000  0.0000000 )    f =( -0.3535534 )
                  (  0.0000000  0.0000000 -1.0000000 )       ( -0.3535534 )
                  (  1.0000000  0.0000000  0.0000000 )       ( -0.3535534 )


      isym = 43     inv. 120 deg rotation - cart. axis [1,1,-1]  

 cryst.   s(43) = (     1         -1          0      )    f =( -0.2500000 )
                  (     1          0          0      )       ( -0.2500000 )
                  (     1          0         -1      )       ( -0.2500000 )

 cart.    s(43) = (  0.0000000 -1.0000000  0.0000000 )    f =( -0.3535534 )
                  (  0.0000000  0.0000000  1.0000000 )       ( -0.3535534 )
                  (  1.0000000  0.0000000  0.0000000 )       ( -0.3535534 )


      isym = 44     inv. 120 deg rotation - cart. axis [1,-1,1]  

 cryst.   s(44) = (     0          0          1      )    f =( -0.2500000 )
                  (     0         -1          1      )       ( -0.2500000 )
                  (    -1          0          1      )       ( -0.2500000 )

 cart.    s(44) = (  0.0000000  1.0000000  0.0000000 )    f =( -0.3535534 )
                  (  0.0000000  0.0000000  1.0000000 )       ( -0.3535534 )
                  ( -1.0000000  0.0000000  0.0000000 )       ( -0.3535534 )


      isym = 45     inv. 120 deg rotation - cart. axis [1,1,1]   

 cryst.   s(45) = (     0         -1          0      )    f =( -0.2500000 )
                  (     0          0         -1      )       ( -0.2500000 )
                  (    -1          0          0      )       ( -0.2500000 )

 cart.    s(45) = (  0.0000000  0.0000000 -1.0000000 )    f =( -0.3535534 )
                  ( -1.0000000  0.0000000  0.0000000 )       ( -0.3535534 )
                  (  0.0000000 -1.0000000  0.0000000 )       ( -0.3535534 )


      isym = 46     inv. 120 deg rotation - cart. axis [-1,1,-1] 

 cryst.   s(46) = (     1          0         -1      )    f =( -0.2500000 )
                  (     1         -1          0      )       ( -0.2500000 )
                  (     1          0          0      )       ( -0.2500000 )

 cart.    s(46) = (  0.0000000  0.0000000 -1.0000000 )    f =( -0.3535534 )
                  (  1.0000000  0.0000000  0.0000000 )       ( -0.3535534 )
                  (  0.0000000  1.0000000  0.0000000 )       ( -0.3535534 )


      isym = 47     inv. 120 deg rotation - cart. axis [1,-1,-1] 

 cryst.   s(47) = (    -1          0          1      )    f =( -0.2500000 )
                  (     0          0          1      )       ( -0.2500000 )
                  (     0         -1          1      )       ( -0.2500000 )

 cart.    s(47) = (  0.0000000  0.0000000  1.0000000 )    f =( -0.3535534 )
                  (  1.0000000  0.0000000  0.0000000 )       ( -0.3535534 )
                  (  0.0000000 -1.0000000  0.0000000 )       ( -0.3535534 )


      isym = 48     inv. 120 deg rotation - cart. axis [-1,-1,1] 

 cryst.   s(48) = (     0          1          0      )    f =( -0.2500000 )
                  (    -1          1          0      )       ( -0.2500000 )
                  (     0          1         -1      )       ( -0.2500000 )

 cart.    s(48) = (  0.0000000  0.0000000  1.0000000 )    f =( -0.3535534 )
                  ( -1.0000000  0.0000000  0.0000000 )       ( -0.3535534 )
                  (  0.0000000  1.0000000  0.0000000 )       ( -0.3535534 )


   Cartesian axes

     site n.     atom                  positions (alat units)
         1           Sn  tau(   1) = (   0.0000000   0.0000000   0.0000000  )
         2           Sn  tau(   2) = (   0.3535534   0.3535534   0.3535534  )

   Crystallographic axes

     site n.     atom                  positions (cryst. coord.)
         1           Sn  tau(   1) = (  0.0000000  0.0000000  0.0000000  )
         2           Sn  tau(   2) = (  0.2500000  0.2500000  0.2500000  )

     number of k points=   120  gaussian smearing, width (Ry)=  0.0001
                       cart. coord. in units 2pi/alat
        k(    1) = (   0.0000000   0.0000000   0.0000000), wk =   0.0005926
        k(    2) = (   0.0471405   0.0471405  -0.0471405), wk =   0.0047407
        k(    3) = (   0.0942809   0.0942809  -0.0942809), wk =   0.0047407
        k(    4) = (   0.1414214   0.1414214  -0.1414214), wk =   0.0047407
        k(    5) = (   0.1885618   0.1885618  -0.1885618), wk =   0.0047407
        k(    6) = (   0.2357023   0.2357023  -0.2357023), wk =   0.0047407
        k(    7) = (   0.2828427   0.2828427  -0.2828427), wk =   0.0047407
        k(    8) = (   0.3299832   0.3299832  -0.3299832), wk =   0.0047407
        k(    9) = (   0.0942809   0.0000000   0.0000000), wk =   0.0035556
        k(   10) = (   0.1414214   0.0471405  -0.0471405), wk =   0.0142222
        k(   11) = (   0.1885618   0.0942809  -0.0942809), wk =   0.0142222
        k(   12) = (   0.2357023   0.1414214  -0.1414214), wk =   0.0142222
        k(   13) = (   0.2828427   0.1885618  -0.1885618), wk =   0.0142222
        k(   14) = (   0.3299832   0.2357023  -0.2357023), wk =   0.0142222
        k(   15) = (   0.3771236   0.2828427  -0.2828427), wk =   0.0142222
        k(   16) = (  -0.2828427  -0.3771236   0.3771236), wk =   0.0142222
        k(   17) = (  -0.2357023  -0.3299832   0.3299832), wk =   0.0142222
        k(   18) = (  -0.1885618  -0.2828427   0.2828427), wk =   0.0142222
        k(   19) = (  -0.1414214  -0.2357023   0.2357023), wk =   0.0142222
        k(   20) = (  -0.0942809  -0.1885618   0.1885618), wk =   0.0142222
        k(   21) = (  -0.0471405  -0.1414214   0.1414214), wk =   0.0142222
        k(   22) = (   0.0000000  -0.0942809   0.0942809), wk =   0.0071111
        k(   23) = (   0.1885618   0.0000000   0.0000000), wk =   0.0035556
        k(   24) = (   0.2357023   0.0471405  -0.0471405), wk =   0.0142222
        k(   25) = (   0.2828427   0.0942809  -0.0942809), wk =   0.0142222
        k(   26) = (   0.3299832   0.1414214  -0.1414214), wk =   0.0142222
        k(   27) = (   0.3771236   0.1885618  -0.1885618), wk =   0.0142222
        k(   28) = (   0.4242641   0.2357023  -0.2357023), wk =   0.0142222
        k(   29) = (  -0.2357023  -0.4242641   0.4242641), wk =   0.0142222
        k(   30) = (  -0.1885618  -0.3771236   0.3771236), wk =   0.0142222
        k(   31) = (  -0.1414214  -0.3299832   0.3299832), wk =   0.0142222
        k(   32) = (  -0.0942809  -0.2828427   0.2828427), wk =   0.0142222
        k(   33) = (  -0.0471405  -0.2357023   0.2357023), wk =   0.0142222
        k(   34) = (   0.0000000  -0.1885618   0.1885618), wk =   0.0071111
        k(   35) = (   0.2828427   0.0000000   0.0000000), wk =   0.0035556
        k(   36) = (   0.3299832   0.0471405  -0.0471405), wk =   0.0142222
        k(   37) = (   0.3771236   0.0942809  -0.0942809), wk =   0.0142222
        k(   38) = (   0.4242641   0.1414214  -0.1414214), wk =   0.0142222
        k(   39) = (   0.4714045   0.1885618  -0.1885618), wk =   0.0142222
        k(   40) = (  -0.1885618  -0.4714045   0.4714045), wk =   0.0142222
        k(   41) = (  -0.1414214  -0.4242641   0.4242641), wk =   0.0142222
        k(   42) = (  -0.0942809  -0.3771236   0.3771236), wk =   0.0142222
        k(   43) = (  -0.0471405  -0.3299832   0.3299832), wk =   0.0142222
        k(   44) = (   0.0000000  -0.2828427   0.2828427), wk =   0.0071111
        k(   45) = (   0.3771236   0.0000000   0.0000000), wk =   0.0035556
        k(   46) = (   0.4242641   0.0471405  -0.0471405), wk =   0.0142222
        k(   47) = (   0.4714045   0.0942809  -0.0942809), wk =   0.0142222
        k(   48) = (   0.5185450   0.1414214  -0.1414214), wk =   0.0142222
        k(   49) = (  -0.1414214  -0.5185450   0.5185450), wk =   0.0142222
        k(   50) = (  -0.0942809  -0.4714045   0.4714045), wk =   0.0142222
        k(   51) = (  -0.0471405  -0.4242641   0.4242641), wk =   0.0142222
        k(   52) = (  -0.0000000  -0.3771236   0.3771236), wk =   0.0071111
        k(   53) = (   0.4714045   0.0000000   0.0000000), wk =   0.0035556
        k(   54) = (   0.5185450   0.0471405  -0.0471405), wk =   0.0142222
        k(   55) = (   0.5656854   0.0942809  -0.0942809), wk =   0.0142222
        k(   56) = (  -0.0942809  -0.5656854   0.5656854), wk =   0.0142222
        k(   57) = (  -0.0471405  -0.5185450   0.5185450), wk =   0.0142222
        k(   58) = (  -0.0000000  -0.4714045   0.4714045), wk =   0.0071111
        k(   59) = (   0.5656854   0.0000000   0.0000000), wk =   0.0035556
        k(   60) = (   0.6128259   0.0471405  -0.0471405), wk =   0.0142222
        k(   61) = (  -0.0471405  -0.6128259   0.6128259), wk =   0.0142222
        k(   62) = (   0.0000000  -0.5656854   0.5656854), wk =   0.0071111
        k(   63) = (   0.6599663   0.0000000   0.0000000), wk =   0.0035556
        k(   64) = (   0.0000000  -0.6599663   0.6599663), wk =   0.0071111
        k(   65) = (   0.1885618   0.0942809  -0.0000000), wk =   0.0142222
        k(   66) = (   0.2357023   0.1414214  -0.0471405), wk =   0.0284444
        k(   67) = (   0.2828427   0.1885618  -0.0942809), wk =   0.0284444
        k(   68) = (   0.3299832   0.2357023  -0.1414214), wk =   0.0284444
        k(   69) = (   0.3771236   0.2828427  -0.1885618), wk =   0.0284444
        k(   70) = (  -0.2828427  -0.3771236   0.4714045), wk =   0.0284444
        k(   71) = (   0.2828427   0.0942809   0.0000000), wk =   0.0142222
        k(   72) = (   0.3299832   0.1414214  -0.0471405), wk =   0.0284444
        k(   73) = (   0.3771236   0.1885618  -0.0942809), wk =   0.0284444
        k(   74) = (   0.4242641   0.2357023  -0.1414214), wk =   0.0284444
        k(   75) = (  -0.2357023  -0.4242641   0.5185450), wk =   0.0284444
        k(   76) = (  -0.1885618  -0.3771236   0.4714045), wk =   0.0284444
        k(   77) = (  -0.1414214  -0.3299832   0.4242641), wk =   0.0284444
        k(   78) = (  -0.0942809  -0.2828427   0.3771236), wk =   0.0284444
        k(   79) = (  -0.0471405  -0.2357023   0.3299832), wk =   0.0284444
        k(   80) = (   0.0000000  -0.1885618   0.2828427), wk =   0.0142222
        k(   81) = (   0.3771236   0.0942809   0.0000000), wk =   0.0142222
        k(   82) = (   0.4242641   0.1414214  -0.0471405), wk =   0.0284444
        k(   83) = (   0.4714045   0.1885618  -0.0942809), wk =   0.0284444
        k(   84) = (  -0.1885618  -0.4714045   0.5656854), wk =   0.0284444
        k(   85) = (  -0.1414214  -0.4242641   0.5185450), wk =   0.0284444
        k(   86) = (  -0.0942809  -0.3771236   0.4714045), wk =   0.0284444
        k(   87) = (  -0.0471405  -0.3299832   0.4242641), wk =   0.0284444
        k(   88) = (   0.0000000  -0.2828427   0.3771236), wk =   0.0142222
        k(   89) = (   0.4714045   0.0942809  -0.0000000), wk =   0.0142222
        k(   90) = (   0.5185450   0.1414214  -0.0471405), wk =   0.0284444
        k(   91) = (  -0.1414214  -0.5185450   0.6128259), wk =   0.0284444
        k(   92) = (  -0.0942809  -0.4714045   0.5656854), wk =   0.0284444
        k(   93) = (  -0.0471405  -0.4242641   0.5185450), wk =   0.0284444
        k(   94) = (  -0.0000000  -0.3771236   0.4714045), wk =   0.0142222
        k(   95) = (   0.5656854   0.0942809   0.0000000), wk =   0.0142222
        k(   96) = (  -0.0942809  -0.5656854   0.6599663), wk =   0.0284444
        k(   97) = (  -0.0471405  -0.5185450   0.6128259), wk =   0.0284444
        k(   98) = (   0.0000000  -0.4714045   0.5656854), wk =   0.0142222
        k(   99) = (  -0.0471405  -0.6128259   0.7071068), wk =   0.0142222
        k(  100) = (   0.0000000  -0.5656854   0.6599663), wk =   0.0142222
        k(  101) = (   0.3771236   0.1885618  -0.0000000), wk =   0.0142222
        k(  102) = (   0.4242641   0.2357023  -0.0471405), wk =   0.0284444
        k(  103) = (  -0.2357023  -0.4242641   0.6128259), wk =   0.0284444
        k(  104) = (  -0.1885618  -0.3771236   0.5656854), wk =   0.0284444
        k(  105) = (   0.4714045   0.1885618  -0.0000000), wk =   0.0142222
        k(  106) = (  -0.1885618  -0.4714045   0.6599663), wk =   0.0284444
        k(  107) = (  -0.1414214  -0.4242641   0.6128259), wk =   0.0284444
        k(  108) = (  -0.0942809  -0.3771236   0.5656854), wk =   0.0284444
        k(  109) = (  -0.0471405  -0.3299832   0.5185450), wk =   0.0284444
        k(  110) = (   0.0000000  -0.2828427   0.4714045), wk =   0.0142222
        k(  111) = (  -0.1414214  -0.5185450   0.7071068), wk =   0.0142222
        k(  112) = (  -0.0942809  -0.4714045   0.6599663), wk =   0.0284444
        k(  113) = (  -0.0471405  -0.4242641   0.6128259), wk =   0.0284444
        k(  114) = (   0.0000000  -0.3771236   0.5656854), wk =   0.0142222
        k(  115) = (  -0.0471405  -0.5185450   0.7071068), wk =   0.0142222
        k(  116) = (   0.0000000  -0.4714045   0.6599663), wk =   0.0142222
        k(  117) = (  -0.1414214  -0.4242641   0.7071068), wk =   0.0142222
        k(  118) = (  -0.0942809  -0.3771236   0.6599663), wk =   0.0284444
        k(  119) = (  -0.0471405  -0.4242641   0.7071068), wk =   0.0142222
        k(  120) = (  -0.0000000  -0.3771236   0.6599663), wk =   0.0142222

                       cryst. coord.
        k(    1) = (   0.0000000   0.0000000   0.0000000), wk =   0.0005926
        k(    2) = (   0.0000000   0.0000000   0.0666667), wk =   0.0047407
        k(    3) = (   0.0000000   0.0000000   0.1333333), wk =   0.0047407
        k(    4) = (   0.0000000   0.0000000   0.2000000), wk =   0.0047407
        k(    5) = (   0.0000000   0.0000000   0.2666667), wk =   0.0047407
        k(    6) = (   0.0000000   0.0000000   0.3333333), wk =   0.0047407
        k(    7) = (   0.0000000   0.0000000   0.4000000), wk =   0.0047407
        k(    8) = (   0.0000000   0.0000000   0.4666667), wk =   0.0047407
        k(    9) = (   0.0000000   0.0666667   0.0666667), wk =   0.0035556
        k(   10) = (   0.0000000   0.0666667   0.1333333), wk =   0.0142222
        k(   11) = (   0.0000000   0.0666667   0.2000000), wk =   0.0142222
        k(   12) = (   0.0000000   0.0666667   0.2666667), wk =   0.0142222
        k(   13) = (   0.0000000   0.0666667   0.3333333), wk =   0.0142222
        k(   14) = (   0.0000000   0.0666667   0.4000000), wk =   0.0142222
        k(   15) = (   0.0000000   0.0666667   0.4666667), wk =   0.0142222
        k(   16) = (   0.0000000   0.0666667  -0.4666667), wk =   0.0142222
        k(   17) = (   0.0000000   0.0666667  -0.4000000), wk =   0.0142222
        k(   18) = (   0.0000000   0.0666667  -0.3333333), wk =   0.0142222
        k(   19) = (   0.0000000   0.0666667  -0.2666667), wk =   0.0142222
        k(   20) = (   0.0000000   0.0666667  -0.2000000), wk =   0.0142222
        k(   21) = (   0.0000000   0.0666667  -0.1333333), wk =   0.0142222
        k(   22) = (   0.0000000   0.0666667  -0.0666667), wk =   0.0071111
        k(   23) = (   0.0000000   0.1333333   0.1333333), wk =   0.0035556
        k(   24) = (   0.0000000   0.1333333   0.2000000), wk =   0.0142222
        k(   25) = (   0.0000000   0.1333333   0.2666667), wk =   0.0142222
        k(   26) = (   0.0000000   0.1333333   0.3333333), wk =   0.0142222
        k(   27) = (   0.0000000   0.1333333   0.4000000), wk =   0.0142222
        k(   28) = (   0.0000000   0.1333333   0.4666667), wk =   0.0142222
        k(   29) = (   0.0000000   0.1333333  -0.4666667), wk =   0.0142222
        k(   30) = (   0.0000000   0.1333333  -0.4000000), wk =   0.0142222
        k(   31) = (   0.0000000   0.1333333  -0.3333333), wk =   0.0142222
        k(   32) = (   0.0000000   0.1333333  -0.2666667), wk =   0.0142222
        k(   33) = (   0.0000000   0.1333333  -0.2000000), wk =   0.0142222
        k(   34) = (   0.0000000   0.1333333  -0.1333333), wk =   0.0071111
        k(   35) = (   0.0000000   0.2000000   0.2000000), wk =   0.0035556
        k(   36) = (   0.0000000   0.2000000   0.2666667), wk =   0.0142222
        k(   37) = (   0.0000000   0.2000000   0.3333333), wk =   0.0142222
        k(   38) = (   0.0000000   0.2000000   0.4000000), wk =   0.0142222
        k(   39) = (   0.0000000   0.2000000   0.4666667), wk =   0.0142222
        k(   40) = (   0.0000000   0.2000000  -0.4666667), wk =   0.0142222
        k(   41) = (   0.0000000   0.2000000  -0.4000000), wk =   0.0142222
        k(   42) = (   0.0000000   0.2000000  -0.3333333), wk =   0.0142222
        k(   43) = (   0.0000000   0.2000000  -0.2666667), wk =   0.0142222
        k(   44) = (   0.0000000   0.2000000  -0.2000000), wk =   0.0071111
        k(   45) = (   0.0000000   0.2666667   0.2666667), wk =   0.0035556
        k(   46) = (   0.0000000   0.2666667   0.3333333), wk =   0.0142222
        k(   47) = (   0.0000000   0.2666667   0.4000000), wk =   0.0142222
        k(   48) = (   0.0000000   0.2666667   0.4666667), wk =   0.0142222
        k(   49) = (   0.0000000   0.2666667  -0.4666667), wk =   0.0142222
        k(   50) = (   0.0000000   0.2666667  -0.4000000), wk =   0.0142222
        k(   51) = (   0.0000000   0.2666667  -0.3333333), wk =   0.0142222
        k(   52) = (   0.0000000   0.2666667  -0.2666667), wk =   0.0071111
        k(   53) = (   0.0000000   0.3333333   0.3333333), wk =   0.0035556
        k(   54) = (   0.0000000   0.3333333   0.4000000), wk =   0.0142222
        k(   55) = (   0.0000000   0.3333333   0.4666667), wk =   0.0142222
        k(   56) = (   0.0000000   0.3333333  -0.4666667), wk =   0.0142222
        k(   57) = (   0.0000000   0.3333333  -0.4000000), wk =   0.0142222
        k(   58) = (   0.0000000   0.3333333  -0.3333333), wk =   0.0071111
        k(   59) = (   0.0000000   0.4000000   0.4000000), wk =   0.0035556
        k(   60) = (   0.0000000   0.4000000   0.4666667), wk =   0.0142222
        k(   61) = (   0.0000000   0.4000000  -0.4666667), wk =   0.0142222
        k(   62) = (   0.0000000   0.4000000  -0.4000000), wk =   0.0071111
        k(   63) = (   0.0000000   0.4666667   0.4666667), wk =   0.0035556
        k(   64) = (   0.0000000   0.4666667  -0.4666667), wk =   0.0071111
        k(   65) = (   0.0666667   0.1333333   0.2000000), wk =   0.0142222
        k(   66) = (   0.0666667   0.1333333   0.2666667), wk =   0.0284444
        k(   67) = (   0.0666667   0.1333333   0.3333333), wk =   0.0284444
        k(   68) = (   0.0666667   0.1333333   0.4000000), wk =   0.0284444
        k(   69) = (   0.0666667   0.1333333   0.4666667), wk =   0.0284444
        k(   70) = (   0.0666667   0.1333333  -0.4666667), wk =   0.0284444
        k(   71) = (   0.0666667   0.2000000   0.2666667), wk =   0.0142222
        k(   72) = (   0.0666667   0.2000000   0.3333333), wk =   0.0284444
        k(   73) = (   0.0666667   0.2000000   0.4000000), wk =   0.0284444
        k(   74) = (   0.0666667   0.2000000   0.4666667), wk =   0.0284444
        k(   75) = (   0.0666667   0.2000000  -0.4666667), wk =   0.0284444
        k(   76) = (   0.0666667   0.2000000  -0.4000000), wk =   0.0284444
        k(   77) = (   0.0666667   0.2000000  -0.3333333), wk =   0.0284444
        k(   78) = (   0.0666667   0.2000000  -0.2666667), wk =   0.0284444
        k(   79) = (   0.0666667   0.2000000  -0.2000000), wk =   0.0284444
        k(   80) = (   0.0666667   0.2000000  -0.1333333), wk =   0.0142222
        k(   81) = (   0.0666667   0.2666667   0.3333333), wk =   0.0142222
        k(   82) = (   0.0666667   0.2666667   0.4000000), wk =   0.0284444
        k(   83) = (   0.0666667   0.2666667   0.4666667), wk =   0.0284444
        k(   84) = (   0.0666667   0.2666667  -0.4666667), wk =   0.0284444
        k(   85) = (   0.0666667   0.2666667  -0.4000000), wk =   0.0284444
        k(   86) = (   0.0666667   0.2666667  -0.3333333), wk =   0.0284444
        k(   87) = (   0.0666667   0.2666667  -0.2666667), wk =   0.0284444
        k(   88) = (   0.0666667   0.2666667  -0.2000000), wk =   0.0142222
        k(   89) = (   0.0666667   0.3333333   0.4000000), wk =   0.0142222
        k(   90) = (   0.0666667   0.3333333   0.4666667), wk =   0.0284444
        k(   91) = (   0.0666667   0.3333333  -0.4666667), wk =   0.0284444
        k(   92) = (   0.0666667   0.3333333  -0.4000000), wk =   0.0284444
        k(   93) = (   0.0666667   0.3333333  -0.3333333), wk =   0.0284444
        k(   94) = (   0.0666667   0.3333333  -0.2666667), wk =   0.0142222
        k(   95) = (   0.0666667   0.4000000   0.4666667), wk =   0.0142222
        k(   96) = (   0.0666667   0.4000000  -0.4666667), wk =   0.0284444
        k(   97) = (   0.0666667   0.4000000  -0.4000000), wk =   0.0284444
        k(   98) = (   0.0666667   0.4000000  -0.3333333), wk =   0.0142222
        k(   99) = (   0.0666667   0.4666667  -0.4666667), wk =   0.0142222
        k(  100) = (   0.0666667   0.4666667  -0.4000000), wk =   0.0142222
        k(  101) = (   0.1333333   0.2666667   0.4000000), wk =   0.0142222
        k(  102) = (   0.1333333   0.2666667   0.4666667), wk =   0.0284444
        k(  103) = (   0.1333333   0.2666667  -0.4666667), wk =   0.0284444
        k(  104) = (   0.1333333   0.2666667  -0.4000000), wk =   0.0284444
        k(  105) = (   0.1333333   0.3333333   0.4666667), wk =   0.0142222
        k(  106) = (   0.1333333   0.3333333  -0.4666667), wk =   0.0284444
        k(  107) = (   0.1333333   0.3333333  -0.4000000), wk =   0.0284444
        k(  108) = (   0.1333333   0.3333333  -0.3333333), wk =   0.0284444
        k(  109) = (   0.1333333   0.3333333  -0.2666667), wk =   0.0284444
        k(  110) = (   0.1333333   0.3333333  -0.2000000), wk =   0.0142222
        k(  111) = (   0.1333333   0.4000000  -0.4666667), wk =   0.0142222
        k(  112) = (   0.1333333   0.4000000  -0.4000000), wk =   0.0284444
        k(  113) = (   0.1333333   0.4000000  -0.3333333), wk =   0.0284444
        k(  114) = (   0.1333333   0.4000000  -0.2666667), wk =   0.0142222
        k(  115) = (   0.1333333   0.4666667  -0.4000000), wk =   0.0142222
        k(  116) = (   0.1333333   0.4666667  -0.3333333), wk =   0.0142222
        k(  117) = (   0.2000000   0.4000000  -0.4000000), wk =   0.0142222
        k(  118) = (   0.2000000   0.4000000  -0.3333333), wk =   0.0284444
        k(  119) = (   0.2000000   0.4666667  -0.3333333), wk =   0.0142222
        k(  120) = (   0.2000000   0.4666667  -0.2666667), wk =   0.0142222

     Dense  grid:   111547 G-vectors     FFT dimensions: (  72,  72,  72)

     Largest allocated arrays     est. size (Mb)     dimensions
        Kohn-Sham Wavefunctions         0.24 Mb     (     883,   18)
        NL pseudopotentials             0.49 Mb     (     883,   36)
        Each V/rho on FFT grid          0.40 Mb     (   25920)
        Each G-vector array             0.05 Mb     (    6971)
        G-vector shells                 0.01 Mb     (     728)
     Largest temporary arrays     est. size (Mb)     dimensions
        Auxiliary wavefunctions         0.97 Mb     (     883,   72)
        Each subspace H/S matrix        0.08 Mb     (      72,   72)
        Each <psi_i|beta_j> matrix      0.01 Mb     (      36,   18)
        Arrays for rho mixing           3.16 Mb     (   25920,    8)

     Initial potential from superposition of free atoms

     starting charge   27.82601, renormalised to   28.00000
     Starting wfc are random

     total cpu time spent up to now is        5.8 secs

     Self-consistent Calculation

     iteration #  1     ecut=   140.00 Ry     beta=0.70
     Davidson diagonalization with overlap
     ethr =  1.00E-02,  avg # of iterations =  7.0

     total cpu time spent up to now is       49.6 secs

     total energy              =    -233.14078046 Ry
     Harris-Foulkes estimate   =    -234.57568866 Ry
     estimated scf accuracy    <       2.29067949 Ry

     iteration #  2     ecut=   140.00 Ry     beta=0.70
     Davidson diagonalization with overlap
     ethr =  8.18E-03,  avg # of iterations =  2.0

     total cpu time spent up to now is       66.8 secs

     total energy              =    -233.44518086 Ry
     Harris-Foulkes estimate   =    -233.46932891 Ry
     estimated scf accuracy    <       0.06227094 Ry

     iteration #  3     ecut=   140.00 Ry     beta=0.70
     Davidson diagonalization with overlap
     ethr =  2.22E-04,  avg # of iterations =  2.2

     total cpu time spent up to now is       82.2 secs

     total energy              =    -233.44812418 Ry
     Harris-Foulkes estimate   =    -233.44894414 Ry
     estimated scf accuracy    <       0.00282122 Ry

     iteration #  4     ecut=   140.00 Ry     beta=0.70
     Davidson diagonalization with overlap
     ethr =  1.01E-05,  avg # of iterations =  2.1

     total cpu time spent up to now is       97.0 secs

     total energy              =    -233.44827562 Ry
     Harris-Foulkes estimate   =    -233.44827280 Ry
     estimated scf accuracy    <       0.00003084 Ry

     iteration #  5     ecut=   140.00 Ry     beta=0.70
     Davidson diagonalization with overlap
     ethr =  1.10E-07,  avg # of iterations =  2.3

     total cpu time spent up to now is      112.7 secs

     End of self-consistent calculation

          k = 0.0000 0.0000 0.0000 ( 13851 PWs)   bands (ev):

   -12.3738 -12.3738 -12.3738 -12.3220 -12.3220 -12.1098 -12.1098 -12.1098
   -12.0999 -12.0999  -2.3999   5.2265   8.6184   8.6184   8.6184  10.8764
    10.8764  10.8764

     occupation numbers 
     1.0000   1.0000   1.0000   1.0000   1.0000   1.0000   1.0000   1.0000
     1.0000   1.0000   1.0000   1.0000   0.0000   0.0000   0.0000   0.0000
     0.0000   0.0000

          k = 0.0471 0.0471-0.0471 ( 13959 PWs)   bands (ev):

   -12.3761 -12.3761 -12.3730 -12.3188 -12.3188 -12.1155 -12.1155 -12.1108
   -12.0948 -12.0948  -2.3621   5.0391   8.5383   8.5383   8.5882  10.9702
    10.9794  10.9794

     occupation numbers 
     1.0000   1.0000   1.0000   1.0000   1.0000   1.0000   1.0000   1.0000
     1.0000   1.0000   1.0000   1.0000   0.0000   0.0000   0.0000   0.0000
     0.0000   0.0000

          k = 0.0943 0.0943-0.0943 ( 13935 PWs)   bands (ev):

   -12.3814 -12.3814 -12.3708 -12.3110 -12.3110 -12.1243 -12.1243 -12.1138
   -12.0876 -12.0876  -2.2501   4.5531   8.3433   8.3433   8.4683  11.2331
    11.2331  11.3046

     occupation numbers 
     1.0000   1.0000   1.0000   1.0000   1.0000   1.0000   1.0000   1.0000
     1.0000   1.0000   1.0000   1.0000   0.0000   0.0000   0.0000   0.0000
     0.0000   0.0000

          k = 0.1414 0.1414-0.1414 ( 13923 PWs)   bands (ev):

   -12.3872 -12.3872 -12.3674 -12.3016 -12.3016 -12.1325 -12.1325 -12.1184
   -12.0815 -12.0815  -2.0684   3.9087   8.1099   8.1099   8.2721  11.5334
    11.5334  11.8870

     occupation numbers 
     1.0000   1.0000   1.0000   1.0000   1.0000   1.0000   1.0000   1.0000
     1.0000   1.0000   1.0000   1.0000   1.0000   1.0000   1.0000   0.0000
     0.0000   0.0000

          k = 0.1886 0.1886-0.1886 ( 13938 PWs)   bands (ev):

   -12.3921 -12.3921 -12.3635 -12.2930 -12.2930 -12.1393 -12.1393 -12.1237
   -12.0769 -12.0769  -1.8266   3.2185   7.8895   7.8895   8.0633  11.7947
    11.7947  12.6480

     occupation numbers 
     1.0000   1.0000   1.0000   1.0000   1.0000   1.0000   1.0000   1.0000
     1.0000   1.0000   1.0000   1.0000   1.0000   1.0000   1.0000   0.0000
     0.0000   0.0000

          k = 0.2357 0.2357-0.2357 ( 13918 PWs)   bands (ev):

   -12.3957 -12.3957 -12.3596 -12.2863 -12.2863 -12.1441 -12.1441 -12.1288
   -12.0737 -12.0737  -1.5453   2.5638   7.7095   7.7095   7.8865  11.9726
    11.9726  13.5158

     occupation numbers 
     1.0000   1.0000   1.0000   1.0000   1.0000   1.0000   1.0000   1.0000
     1.0000   1.0000   1.0000   1.0000   1.0000   1.0000   1.0000   0.0000
     0.0000   0.0000

          k = 0.2828 0.2828-0.2828 ( 13945 PWs)   bands (ev):

   -12.3980 -12.3980 -12.3564 -12.2819 -12.2819 -12.1469 -12.1469 -12.1330
   -12.0718 -12.0718  -1.2677   2.0221   7.5838   7.5838   7.7622  12.0677
    12.0677  14.3205

     occupation numbers 
     1.0000   1.0000   1.0000   1.0000   1.0000   1.0000   1.0000   1.0000
     1.0000   1.0000   1.0000   1.0000   1.0000   1.0000   1.0000   0.0000
     0.0000   0.0000

          k = 0.3300 0.3300-0.3300 ( 13930 PWs)   bands (ev):

   -12.3991 -12.3991 -12.3547 -12.2798 -12.2798 -12.1481 -12.1481 -12.1353
   -12.0709 -12.0709  -1.0781   1.6965   7.5194   7.5194   7.6987  12.1052
    12.1052  14.5145

     occupation numbers 
     1.0000   1.0000   1.0000   1.0000   1.0000   1.0000   1.0000   1.0000
     1.0000   1.0000   1.0000   1.0000   1.0000   1.0000   1.0000   0.0000
     0.0000   0.0000

          k = 0.0943 0.0000 0.0000 ( 13947 PWs)   bands (ev):

   -12.3756 -12.3756 -12.3753 -12.3195 -12.3157 -12.1248 -12.1072 -12.1072
   -12.1023 -12.0907  -2.3495   4.9839   8.3996   8.3996   8.8355  10.6842
    11.1581  11.1581

     occupation numbers 
     1.0000   1.0000   1.0000   1.0000   1.0000   1.0000   1.0000   1.0000
     1.0000   1.0000   1.0000   1.0000   0.0000   0.0000   0.0000   0.0000
     0.0000   0.0000

          k = 0.1414 0.0471-0.0471 ( 13947 PWs)   bands (ev):

   -12.3812 -12.3792 -12.3732 -12.3145 -12.3077 -12.1353 -12.1138 -12.1071
   -12.0962 -12.0851  -2.2619   4.6141   8.1650   8.1764   8.9451  10.6613
    11.4601  11.4901

     occupation numbers 
     1.0000   1.0000   1.0000   1.0000   1.0000   1.0000   1.0000   1.0000
     1.0000   1.0000   1.0000   1.0000   1.0000   1.0000   0.0000   0.0000
     0.0000   0.0000

          k = 0.1886 0.0943-0.0943 ( 13939 PWs)   bands (ev):

   -12.3879 -12.3845 -12.3692 -12.3063 -12.2978 -12.1449 -12.1226 -12.1110
   -12.0887 -12.0789  -2.1027   4.0424   7.8671   7.9383   8.8921  10.9001
    11.7874  11.9582

     occupation numbers 
     1.0000   1.0000   1.0000   1.0000   1.0000   1.0000   1.0000   1.0000
     1.0000   1.0000   1.0000   1.0000   1.0000   1.0000   0.0000   0.0000
     0.0000   0.0000

          k = 0.2357 0.1414-0.1414 ( 13921 PWs)   bands (ev):

   -12.3940 -12.3897 -12.3641 -12.2976 -12.2885 -12.1524 -12.1307 -12.1172
   -12.0825 -12.0734  -1.8794   3.3847   7.5653   7.7274   8.7482  11.2624
    12.0591  12.5332

     occupation numbers 
     1.0000   1.0000   1.0000   1.0000   1.0000   1.0000   1.0000   1.0000
     1.0000   1.0000   1.0000   1.0000   1.0000   1.0000   0.0000   0.0000
     0.0000   0.0000

          k = 0.2828 0.1886-0.1886 ( 13943 PWs)   bands (ev):

   -12.3987 -12.3939 -12.3586 -12.2898 -12.2813 -12.1570 -12.1376 -12.1244
   -12.0776 -12.0693  -1.6079   2.7287   7.3042   7.5660   8.5862  11.5915
    12.2276  13.2081

     occupation numbers 
     1.0000   1.0000   1.0000   1.0000   1.0000   1.0000   1.0000   1.0000
     1.0000   1.0000   1.0000   1.0000   1.0000   1.0000   0.0000   0.0000
     0.0000   0.0000

          k = 0.3300 0.2357-0.2357 ( 13948 PWs)   bands (ev):

   -12.4019 -12.3971 -12.3535 -12.2836 -12.2772 -12.1580 -12.1433 -12.1315
   -12.0739 -12.0668  -1.3214   2.1512   7.1040   7.4655   8.4478  11.8152
    12.2907  13.9344

     occupation numbers 
     1.0000   1.0000   1.0000   1.0000   1.0000   1.0000   1.0000   1.0000
     1.0000   1.0000   1.0000   1.0000   1.0000   1.0000   0.0000   0.0000
     0.0000   0.0000

          k = 0.3771 0.2828-0.2828 ( 13968 PWs)   bands (ev):

   -12.4034 -12.3992 -12.3500 -12.2790 -12.2763 -12.1556 -12.1480 -12.1372
   -12.0711 -12.0659  -1.0894   1.7457   6.9733   7.4308   8.3531  11.9506
    12.2773  14.4395

     occupation numbers 
     1.0000   1.0000   1.0000   1.0000   1.0000   1.0000   1.0000   1.0000
     1.0000   1.0000   1.0000   1.0000   1.0000   1.0000   0.0000   0.0000
     0.0000   0.0000

          k =-0.2828-0.3771 0.3771 ( 13948 PWs)   bands (ev):

   -12.4034 -12.4003 -12.3488 -12.2779 -12.2763 -12.1517 -12.1508 -12.1406
   -12.0692 -12.0666  -1.0184   1.6307   6.9161   7.4630   8.3113  12.0354
    12.2163  14.5466

     occupation numbers 
     1.0000   1.0000   1.0000   1.0000   1.0000   1.0000   1.0000   1.0000
     1.0000   1.0000   1.0000   1.0000   1.0000   1.0000   1.0000   0.0000
     0.0000   0.0000

          k =-0.2357-0.3300 0.3300 ( 13961 PWs)   bands (ev):

   -12.4019 -12.4003 -12.3502 -12.2813 -12.2759 -12.1538 -12.1465 -12.1390
   -12.0689 -12.0683  -1.1550   1.8556   6.9351   7.5597   8.3247  12.0826
    12.1172  14.3612

     occupation numbers 
     1.0000   1.0000   1.0000   1.0000   1.0000   1.0000   1.0000   1.0000
     1.0000   1.0000   1.0000   1.0000   1.0000   1.0000   0.7500   0.0000
     0.0000   0.0000

          k =-0.1886-0.2828 0.2828 ( 13933 PWs)   bands (ev):

   -12.3990 -12.3989 -12.3539 -12.2862 -12.2783 -12.1535 -12.1443 -12.1317
   -12.0726 -12.0687  -1.4161   2.3313   7.0327   7.7150   8.3902  11.9695
    12.0667  13.7086

     occupation numbers 
     1.0000   1.0000   1.0000   1.0000   1.0000   1.0000   1.0000   1.0000
     1.0000   1.0000   1.0000   1.0000   1.0000   1.0000   0.0000   0.0000
     0.0000   0.0000

          k =-0.1414-0.2357 0.2357 ( 13929 PWs)   bands (ev):

   -12.3962 -12.3946 -12.3590 -12.2926 -12.2840 -12.1502 -12.1408 -12.1228
   -12.0779 -12.0707  -1.7029   2.9433   7.2102   7.9183   8.4970  11.7564
    11.9191  12.9723

     occupation numbers 
     1.0000   1.0000   1.0000   1.0000   1.0000   1.0000   1.0000   1.0000
     1.0000   1.0000   1.0000   1.0000   1.0000   1.0000   0.0000   0.0000
     0.0000   0.0000

          k =-0.0943-0.1886 0.1886 ( 13926 PWs)   bands (ev):

   -12.3919 -12.3890 -12.3645 -12.3003 -12.2926 -12.1440 -12.1354 -12.1141
   -12.0846 -12.0743  -1.9608   3.6068   7.4674   8.1498   8.6195  11.4831
    11.5816  12.3864

     occupation numbers 
     1.0000   1.0000   1.0000   1.0000   1.0000   1.0000   1.0000   1.0000
     1.0000   1.0000   1.0000   1.0000   1.0000   1.0000   0.0000   0.0000
     0.0000   0.0000

          k =-0.0471-0.1414 0.1414 ( 13938 PWs)   bands (ev):

   -12.3864 -12.3828 -12.3693 -12.3086 -12.3026 -12.1354 -12.1283 -12.1067
   -12.0924 -12.0797  -2.1638   4.2444   7.7978   8.3733   8.7064  11.1874
    11.1999  11.9023

     occupation numbers 
     1.0000   1.0000   1.0000   1.0000   1.0000   1.0000   1.0000   1.0000
     1.0000   1.0000   1.0000   1.0000   1.0000   0.0000   0.0000   0.0000
     0.0000   0.0000

          k = 0.0000-0.0943 0.0943 ( 13945 PWs)   bands (ev):

   -12.3805 -12.3775 -12.3725 -12.3157 -12.3123 -12.1256 -12.1204 -12.1046
   -12.0978 -12.0867  -2.2995   4.7613   8.1788   8.5265   8.6915  10.9619
    10.9996  11.4222

     occupation numbers 
     1.0000   1.0000   1.0000   1.0000   1.0000   1.0000   1.0000   1.0000
     1.0000   1.0000   1.0000   1.0000   1.0000   0.0000   0.0000   0.0000
     0.0000   0.0000

          k = 0.1886 0.0000 0.0000 ( 13947 PWs)   bands (ev):

   -12.3807 -12.3807 -12.3773 -12.3122 -12.2994 -12.1486 -12.1093 -12.1002
   -12.1002 -12.0840  -2.1987   4.3982   7.9411   7.9411   9.3187  10.2955
    11.8026  11.8026

     occupation numbers 
     1.0000   1.0000   1.0000   1.0000   1.0000   1.0000   1.0000   1.0000
     1.0000   1.0000   1.0000   1.0000   1.0000   1.0000   0.0000   0.0000
     0.0000   0.0000

          k = 0.2357 0.0471-0.0471 ( 13928 PWs)   bands (ev):

   -12.3874 -12.3848 -12.3735 -12.3056 -12.2889 -12.1609 -12.1174 -12.1001
   -12.0929 -12.0799  -2.0626   3.9597   7.6503   7.7002   9.4683  10.2693
    12.1687  12.2130

     occupation numbers 
     1.0000   1.0000   1.0000   1.0000   1.0000   1.0000   1.0000   1.0000
     1.0000   1.0000   1.0000   1.0000   1.0000   1.0000   0.0000   0.0000
     0.0000   0.0000

          k = 0.2828 0.0943-0.0943 ( 13938 PWs)   bands (ev):

   -12.3951 -12.3897 -12.3665 -12.2972 -12.2786 -12.1709 -12.1266 -12.1069
   -12.0855 -12.0728  -1.8594   3.3930   7.2999   7.4925   9.4299  10.5539
    12.4770  12.6329

     occupation numbers 
     1.0000   1.0000   1.0000   1.0000   1.0000   1.0000   1.0000   1.0000
     1.0000   1.0000   1.0000   1.0000   1.0000   1.0000   0.0000   0.0000
     0.0000   0.0000

          k = 0.3300 0.1414-0.1414 ( 13939 PWs)   bands (ev):

   -12.4020 -12.3942 -12.3580 -12.2887 -12.2705 -12.1774 -12.1355 -12.1166
   -12.0791 -12.0661  -1.6011   2.7850   6.9613   7.3391   9.3003  10.9900
    12.6695  13.0017

     occupation numbers 
     1.0000   1.0000   1.0000   1.0000   1.0000   1.0000   1.0000   1.0000
     1.0000   1.0000   1.0000   1.0000   1.0000   1.0000   0.0000   0.0000
     0.0000   0.0000

          k = 0.3771 0.1886-0.1886 ( 13934 PWs)   bands (ev):

   -12.4072 -12.3979 -12.3493 -12.2808 -12.2662 -12.1793 -12.1439 -12.1272
   -12.0738 -12.0609  -1.3129   2.2117   6.6799   7.2510   9.1587  11.4029
    12.7322  13.3988

     occupation numbers 
     1.0000   1.0000   1.0000   1.0000   1.0000   1.0000   1.0000   1.0000
     1.0000   1.0000   1.0000   1.0000   1.0000   1.0000   0.0000   0.0000
     0.0000   0.0000

          k = 0.4243 0.2357-0.2357 ( 13951 PWs)   bands (ev):

   -12.4106 -12.4007 -12.3420 -12.2741 -12.2662 -12.1761 -12.1515 -12.1367
   -12.0695 -12.0579  -1.0496   1.7587   6.4748   7.2328   9.0429  11.6927
    12.6919  13.8895

     occupation numbers 
     1.0000   1.0000   1.0000   1.0000   1.0000   1.0000   1.0000   1.0000
     1.0000   1.0000   1.0000   1.0000   1.0000   1.0000   0.0000   0.0000
     0.0000   0.0000

          k =-0.2357-0.4243 0.4243 ( 13951 PWs)   bands (ev):

   -12.4117 -12.4025 -12.3376 -12.2698 -12.2691 -12.1685 -12.1582 -12.1439
   -12.0664 -12.0573  -0.9124   1.5443   6.3545   7.2849   8.9688  11.8754
    12.5837  14.2945

     occupation numbers 
     1.0000   1.0000   1.0000   1.0000   1.0000   1.0000   1.0000   1.0000
     1.0000   1.0000   1.0000   1.0000   1.0000   1.0000   0.0000   0.0000
     0.0000   0.0000

          k =-0.1886-0.3771 0.3771 ( 13947 PWs)   bands (ev):

   -12.4107 -12.4032 -12.3372 -12.2755 -12.2664 -12.1630 -12.1577 -12.1478
   -12.0645 -12.0592  -0.9881   1.6610   6.3253   7.4035   8.9405  11.9993
    12.4263  14.2235

     occupation numbers 
     1.0000   1.0000   1.0000   1.0000   1.0000   1.0000   1.0000   1.0000
     1.0000   1.0000   1.0000   1.0000   1.0000   1.0000   0.0000   0.0000
     0.0000   0.0000

          k =-0.1414-0.3300 0.3300 ( 13932 PWs)   bands (ev):

   -12.4074 -12.4027 -12.3410 -12.2821 -12.2672 -12.1647 -12.1496 -12.1437
   -12.0640 -12.0638  -1.2249   2.0529   6.3939   7.5807   8.9523  12.0615
    12.2181  13.6583

     occupation numbers 
     1.0000   1.0000   1.0000   1.0000   1.0000   1.0000   1.0000   1.0000
     1.0000   1.0000   1.0000   1.0000   1.0000   1.0000   0.0000   0.0000
     0.0000   0.0000

          k =-0.0943-0.2828 0.2828 ( 13948 PWs)   bands (ev):

   -12.4022 -12.4006 -12.3480 -12.2888 -12.2723 -12.1621 -12.1473 -12.1301
   -12.0708 -12.0653  -1.5130   2.5947   6.5690   7.8017   8.9850  11.9530
    11.9673  13.0835

     occupation numbers 
     1.0000   1.0000   1.0000   1.0000   1.0000   1.0000   1.0000   1.0000
     1.0000   1.0000   1.0000   1.0000   1.0000   1.0000   0.0000   0.0000
     0.0000   0.0000

          k =-0.0471-0.2357 0.2357 ( 13933 PWs)   bands (ev):

   -12.3970 -12.3955 -12.3564 -12.2958 -12.2811 -12.1556 -12.1427 -12.1168
   -12.0800 -12.0683  -1.7841   3.1901   6.8603   8.0408   8.9965  11.6383
    11.6482  12.7367

     occupation numbers 
     1.0000   1.0000   1.0000   1.0000   1.0000   1.0000   1.0000   1.0000
     1.0000   1.0000   1.0000   1.0000   1.0000   1.0000   0.0000   0.0000
     0.0000   0.0000

          k = 0.0000-0.1886 0.1886 ( 13905 PWs)   bands (ev):

   -12.3920 -12.3883 -12.3643 -12.3028 -12.2919 -12.1462 -12.1362 -12.1060
   -12.0900 -12.0732  -2.0060   3.7641   7.2738   8.2535   8.9177  11.3077
    11.3650  12.4080

     occupation numbers 
     1.0000   1.0000   1.0000   1.0000   1.0000   1.0000   1.0000   1.0000
     1.0000   1.0000   1.0000   1.0000   1.0000   1.0000   0.0000   0.0000
     0.0000   0.0000

          k = 0.2828 0.0000 0.0000 ( 13948 PWs)   bands (ev):

   -12.3877 -12.3877 -12.3762 -12.3003 -12.2773 -12.1763 -12.1207 -12.0902
   -12.0902 -12.0838  -1.9494   3.6638   7.4565   7.4565   9.7904   9.9151
    12.5875  12.5875

     occupation numbers 
     1.0000   1.0000   1.0000   1.0000   1.0000   1.0000   1.0000   1.0000
     1.0000   1.0000   1.0000   1.0000   1.0000   1.0000   0.0000   0.0000
     0.0000   0.0000

          k = 0.3300 0.0471-0.0471 ( 13943 PWs)   bands (ev):

   -12.3943 -12.3919 -12.3703 -12.2924 -12.2654 -12.1896 -12.1289 -12.0958
   -12.0839 -12.0765  -1.7669   3.2161   7.1651   7.2460   9.8321   9.9866
    12.9459  12.9587

     occupation numbers 
     1.0000   1.0000   1.0000   1.0000   1.0000   1.0000   1.0000   1.0000
     1.0000   1.0000   1.0000   1.0000   1.0000   1.0000   0.0000   0.0000
     0.0000   0.0000

          k = 0.3771 0.0943-0.0943 ( 13935 PWs)   bands (ev):

   -12.4026 -12.3961 -12.3601 -12.2834 -12.2555 -12.1993 -12.1385 -12.1079
   -12.0774 -12.0667  -1.5243   2.6923   6.7987   7.0909   9.7465  10.3709
    13.0993  13.2105

     occupation numbers 
     1.0000   1.0000   1.0000   1.0000   1.0000   1.0000   1.0000   1.0000
     1.0000   1.0000   1.0000   1.0000   1.0000   1.0000   0.0000   0.0000
     0.0000   0.0000

          k = 0.4243 0.1414-0.1414 ( 13937 PWs)   bands (ev):

   -12.4099 -12.3999 -12.3481 -12.2744 -12.2497 -12.2040 -12.1483 -12.1216
   -12.0717 -12.0584  -1.2401   2.1618   6.4454   7.0031   9.6264  10.9070
    13.1630  13.3091

     occupation numbers 
     1.0000   1.0000   1.0000   1.0000   1.0000   1.0000   1.0000   1.0000
     1.0000   1.0000   1.0000   1.0000   1.0000   1.0000   0.0000   0.0000
     0.0000   0.0000

          k = 0.4714 0.1886-0.1886 ( 13929 PWs)   bands (ev):

   -12.4155 -12.4029 -12.3368 -12.2661 -12.2495 -12.2023 -12.1580 -12.1346
   -12.0669 -12.0524  -0.9561   1.6996   6.1592   6.9877   9.5176  11.4339
    13.2707  13.3362

     occupation numbers 
     1.0000   1.0000   1.0000   1.0000   1.0000   1.0000   1.0000   1.0000
     1.0000   1.0000   1.0000   1.0000   1.0000   1.0000   0.0000   0.0000
     0.0000   0.0000

          k =-0.1886-0.4714 0.4714 ( 13946 PWs)   bands (ev):

   -12.4186 -12.4050 -12.3283 -12.2590 -12.2544 -12.1950 -12.1668 -12.1445
   -12.0633 -12.0494  -0.7615   1.4145   5.9653   7.0454   9.4410  11.8152
    13.1335  13.6832

     occupation numbers 
     1.0000   1.0000   1.0000   1.0000   1.0000   1.0000   1.0000   1.0000
     1.0000   1.0000   1.0000   1.0000   1.0000   1.0000   0.0000   0.0000
     0.0000   0.0000

          k =-0.1414-0.4243 0.4243 ( 13958 PWs)   bands (ev):

   -12.4189 -12.4061 -12.3247 -12.2631 -12.2544 -12.1831 -12.1737 -12.1498
   -12.0610 -12.0496  -0.7725   1.4304   5.8784   7.1721   9.3994  12.0472
    12.9243  13.8838

     occupation numbers 
     1.0000   1.0000   1.0000   1.0000   1.0000   1.0000   1.0000   1.0000
     1.0000   1.0000   1.0000   1.0000   1.0000   1.0000   0.0000   0.0000
     0.0000   0.0000

          k =-0.0943-0.3771 0.3771 ( 13926 PWs)   bands (ev):

   -12.4163 -12.4060 -12.3268 -12.2732 -12.2542 -12.1764 -12.1683 -12.1503
   -12.0602 -12.0533  -0.9802   1.7350   5.9111   7.3586   9.3801  12.1904
    12.6504  13.4924

     occupation numbers 
     1.0000   1.0000   1.0000   1.0000   1.0000   1.0000   1.0000   1.0000
     1.0000   1.0000   1.0000   1.0000   1.0000   1.0000   0.0000   0.0000
     0.0000   0.0000

          k =-0.0471-0.3300 0.3300 ( 13953 PWs)   bands (ev):

   -12.4111 -12.4045 -12.3344 -12.2823 -12.2596 -12.1735 -12.1560 -12.1435
   -12.0612 -12.0603  -1.2659   2.1952   6.0775   7.5882   9.3493  12.1855
    12.3175  12.9883

     occupation numbers 
     1.0000   1.0000   1.0000   1.0000   1.0000   1.0000   1.0000   1.0000
     1.0000   1.0000   1.0000   1.0000   1.0000   1.0000   0.0000   0.0000
     0.0000   0.0000

          k = 0.0000-0.2828 0.2828 ( 13927 PWs)   bands (ev):

   -12.4037 -12.4014 -12.3453 -12.2897 -12.2693 -12.1660 -12.1493 -12.1293
   -12.0698 -12.0639  -1.5466   2.7032   6.3918   7.8316   9.2440  11.8965
    11.9588  12.8302

     occupation numbers 
     1.0000   1.0000   1.0000   1.0000   1.0000   1.0000   1.0000   1.0000
     1.0000   1.0000   1.0000   1.0000   1.0000   1.0000   0.0000   0.0000
     0.0000   0.0000

          k = 0.3771 0.0000 0.0000 ( 13984 PWs)   bands (ev):

   -12.3953 -12.3953 -12.3703 -12.2845 -12.2515 -12.2064 -12.1360 -12.0901
   -12.0792 -12.0792  -1.6046   2.8810   7.0291   7.0291   9.6202  10.0365
    13.4151  13.4152

     occupation numbers 
     1.0000   1.0000   1.0000   1.0000   1.0000   1.0000   1.0000   1.0000
     1.0000   1.0000   1.0000   1.0000   1.0000   1.0000   0.0000   0.0000
     0.0000   0.0000

          k = 0.4243 0.0471-0.0471 ( 13978 PWs)   bands (ev):

   -12.4014 -12.3991 -12.3621 -12.2752 -12.2392 -12.2199 -12.1453 -12.1011
   -12.0736 -12.0697  -1.3788   2.4485   6.7616   6.8661   9.6511  10.0784
    13.6074  13.7604

     occupation numbers 
     1.0000   1.0000   1.0000   1.0000   1.0000   1.0000   1.0000   1.0000
     1.0000   1.0000   1.0000   1.0000   1.0000   1.0000   0.0000   0.0000
     0.0000   0.0000

          k = 0.4714 0.0943-0.0943 ( 13955 PWs)   bands (ev):

   -12.4094 -12.4025 -12.3489 -12.2655 -12.2323 -12.2267 -12.1557 -12.1166
   -12.0683 -12.0595  -1.1030   1.9808   6.4019   6.7704   9.7090  10.3765
    13.5100  13.9341

     occupation numbers 
     1.0000   1.0000   1.0000   1.0000   1.0000   1.0000   1.0000   1.0000
     1.0000   1.0000   1.0000   1.0000   1.0000   1.0000   0.0000   0.0000
     0.0000   0.0000

          k = 0.5185 0.1414-0.1414 ( 13954 PWs)   bands (ev):

   -12.4166 -12.4053 -12.3346 -12.2559 -12.2350 -12.2231 -12.1664 -12.1324
   -12.0639 -12.0511  -0.8076   1.5398   6.0541   6.7484   9.6623  10.9755
    13.4046  13.9295

     occupation numbers 
     1.0000   1.0000   1.0000   1.0000   1.0000   1.0000   1.0000   1.0000
     1.0000   1.0000   1.0000   1.0000   1.0000   1.0000   0.0000   0.0000
     0.0000   0.0000

          k =-0.1414-0.5185 0.5185 ( 13941 PWs)   bands (ev):

   -12.4217 -12.4073 -12.3227 -12.2473 -12.2360 -12.2208 -12.1767 -12.1450
   -12.0605 -12.0455  -0.5661   1.2164   5.7849   6.8011   9.6191  11.6460
    13.3917  13.7810

     occupation numbers 
     1.0000   1.0000   1.0000   1.0000   1.0000   1.0000   1.0000   1.0000
     1.0000   1.0000   1.0000   1.0000   1.0000   1.0000   0.0000   0.0000
     0.0000   0.0000

          k =-0.0943-0.4714 0.4714 ( 13935 PWs)   bands (ev):

   -12.4240 -12.4084 -12.3163 -12.2436 -12.2413 -12.2116 -12.1849 -12.1517
   -12.0584 -12.0434  -0.5155   1.1533   5.6305   6.9251   9.6006  12.1950
    13.4575  13.5224

     occupation numbers 
     1.0000   1.0000   1.0000   1.0000   1.0000   1.0000   1.0000   1.0000
     1.0000   1.0000   1.0000   1.0000   1.0000   1.0000   0.0000   0.0000
     0.0000   0.0000

          k =-0.0471-0.4243 0.4243 ( 13917 PWs)   bands (ev):

   -12.4228 -12.4084 -12.3163 -12.2579 -12.2410 -12.1938 -12.1876 -12.1532
   -12.0577 -12.0453  -0.6968   1.3868   5.6152   7.1111   9.5889  12.5168
    13.1720  13.2654

     occupation numbers 
     1.0000   1.0000   1.0000   1.0000   1.0000   1.0000   1.0000   1.0000
     1.0000   1.0000   1.0000   1.0000   1.0000   1.0000   0.0000   0.0000
     0.0000   0.0000

          k =-0.0000-0.3771 0.3771 ( 13941 PWs)   bands (ev):

   -12.4183 -12.4071 -12.3226 -12.2721 -12.2481 -12.1830 -12.1731 -12.1510
   -12.0586 -12.0511  -0.9799   1.7733   5.7595   7.3420   9.5327  12.5610
    12.7525  12.9025

     occupation numbers 
     1.0000   1.0000   1.0000   1.0000   1.0000   1.0000   1.0000   1.0000
     1.0000   1.0000   1.0000   1.0000   1.0000   1.0000   0.0000   0.0000
     0.0000   0.0000

          k = 0.4714 0.0000 0.0000 ( 13948 PWs)   bands (ev):

   -12.4022 -12.4022 -12.3592 -12.2655 -12.2374 -12.2238 -12.1545 -12.1025
   -12.0691 -12.0691  -1.1689   2.0959   6.6919   6.6919   9.4367   9.9976
    14.2239  14.2239

     occupation numbers 
     1.0000   1.0000   1.0000   1.0000   1.0000   1.0000   1.0000   1.0000
     1.0000   1.0000   1.0000   1.0000   1.0000   1.0000   0.0000   0.0000
     0.0000   0.0000

          k = 0.5185 0.0471-0.0471 ( 13979 PWs)   bands (ev):

   -12.4073 -12.4051 -12.3486 -12.2551 -12.2505 -12.2115 -12.1650 -12.1148
   -12.0647 -12.0619  -0.9038   1.6897   6.4625   6.5836   9.5141   9.9880
    14.2617  14.5116

     occupation numbers 
     1.0000   1.0000   1.0000   1.0000   1.0000   1.0000   1.0000   1.0000
     1.0000   1.0000   1.0000   1.0000   1.0000   1.0000   0.0000   0.0000
     0.0000   0.0000

          k = 0.5657 0.0943-0.0943 ( 13949 PWs)   bands (ev):

   -12.4145 -12.4074 -12.3332 -12.2577 -12.2446 -12.2042 -12.1762 -12.1316
   -12.0610 -12.0532  -0.6042   1.2824   6.1288   6.5491   9.5997  10.3348
    14.0632  14.5775

     occupation numbers 
     1.0000   1.0000   1.0000   1.0000   1.0000   1.0000   1.0000   1.0000
     1.0000   1.0000   1.0000   1.0000   1.0000   1.0000   0.0000   0.0000
     0.0000   0.0000

          k =-0.0943-0.5657 0.5657 ( 13953 PWs)   bands (ev):

   -12.4210 -12.4090 -12.3188 -12.2561 -12.2348 -12.2051 -12.1874 -12.1465
   -12.0583 -12.0459  -0.3271   0.9455   5.8105   6.5904   9.6026  11.0111
    13.8570  14.4369

     occupation numbers 
     1.0000   1.0000   1.0000   1.0000   1.0000   1.0000   1.0000   1.0000
     1.0000   1.0000   1.0000   1.0000   1.0000   1.0000   0.0000   0.0000
     0.0000   0.0000

          k =-0.0471-0.5185 0.5185 ( 13932 PWs)   bands (ev):

   -12.4251 -12.4099 -12.3114 -12.2427 -12.2279 -12.2176 -12.1962 -12.1538
   -12.0568 -12.0416  -0.2301   0.8377   5.5889   6.7048   9.6158  11.7925
    13.6287  14.1288

     occupation numbers 
     1.0000   1.0000   1.0000   1.0000   1.0000   1.0000   1.0000   1.0000
     1.0000   1.0000   1.0000   1.0000   1.0000   1.0000   0.0000   0.0000
     0.0000   0.0000

          k =-0.0000-0.4714 0.4714 ( 13943 PWs)   bands (ev):

   -12.4259 -12.4097 -12.3112 -12.2377 -12.2302 -12.2199 -12.1961 -12.1548
   -12.0565 -12.0413  -0.4106   1.0472   5.5132   6.8837   9.6322  12.4696
    13.3063  13.6903

     occupation numbers 
     1.0000   1.0000   1.0000   1.0000   1.0000   1.0000   1.0000   1.0000
     1.0000   1.0000   1.0000   1.0000   1.0000   1.0000   0.0000   0.0000
     0.0000   0.0000

          k = 0.5657 0.0000 0.0000 ( 13952 PWs)   bands (ev):

   -12.4073 -12.4073 -12.3429 -12.2678 -12.2441 -12.1956 -12.1755 -12.1203
   -12.0614 -12.0614  -0.6483   1.3343   6.4605   6.4605   9.3722   9.7968
    14.9327  14.9327

     occupation numbers 
     1.0000   1.0000   1.0000   1.0000   1.0000   1.0000   1.0000   1.0000
     1.0000   1.0000   1.0000   1.0000   1.0000   1.0000   0.0000   0.0000
     0.0000   0.0000

          k = 0.6128 0.0471-0.0471 ( 13947 PWs)   bands (ev):

   -12.4112 -12.4090 -12.3300 -12.2797 -12.2329 -12.1868 -12.1840 -12.1341
   -12.0588 -12.0564  -0.3494   0.9606   6.2793   6.4103   9.4803   9.8097
    14.8889  15.1039

     occupation numbers 
     1.0000   1.0000   1.0000   1.0000   1.0000   1.0000   1.0000   1.0000
     1.0000   1.0000   1.0000   1.0000   1.0000   1.0000   0.0000   0.0000
     0.0000   0.0000

          k =-0.0471-0.6128 0.6128 ( 13951 PWs)   bands (ev):

   -12.4172 -12.4101 -12.3146 -12.2829 -12.2222 -12.1984 -12.1806 -12.1499
   -12.0570 -12.0496  -0.0469   0.6236   5.9899   6.4364   9.5388  10.2749
    14.5934  14.9971

     occupation numbers 
     1.0000   1.0000   1.0000   1.0000   1.0000   1.0000   1.0000   1.0000
     1.0000   1.0000   1.0000   1.0000   1.0000   1.0000   0.0000   0.0000
     0.0000   0.0000

          k = 0.0000-0.5657 0.5657 ( 13940 PWs)   bands (ev):

   -12.4225 -12.4104 -12.3091 -12.2685 -12.2173 -12.2048 -12.1942 -12.1553
   -12.0564 -12.0440   0.0267   0.5538   5.7279   6.5370   9.5730  11.0122
    14.1619  14.6493

     occupation numbers 
     1.0000   1.0000   1.0000   1.0000   1.0000   1.0000   1.0000   1.0000
     1.0000   1.0000   1.0000   1.0000   1.0000   1.0000   0.0000   0.0000
     0.0000   0.0000

          k = 0.6600 0.0000 0.0000 ( 13932 PWs)   bands (ev):

   -12.4100 -12.4100 -12.3217 -12.2963 -12.2213 -12.1981 -12.1681 -12.1426
   -12.0573 -12.0573  -0.0507   0.6141   6.3431   6.3431   9.4243   9.5782
    15.3861  15.3863

     occupation numbers 
     1.0000   1.0000   1.0000   1.0000   1.0000   1.0000   1.0000   1.0000
     1.0000   1.0000   1.0000   1.0000   1.0000   1.0000   0.0000   0.0000
     0.0000   0.0000

          k = 0.0000-0.6600 0.6600 ( 13934 PWs)   bands (ev):

   -12.4126 -12.4104 -12.3094 -12.3039 -12.2105 -12.2091 -12.1604 -12.1550
   -12.0567 -12.0544   0.2471   0.3051   6.2177   6.3520   9.5010   9.7066
    15.1955  15.3450

     occupation numbers 
     1.0000   1.0000   1.0000   1.0000   1.0000   1.0000   1.0000   1.0000
     1.0000   1.0000   1.0000   1.0000   1.0000   1.0000   0.0000   0.0000
     0.0000   0.0000

          k = 0.1886 0.0943-0.0000 ( 13932 PWs)   bands (ev):

   -12.3861 -12.3828 -12.3713 -12.3092 -12.2984 -12.1468 -12.1200 -12.1004
   -12.0975 -12.0797  -2.1503   4.2175   7.7219   8.0982   9.1223  10.6093
    11.6595  12.0018

     occupation numbers 
     1.0000   1.0000   1.0000   1.0000   1.0000   1.0000   1.0000   1.0000
     1.0000   1.0000   1.0000   1.0000   1.0000   1.0000   0.0000   0.0000
     0.0000   0.0000

          k = 0.2357 0.1414-0.0471 ( 13925 PWs)   bands (ev):

   -12.3924 -12.3886 -12.3657 -12.3015 -12.2879 -12.1568 -12.1282 -12.1077
   -12.0880 -12.0737  -1.9691   3.6652   7.3144   7.9337   9.1505  10.8265
    11.9637  12.4469

     occupation numbers 
     1.0000   1.0000   1.0000   1.0000   1.0000   1.0000   1.0000   1.0000
     1.0000   1.0000   1.0000   1.0000   1.0000   1.0000   0.0000   0.0000
     0.0000   0.0000

          k = 0.2828 0.1886-0.0943 ( 13934 PWs)   bands (ev):

   -12.3984 -12.3941 -12.3584 -12.2935 -12.2785 -12.1643 -12.1355 -12.1180
   -12.0796 -12.0686  -1.7277   3.0474   6.9835   7.7322   9.0726  11.2006
    12.2662  12.8319

     occupation numbers 
     1.0000   1.0000   1.0000   1.0000   1.0000   1.0000   1.0000   1.0000
     1.0000   1.0000   1.0000   1.0000   1.0000   1.0000   0.0000   0.0000
     0.0000   0.0000

          k = 0.3300 0.2357-0.1414 ( 13943 PWs)   bands (ev):

   -12.4035 -12.3982 -12.3508 -12.2861 -12.2720 -12.1681 -12.1415 -12.1292
   -12.0732 -12.0646  -1.4459   2.4418   6.7389   7.5484   8.9636  11.5586
    12.4263  13.3144

     occupation numbers 
     1.0000   1.0000   1.0000   1.0000   1.0000   1.0000   1.0000   1.0000
     1.0000   1.0000   1.0000   1.0000   1.0000   1.0000   0.0000   0.0000
     0.0000   0.0000

          k = 0.3771 0.2828-0.1886 ( 13948 PWs)   bands (ev):

   -12.4072 -12.4007 -12.3445 -12.2797 -12.2692 -12.1677 -12.1469 -12.1392
   -12.0690 -12.0618  -1.1659   1.9282   6.5792   7.4133   8.8722  11.7898
    12.4670  13.9063

     occupation numbers 
     1.0000   1.0000   1.0000   1.0000   1.0000   1.0000   1.0000   1.0000
     1.0000   1.0000   1.0000   1.0000   1.0000   1.0000   0.0000   0.0000
     0.0000   0.0000

          k =-0.2828-0.3771 0.4714 ( 13942 PWs)   bands (ev):

   -12.4091 -12.4020 -12.3408 -12.2747 -12.2699 -12.1637 -12.1536 -12.1440
   -12.0671 -12.0602  -0.9728   1.6133   6.5007   7.3423   8.8219  11.8902
    12.4694  14.3605

     occupation numbers 
     1.0000   1.0000   1.0000   1.0000   1.0000   1.0000   1.0000   1.0000
     1.0000   1.0000   1.0000   1.0000   1.0000   1.0000   0.0000   0.0000
     0.0000   0.0000

          k = 0.2828 0.0943 0.0000 ( 13938 PWs)   bands (ev):

   -12.3921 -12.3900 -12.3693 -12.2988 -12.2778 -12.1737 -12.1244 -12.1012
   -12.0874 -12.0756  -1.9038   3.5282   7.2469   7.5752   9.6451  10.2339
    12.4850  12.6256

     occupation numbers 
     1.0000   1.0000   1.0000   1.0000   1.0000   1.0000   1.0000   1.0000
     1.0000   1.0000   1.0000   1.0000   1.0000   1.0000   0.0000   0.0000
     0.0000   0.0000

          k = 0.3300 0.1414-0.0471 ( 13942 PWs)   bands (ev):

   -12.3991 -12.3953 -12.3605 -12.2905 -12.2673 -12.1839 -12.1331 -12.1108
   -12.0791 -12.0689  -1.6809   2.9987   6.8604   7.4096   9.6597  10.5090
    12.7994  12.8625

     occupation numbers 
     1.0000   1.0000   1.0000   1.0000   1.0000   1.0000   1.0000   1.0000
     1.0000   1.0000   1.0000   1.0000   1.0000   1.0000   0.0000   0.0000
     0.0000   0.0000

          k = 0.3771 0.1886-0.0943 ( 13933 PWs)   bands (ev):

   -12.4063 -12.3993 -12.3500 -12.2821 -12.2595 -12.1901 -12.1419 -12.1233
   -12.0723 -12.0620  -1.4087   2.4418   6.5367   7.2479   9.5714  10.9707
    12.9004  13.1247

     occupation numbers 
     1.0000   1.0000   1.0000   1.0000   1.0000   1.0000   1.0000   1.0000
     1.0000   1.0000   1.0000   1.0000   1.0000   1.0000   0.0000   0.0000
     0.0000   0.0000

          k = 0.4243 0.2357-0.1414 ( 13931 PWs)   bands (ev):

   -12.4120 -12.4024 -12.3398 -12.2742 -12.2562 -12.1911 -12.1506 -12.1354
   -12.0675 -12.0563  -1.1189   1.9295   6.2895   7.1380   9.4697  11.4138
    12.9403  13.4097

     occupation numbers 
     1.0000   1.0000   1.0000   1.0000   1.0000   1.0000   1.0000   1.0000
     1.0000   1.0000   1.0000   1.0000   1.0000   1.0000   0.0000   0.0000
     0.0000   0.0000

          k =-0.2357-0.4243 0.5185 ( 13929 PWs)   bands (ev):

   -12.4155 -12.4044 -12.3321 -12.2676 -12.2575 -12.1869 -12.1595 -12.1442
   -12.0643 -12.0528  -0.8808   1.5568   6.1255   7.1003   9.3932  11.6996
    12.9402  13.7900

     occupation numbers 
     1.0000   1.0000   1.0000   1.0000   1.0000   1.0000   1.0000   1.0000
     1.0000   1.0000   1.0000   1.0000   1.0000   1.0000   0.0000   0.0000
     0.0000   0.0000

          k =-0.1886-0.3771 0.4714 ( 13943 PWs)   bands (ev):

[...]
    13.1523  13.3497

     occupation numbers 
     1.0000   1.0000   1.0000   1.0000   1.0000   1.0000   1.0000   1.0000
     1.0000   1.0000   1.0000   1.0000   1.0000   1.0000   0.0000   0.0000
     0.0000   0.0000

          k = 0.4243 0.1414-0.0471 ( 13964 PWs)   bands (ev):

   -12.4062 -12.4017 -12.3517 -12.2748 -12.2435 -12.2127 -12.1470 -12.1161
   -12.0696 -12.0629  -1.3042   2.3031   6.4868   6.9532   9.9051  10.3633
    13.1210  13.6455

     occupation numbers 
     1.0000   1.0000   1.0000   1.0000   1.0000   1.0000   1.0000   1.0000
     1.0000   1.0000   1.0000   1.0000   1.0000   1.0000   0.0000   0.0000
     0.0000   0.0000

          k = 0.4714 0.1886-0.0943 ( 13937 PWs)   bands (ev):

   -12.4137 -12.4048 -12.3383 -12.2658 -12.2386 -12.2164 -12.1573 -12.1310
   -12.0648 -12.0545  -1.0122   1.8250   6.1682   6.8519   9.8198  10.9366
    13.0632  13.7666

     occupation numbers 
     1.0000   1.0000   1.0000   1.0000   1.0000   1.0000   1.0000   1.0000
     1.0000   1.0000   1.0000   1.0000   1.0000   1.0000   0.0000   0.0000
     0.0000   0.0000

          k =-0.1886-0.4714 0.5657 ( 13933 PWs)   bands (ev):

   -12.4191 -12.4070 -12.3264 -12.2575 -12.2397 -12.2135 -12.1677 -12.1435
   -12.0613 -12.0485  -0.7409   1.4304   5.9177   6.8273   9.7525  11.5076
    13.1256  13.7281

     occupation numbers 
     1.0000   1.0000   1.0000   1.0000   1.0000   1.0000   1.0000   1.0000
     1.0000   1.0000   1.0000   1.0000   1.0000   1.0000   0.0000   0.0000
     0.0000   0.0000

          k =-0.1414-0.4243 0.5185 ( 13937 PWs)   bands (ev):

   -12.4218 -12.4083 -12.3190 -12.2530 -12.2436 -12.2059 -12.1763 -12.1511
   -12.0590 -12.0458  -0.6026   1.2450   5.7623   6.8833   9.7157  11.8915
    13.3196  13.5953

     occupation numbers 
     1.0000   1.0000   1.0000   1.0000   1.0000   1.0000   1.0000   1.0000
     1.0000   1.0000   1.0000   1.0000   1.0000   1.0000   0.0000   0.0000
     0.0000   0.0000

          k =-0.0943-0.3771 0.4714 ( 13938 PWs)   bands (ev):

   -12.4213 -12.4086 -12.3179 -12.2597 -12.2439 -12.1970 -12.1774 -12.1533
   -12.0580 -12.0468  -0.6981   1.3723   5.7219   7.0132   9.7024  12.0465
    13.1672  13.5531

     occupation numbers 
     1.0000   1.0000   1.0000   1.0000   1.0000   1.0000   1.0000   1.0000
     1.0000   1.0000   1.0000   1.0000   1.0000   1.0000   0.0000   0.0000
     0.0000   0.0000

          k =-0.0471-0.3300 0.4243 ( 13937 PWs)   bands (ev):

   -12.4177 -12.4077 -12.3234 -12.2708 -12.2468 -12.1920 -12.1648 -12.1517
   -12.0585 -12.0516  -0.9525   1.7295   5.8133   7.2019   9.6845  11.9716
    12.8736  13.3009

     occupation numbers 
     1.0000   1.0000   1.0000   1.0000   1.0000   1.0000   1.0000   1.0000
     1.0000   1.0000   1.0000   1.0000   1.0000   1.0000   0.0000   0.0000
     0.0000   0.0000

          k = 0.0000-0.2828 0.3771 ( 13957 PWs)   bands (ev):

   -12.4114 -12.4053 -12.3342 -12.2803 -12.2552 -12.1853 -12.1493 -12.1449
   -12.0605 -12.0598  -1.2445   2.1782   6.0520   7.4222   9.6045  11.6388
    12.8124  12.9271

     occupation numbers 
     1.0000   1.0000   1.0000   1.0000   1.0000   1.0000   1.0000   1.0000
     1.0000   1.0000   1.0000   1.0000   1.0000   1.0000   0.0000   0.0000
     0.0000   0.0000

          k = 0.4714 0.0943-0.0000 ( 13979 PWs)   bands (ev):

   -12.4046 -12.4046 -12.3528 -12.2655 -12.2333 -12.2267 -12.1551 -12.1115
   -12.0663 -12.0649  -1.1343   2.0380   6.5229   6.7148   9.7329  10.0746
    13.6669  14.1778

     occupation numbers 
     1.0000   1.0000   1.0000   1.0000   1.0000   1.0000   1.0000   1.0000
     1.0000   1.0000   1.0000   1.0000   1.0000   1.0000   0.0000   0.0000
     0.0000   0.0000

          k = 0.5185 0.1414-0.0471 ( 13965 PWs)   bands (ev):

   -12.4122 -12.4073 -12.3382 -12.2555 -12.2421 -12.2178 -12.1659 -12.1275
   -12.0617 -12.0561  -0.8460   1.6078   6.2139   6.6040   9.8496  10.3566
    13.5246  14.3811

     occupation numbers 
     1.0000   1.0000   1.0000   1.0000   1.0000   1.0000   1.0000   1.0000
     1.0000   1.0000   1.0000   1.0000   1.0000   1.0000   0.0000   0.0000
     0.0000   0.0000

          k =-0.1414-0.5185 0.6128 ( 13952 PWs)   bands (ev):

   -12.4191 -12.4093 -12.3231 -12.2464 -12.2439 -12.2146 -12.1772 -12.1432
   -12.0585 -12.0482  -0.5525   1.2180   5.9050   6.5783   9.8307  10.9960
    13.3833  14.3114

     occupation numbers 
     1.0000   1.0000   1.0000   1.0000   1.0000   1.0000   1.0000   1.0000
     1.0000   1.0000   1.0000   1.0000   1.0000   1.0000   0.0000   0.0000
     0.0000   0.0000

          k =-0.0943-0.4714 0.5657 ( 13939 PWs)   bands (ev):

   -12.4237 -12.4106 -12.3126 -12.2407 -12.2353 -12.2198 -12.1874 -12.1535
   -12.0564 -12.0432  -0.3561   0.9798   5.6717   6.6378   9.8220  11.7104
    13.3101  13.9986

     occupation numbers 
     1.0000   1.0000   1.0000   1.0000   1.0000   1.0000   1.0000   1.0000
     1.0000   1.0000   1.0000   1.0000   1.0000   1.0000   0.0000   0.0000
     0.0000   0.0000

          k =-0.0471-0.4243 0.5185 ( 13930 PWs)   bands (ev):

   -12.4252 -12.4108 -12.3096 -12.2416 -12.2292 -12.2206 -12.1922 -12.1565
   -12.0556 -12.0420  -0.4103   1.0458   5.5606   6.7735   9.8287  12.2646
    13.2560  13.5885

     occupation numbers 
     1.0000   1.0000   1.0000   1.0000   1.0000   1.0000   1.0000   1.0000
     1.0000   1.0000   1.0000   1.0000   1.0000   1.0000   0.0000   0.0000
     0.0000   0.0000

          k =-0.0000-0.3771 0.4714 ( 13923 PWs)   bands (ev):

   -12.4231 -12.4099 -12.3134 -12.2567 -12.2355 -12.2051 -12.1840 -12.1552
   -12.0562 -12.0449  -0.6592   1.3505   5.6014   6.9704   9.8102  12.3484
    12.9504  13.4884

     occupation numbers 
     1.0000   1.0000   1.0000   1.0000   1.0000   1.0000   1.0000   1.0000
     1.0000   1.0000   1.0000   1.0000   1.0000   1.0000   0.0000   0.0000
     0.0000   0.0000

          k = 0.5657 0.0943 0.0000 ( 13951 PWs)   bands (ev):

   -12.4097 -12.4094 -12.3367 -12.2631 -12.2443 -12.1995 -12.1759 -12.1274
   -12.0588 -12.0586  -0.6230   1.3059   6.3204   6.4364   9.6459   9.9527
    14.2803  14.8561

     occupation numbers 
     1.0000   1.0000   1.0000   1.0000   1.0000   1.0000   1.0000   1.0000
     1.0000   1.0000   1.0000   1.0000   1.0000   1.0000   0.0000   0.0000
     0.0000   0.0000

          k =-0.0943-0.5657 0.6600 ( 13948 PWs)   bands (ev):

   -12.4161 -12.4111 -12.3204 -12.2697 -12.2337 -12.1927 -12.1875 -12.1444
   -12.0563 -12.0510  -0.3168   0.9331   6.0496   6.3848   9.7733  10.3068
    14.1007  14.8257

     occupation numbers 
     1.0000   1.0000   1.0000   1.0000   1.0000   1.0000   1.0000   1.0000
     1.0000   1.0000   1.0000   1.0000   1.0000   1.0000   0.0000   0.0000
     0.0000   0.0000

          k =-0.0471-0.5185 0.6128 ( 13945 PWs)   bands (ev):

   -12.4220 -12.4119 -12.3077 -12.2652 -12.2244 -12.1991 -12.1961 -12.1567
   -12.0549 -12.0446  -0.0746   0.6666   5.7674   6.4398   9.7939  11.0156
    13.8844  14.4245

     occupation numbers 
     1.0000   1.0000   1.0000   1.0000   1.0000   1.0000   1.0000   1.0000
     1.0000   1.0000   1.0000   1.0000   1.0000   1.0000   0.0000   0.0000
     0.0000   0.0000

          k = 0.0000-0.4714 0.5657 ( 13939 PWs)   bands (ev):

   -12.4253 -12.4119 -12.3055 -12.2463 -12.2248 -12.2125 -12.2018 -12.1587
   -12.0546 -12.0413  -0.1384   0.7416   5.5857   6.5743   9.8252  11.7931
    13.5658  13.9167

     occupation numbers 
     1.0000   1.0000   1.0000   1.0000   1.0000   1.0000   1.0000   1.0000
     1.0000   1.0000   1.0000   1.0000   1.0000   1.0000   0.0000   0.0000
     0.0000   0.0000

          k =-0.0471-0.6128 0.7071 ( 13932 PWs)   bands (ev):

   -12.4123 -12.4122 -12.3159 -12.2910 -12.2216 -12.1984 -12.1729 -12.1484
   -12.0549 -12.0549  -0.0384   0.6089   6.2369   6.2757   9.6689   9.7856
    14.8776  15.1524

     occupation numbers 
     1.0000   1.0000   1.0000   1.0000   1.0000   1.0000   1.0000   1.0000
     1.0000   1.0000   1.0000   1.0000   1.0000   1.0000   0.0000   0.0000
     0.0000   0.0000

          k = 0.0000-0.5657 0.6600 ( 13950 PWs)   bands (ev):

   -12.4175 -12.4125 -12.3040 -12.2894 -12.2127 -12.2085 -12.1742 -12.1601
   -12.0544 -12.0492   0.1961   0.3712   5.9950   6.3100   9.7472  10.2749
    14.5662  14.7710

     occupation numbers 
     1.0000   1.0000   1.0000   1.0000   1.0000   1.0000   1.0000   1.0000
     1.0000   1.0000   1.0000   1.0000   1.0000   1.0000   0.0000   0.0000
     0.0000   0.0000

          k = 0.3771 0.1886-0.0000 ( 13936 PWs)   bands (ev):

   -12.4038 -12.4027 -12.3494 -12.2827 -12.2562 -12.1946 -12.1413 -12.1232
   -12.0690 -12.0642  -1.4418   2.5332   6.4409   7.2739   9.8471  10.6817
    12.8542  13.1721

     occupation numbers 
     1.0000   1.0000   1.0000   1.0000   1.0000   1.0000   1.0000   1.0000
     1.0000   1.0000   1.0000   1.0000   1.0000   1.0000   0.0000   0.0000
     0.0000   0.0000

          k = 0.4243 0.2357-0.0471 ( 13938 PWs)   bands (ev):

   -12.4115 -12.4060 -12.3366 -12.2744 -12.2475 -12.2016 -12.1501 -12.1380
   -12.0622 -12.0578  -1.1593   2.0478   6.1246   7.0976   9.8965  11.0908
    12.8170  13.4809

     occupation numbers 
     1.0000   1.0000   1.0000   1.0000   1.0000   1.0000   1.0000   1.0000
     1.0000   1.0000   1.0000   1.0000   1.0000   1.0000   0.0000   0.0000
     0.0000   0.0000

          k =-0.2357-0.4243 0.6128 ( 13931 PWs)   bands (ev):

   -12.4173 -12.4080 -12.3253 -12.2660 -12.2436 -12.2035 -12.1615 -12.1487
   -12.0595 -12.0511  -0.8717   1.6081   5.9184   6.9482   9.8755  11.5119
    12.9264  13.6482

     occupation numbers 
     1.0000   1.0000   1.0000   1.0000   1.0000   1.0000   1.0000   1.0000
     1.0000   1.0000   1.0000   1.0000   1.0000   1.0000   0.0000   0.0000
     0.0000   0.0000

          k =-0.1886-0.3771 0.5657 ( 13932 PWs)   bands (ev):

   -12.4204 -12.4090 -12.3188 -12.2591 -12.2443 -12.2015 -12.1720 -12.1532
   -12.0583 -12.0474  -0.6653   1.3203   5.8176   6.8650   9.8534  11.7190
    13.2217  13.6423

     occupation numbers 
     1.0000   1.0000   1.0000   1.0000   1.0000   1.0000   1.0000   1.0000
     1.0000   1.0000   1.0000   1.0000   1.0000   1.0000   0.0000   0.0000
     0.0000   0.0000

          k = 0.4714 0.1886-0.0000 ( 13954 PWs)   bands (ev):

   -12.4106 -12.4083 -12.3379 -12.2657 -12.2328 -12.2230 -12.1571 -12.1310
   -12.0595 -12.0592  -1.0328   1.8752   6.1720   6.7860  10.2048  10.4609
    12.9883  14.0355

     occupation numbers 
     1.0000   1.0000   1.0000   1.0000   1.0000   1.0000   1.0000   1.0000
     1.0000   1.0000   1.0000   1.0000   1.0000   1.0000   0.0000   0.0000
     0.0000   0.0000

          k =-0.1886-0.4714 0.6600 ( 13941 PWs)   bands (ev):

   -12.4173 -12.4110 -12.3229 -12.2565 -12.2305 -12.2240 -12.1685 -12.1461
   -12.0564 -12.0507  -0.7363   1.4572   5.9179   6.6348  10.2316  10.9932
    12.8849  14.1601

     occupation numbers 
     1.0000   1.0000   1.0000   1.0000   1.0000   1.0000   1.0000   1.0000
     1.0000   1.0000   1.0000   1.0000   1.0000   1.0000   0.0000   0.0000
     0.0000   0.0000

          k =-0.1414-0.4243 0.6128 ( 13936 PWs)   bands (ev):

   -12.4221 -12.4124 -12.3111 -12.2487 -12.2309 -12.2218 -12.1802 -12.1565
   -12.0546 -12.0451  -0.4812   1.1301   5.7395   6.5627  10.2169  11.5515
    12.9511  13.9213

     occupation numbers 
     1.0000   1.0000   1.0000   1.0000   1.0000   1.0000   1.0000   1.0000
     1.0000   1.0000   1.0000   1.0000   1.0000   1.0000   0.0000   0.0000
     0.0000   0.0000

          k =-0.0943-0.3771 0.5657 ( 13935 PWs)   bands (ev):

   -12.4238 -12.4128 -12.3067 -12.2470 -12.2283 -12.2215 -12.1860 -12.1599
   -12.0539 -12.0433  -0.4097   1.0436   5.6538   6.5898  10.2126  11.8313
    13.2056  13.5103

     occupation numbers 
     1.0000   1.0000   1.0000   1.0000   1.0000   1.0000   1.0000   1.0000
     1.0000   1.0000   1.0000   1.0000   1.0000   1.0000   0.0000   0.0000
     0.0000   0.0000

          k =-0.0471-0.3300 0.5185 ( 13922 PWs)   bands (ev):

   -12.4221 -12.4121 -12.3110 -12.2545 -12.2303 -12.2171 -12.1790 -12.1577
   -12.0544 -12.0456  -0.5857   1.2609   5.6799   6.7085  10.2017  11.7594
    12.8614  13.7761

     occupation numbers 
     1.0000   1.0000   1.0000   1.0000   1.0000   1.0000   1.0000   1.0000
     1.0000   1.0000   1.0000   1.0000   1.0000   1.0000   0.0000   0.0000
     0.0000   0.0000

          k = 0.0000-0.2828 0.4714 ( 13945 PWs)   bands (ev):

   -12.4175 -12.4101 -12.3221 -12.2652 -12.2366 -12.2111 -12.1630 -12.1511
   -12.0563 -12.0515  -0.8709   1.6354   5.8343   6.8933  10.1255  11.4026
    12.7310  13.7921

     occupation numbers 
     1.0000   1.0000   1.0000   1.0000   1.0000   1.0000   1.0000   1.0000
     1.0000   1.0000   1.0000   1.0000   1.0000   1.0000   0.0000   0.0000
     0.0000   0.0000

          k =-0.1414-0.5185 0.7071 ( 13963 PWs)   bands (ev):

   -12.4152 -12.4132 -12.3221 -12.2512 -12.2454 -12.2083 -12.1775 -12.1440
   -12.0539 -12.0528  -0.5500   1.2227   6.0277   6.4013  10.3289  10.3332
    13.3685  14.5864

     occupation numbers 
     1.0000   1.0000   1.0000   1.0000   1.0000   1.0000   1.0000   1.0000
     1.0000   1.0000   1.0000   1.0000   1.0000   1.0000   0.0000   0.0000
     0.0000   0.0000

          k =-0.0943-0.4714 0.6600 ( 13948 PWs)   bands (ev):

   -12.4207 -12.4150 -12.3058 -12.2547 -12.2356 -12.2041 -12.1897 -12.1593
   -12.0518 -12.0461  -0.2590   0.8802   5.8274   6.3024  10.3252  11.0094
    13.2229  14.2531

     occupation numbers 
     1.0000   1.0000   1.0000   1.0000   1.0000   1.0000   1.0000   1.0000
     1.0000   1.0000   1.0000   1.0000   1.0000   1.0000   0.0000   0.0000
     0.0000   0.0000

          k =-0.0471-0.4243 0.6128 ( 13940 PWs)   bands (ev):

   -12.4243 -12.4153 -12.2977 -12.2481 -12.2297 -12.2100 -12.1984 -12.1658
   -12.0512 -12.0422  -0.1237   0.7325   5.6589   6.3448  10.3372  11.6966
    13.1510  13.6404

     occupation numbers 
     1.0000   1.0000   1.0000   1.0000   1.0000   1.0000   1.0000   1.0000
     1.0000   1.0000   1.0000   1.0000   1.0000   1.0000   0.0000   0.0000
     0.0000   0.0000

          k = 0.0000-0.3771 0.5657 ( 13918 PWs)   bands (ev):

   -12.4248 -12.4144 -12.3008 -12.2397 -12.2328 -12.2177 -12.1953 -12.1635
   -12.0519 -12.0421  -0.2959   0.9257   5.5968   6.4918  10.3275  12.0155
    12.9492  13.5158

     occupation numbers 
     1.0000   1.0000   1.0000   1.0000   1.0000   1.0000   1.0000   1.0000
     1.0000   1.0000   1.0000   1.0000   1.0000   1.0000   0.0000   0.0000
     0.0000   0.0000

          k =-0.0471-0.5185 0.7071 ( 13949 PWs)   bands (ev):

   -12.4172 -12.4165 -12.3018 -12.2779 -12.2230 -12.1999 -12.1843 -12.1623
   -12.0502 -12.0496  -0.0043   0.5913   6.0163   6.1415  10.2939  10.3157
    13.9467  14.4908

     occupation numbers 
     1.0000   1.0000   1.0000   1.0000   1.0000   1.0000   1.0000   1.0000
     1.0000   1.0000   1.0000   1.0000   1.0000   1.0000   0.0000   0.0000
     0.0000   0.0000

          k = 0.0000-0.4714 0.6600 ( 13948 PWs)   bands (ev):

   -12.4218 -12.4166 -12.2920 -12.2714 -12.2169 -12.2089 -12.1897 -12.1707
   -12.0499 -12.0446   0.1472   0.4411   5.8152   6.1704  10.3307  11.0228
    13.7191  13.8339

     occupation numbers 
     1.0000   1.0000   1.0000   1.0000   1.0000   1.0000   1.0000   1.0000
     1.0000   1.0000   1.0000   1.0000   1.0000   1.0000   0.0000   0.0000
     0.0000   0.0000

          k =-0.1414-0.4243 0.7071 ( 13947 PWs)   bands (ev):

   -12.4211 -12.4152 -12.3065 -12.2463 -12.2378 -12.2158 -12.1829 -12.1601
   -12.0513 -12.0464  -0.4371   1.0916   5.7565   6.4149  10.6023  11.2255
    12.7749  14.0632

     occupation numbers 
     1.0000   1.0000   1.0000   1.0000   1.0000   1.0000   1.0000   1.0000
     1.0000   1.0000   1.0000   1.0000   1.0000   1.0000   0.0000   0.0000
     0.0000   0.0000

          k =-0.0943-0.3771 0.6600 ( 13931 PWs)   bands (ev):

   -12.4237 -12.4169 -12.2951 -12.2445 -12.2352 -12.2115 -12.1950 -12.1685
   -12.0495 -12.0430  -0.1894   0.8090   5.6839   6.2790  10.7072  11.6131
    12.8626  13.5363

     occupation numbers 
     1.0000   1.0000   1.0000   1.0000   1.0000   1.0000   1.0000   1.0000
     1.0000   1.0000   1.0000   1.0000   1.0000   1.0000   0.0000   0.0000
     0.0000   0.0000

          k =-0.0471-0.4243 0.7071 ( 13926 PWs)   bands (ev):

   -12.4217 -12.4195 -12.2868 -12.2635 -12.2255 -12.2040 -12.1946 -12.1753
   -12.0469 -12.0449   0.0437   0.5575   5.8280   6.0506  10.9151  11.0861
    13.0953  13.6346

     occupation numbers 
     1.0000   1.0000   1.0000   1.0000   1.0000   1.0000   1.0000   1.0000
     1.0000   1.0000   1.0000   1.0000   1.0000   1.0000   0.0000   0.0000
     0.0000   0.0000

          k =-0.0000-0.3771 0.6600 ( 13920 PWs)   bands (ev):

   -12.4234 -12.4195 -12.2824 -12.2592 -12.2238 -12.2089 -12.1973 -12.1782
   -12.0468 -12.0430   0.0963   0.5060   5.7527   6.0613  10.9483  11.5499
    12.9926  13.1810

     occupation numbers 
     1.0000   1.0000   1.0000   1.0000   1.0000   1.0000   1.0000   1.0000
     1.0000   1.0000   1.0000   1.0000   1.0000   1.0000   0.0000   0.0000
     0.0000   0.0000

     the Fermi energy is     8.3253 ev

!    total energy              =    -233.44827995 Ry
     Harris-Foulkes estimate   =    -233.44828009 Ry
     estimated scf accuracy    <       0.00000041 Ry

     The total energy is the sum of the following terms:

     one-electron contribution =     -95.31544721 Ry
     hartree contribution      =      58.35539077 Ry
     xc contribution           =     -28.70688161 Ry
     ewald contribution        =    -167.78134157 Ry
     smearing contrib. (-TS)   =      -0.00000032 Ry

     convergence has been achieved in   5 iterations

     Writing output data file Sn.save
 
     init_run     :      5.21s CPU      5.75s WALL (       1 calls)
     electrons    :    100.86s CPU    106.97s WALL (       1 calls)

     Called by init_run:
     wfcinit      :      4.92s CPU      5.35s WALL (       1 calls)
     potinit      :      0.06s CPU      0.10s WALL (       1 calls)

     Called by electrons:
     c_bands      :     88.37s CPU     94.00s WALL (       5 calls)
     sum_band     :     12.24s CPU     12.55s WALL (       5 calls)
     v_of_rho     :      0.22s CPU      0.37s WALL (       6 calls)
     v_h          :      0.02s CPU      0.05s WALL (       6 calls)
     v_xc         :      0.20s CPU      0.32s WALL (       6 calls)
     mix_rho      :      0.02s CPU      0.03s WALL (       5 calls)

     Called by c_bands:
     init_us_2    :      0.78s CPU      0.86s WALL (    1320 calls)
     cegterg      :     85.12s CPU     90.62s WALL (     600 calls)

     Called by sum_band:

     Called by *egterg:
     h_psi        :     78.31s CPU     83.71s WALL (    2580 calls)
     g_psi        :      0.33s CPU      0.33s WALL (    1860 calls)
     cdiaghg      :      2.61s CPU      2.63s WALL (    2460 calls)
     cegterg:over :      3.33s CPU      3.36s WALL (    1860 calls)
     cegterg:upda :      1.77s CPU      1.78s WALL (    1860 calls)
     cegterg:last :      1.11s CPU      1.11s WALL (     801 calls)

     Called by h_psi:
     h_psi:vloc   :     74.18s CPU     79.45s WALL (    2580 calls)
     h_psi:vnl    :      3.80s CPU      3.91s WALL (    2580 calls)
     add_vuspsi   :      1.56s CPU      1.58s WALL (    2580 calls)

     General routines
     calbec       :      2.22s CPU      2.31s WALL (    2580 calls)
     fft          :      0.16s CPU      0.32s WALL (      65 calls)
     fftw         :     74.09s CPU     79.06s WALL (   85868 calls)
     davcio       :      0.02s CPU      0.25s WALL (     120 calls)
 
     Parallel routines
     fft_scatter  :     31.36s CPU     33.95s WALL (   85933 calls)
 
     PWSCF        :  1m46.42s CPU     1m53.47s WALL

 
   This run was terminated on:   0:18:36  28Feb2020            

=------------------------------------------------------------------------------=
   JOB DONE.
=------------------------------------------------------------------------------=
