
     Program PWSCF v.5.4.0 starts on 15Mar2020 at 19:56:34 

     This program is part of the open-source Quantum ESPRESSO suite
     for quantum simulation of materials; please cite
         "P. Giannozzi et al., J. Phys.:Condens. Matter 21 395502 (2009);
          URL http://www.quantum-espresso.org", 
     in publications or presentations arising from this work. More details at
     http://www.quantum-espresso.org/quote

     Parallel version (MPI & OpenMP), running on      16 processor cores
     Number of MPI processes:                16
     Threads/MPI process:                     1
     R & G space division:  proc/nbgrp/npool/nimage =      16
     Waiting for input...
     Reading input from standard input
Warning: card &IONS ignored
Warning: card / ignored
Warning: card &CELL ignored
Warning: card / ignored

     Current dimensions of program PWSCF are:
     Max number of different atomic species (ntypx) = 10
     Max number of k-points (npk) =  40000
     Max angular momentum in pseudopotentials (lmaxx) =  3
               file Sn.pbe-dn-kjpaw_psl.1.0.0.UPF: wavefunction(s)  5S 5P 4D renormalized
     Message from routine setup:
     At least one non s.o. pseudo

     Subspace diagonalization in iterative solution of the eigenvalue problem:
     a serial algorithm will be used

 
     Parallelization info
     --------------------
     sticks:   dense  smooth     PW     G-vecs:    dense   smooth      PW
     Min          68      68     19                 1497     1497     237
     Max          69      69     20                 1499     1499     242
     Sum        1099    1099    313                23973    23973    3839
 

     Title: 
     Sn                                                                         


     bravais-lattice index     =            0
     lattice parameter (alat)  =       8.9127  a.u.
     unit-cell volume          =     500.6268 (a.u.)^3
     number of atoms/cell      =            2
     number of atomic types    =            1
     number of electrons       =        28.00
     number of Kohn-Sham states=           36
     kinetic-energy cutoff     =      50.0000  Ry
     charge density cutoff     =     200.0000  Ry
     convergence threshold     =      1.0E-06
     mixing beta               =       0.7000
     number of iterations used =            8  plain     mixing
     Exchange-correlation      =  SLA  PW   PBX  PBC ( 1  4  3  4 0 0)
     Non magnetic calculation with spin-orbit


     celldm(1)=   8.912709  celldm(2)=   0.000000  celldm(3)=   0.000000
     celldm(4)=   0.000000  celldm(5)=   0.000000  celldm(6)=   0.000000

     crystal axes: (cart. coord. in units of alat)
               a(1) = (   0.000000   0.707107   0.707107 )  
               a(2) = (   0.707107   0.000000   0.707107 )  
               a(3) = (   0.707107   0.707107   0.000000 )  

     reciprocal axes: (cart. coord. in units 2 pi/alat)
               b(1) = ( -0.707107  0.707107  0.707107 )  
               b(2) = (  0.707107 -0.707107  0.707107 )  
               b(3) = (  0.707107  0.707107 -0.707107 )  


     PseudoPot. # 1 for Sn read from file:
     ../PseudopotentialDatabase/Sn.pbe-dn-kjpaw_psl.1.0.0.UPF
     MD5 check sum: 67f11dec737d427557dc41ea34975807
     Pseudo is Projector augmented-wave + core cor, Zval = 14.0
     Generated using "atomic" code by A. Dal Corso  v.6.3
     Shape of augmentation charge: PSQ
     Using radial grid of 1243 points,  6 beta functions with: 
                l(1) =   0
                l(2) =   0
                l(3) =   1
                l(4) =   1
                l(5) =   2
                l(6) =   2
     Q(r) pseudized with 0 coefficients 


     atomic species   valence    mass     pseudopotential
        Sn            14.00   118.71000     Sn( 1.00)

     24 Sym. Ops. (no inversion) found
          (note: 24 additional sym.ops. were found but ignored
           their fractional translations are incommensurate with FFT grid)

                                    s                        frac. trans.

      isym =  1     identity                                     

 cryst.   s( 1) = (     1          0          0      )
                  (     0          1          0      )
                  (     0          0          1      )

 cart.    s( 1) = (  1.0000000  0.0000000  0.0000000 )
                  (  0.0000000  1.0000000  0.0000000 )
                  (  0.0000000  0.0000000  1.0000000 )


      isym =  2     180 deg rotation - cart. axis [0,0,1]        

 cryst.   s( 2) = (     0          1         -1      )
                  (     1          0         -1      )
                  (     0          0         -1      )

 cart.    s( 2) = ( -1.0000000  0.0000000  0.0000000 )
                  (  0.0000000 -1.0000000  0.0000000 )
                  (  0.0000000  0.0000000  1.0000000 )


      isym =  3     180 deg rotation - cart. axis [0,1,0]        

 cryst.   s( 3) = (     0         -1          1      )
                  (     0         -1          0      )
                  (     1         -1          0      )

 cart.    s( 3) = ( -1.0000000  0.0000000  0.0000000 )
                  (  0.0000000  1.0000000  0.0000000 )
                  (  0.0000000  0.0000000 -1.0000000 )


      isym =  4     180 deg rotation - cart. axis [1,0,0]        

 cryst.   s( 4) = (    -1          0          0      )
                  (    -1          0          1      )
                  (    -1          1          0      )

 cart.    s( 4) = (  1.0000000  0.0000000  0.0000000 )
                  (  0.0000000 -1.0000000  0.0000000 )
                  (  0.0000000  0.0000000 -1.0000000 )


      isym =  5     120 deg rotation - cart. axis [-1,-1,-1]     

 cryst.   s( 5) = (     0          0          1      )
                  (     1          0          0      )
                  (     0          1          0      )

 cart.    s( 5) = (  0.0000000  1.0000000  0.0000000 )
                  (  0.0000000  0.0000000  1.0000000 )
                  (  1.0000000  0.0000000  0.0000000 )


      isym =  6     120 deg rotation - cart. axis [-1,1,1]       

 cryst.   s( 6) = (     1         -1          0      )
                  (     0         -1          1      )
                  (     0         -1          0      )

 cart.    s( 6) = (  0.0000000 -1.0000000  0.0000000 )
                  (  0.0000000  0.0000000  1.0000000 )
                  ( -1.0000000  0.0000000  0.0000000 )


      isym =  7     120 deg rotation - cart. axis [1,1,-1]       

 cryst.   s( 7) = (    -1          1          0      )
                  (    -1          0          0      )
                  (    -1          0          1      )

 cart.    s( 7) = (  0.0000000  1.0000000  0.0000000 )
                  (  0.0000000  0.0000000 -1.0000000 )
                  ( -1.0000000  0.0000000  0.0000000 )


      isym =  8     120 deg rotation - cart. axis [1,-1,1]       

 cryst.   s( 8) = (     0          0         -1      )
                  (     0          1         -1      )
                  (     1          0         -1      )

 cart.    s( 8) = (  0.0000000 -1.0000000  0.0000000 )
                  (  0.0000000  0.0000000 -1.0000000 )
                  (  1.0000000  0.0000000  0.0000000 )


      isym =  9     120 deg rotation - cart. axis [1,1,1]        

 cryst.   s( 9) = (     0          1          0      )
                  (     0          0          1      )
                  (     1          0          0      )

 cart.    s( 9) = (  0.0000000  0.0000000  1.0000000 )
                  (  1.0000000  0.0000000  0.0000000 )
                  (  0.0000000  1.0000000  0.0000000 )


      isym = 10     120 deg rotation - cart. axis [-1,1,-1]      

 cryst.   s(10) = (    -1          0          1      )
                  (    -1          1          0      )
                  (    -1          0          0      )

 cart.    s(10) = (  0.0000000  0.0000000  1.0000000 )
                  ( -1.0000000  0.0000000  0.0000000 )
                  (  0.0000000 -1.0000000  0.0000000 )


      isym = 11     120 deg rotation - cart. axis [1,-1,-1]      

 cryst.   s(11) = (     1          0         -1      )
                  (     0          0         -1      )
                  (     0          1         -1      )

 cart.    s(11) = (  0.0000000  0.0000000 -1.0000000 )
                  ( -1.0000000  0.0000000  0.0000000 )
                  (  0.0000000  1.0000000  0.0000000 )


      isym = 12     120 deg rotation - cart. axis [-1,-1,1]      

 cryst.   s(12) = (     0         -1          0      )
                  (     1         -1          0      )
                  (     0         -1          1      )

 cart.    s(12) = (  0.0000000  0.0000000 -1.0000000 )
                  (  1.0000000  0.0000000  0.0000000 )
                  (  0.0000000 -1.0000000  0.0000000 )


      isym = 13     inv. 180 deg rotation - cart. axis [1,1,0]   

 cryst.   s(13) = (     1          0         -1      )
                  (     0          1         -1      )
                  (     0          0         -1      )

 cart.    s(13) = (  0.0000000 -1.0000000  0.0000000 )
                  ( -1.0000000  0.0000000  0.0000000 )
                  (  0.0000000  0.0000000  1.0000000 )


      isym = 14     inv. 180 deg rotation - cart. axis [1,-1,0]  

 cryst.   s(14) = (     0          1          0      )
                  (     1          0          0      )
                  (     0          0          1      )

 cart.    s(14) = (  0.0000000  1.0000000  0.0000000 )
                  (  1.0000000  0.0000000  0.0000000 )
                  (  0.0000000  0.0000000  1.0000000 )


      isym = 15     inv.  90 deg rotation - cart. axis [0,0,-1]  

 cryst.   s(15) = (     0         -1          0      )
                  (     0         -1          1      )
                  (     1         -1          0      )

 cart.    s(15) = (  0.0000000 -1.0000000  0.0000000 )
                  (  1.0000000  0.0000000  0.0000000 )
                  (  0.0000000  0.0000000 -1.0000000 )


      isym = 16     inv.  90 deg rotation - cart. axis [0,0,1]   

 cryst.   s(16) = (    -1          0          1      )
                  (    -1          0          0      )
                  (    -1          1          0      )

 cart.    s(16) = (  0.0000000  1.0000000  0.0000000 )
                  ( -1.0000000  0.0000000  0.0000000 )
                  (  0.0000000  0.0000000 -1.0000000 )


      isym = 17     inv. 180 deg rotation - cart. axis [1,0,1]   

 cryst.   s(17) = (     1         -1          0      )
                  (     0         -1          0      )
                  (     0         -1          1      )

 cart.    s(17) = (  0.0000000  0.0000000 -1.0000000 )
                  (  0.0000000  1.0000000  0.0000000 )
                  ( -1.0000000  0.0000000  0.0000000 )


      isym = 18     inv. 180 deg rotation - cart. axis [-1,0,1]  

 cryst.   s(18) = (     0          0          1      )
                  (     0          1          0      )
                  (     1          0          0      )

 cart.    s(18) = (  0.0000000  0.0000000  1.0000000 )
                  (  0.0000000  1.0000000  0.0000000 )
                  (  1.0000000  0.0000000  0.0000000 )


      isym = 19     inv.  90 deg rotation - cart. axis [0,1,0]   

 cryst.   s(19) = (     0          0         -1      )
                  (     1          0         -1      )
                  (     0          1         -1      )

 cart.    s(19) = (  0.0000000  0.0000000 -1.0000000 )
                  (  0.0000000 -1.0000000  0.0000000 )
                  (  1.0000000  0.0000000  0.0000000 )


      isym = 20     inv.  90 deg rotation - cart. axis [0,-1,0]  

 cryst.   s(20) = (    -1          1          0      )
                  (    -1          0          1      )
                  (    -1          0          0      )

 cart.    s(20) = (  0.0000000  0.0000000  1.0000000 )
                  (  0.0000000 -1.0000000  0.0000000 )
                  ( -1.0000000  0.0000000  0.0000000 )


      isym = 21     inv. 180 deg rotation - cart. axis [0,1,1]   

 cryst.   s(21) = (    -1          0          0      )
                  (    -1          1          0      )
                  (    -1          0          1      )

 cart.    s(21) = (  1.0000000  0.0000000  0.0000000 )
                  (  0.0000000  0.0000000 -1.0000000 )
                  (  0.0000000 -1.0000000  0.0000000 )


      isym = 22     inv. 180 deg rotation - cart. axis [0,1,-1]  

 cryst.   s(22) = (     1          0          0      )
                  (     0          0          1      )
                  (     0          1          0      )

 cart.    s(22) = (  1.0000000  0.0000000  0.0000000 )
                  (  0.0000000  0.0000000  1.0000000 )
                  (  0.0000000  1.0000000  0.0000000 )


      isym = 23     inv.  90 deg rotation - cart. axis [-1,0,0]  

 cryst.   s(23) = (     0          1         -1      )
                  (     0          0         -1      )
                  (     1          0         -1      )

 cart.    s(23) = ( -1.0000000  0.0000000  0.0000000 )
                  (  0.0000000  0.0000000 -1.0000000 )
                  (  0.0000000  1.0000000  0.0000000 )


      isym = 24     inv.  90 deg rotation - cart. axis [1,0,0]   

 cryst.   s(24) = (     0         -1          1      )
                  (     1         -1          0      )
                  (     0         -1          0      )

 cart.    s(24) = ( -1.0000000  0.0000000  0.0000000 )
                  (  0.0000000  0.0000000  1.0000000 )
                  (  0.0000000 -1.0000000  0.0000000 )


   Cartesian axes

     site n.     atom                  positions (alat units)
         1           Sn  tau(   1) = (   0.0000000   0.0000000   0.0000000  )
         2           Sn  tau(   2) = (   0.3535534   0.3535534   0.3535534  )

   Crystallographic axes

     site n.     atom                  positions (cryst. coord.)
         1           Sn  tau(   1) = (  0.0000000  0.0000000  0.0000000  )
         2           Sn  tau(   2) = (  0.2500000  0.2500000  0.2500000  )

     number of k points=   145  gaussian smearing, width (Ry)=  0.0001
                       cart. coord. in units 2pi/alat
        k(    1) = (   0.0000000   0.0000000   0.0000000), wk =   0.0002441
        k(    2) = (   0.0441942   0.0441942  -0.0441942), wk =   0.0019531
        k(    3) = (   0.0883883   0.0883883  -0.0883883), wk =   0.0019531
        k(    4) = (   0.1325825   0.1325825  -0.1325825), wk =   0.0019531
        k(    5) = (   0.1767767   0.1767767  -0.1767767), wk =   0.0019531
        k(    6) = (   0.2209709   0.2209709  -0.2209709), wk =   0.0019531
        k(    7) = (   0.2651650   0.2651650  -0.2651650), wk =   0.0019531
        k(    8) = (   0.3093592   0.3093592  -0.3093592), wk =   0.0019531
        k(    9) = (  -0.3535534  -0.3535534   0.3535534), wk =   0.0009766
        k(   10) = (   0.0883883   0.0000000   0.0000000), wk =   0.0014648
        k(   11) = (   0.1325825   0.0441942  -0.0441942), wk =   0.0058594
        k(   12) = (   0.1767767   0.0883883  -0.0883883), wk =   0.0058594
        k(   13) = (   0.2209709   0.1325825  -0.1325825), wk =   0.0058594
        k(   14) = (   0.2651650   0.1767767  -0.1767767), wk =   0.0058594
        k(   15) = (   0.3093592   0.2209709  -0.2209709), wk =   0.0058594
        k(   16) = (   0.3535534   0.2651650  -0.2651650), wk =   0.0058594
        k(   17) = (  -0.3093592  -0.3977476   0.3977476), wk =   0.0058594
        k(   18) = (  -0.2651650  -0.3535534   0.3535534), wk =   0.0058594
        k(   19) = (  -0.2209709  -0.3093592   0.3093592), wk =   0.0058594
        k(   20) = (  -0.1767767  -0.2651650   0.2651650), wk =   0.0058594
        k(   21) = (  -0.1325825  -0.2209709   0.2209709), wk =   0.0058594
        k(   22) = (  -0.0883883  -0.1767767   0.1767767), wk =   0.0058594
        k(   23) = (  -0.0441942  -0.1325825   0.1325825), wk =   0.0058594
        k(   24) = (   0.0000000  -0.0883883   0.0883883), wk =   0.0029297
        k(   25) = (   0.1767767   0.0000000   0.0000000), wk =   0.0014648
        k(   26) = (   0.2209709   0.0441942  -0.0441942), wk =   0.0058594
        k(   27) = (   0.2651650   0.0883883  -0.0883883), wk =   0.0058594
        k(   28) = (   0.3093592   0.1325825  -0.1325825), wk =   0.0058594
        k(   29) = (   0.3535534   0.1767767  -0.1767767), wk =   0.0058594
        k(   30) = (   0.3977476   0.2209709  -0.2209709), wk =   0.0058594
        k(   31) = (  -0.2651650  -0.4419417   0.4419417), wk =   0.0058594
        k(   32) = (  -0.2209709  -0.3977476   0.3977476), wk =   0.0058594
        k(   33) = (  -0.1767767  -0.3535534   0.3535534), wk =   0.0058594
        k(   34) = (  -0.1325825  -0.3093592   0.3093592), wk =   0.0058594
        k(   35) = (  -0.0883883  -0.2651650   0.2651650), wk =   0.0058594
        k(   36) = (  -0.0441942  -0.2209709   0.2209709), wk =   0.0058594
        k(   37) = (   0.0000000  -0.1767767   0.1767767), wk =   0.0029297
        k(   38) = (   0.2651650   0.0000000   0.0000000), wk =   0.0014648
        k(   39) = (   0.3093592   0.0441942  -0.0441942), wk =   0.0058594
        k(   40) = (   0.3535534   0.0883883  -0.0883883), wk =   0.0058594
        k(   41) = (   0.3977476   0.1325825  -0.1325825), wk =   0.0058594
        k(   42) = (   0.4419417   0.1767767  -0.1767767), wk =   0.0058594
        k(   43) = (  -0.2209709  -0.4861359   0.4861359), wk =   0.0058594
        k(   44) = (  -0.1767767  -0.4419417   0.4419417), wk =   0.0058594
        k(   45) = (  -0.1325825  -0.3977476   0.3977476), wk =   0.0058594
        k(   46) = (  -0.0883883  -0.3535534   0.3535534), wk =   0.0058594
        k(   47) = (  -0.0441942  -0.3093592   0.3093592), wk =   0.0058594
        k(   48) = (   0.0000000  -0.2651650   0.2651650), wk =   0.0029297
        k(   49) = (   0.3535534   0.0000000   0.0000000), wk =   0.0014648
        k(   50) = (   0.3977476   0.0441942  -0.0441942), wk =   0.0058594
        k(   51) = (   0.4419417   0.0883883  -0.0883883), wk =   0.0058594
        k(   52) = (   0.4861359   0.1325825  -0.1325825), wk =   0.0058594
        k(   53) = (  -0.1767767  -0.5303301   0.5303301), wk =   0.0058594
        k(   54) = (  -0.1325825  -0.4861359   0.4861359), wk =   0.0058594
        k(   55) = (  -0.0883883  -0.4419417   0.4419417), wk =   0.0058594
        k(   56) = (  -0.0441942  -0.3977476   0.3977476), wk =   0.0058594
        k(   57) = (   0.0000000  -0.3535534   0.3535534), wk =   0.0029297
        k(   58) = (   0.4419417   0.0000000   0.0000000), wk =   0.0014648
        k(   59) = (   0.4861359   0.0441942  -0.0441942), wk =   0.0058594
        k(   60) = (   0.5303301   0.0883883  -0.0883883), wk =   0.0058594
        k(   61) = (  -0.1325825  -0.5745243   0.5745243), wk =   0.0058594
        k(   62) = (  -0.0883883  -0.5303301   0.5303301), wk =   0.0058594
        k(   63) = (  -0.0441942  -0.4861359   0.4861359), wk =   0.0058594
        k(   64) = (   0.0000000  -0.4419417   0.4419417), wk =   0.0029297
        k(   65) = (   0.5303301   0.0000000   0.0000000), wk =   0.0014648
        k(   66) = (   0.5745243   0.0441942  -0.0441942), wk =   0.0058594
        k(   67) = (  -0.0883883  -0.6187184   0.6187184), wk =   0.0058594
        k(   68) = (  -0.0441942  -0.5745243   0.5745243), wk =   0.0058594
        k(   69) = (   0.0000000  -0.5303301   0.5303301), wk =   0.0029297
        k(   70) = (   0.6187184   0.0000000   0.0000000), wk =   0.0014648
        k(   71) = (  -0.0441942  -0.6629126   0.6629126), wk =   0.0058594
        k(   72) = (   0.0000000  -0.6187184   0.6187184), wk =   0.0029297
        k(   73) = (  -0.7071068   0.0000000   0.0000000), wk =   0.0007324
        k(   74) = (   0.1767767   0.0883883   0.0000000), wk =   0.0058594
        k(   75) = (   0.2209709   0.1325825  -0.0441942), wk =   0.0117188
        k(   76) = (   0.2651650   0.1767767  -0.0883883), wk =   0.0117188
        k(   77) = (   0.3093592   0.2209709  -0.1325825), wk =   0.0117188
        k(   78) = (   0.3535534   0.2651650  -0.1767767), wk =   0.0117188
        k(   79) = (  -0.3093592  -0.3977476   0.4861359), wk =   0.0117188
        k(   80) = (  -0.2651650  -0.3535534   0.4419417), wk =   0.0058594
        k(   81) = (   0.2651650   0.0883883   0.0000000), wk =   0.0058594
        k(   82) = (   0.3093592   0.1325825  -0.0441942), wk =   0.0117188
        k(   83) = (   0.3535534   0.1767767  -0.0883883), wk =   0.0117188
        k(   84) = (   0.3977476   0.2209709  -0.1325825), wk =   0.0117188
        k(   85) = (  -0.2651650  -0.4419417   0.5303301), wk =   0.0117188
        k(   86) = (  -0.2209709  -0.3977476   0.4861359), wk =   0.0117188
        k(   87) = (  -0.1767767  -0.3535534   0.4419417), wk =   0.0117188
        k(   88) = (  -0.1325825  -0.3093592   0.3977476), wk =   0.0117188
        k(   89) = (  -0.0883883  -0.2651650   0.3535534), wk =   0.0117188
        k(   90) = (  -0.0441942  -0.2209709   0.3093592), wk =   0.0117188
        k(   91) = (   0.0000000  -0.1767767   0.2651650), wk =   0.0058594
        k(   92) = (   0.3535534   0.0883883   0.0000000), wk =   0.0058594
        k(   93) = (   0.3977476   0.1325825  -0.0441942), wk =   0.0117188
        k(   94) = (   0.4419417   0.1767767  -0.0883883), wk =   0.0117188
        k(   95) = (  -0.2209709  -0.4861359   0.5745243), wk =   0.0117188
        k(   96) = (  -0.1767767  -0.4419417   0.5303301), wk =   0.0117188
        k(   97) = (  -0.1325825  -0.3977476   0.4861359), wk =   0.0117188
        k(   98) = (  -0.0883883  -0.3535534   0.4419417), wk =   0.0117188
        k(   99) = (  -0.0441942  -0.3093592   0.3977476), wk =   0.0117188
        k(  100) = (   0.0000000  -0.2651650   0.3535534), wk =   0.0058594
        k(  101) = (   0.4419417   0.0883883   0.0000000), wk =   0.0058594
        k(  102) = (   0.4861359   0.1325825  -0.0441942), wk =   0.0117188
        k(  103) = (  -0.1767767  -0.5303301   0.6187184), wk =   0.0117188
        k(  104) = (  -0.1325825  -0.4861359   0.5745243), wk =   0.0117188
        k(  105) = (  -0.0883883  -0.4419417   0.5303301), wk =   0.0117188
        k(  106) = (  -0.0441942  -0.3977476   0.4861359), wk =   0.0117188
        k(  107) = (   0.0000000  -0.3535534   0.4419417), wk =   0.0058594
        k(  108) = (   0.5303301   0.0883883   0.0000000), wk =   0.0058594
        k(  109) = (  -0.1325825  -0.5745243   0.6629126), wk =   0.0117188
        k(  110) = (  -0.0883883  -0.5303301   0.6187184), wk =   0.0117188
        k(  111) = (  -0.0441942  -0.4861359   0.5745243), wk =   0.0117188
        k(  112) = (   0.0000000  -0.4419417   0.5303301), wk =   0.0058594
        k(  113) = (  -0.0883883  -0.6187184   0.7071068), wk =   0.0058594
        k(  114) = (  -0.0441942  -0.5745243   0.6629126), wk =   0.0117188
        k(  115) = (  -0.0000000  -0.5303301   0.6187184), wk =   0.0058594
        k(  116) = (  -0.7071068   0.0883883   0.0000000), wk =   0.0029297
        k(  117) = (   0.3535534   0.1767767   0.0000000), wk =   0.0058594
        k(  118) = (   0.3977476   0.2209709  -0.0441942), wk =   0.0117188
        k(  119) = (  -0.2651650  -0.4419417   0.6187184), wk =   0.0117188
        k(  120) = (  -0.2209709  -0.3977476   0.5745243), wk =   0.0117188
        k(  121) = (  -0.1767767  -0.3535534   0.5303301), wk =   0.0058594
        k(  122) = (   0.4419417   0.1767767   0.0000000), wk =   0.0058594
        k(  123) = (  -0.2209709  -0.4861359   0.6629126), wk =   0.0117188
        k(  124) = (  -0.1767767  -0.4419417   0.6187184), wk =   0.0117188
        k(  125) = (  -0.1325825  -0.3977476   0.5745243), wk =   0.0117188
        k(  126) = (  -0.0883883  -0.3535534   0.5303301), wk =   0.0117188
        k(  127) = (  -0.0441942  -0.3093592   0.4861359), wk =   0.0117188
        k(  128) = (   0.0000000  -0.2651650   0.4419417), wk =   0.0058594
        k(  129) = (  -0.1767767  -0.5303301   0.7071068), wk =   0.0058594
        k(  130) = (  -0.1325825  -0.4861359   0.6629126), wk =   0.0117188
        k(  131) = (  -0.0883883  -0.4419417   0.6187184), wk =   0.0117188
        k(  132) = (  -0.0441942  -0.3977476   0.5745243), wk =   0.0117188
        k(  133) = (   0.0000000  -0.3535534   0.5303301), wk =   0.0058594
        k(  134) = (  -0.0883883  -0.5303301   0.7071068), wk =   0.0058594
        k(  135) = (  -0.0441942  -0.4861359   0.6629126), wk =   0.0117188
        k(  136) = (   0.0000000  -0.4419417   0.6187184), wk =   0.0058594
        k(  137) = (  -0.7071068   0.1767767   0.0000000), wk =   0.0029297
        k(  138) = (  -0.1767767  -0.4419417   0.7071068), wk =   0.0058594
        k(  139) = (  -0.1325825  -0.3977476   0.6629126), wk =   0.0117188
        k(  140) = (  -0.0883883  -0.3535534   0.6187184), wk =   0.0058594
        k(  141) = (  -0.0883883  -0.4419417   0.7071068), wk =   0.0058594
        k(  142) = (  -0.0441942  -0.3977476   0.6629126), wk =   0.0117188
        k(  143) = (  -0.0000000  -0.3535534   0.6187184), wk =   0.0058594
        k(  144) = (  -0.7071068   0.2651650   0.0000000), wk =   0.0029297
        k(  145) = (  -0.7071068   0.3535534   0.0000000), wk =   0.0014648

                       cryst. coord.
        k(    1) = (   0.0000000   0.0000000   0.0000000), wk =   0.0002441
        k(    2) = (   0.0000000   0.0000000   0.0625000), wk =   0.0019531
        k(    3) = (   0.0000000   0.0000000   0.1250000), wk =   0.0019531
        k(    4) = (   0.0000000   0.0000000   0.1875000), wk =   0.0019531
        k(    5) = (   0.0000000   0.0000000   0.2500000), wk =   0.0019531
        k(    6) = (   0.0000000   0.0000000   0.3125000), wk =   0.0019531
        k(    7) = (   0.0000000   0.0000000   0.3750000), wk =   0.0019531
        k(    8) = (   0.0000000   0.0000000   0.4375000), wk =   0.0019531
        k(    9) = (   0.0000000   0.0000000  -0.5000000), wk =   0.0009766
        k(   10) = (   0.0000000   0.0625000   0.0625000), wk =   0.0014648
        k(   11) = (   0.0000000   0.0625000   0.1250000), wk =   0.0058594
        k(   12) = (   0.0000000   0.0625000   0.1875000), wk =   0.0058594
        k(   13) = (   0.0000000   0.0625000   0.2500000), wk =   0.0058594
        k(   14) = (   0.0000000   0.0625000   0.3125000), wk =   0.0058594
        k(   15) = (   0.0000000   0.0625000   0.3750000), wk =   0.0058594
        k(   16) = (   0.0000000   0.0625000   0.4375000), wk =   0.0058594
        k(   17) = (   0.0000000   0.0625000  -0.5000000), wk =   0.0058594
        k(   18) = (   0.0000000   0.0625000  -0.4375000), wk =   0.0058594
        k(   19) = (   0.0000000   0.0625000  -0.3750000), wk =   0.0058594
        k(   20) = (   0.0000000   0.0625000  -0.3125000), wk =   0.0058594
        k(   21) = (   0.0000000   0.0625000  -0.2500000), wk =   0.0058594
        k(   22) = (   0.0000000   0.0625000  -0.1875000), wk =   0.0058594
        k(   23) = (   0.0000000   0.0625000  -0.1250000), wk =   0.0058594
        k(   24) = (   0.0000000   0.0625000  -0.0625000), wk =   0.0029297
        k(   25) = (   0.0000000   0.1250000   0.1250000), wk =   0.0014648
        k(   26) = (   0.0000000   0.1250000   0.1875000), wk =   0.0058594
        k(   27) = (   0.0000000   0.1250000   0.2500000), wk =   0.0058594
        k(   28) = (   0.0000000   0.1250000   0.3125000), wk =   0.0058594
        k(   29) = (   0.0000000   0.1250000   0.3750000), wk =   0.0058594
        k(   30) = (   0.0000000   0.1250000   0.4375000), wk =   0.0058594
        k(   31) = (   0.0000000   0.1250000  -0.5000000), wk =   0.0058594
        k(   32) = (   0.0000000   0.1250000  -0.4375000), wk =   0.0058594
        k(   33) = (   0.0000000   0.1250000  -0.3750000), wk =   0.0058594
        k(   34) = (   0.0000000   0.1250000  -0.3125000), wk =   0.0058594
        k(   35) = (   0.0000000   0.1250000  -0.2500000), wk =   0.0058594
        k(   36) = (   0.0000000   0.1250000  -0.1875000), wk =   0.0058594
        k(   37) = (   0.0000000   0.1250000  -0.1250000), wk =   0.0029297
        k(   38) = (   0.0000000   0.1875000   0.1875000), wk =   0.0014648
        k(   39) = (   0.0000000   0.1875000   0.2500000), wk =   0.0058594
        k(   40) = (   0.0000000   0.1875000   0.3125000), wk =   0.0058594
        k(   41) = (   0.0000000   0.1875000   0.3750000), wk =   0.0058594
        k(   42) = (   0.0000000   0.1875000   0.4375000), wk =   0.0058594
        k(   43) = (   0.0000000   0.1875000  -0.5000000), wk =   0.0058594
        k(   44) = (   0.0000000   0.1875000  -0.4375000), wk =   0.0058594
        k(   45) = (   0.0000000   0.1875000  -0.3750000), wk =   0.0058594
        k(   46) = (   0.0000000   0.1875000  -0.3125000), wk =   0.0058594
        k(   47) = (   0.0000000   0.1875000  -0.2500000), wk =   0.0058594
        k(   48) = (   0.0000000   0.1875000  -0.1875000), wk =   0.0029297
        k(   49) = (   0.0000000   0.2500000   0.2500000), wk =   0.0014648
        k(   50) = (   0.0000000   0.2500000   0.3125000), wk =   0.0058594
        k(   51) = (   0.0000000   0.2500000   0.3750000), wk =   0.0058594
        k(   52) = (   0.0000000   0.2500000   0.4375000), wk =   0.0058594
        k(   53) = (   0.0000000   0.2500000  -0.5000000), wk =   0.0058594
        k(   54) = (   0.0000000   0.2500000  -0.4375000), wk =   0.0058594
        k(   55) = (   0.0000000   0.2500000  -0.3750000), wk =   0.0058594
        k(   56) = (   0.0000000   0.2500000  -0.3125000), wk =   0.0058594
        k(   57) = (   0.0000000   0.2500000  -0.2500000), wk =   0.0029297
        k(   58) = (   0.0000000   0.3125000   0.3125000), wk =   0.0014648
        k(   59) = (   0.0000000   0.3125000   0.3750000), wk =   0.0058594
        k(   60) = (   0.0000000   0.3125000   0.4375000), wk =   0.0058594
        k(   61) = (   0.0000000   0.3125000  -0.5000000), wk =   0.0058594
        k(   62) = (   0.0000000   0.3125000  -0.4375000), wk =   0.0058594
        k(   63) = (   0.0000000   0.3125000  -0.3750000), wk =   0.0058594
        k(   64) = (   0.0000000   0.3125000  -0.3125000), wk =   0.0029297
        k(   65) = (   0.0000000   0.3750000   0.3750000), wk =   0.0014648
        k(   66) = (   0.0000000   0.3750000   0.4375000), wk =   0.0058594
        k(   67) = (   0.0000000   0.3750000  -0.5000000), wk =   0.0058594
        k(   68) = (   0.0000000   0.3750000  -0.4375000), wk =   0.0058594
        k(   69) = (   0.0000000   0.3750000  -0.3750000), wk =   0.0029297
        k(   70) = (   0.0000000   0.4375000   0.4375000), wk =   0.0014648
        k(   71) = (   0.0000000   0.4375000  -0.5000000), wk =   0.0058594
        k(   72) = (   0.0000000   0.4375000  -0.4375000), wk =   0.0029297
        k(   73) = (   0.0000000  -0.5000000  -0.5000000), wk =   0.0007324
        k(   74) = (   0.0625000   0.1250000   0.1875000), wk =   0.0058594
        k(   75) = (   0.0625000   0.1250000   0.2500000), wk =   0.0117188
        k(   76) = (   0.0625000   0.1250000   0.3125000), wk =   0.0117188
        k(   77) = (   0.0625000   0.1250000   0.3750000), wk =   0.0117188
        k(   78) = (   0.0625000   0.1250000   0.4375000), wk =   0.0117188
        k(   79) = (   0.0625000   0.1250000  -0.5000000), wk =   0.0117188
        k(   80) = (   0.0625000   0.1250000  -0.4375000), wk =   0.0058594
        k(   81) = (   0.0625000   0.1875000   0.2500000), wk =   0.0058594
        k(   82) = (   0.0625000   0.1875000   0.3125000), wk =   0.0117188
        k(   83) = (   0.0625000   0.1875000   0.3750000), wk =   0.0117188
        k(   84) = (   0.0625000   0.1875000   0.4375000), wk =   0.0117188
        k(   85) = (   0.0625000   0.1875000  -0.5000000), wk =   0.0117188
        k(   86) = (   0.0625000   0.1875000  -0.4375000), wk =   0.0117188
        k(   87) = (   0.0625000   0.1875000  -0.3750000), wk =   0.0117188
        k(   88) = (   0.0625000   0.1875000  -0.3125000), wk =   0.0117188
        k(   89) = (   0.0625000   0.1875000  -0.2500000), wk =   0.0117188
        k(   90) = (   0.0625000   0.1875000  -0.1875000), wk =   0.0117188
        k(   91) = (   0.0625000   0.1875000  -0.1250000), wk =   0.0058594
        k(   92) = (   0.0625000   0.2500000   0.3125000), wk =   0.0058594
        k(   93) = (   0.0625000   0.2500000   0.3750000), wk =   0.0117188
        k(   94) = (   0.0625000   0.2500000   0.4375000), wk =   0.0117188
        k(   95) = (   0.0625000   0.2500000  -0.5000000), wk =   0.0117188
        k(   96) = (   0.0625000   0.2500000  -0.4375000), wk =   0.0117188
        k(   97) = (   0.0625000   0.2500000  -0.3750000), wk =   0.0117188
        k(   98) = (   0.0625000   0.2500000  -0.3125000), wk =   0.0117188
        k(   99) = (   0.0625000   0.2500000  -0.2500000), wk =   0.0117188
        k(  100) = (   0.0625000   0.2500000  -0.1875000), wk =   0.0058594
        k(  101) = (   0.0625000   0.3125000   0.3750000), wk =   0.0058594
        k(  102) = (   0.0625000   0.3125000   0.4375000), wk =   0.0117188
        k(  103) = (   0.0625000   0.3125000  -0.5000000), wk =   0.0117188
        k(  104) = (   0.0625000   0.3125000  -0.4375000), wk =   0.0117188
        k(  105) = (   0.0625000   0.3125000  -0.3750000), wk =   0.0117188
        k(  106) = (   0.0625000   0.3125000  -0.3125000), wk =   0.0117188
        k(  107) = (   0.0625000   0.3125000  -0.2500000), wk =   0.0058594
        k(  108) = (   0.0625000   0.3750000   0.4375000), wk =   0.0058594
        k(  109) = (   0.0625000   0.3750000  -0.5000000), wk =   0.0117188
        k(  110) = (   0.0625000   0.3750000  -0.4375000), wk =   0.0117188
        k(  111) = (   0.0625000   0.3750000  -0.3750000), wk =   0.0117188
        k(  112) = (   0.0625000   0.3750000  -0.3125000), wk =   0.0058594
        k(  113) = (   0.0625000   0.4375000  -0.5000000), wk =   0.0058594
        k(  114) = (   0.0625000   0.4375000  -0.4375000), wk =   0.0117188
        k(  115) = (   0.0625000   0.4375000  -0.3750000), wk =   0.0058594
        k(  116) = (   0.0625000  -0.5000000  -0.4375000), wk =   0.0029297
        k(  117) = (   0.1250000   0.2500000   0.3750000), wk =   0.0058594
        k(  118) = (   0.1250000   0.2500000   0.4375000), wk =   0.0117188
        k(  119) = (   0.1250000   0.2500000  -0.5000000), wk =   0.0117188
        k(  120) = (   0.1250000   0.2500000  -0.4375000), wk =   0.0117188
        k(  121) = (   0.1250000   0.2500000  -0.3750000), wk =   0.0058594
        k(  122) = (   0.1250000   0.3125000   0.4375000), wk =   0.0058594
        k(  123) = (   0.1250000   0.3125000  -0.5000000), wk =   0.0117188
        k(  124) = (   0.1250000   0.3125000  -0.4375000), wk =   0.0117188
        k(  125) = (   0.1250000   0.3125000  -0.3750000), wk =   0.0117188
        k(  126) = (   0.1250000   0.3125000  -0.3125000), wk =   0.0117188
        k(  127) = (   0.1250000   0.3125000  -0.2500000), wk =   0.0117188
        k(  128) = (   0.1250000   0.3125000  -0.1875000), wk =   0.0058594
        k(  129) = (   0.1250000   0.3750000  -0.5000000), wk =   0.0058594
        k(  130) = (   0.1250000   0.3750000  -0.4375000), wk =   0.0117188
        k(  131) = (   0.1250000   0.3750000  -0.3750000), wk =   0.0117188
        k(  132) = (   0.1250000   0.3750000  -0.3125000), wk =   0.0117188
        k(  133) = (   0.1250000   0.3750000  -0.2500000), wk =   0.0058594
        k(  134) = (   0.1250000   0.4375000  -0.4375000), wk =   0.0058594
        k(  135) = (   0.1250000   0.4375000  -0.3750000), wk =   0.0117188
        k(  136) = (   0.1250000   0.4375000  -0.3125000), wk =   0.0058594
        k(  137) = (   0.1250000  -0.5000000  -0.3750000), wk =   0.0029297
        k(  138) = (   0.1875000   0.3750000  -0.4375000), wk =   0.0058594
        k(  139) = (   0.1875000   0.3750000  -0.3750000), wk =   0.0117188
        k(  140) = (   0.1875000   0.3750000  -0.3125000), wk =   0.0058594
        k(  141) = (   0.1875000   0.4375000  -0.3750000), wk =   0.0058594
        k(  142) = (   0.1875000   0.4375000  -0.3125000), wk =   0.0117188
        k(  143) = (   0.1875000   0.4375000  -0.2500000), wk =   0.0058594
        k(  144) = (   0.1875000  -0.5000000  -0.3125000), wk =   0.0029297
        k(  145) = (   0.2500000  -0.5000000  -0.2500000), wk =   0.0014648

     Dense  grid:    23973 G-vectors     FFT dimensions: (  45,  45,  45)

     Largest allocated arrays     est. size (Mb)     dimensions
        Kohn-Sham Wavefunctions         0.21 Mb     (     382,   36)
        NL pseudopotentials             0.10 Mb     (     191,   36)
        Each V/rho on FFT grid          0.09 Mb     (    6075)
        Each G-vector array             0.01 Mb     (    1498)
        G-vector shells                 0.00 Mb     (     257)
     Largest temporary arrays     est. size (Mb)     dimensions
        Auxiliary wavefunctions         0.84 Mb     (     382,  144)
        Each subspace H/S matrix        0.32 Mb     (     144,  144)
        Each <psi_i|beta_j> matrix      0.04 Mb     (      36,   2,   36)
        Arrays for rho mixing           0.74 Mb     (    6075,    8)

     Check: negative/imaginary core charge=   -0.000006    0.000000

     Initial potential from superposition of free atoms

     starting charge   27.99723, renormalised to   28.00000
     Starting wfc are   36 randomized atomic wfcs
     Checking if some PAW data can be deallocated... 

     total cpu time spent up to now is        6.5 secs

     Self-consistent Calculation

     iteration #  1     ecut=    50.00 Ry     beta=0.70
     Davidson diagonalization with overlap
     ethr =  1.00E-02,  avg # of iterations =  3.4

     Threshold (ethr) on eigenvalues was too large:
     Diagonalizing with lowered threshold

     Davidson diagonalization with overlap
     ethr =  6.67E-05,  avg # of iterations =  3.3

     total cpu time spent up to now is       48.6 secs

     total energy              =    -884.10186716 Ry
     Harris-Foulkes estimate   =    -884.10522682 Ry
     estimated scf accuracy    <       0.02250578 Ry

     iteration #  2     ecut=    50.00 Ry     beta=0.70
     Davidson diagonalization with overlap
     ethr =  8.04E-05,  avg # of iterations =  1.0

     total cpu time spent up to now is       64.3 secs

     total energy              =    -884.10272783 Ry
     Harris-Foulkes estimate   =    -884.10281211 Ry
     estimated scf accuracy    <       0.00162355 Ry

     iteration #  3     ecut=    50.00 Ry     beta=0.70
     Davidson diagonalization with overlap
     ethr =  5.80E-06,  avg # of iterations =  2.6

     total cpu time spent up to now is       87.1 secs

     total energy              =    -884.10300209 Ry
     Harris-Foulkes estimate   =    -884.10304016 Ry
     estimated scf accuracy    <       0.00008085 Ry

     iteration #  4     ecut=    50.00 Ry     beta=0.70
     Davidson diagonalization with overlap
     ethr =  2.89E-07,  avg # of iterations =  2.0

     total cpu time spent up to now is      109.1 secs

     total energy              =    -884.10302627 Ry
     Harris-Foulkes estimate   =    -884.10302395 Ry
     estimated scf accuracy    <       0.00000428 Ry

     iteration #  5     ecut=    50.00 Ry     beta=0.70
     Davidson diagonalization with overlap
     ethr =  1.53E-08,  avg # of iterations =  2.0

     total cpu time spent up to now is      126.9 secs

     End of self-consistent calculation

          k = 0.0000 0.0000 0.0000 (  2975 PWs)   bands (ev):

   -14.6575 -14.6575 -14.6575 -14.6575 -14.6575 -14.6575 -14.6094 -14.6094
   -14.6094 -14.6094 -14.3605 -14.3605 -14.3605 -14.3605 -14.3601 -14.3601
   -14.3601 -14.3601 -14.3601 -14.3601  -3.1849  -3.1849   5.7022   5.7022
     6.9838   6.9838   6.9838   6.9838   6.9838   6.9838   9.0491   9.0491
     9.0491   9.0491   9.0491   9.0491

     occupation numbers 
     1.0000   1.0000   1.0000   1.0000   1.0000   1.0000   1.0000   1.0000
     1.0000   1.0000   1.0000   1.0000   1.0000   1.0000   1.0000   1.0000
     1.0000   1.0000   1.0000   1.0000   1.0000   1.0000   1.0000   1.0000
     0.0000   0.0000   0.0000   0.0000   0.0000   0.0000   0.0000   0.0000
     0.0000   0.0000   0.0000   0.0000

          k = 0.0442 0.0442-0.0442 (  2972 PWs)   bands (ev):

   -14.6601 -14.6601 -14.6601 -14.6601 -14.6566 -14.6566 -14.6060 -14.6060
   -14.6060 -14.6060 -14.3710 -14.3710 -14.3710 -14.3710 -14.3611 -14.3611
   -14.3501 -14.3501 -14.3501 -14.3501  -3.1502  -3.1502   5.3077   5.3077
     6.9114   6.9114   6.9114   6.9114   7.1656   7.1656   9.1438   9.1438
     9.1438   9.1438   9.1780   9.1780

     occupation numbers 
     1.0000   1.0000   1.0000   1.0000   1.0000   1.0000   1.0000   1.0000
     1.0000   1.0000   1.0000   1.0000   1.0000   1.0000   1.0000   1.0000
     1.0000   1.0000   1.0000   1.0000   1.0000   1.0000   1.0000   1.0000
     0.0235   0.0235   0.0235   0.0235   0.0000   0.0000   0.0000   0.0000
     0.0000   0.0000   0.0000   0.0000

          k = 0.0884 0.0884-0.0884 (  2981 PWs)   bands (ev):

   -14.6659 -14.6659 -14.6659 -14.6659 -14.6542 -14.6542 -14.5977 -14.5977
   -14.5977 -14.5977 -14.3816 -14.3816 -14.3816 -14.3816 -14.3639 -14.3639
   -14.3410 -14.3410 -14.3410 -14.3410  -3.0467  -3.0467   4.5474   4.5474
     6.7340   6.7340   6.7340   6.7340   7.2955   7.2955   9.3779   9.3779
     9.3779   9.3779   9.6100   9.6100

     occupation numbers 
     1.0000   1.0000   1.0000   1.0000   1.0000   1.0000   1.0000   1.0000
     1.0000   1.0000   1.0000   1.0000   1.0000   1.0000   1.0000   1.0000
     1.0000   1.0000   1.0000   1.0000   1.0000   1.0000   1.0000   1.0000
     1.0000   1.0000   1.0000   1.0000   0.0000   0.0000   0.0000   0.0000
     0.0000   0.0000   0.0000   0.0000

          k = 0.1326 0.1326-0.1326 (  2957 PWs)   bands (ev):

   -14.6722 -14.6722 -14.6722 -14.6722 -14.6506 -14.6506 -14.5876 -14.5876
   -14.5876 -14.5876 -14.3915 -14.3915 -14.3915 -14.3915 -14.3681 -14.3681
   -14.3333 -14.3333 -14.3333 -14.3333  -2.8775  -2.8775   3.7181   3.7181
     6.5194   6.5194   6.5194   6.5194   7.2323   7.2323   9.6532   9.6532
     9.6532   9.6532  10.2899  10.2899

     occupation numbers 
     1.0000   1.0000   1.0000   1.0000   1.0000   1.0000   1.0000   1.0000
     1.0000   1.0000   1.0000   1.0000   1.0000   1.0000   1.0000   1.0000
     1.0000   1.0000   1.0000   1.0000   1.0000   1.0000   1.0000   1.0000
     1.0000   1.0000   1.0000   1.0000   0.0000   0.0000   0.0000   0.0000
     0.0000   0.0000   0.0000   0.0000

          k = 0.1768 0.1768-0.1768 (  2971 PWs)   bands (ev):

   -14.6777 -14.6777 -14.6777 -14.6777 -14.6463 -14.6463 -14.5782 -14.5782
   -14.5782 -14.5782 -14.4000 -14.4000 -14.4000 -14.4000 -14.3733 -14.3733
   -14.3271 -14.3271 -14.3271 -14.3271  -2.6488  -2.6488   2.9068   2.9068
     6.3128   6.3128   6.3128   6.3128   7.0926   7.0926   9.8839   9.8839
     9.8839   9.8839  11.0984  11.0984

     occupation numbers 
     1.0000   1.0000   1.0000   1.0000   1.0000   1.0000   1.0000   1.0000
     1.0000   1.0000   1.0000   1.0000   1.0000   1.0000   1.0000   1.0000
     1.0000   1.0000   1.0000   1.0000   1.0000   1.0000   1.0000   1.0000
     1.0000   1.0000   1.0000   1.0000   0.0000   0.0000   0.0000   0.0000
     0.0000   0.0000   0.0000   0.0000

          k = 0.2210 0.2210-0.2210 (  2980 PWs)   bands (ev):

   -14.6818 -14.6818 -14.6818 -14.6818 -14.6418 -14.6418 -14.5706 -14.5706
   -14.5706 -14.5706 -14.4065 -14.4065 -14.4065 -14.4065 -14.3785 -14.3785
   -14.3226 -14.3226 -14.3226 -14.3226  -2.3739  -2.3739   2.1589   2.1589
     6.1380   6.1380   6.1380   6.1380   6.9509   6.9509  10.0238  10.0238
    10.0238  10.0238  11.9628  11.9628

     occupation numbers 
     1.0000   1.0000   1.0000   1.0000   1.0000   1.0000   1.0000   1.0000
     1.0000   1.0000   1.0000   1.0000   1.0000   1.0000   1.0000   1.0000
     1.0000   1.0000   1.0000   1.0000   1.0000   1.0000   1.0000   1.0000
     1.0000   1.0000   1.0000   1.0000   0.0000   0.0000   0.0000   0.0000
     0.0000   0.0000   0.0000   0.0000

          k = 0.2652 0.2652-0.2652 (  2980 PWs)   bands (ev):

   -14.6845 -14.6845 -14.6845 -14.6845 -14.6380 -14.6380 -14.5651 -14.5651
   -14.5651 -14.5651 -14.4109 -14.4109 -14.4109 -14.4109 -14.3831 -14.3831
   -14.3195 -14.3195 -14.3195 -14.3195  -2.0806  -2.0806   1.5191   1.5191
     6.0073   6.0073   6.0073   6.0073   6.8383   6.8383  10.0810  10.0810
    10.0810  10.0810  12.6249  12.6249

     occupation numbers 
     1.0000   1.0000   1.0000   1.0000   1.0000   1.0000   1.0000   1.0000
     1.0000   1.0000   1.0000   1.0000   1.0000   1.0000   1.0000   1.0000
     1.0000   1.0000   1.0000   1.0000   1.0000   1.0000   1.0000   1.0000
     1.0000   1.0000   1.0000   1.0000   1.0000   1.0000   0.0000   0.0000
     0.0000   0.0000   0.0000   0.0000

          k = 0.3094 0.3094-0.3094 (  2983 PWs)   bands (ev):

   -14.6861 -14.6861 -14.6861 -14.6861 -14.6354 -14.6354 -14.5621 -14.5621
   -14.5621 -14.5621 -14.4133 -14.4133 -14.4133 -14.4133 -14.3862 -14.3862
   -14.3178 -14.3178 -14.3178 -14.3178  -1.8292  -1.8292   1.0566   1.0566
     5.9269   5.9269   5.9269   5.9269   6.7675   6.7675  10.0936  10.0936
    10.0936  10.0936  12.6495  12.6495

     occupation numbers 
     1.0000   1.0000   1.0000   1.0000   1.0000   1.0000   1.0000   1.0000
     1.0000   1.0000   1.0000   1.0000   1.0000   1.0000   1.0000   1.0000
     1.0000   1.0000   1.0000   1.0000   1.0000   1.0000   1.0000   1.0000
     1.0000   1.0000   1.0000   1.0000   1.0000   1.0000   0.0000   0.0000
     0.0000   0.0000   0.0000   0.0000

          k =-0.3536-0.3536 0.3536 (  2998 PWs)   bands (ev):

   -14.6866 -14.6866 -14.6866 -14.6866 -14.6343 -14.6343 -14.5611 -14.5611
   -14.5611 -14.5611 -14.4141 -14.4141 -14.4141 -14.4141 -14.3874 -14.3874
   -14.3172 -14.3172 -14.3172 -14.3172  -1.7229  -1.7229   0.8795   0.8795
     5.8998   5.8998   5.8998   5.8998   6.7434   6.7434  10.0939  10.0939
    10.0939  10.0939  12.6243  12.6243

     occupation numbers 
     1.0000   1.0000   1.0000   1.0000   1.0000   1.0000   1.0000   1.0000
     1.0000   1.0000   1.0000   1.0000   1.0000   1.0000   1.0000   1.0000
     1.0000   1.0000   1.0000   1.0000   1.0000   1.0000   1.0000   1.0000
     1.0000   1.0000   1.0000   1.0000   1.0000   1.0000   0.0000   0.0000
     0.0000   0.0000   0.0000   0.0000

          k = 0.0884 0.0000 0.0000 (  2971 PWs)   bands (ev):

   -14.6596 -14.6596 -14.6593 -14.6593 -14.6593 -14.6593 -14.6070 -14.6070
   -14.6024 -14.6024 -14.3801 -14.3801 -14.3628 -14.3628 -14.3577 -14.3577
   -14.3577 -14.3577 -14.3460 -14.3460  -3.1385  -3.1385   5.2277   5.2277
     6.7788   6.7788   6.7788   6.7788   7.4390   7.4390   8.9041   8.9041
     9.3136   9.3136   9.3136   9.3136

     occupation numbers 
     1.0000   1.0000   1.0000   1.0000   1.0000   1.0000   1.0000   1.0000
     1.0000   1.0000   1.0000   1.0000   1.0000   1.0000   1.0000   1.0000
     1.0000   1.0000   1.0000   1.0000   1.0000   1.0000   1.0000   1.0000
     1.0000   1.0000   1.0000   1.0000   0.0000   0.0000   0.0000   0.0000
     0.0000   0.0000   0.0000   0.0000

          k = 0.1326 0.0442-0.0442 (  2982 PWs)   bands (ev):

   -14.6658 -14.6658 -14.6630 -14.6630 -14.6571 -14.6571 -14.6018 -14.6018
   -14.5938 -14.5938 -14.3915 -14.3915 -14.3716 -14.3716 -14.3579 -14.3579
   -14.3492 -14.3492 -14.3391 -14.3391  -3.0578  -3.0578   4.6640   4.6640
     6.5710   6.5710   6.6022   6.6022   7.6917   7.6917   8.9029   8.9029
     9.5964   9.5964   9.6700   9.6700

     occupation numbers 
     1.0000   1.0000   1.0000   1.0000   1.0000   1.0000   1.0000   1.0000
     1.0000   1.0000   1.0000   1.0000   1.0000   1.0000   1.0000   1.0000
     1.0000   1.0000   1.0000   1.0000   1.0000   1.0000   1.0000   1.0000
     1.0000   1.0000   1.0000   1.0000   0.0000   0.0000   0.0000   0.0000
     0.0000   0.0000   0.0000   0.0000

          k = 0.1768 0.0884-0.0884 (  2973 PWs)   bands (ev):

   -14.6730 -14.6730 -14.6688 -14.6688 -14.6530 -14.6530 -14.5932 -14.5932
   -14.5833 -14.5833 -14.4022 -14.4022 -14.3818 -14.3818 -14.3618 -14.3618
   -14.3404 -14.3404 -14.3312 -14.3312  -2.9100  -2.9100   3.9107   3.9107
     6.3488   6.3488   6.3849   6.3849   7.7102   7.7102   9.1297   9.1297
     9.9021   9.9021  10.2213  10.2213

     occupation numbers 
     1.0000   1.0000   1.0000   1.0000   1.0000   1.0000   1.0000   1.0000
     1.0000   1.0000   1.0000   1.0000   1.0000   1.0000   1.0000   1.0000
     1.0000   1.0000   1.0000   1.0000   1.0000   1.0000   1.0000   1.0000
     1.0000   1.0000   1.0000   1.0000   0.0000   0.0000   0.0000   0.0000
     0.0000   0.0000   0.0000   0.0000

          k = 0.2210 0.1326-0.1326 (  2967 PWs)   bands (ev):

   -14.6796 -14.6796 -14.6745 -14.6745 -14.6477 -14.6477 -14.5838 -14.5838
   -14.5732 -14.5732 -14.4112 -14.4112 -14.3911 -14.3911 -14.3680 -14.3680
   -14.3328 -14.3328 -14.3243 -14.3243  -2.7002  -2.7002   3.1228   3.1228
     6.1444   6.1444   6.1485   6.1485   7.5955   7.5955   9.4422   9.4422
    10.1497  10.1497  10.8658  10.8658

     occupation numbers 
     1.0000   1.0000   1.0000   1.0000   1.0000   1.0000   1.0000   1.0000
     1.0000   1.0000   1.0000   1.0000   1.0000   1.0000   1.0000   1.0000
     1.0000   1.0000   1.0000   1.0000   1.0000   1.0000   1.0000   1.0000
     1.0000   1.0000   1.0000   1.0000   0.0000   0.0000   0.0000   0.0000
     0.0000   0.0000   0.0000   0.0000

          k = 0.2652 0.1768-0.1768 (  2973 PWs)   bands (ev):

   -14.6848 -14.6848 -14.6793 -14.6793 -14.6417 -14.6417 -14.5752 -14.5752
   -14.5650 -14.5650 -14.4176 -14.4176 -14.3993 -14.3993 -14.3751 -14.3751
   -14.3268 -14.3268 -14.3188 -14.3188  -2.4385  -2.4385   2.3693   2.3693
     5.9192   5.9192   5.9894   5.9894   7.4503   7.4503   9.7030   9.7030
    10.2882  10.2882  11.5443  11.5443

     occupation numbers 
     1.0000   1.0000   1.0000   1.0000   1.0000   1.0000   1.0000   1.0000
     1.0000   1.0000   1.0000   1.0000   1.0000   1.0000   1.0000   1.0000
     1.0000   1.0000   1.0000   1.0000   1.0000   1.0000   1.0000   1.0000
     1.0000   1.0000   1.0000   1.0000   0.0000   0.0000   0.0000   0.0000
     0.0000   0.0000   0.0000   0.0000

          k = 0.3094 0.2210-0.2210 (  2980 PWs)   bands (ev):

   -14.6884 -14.6884 -14.6830 -14.6830 -14.6360 -14.6360 -14.5682 -14.5682
   -14.5597 -14.5597 -14.4208 -14.4208 -14.4061 -14.4061 -14.3822 -14.3822
   -14.3221 -14.3221 -14.3150 -14.3150  -2.1465  -2.1465   1.6990   1.6990
     5.7309   5.7309   5.8810   5.8810   7.3209   7.3209   9.8624   9.8624
    10.3202  10.3202  12.2131  12.2131

     occupation numbers 
     1.0000   1.0000   1.0000   1.0000   1.0000   1.0000   1.0000   1.0000
     1.0000   1.0000   1.0000   1.0000   1.0000   1.0000   1.0000   1.0000
     1.0000   1.0000   1.0000   1.0000   1.0000   1.0000   1.0000   1.0000
     1.0000   1.0000   1.0000   1.0000   0.0000   0.0000   0.0000   0.0000
     0.0000   0.0000   0.0000   0.0000

          k = 0.3536 0.2652-0.2652 (  2997 PWs)   bands (ev):

   -14.6905 -14.6905 -14.6856 -14.6856 -14.6315 -14.6315 -14.5627 -14.5627
   -14.5577 -14.5577 -14.4207 -14.4207 -14.4116 -14.4116 -14.3883 -14.3883
   -14.3187 -14.3187 -14.3130 -14.3130  -1.8709  -1.8709   1.1731   1.1731
     5.5904   5.5904   5.8280   5.8280   7.2265   7.2265   9.9494   9.9494
    10.2871  10.2871  12.6449  12.6449

     occupation numbers 
     1.0000   1.0000   1.0000   1.0000   1.0000   1.0000   1.0000   1.0000
     1.0000   1.0000   1.0000   1.0000   1.0000   1.0000   1.0000   1.0000
     1.0000   1.0000   1.0000   1.0000   1.0000   1.0000   1.0000   1.0000
     1.0000   1.0000   1.0000   1.0000   0.0000   0.0000   0.0000   0.0000
     0.0000   0.0000   0.0000   0.0000

          k =-0.3094-0.3977 0.3977 (  2980 PWs)   bands (ev):

   -14.6910 -14.6910 -14.6872 -14.6872 -14.6290 -14.6290 -14.5590 -14.5590
   -14.5583 -14.5583 -14.4180 -14.4180 -14.4158 -14.4158 -14.3920 -14.3920
   -14.3164 -14.3164 -14.3126 -14.3126  -1.7031  -1.7031   0.8903   0.8903
     5.5037   5.5037   5.8316   5.8316   7.1757   7.1757  10.0103  10.0103
    10.2295  10.2295  12.7383  12.7383

     occupation numbers 
     1.0000   1.0000   1.0000   1.0000   1.0000   1.0000   1.0000   1.0000
     1.0000   1.0000   1.0000   1.0000   1.0000   1.0000   1.0000   1.0000
     1.0000   1.0000   1.0000   1.0000   1.0000   1.0000   1.0000   1.0000
     1.0000   1.0000   1.0000   1.0000   0.0000   0.0000   0.0000   0.0000
     0.0000   0.0000   0.0000   0.0000

          k =-0.2652-0.3536 0.3536 (  2981 PWs)   bands (ev):

   -14.6902 -14.6902 -14.6879 -14.6879 -14.6291 -14.6291 -14.5609 -14.5609
   -14.5572 -14.5572 -14.4184 -14.4184 -14.4141 -14.4141 -14.3925 -14.3925
   -14.3153 -14.3153 -14.3139 -14.3139  -1.7401  -1.7401   0.9506   0.9506
     5.4745   5.4745   5.8911   5.8911   7.1713   7.1713  10.0701  10.0701
    10.1671  10.1671  12.7512  12.7512

     occupation numbers 
     1.0000   1.0000   1.0000   1.0000   1.0000   1.0000   1.0000   1.0000
     1.0000   1.0000   1.0000   1.0000   1.0000   1.0000   1.0000   1.0000
     1.0000   1.0000   1.0000   1.0000   1.0000   1.0000   1.0000   1.0000
     1.0000   1.0000   1.0000   1.0000   0.0000   0.0000   0.0000   0.0000
     0.0000   0.0000   0.0000   0.0000

          k =-0.2210-0.3094 0.3094 (  2983 PWs)   bands (ev):

   -14.6879 -14.6879 -14.6874 -14.6874 -14.6318 -14.6318 -14.5651 -14.5651
   -14.5579 -14.5579 -14.4190 -14.4190 -14.4100 -14.4100 -14.3889 -14.3889
   -14.3169 -14.3169 -14.3156 -14.3156  -1.9569  -1.9569   1.3283   1.3283
     5.5050   5.5050   6.0031   6.0031   7.2130   7.2130  10.0963  10.0964
    10.1257  10.1257  12.6378  12.6378

     occupation numbers 
     1.0000   1.0000   1.0000   1.0000   1.0000   1.0000   1.0000   1.0000
     1.0000   1.0000   1.0000   1.0000   1.0000   1.0000   1.0000   1.0000
     1.0000   1.0000   1.0000   1.0000   1.0000   1.0000   1.0000   1.0000
     1.0000   1.0000   1.0000   1.0000   0.0000   0.0000   0.0000   0.0000
     0.0000   0.0000   0.0000   0.0000

          k =-0.1768-0.2652 0.2652 (  2975 PWs)   bands (ev):

   -14.6857 -14.6857 -14.6844 -14.6844 -14.6364 -14.6364 -14.5708 -14.5708
   -14.5616 -14.5616 -14.4168 -14.4168 -14.4057 -14.4057 -14.3822 -14.3822
   -14.3214 -14.3214 -14.3173 -14.3173  -2.2457  -2.2457   1.9110   1.9110
     5.5966   5.5966   6.1620   6.1620   7.2962   7.2962   9.9927   9.9927
    10.1430  10.1430  12.0670  12.0670

     occupation numbers 
     1.0000   1.0000   1.0000   1.0000   1.0000   1.0000   1.0000   1.0000
     1.0000   1.0000   1.0000   1.0000   1.0000   1.0000   1.0000   1.0000
     1.0000   1.0000   1.0000   1.0000   1.0000   1.0000   1.0000   1.0000
     1.0000   1.0000   1.0000   1.0000   0.0000   0.0000   0.0000   0.0000
     0.0000   0.0000   0.0000   0.0000

          k =-0.1326-0.2210 0.2210 (  2974 PWs)   bands (ev):

   -14.6825 -14.6825 -14.6795 -14.6795 -14.6422 -14.6422 -14.5779 -14.5779
   -14.5685 -14.5685 -14.4115 -14.4115 -14.4001 -14.4001 -14.3742 -14.3742
   -14.3276 -14.3276 -14.3206 -14.3206  -2.5310  -2.5310   2.6136   2.6136
     5.7500   5.7500   6.3579   6.3579   7.4089   7.4089   9.8251   9.8251
    10.0547  10.0547  11.3374  11.3374

     occupation numbers 
     1.0000   1.0000   1.0000   1.0000   1.0000   1.0000   1.0000   1.0000
     1.0000   1.0000   1.0000   1.0000   1.0000   1.0000   1.0000   1.0000
     1.0000   1.0000   1.0000   1.0000   1.0000   1.0000   1.0000   1.0000
     1.0000   1.0000   1.0000   1.0000   0.0000   0.0000   0.0000   0.0000
     0.0000   0.0000   0.0000   0.0000

          k =-0.0884-0.1768 0.1768 (  2973 PWs)   bands (ev):

   -14.6777 -14.6777 -14.6734 -14.6734 -14.6481 -14.6481 -14.5864 -14.5864
   -14.5779 -14.5779 -14.4035 -14.4035 -14.3929 -14.3929 -14.3662 -14.3662
   -14.3353 -14.3353 -14.3257 -14.3257  -2.7770  -2.7770   3.3811   3.3811
     5.9648   5.9648   6.5732   6.5732   7.5218   7.5218   9.5892   9.5892
     9.7988   9.7988  10.6831  10.6831

     occupation numbers 
     1.0000   1.0000   1.0000   1.0000   1.0000   1.0000   1.0000   1.0000
     1.0000   1.0000   1.0000   1.0000   1.0000   1.0000   1.0000   1.0000
     1.0000   1.0000   1.0000   1.0000   1.0000   1.0000   1.0000   1.0000
     1.0000   1.0000   1.0000   1.0000   0.0000   0.0000   0.0000   0.0000
     0.0000   0.0000   0.0000   0.0000

          k =-0.0442-0.1326 0.1326 (  2979 PWs)   bands (ev):

   -14.6716 -14.6716 -14.6668 -14.6668 -14.6532 -14.6532 -14.5953 -14.5953
   -14.5887 -14.5887 -14.3935 -14.3935 -14.3844 -14.3844 -14.3592 -14.3592
   -14.3444 -14.3444 -14.3325 -14.3325  -2.9668  -2.9668   4.1600   4.1600
     6.2402   6.2402   6.7753   6.7753   7.5655   7.5655   9.3352   9.3352
     9.4423   9.4423  10.1121  10.1121

     occupation numbers 
     1.0000   1.0000   1.0000   1.0000   1.0000   1.0000   1.0000   1.0000
     1.0000   1.0000   1.0000   1.0000   1.0000   1.0000   1.0000   1.0000
     1.0000   1.0000   1.0000   1.0000   1.0000   1.0000   1.0000   1.0000
     1.0000   1.0000   1.0000   1.0000   0.0000   0.0000   0.0000   0.0000
     0.0000   0.0000   0.0000   0.0000

          k = 0.0000-0.0884 0.0884 (  3004 PWs)   bands (ev):

   -14.6651 -14.6651 -14.6612 -14.6612 -14.6564 -14.6564 -14.6029 -14.6029
   -14.5990 -14.5990 -14.3823 -14.3823 -14.3755 -14.3755 -14.3551 -14.3551
   -14.3534 -14.3534 -14.3408 -14.3408  -3.0924  -3.0924   4.8626   4.8626
     6.5750   6.5750   6.9087   6.9087   7.4258   7.4258   9.1563   9.1563
     9.1949   9.1949   9.5902   9.5902

     occupation numbers 
     1.0000   1.0000   1.0000   1.0000   1.0000   1.0000   1.0000   1.0000
     1.0000   1.0000   1.0000   1.0000   1.0000   1.0000   1.0000   1.0000
     1.0000   1.0000   1.0000   1.0000   1.0000   1.0000   1.0000   1.0000
     1.0000   1.0000   0.8020   0.8020   0.0000   0.0000   0.0000   0.0000
     0.0000   0.0000   0.0000   0.0000

          k = 0.1768 0.0000 0.0000 (  2970 PWs)   bands (ev):

   -14.6644 -14.6644 -14.6644 -14.6644 -14.6628 -14.6628 -14.5998 -14.5998
   -14.5848 -14.5848 -14.4047 -14.4047 -14.3697 -14.3697 -14.3506 -14.3506
   -14.3506 -14.3506 -14.3380 -14.3380  -2.9996  -2.9996   4.4145   4.4145
     6.3487   6.3487   6.3487   6.3487   8.1599   8.1599   8.5835   8.5835
     9.9202   9.9202   9.9202   9.9202

     occupation numbers 
     1.0000   1.0000   1.0000   1.0000   1.0000   1.0000   1.0000   1.0000
     1.0000   1.0000   1.0000   1.0000   1.0000   1.0000   1.0000   1.0000
     1.0000   1.0000   1.0000   1.0000   1.0000   1.0000   1.0000   1.0000
     1.0000   1.0000   1.0000   1.0000   0.0000   0.0000   0.0000   0.0000
     0.0000   0.0000   0.0000   0.0000

          k = 0.2210 0.0442-0.0442 (  2960 PWs)   bands (ev):

   -14.6721 -14.6721 -14.6687 -14.6687 -14.6585 -14.6585 -14.5931 -14.5931
   -14.5736 -14.5736 -14.4176 -14.4176 -14.3774 -14.3774 -14.3511 -14.3511
   -14.3436 -14.3436 -14.3324 -14.3324  -2.8737  -2.8737   3.8715   3.8715
     6.1056   6.1056   6.1215   6.1215   8.3427   8.3427   8.5784   8.5784
    10.2666  10.2666  10.3483  10.3484

     occupation numbers 
     1.0000   1.0000   1.0000   1.0000   1.0000   1.0000   1.0000   1.0000
     1.0000   1.0000   1.0000   1.0000   1.0000   1.0000   1.0000   1.0000
     1.0000   1.0000   1.0000   1.0000   1.0000   1.0000   1.0000   1.0000
     1.0000   1.0000   1.0000   1.0000   0.0000   0.0000   0.0000   0.0000
     0.0000   0.0000   0.0000   0.0000

          k = 0.2652 0.0884-0.0884 (  2968 PWs)   bands (ev):

   -14.6804 -14.6804 -14.6740 -14.6740 -14.6514 -14.6514 -14.5843 -14.5843
   -14.5626 -14.5626 -14.4286 -14.4286 -14.3871 -14.3871 -14.3581 -14.3581
   -14.3356 -14.3356 -14.3240 -14.3240  -2.6838  -2.6838   3.1957   3.1957
     5.8252   5.8252   5.9223   5.9223   8.2693   8.2693   8.8720   8.8720
    10.5558  10.5558  10.7830  10.7830

     occupation numbers 
     1.0000   1.0000   1.0000   1.0000   1.0000   1.0000   1.0000   1.0000
     1.0000   1.0000   1.0000   1.0000   1.0000   1.0000   1.0000   1.0000
     1.0000   1.0000   1.0000   1.0000   1.0000   1.0000   1.0000   1.0000
     1.0000   1.0000   1.0000   1.0000   0.0000   0.0000   0.0000   0.0000
     0.0000   0.0000   0.0000   0.0000

          k = 0.3094 0.1326-0.1326 (  2975 PWs)   bands (ev):

   -14.6877 -14.6877 -14.6790 -14.6790 -14.6428 -14.6428 -14.5751 -14.5751
   -14.5535 -14.5535 -14.4366 -14.4366 -14.3966 -14.3966 -14.3678 -14.3678
   -14.3285 -14.3285 -14.3161 -14.3161  -2.4377  -2.4377   2.4941   2.4941
     5.5420   5.5420   5.7689   5.7689   8.1279   8.1279   9.2559   9.2559
    10.7249  10.7249  11.1052  11.1052

     occupation numbers 
     1.0000   1.0000   1.0000   1.0000   1.0000   1.0000   1.0000   1.0000
     1.0000   1.0000   1.0000   1.0000   1.0000   1.0000   1.0000   1.0000
     1.0000   1.0000   1.0000   1.0000   1.0000   1.0000   1.0000   1.0000
     1.0000   1.0000   1.0000   1.0000   0.0000   0.0000   0.0000   0.0000
     0.0000   0.0000   0.0000   0.0000

          k = 0.3536 0.1768-0.1768 (  2982 PWs)   bands (ev):

   -14.6936 -14.6936 -14.6833 -14.6833 -14.6336 -14.6336 -14.5666 -14.5666
   -14.5478 -14.5478 -14.4404 -14.4404 -14.4055 -14.4055 -14.3785 -14.3785
   -14.3225 -14.3225 -14.3098 -14.3098  -2.1517  -2.1517   1.8333   1.8333
     5.2910   5.2910   5.6707   5.6707   7.9850   7.9850   9.5812   9.5812
    10.7621  10.7621  11.4642  11.4642

     occupation numbers 
     1.0000   1.0000   1.0000   1.0000   1.0000   1.0000   1.0000   1.0000
     1.0000   1.0000   1.0000   1.0000   1.0000   1.0000   1.0000   1.0000
     1.0000   1.0000   1.0000   1.0000   1.0000   1.0000   1.0000   1.0000
     1.0000   1.0000   1.0000   1.0000   0.0000   0.0000   0.0000   0.0000
     0.0000   0.0000   0.0000   0.0000

          k = 0.3977 0.2210-0.2210 (  2991 PWs)   bands (ev):

   -14.6975 -14.6975 -14.6867 -14.6867 -14.6253 -14.6253 -14.5591 -14.5591
   -14.5463 -14.5463 -14.4394 -14.4394 -14.4137 -14.4137 -14.3887 -14.3887
   -14.3177 -14.3177 -14.3055 -14.3055  -1.8614  -1.8614   1.2753   1.2753
     5.0898   5.0898   5.6321   5.6321   7.8688   7.8688   9.7809   9.7809
    10.7068  10.7068  11.9822  11.9822

     occupation numbers 
     1.0000   1.0000   1.0000   1.0000   1.0000   1.0000   1.0000   1.0000
     1.0000   1.0000   1.0000   1.0000   1.0000   1.0000   1.0000   1.0000
     1.0000   1.0000   1.0000   1.0000   1.0000   1.0000   1.0000   1.0000
     1.0000   1.0000   1.0000   1.0000   0.0000   0.0000   0.0000   0.0000
     0.0000   0.0000   0.0000   0.0000

          k =-0.2652-0.4419 0.4419 (  2996 PWs)   bands (ev):

   -14.6995 -14.6995 -14.6891 -14.6891 -14.6191 -14.6191 -14.5530 -14.5530
   -14.5487 -14.5487 -14.4338 -14.4338 -14.4208 -14.4208 -14.3972 -14.3972
   -14.3142 -14.3142 -14.3036 -14.3036  -1.6431  -1.6431   0.9101   0.9101
     4.9478   4.9478   5.6542   5.6542   7.7921   7.7921   9.9003   9.9003
    10.6074  10.6074  12.5508  12.5508

     occupation numbers 
     1.0000   1.0000   1.0000   1.0000   1.0000   1.0000   1.0000   1.0000
     1.0000   1.0000   1.0000   1.0000   1.0000   1.0000   1.0000   1.0000
     1.0000   1.0000   1.0000   1.0000   1.0000   1.0000   1.0000   1.0000
     1.0000   1.0000   1.0000   1.0000   0.0000   0.0000   0.0000   0.0000
     0.0000   0.0000   0.0000   0.0000

          k =-0.2210-0.3977 0.3977 (  2985 PWs)   bands (ev):

   -14.6993 -14.6993 -14.6906 -14.6906 -14.6164 -14.6164 -14.5538 -14.5538
   -14.5488 -14.5488 -14.4264 -14.4264 -14.4247 -14.4247 -14.4027 -14.4027
   -14.3120 -14.3120 -14.3041 -14.3041  -1.6078  -1.6078   0.8548   0.8548
     4.8708   4.8708   5.7351   5.7351   7.7597   7.7597   9.9998   9.9998
    10.4920  10.4920  12.8571  12.8572

     occupation numbers 
     1.0000   1.0000   1.0000   1.0000   1.0000   1.0000   1.0000   1.0000
     1.0000   1.0000   1.0000   1.0000   1.0000   1.0000   1.0000   1.0000
     1.0000   1.0000   1.0000   1.0000   1.0000   1.0000   1.0000   1.0000
     1.0000   1.0000   1.0000   1.0000   0.0000   0.0000   0.0000   0.0000
     0.0000   0.0000   0.0000   0.0000

          k =-0.1768-0.3536 0.3536 (  2990 PWs)   bands (ev):

   -14.6971 -14.6971 -14.6910 -14.6910 -14.6180 -14.6180 -14.5603 -14.5603
   -14.5474 -14.5474 -14.4294 -14.4294 -14.4144 -14.4144 -14.4036 -14.4036
   -14.3112 -14.3112 -14.3072 -14.3072  -1.7797  -1.7797   1.1342   1.1342
     4.8645   4.8645   5.8703   5.8703   7.7704   7.7704  10.1011  10.1011
    10.3634  10.3634  12.6018  12.6018

     occupation numbers 
     1.0000   1.0000   1.0000   1.0000   1.0000   1.0000   1.0000   1.0000
     1.0000   1.0000   1.0000   1.0000   1.0000   1.0000   1.0000   1.0000
     1.0000   1.0000   1.0000   1.0000   1.0000   1.0000   1.0000   1.0000
     1.0000   1.0000   1.0000   1.0000   0.0000   0.0000   0.0000   0.0000
     0.0000   0.0000   0.0000   0.0000

          k =-0.1326-0.3094 0.3094 (  2988 PWs)   bands (ev):

   -14.6929 -14.6929 -14.6900 -14.6900 -14.6235 -14.6235 -14.5672 -14.5672
   -14.5498 -14.5498 -14.4288 -14.4288 -14.4089 -14.4089 -14.3953 -14.3953
   -14.3128 -14.3128 -14.3120 -14.3120  -2.0578  -2.0578   1.6409   1.6409
     4.9351   4.9351   6.0516   6.0516   7.8170   7.8170  10.1815  10.1815
    10.2035  10.2035  11.9490  11.9490

     occupation numbers 
     1.0000   1.0000   1.0000   1.0000   1.0000   1.0000   1.0000   1.0000
     1.0000   1.0000   1.0000   1.0000   1.0000   1.0000   1.0000   1.0000
     1.0000   1.0000   1.0000   1.0000   1.0000   1.0000   1.0000   1.0000
     1.0000   1.0000   1.0000   1.0000   0.0000   0.0000   0.0000   0.0000
     0.0000   0.0000   0.0000   0.0000

          k =-0.0884-0.2652 0.2652 (  2977 PWs)   bands (ev):

   -14.6875 -14.6875 -14.6869 -14.6869 -14.6317 -14.6317 -14.5742 -14.5742
   -14.5562 -14.5562 -14.4241 -14.4241 -14.4051 -14.4051 -14.3823 -14.3823
   -14.3207 -14.3207 -14.3145 -14.3145  -2.3502  -2.3502   2.2689   2.2689
     5.0920   5.0920   6.2653   6.2653   7.8809   7.8809   9.9888   9.9888
    10.1487  10.1487  11.3395  11.3395

     occupation numbers 
     1.0000   1.0000   1.0000   1.0000   1.0000   1.0000   1.0000   1.0000
     1.0000   1.0000   1.0000   1.0000   1.0000   1.0000   1.0000   1.0000
     1.0000   1.0000   1.0000   1.0000   1.0000   1.0000   1.0000   1.0000
     1.0000   1.0000   1.0000   1.0000   0.0000   0.0000   0.0000   0.0000
     0.0000   0.0000   0.0000   0.0000

          k =-0.0442-0.2210 0.2210 (  2980 PWs)   bands (ev):

   -14.6834 -14.6834 -14.6796 -14.6796 -14.6407 -14.6407 -14.5816 -14.5816
   -14.5659 -14.5659 -14.4158 -14.4158 -14.3996 -14.3996 -14.3696 -14.3696
   -14.3304 -14.3304 -14.3188 -14.3188  -2.6112  -2.6112   2.9446   2.9446
     5.3502   5.3502   6.4875   6.4875   7.9178   7.9178   9.7259   9.7259
     9.8887   9.8887  10.9564  10.9564

     occupation numbers 
     1.0000   1.0000   1.0000   1.0000   1.0000   1.0000   1.0000   1.0000
     1.0000   1.0000   1.0000   1.0000   1.0000   1.0000   1.0000   1.0000
     1.0000   1.0000   1.0000   1.0000   1.0000   1.0000   1.0000   1.0000
     1.0000   1.0000   1.0000   1.0000   0.0000   0.0000   0.0000   0.0000
     0.0000   0.0000   0.0000   0.0000

          k = 0.0000-0.1768 0.1768 (  2984 PWs)   bands (ev):

   -14.6779 -14.6779 -14.6721 -14.6721 -14.6485 -14.6485 -14.5891 -14.5891
   -14.5773 -14.5773 -14.4052 -14.4052 -14.3923 -14.3923 -14.3598 -14.3598
   -14.3406 -14.3406 -14.3249 -14.3249  -2.8200  -2.8200   3.6002   3.6002
     5.7306   5.7306   6.6775   6.6775   7.8368   7.8369   9.4760   9.4760
     9.5740   9.5740  10.6156  10.6156

     occupation numbers 
     1.0000   1.0000   1.0000   1.0000   1.0000   1.0000   1.0000   1.0000
     1.0000   1.0000   1.0000   1.0000   1.0000   1.0000   1.0000   1.0000
     1.0000   1.0000   1.0000   1.0000   1.0000   1.0000   1.0000   1.0000
     1.0000   1.0000   1.0000   1.0000   0.0000   0.0000   0.0000   0.0000
     0.0000   0.0000   0.0000   0.0000

          k = 0.2652 0.0000 0.0000 (  2970 PWs)   bands (ev):

   -14.6716 -14.6716 -14.6716 -14.6716 -14.6628 -14.6628 -14.5881 -14.5881
   -14.5613 -14.5613 -14.4331 -14.4331 -14.3810 -14.3810 -14.3404 -14.3404
   -14.3404 -14.3404 -14.3366 -14.3366  -2.7694  -2.7694   3.5594   3.5594
     5.8900   5.8900   5.8900   5.8900   8.2420   8.2420   8.7226   8.7226
    10.6676  10.6676  10.6676  10.6676

     occupation numbers 
     1.0000   1.0000   1.0000   1.0000   1.0000   1.0000   1.0000   1.0000
     1.0000   1.0000   1.0000   1.0000   1.0000   1.0000   1.0000   1.0000
     1.0000   1.0000   1.0000   1.0000   1.0000   1.0000   1.0000   1.0000
     1.0000   1.0000   1.0000   1.0000   0.0000   0.0000   0.0000   0.0000
     0.0000   0.0000   0.0000   0.0000

          k = 0.3094 0.0442-0.0442 (  2970 PWs)   bands (ev):

   -14.6790 -14.6790 -14.6761 -14.6761 -14.6569 -14.6569 -14.5800 -14.5800
   -14.5488 -14.5488 -14.4469 -14.4469 -14.3892 -14.3892 -14.3470 -14.3470
   -14.3339 -14.3339 -14.3273 -14.3273  -2.5998  -2.5998   3.0547   3.0547
     5.6307   5.6307   5.6871   5.6871   8.2270   8.2270   8.8248   8.8248
    10.9959  10.9959  11.0243  11.0243

     occupation numbers 
     1.0000   1.0000   1.0000   1.0000   1.0000   1.0000   1.0000   1.0000
     1.0000   1.0000   1.0000   1.0000   1.0000   1.0000   1.0000   1.0000
     1.0000   1.0000   1.0000   1.0000   1.0000   1.0000   1.0000   1.0000
     1.0000   1.0000   1.0000   1.0000   0.0000   0.0000   0.0000   0.0000
     0.0000   0.0000   0.0000   0.0000

          k = 0.3536 0.0884-0.0884 (  2971 PWs)   bands (ev):

   -14.6880 -14.6880 -14.6808 -14.6808 -14.6465 -14.6465 -14.5706 -14.5706
   -14.5379 -14.5379 -14.4578 -14.4578 -14.3990 -14.3990 -14.3589 -14.3589
   -14.3269 -14.3269 -14.3166 -14.3166  -2.3707  -2.3707   2.4631   2.4631
     5.3110   5.3110   5.5313   5.5313   8.3207   8.3207   8.9700   8.9700
    11.0658  11.0658  11.2597  11.2597

     occupation numbers 
     1.0000   1.0000   1.0000   1.0000   1.0000   1.0000   1.0000   1.0000
     1.0000   1.0000   1.0000   1.0000   1.0000   1.0000   1.0000   1.0000
     1.0000   1.0000   1.0000   1.0000   1.0000   1.0000   1.0000   1.0000
     1.0000   1.0000   1.0000   1.0000   0.0000   0.0000   0.0000   0.0000
     0.0000   0.0000   0.0000   0.0000

          k = 0.3977 0.1326-0.1326 (  2982 PWs)   bands (ev):

   -14.6960 -14.6960 -14.6851 -14.6851 -14.6343 -14.6343 -14.5611 -14.5611
   -14.5306 -14.5306 -14.4641 -14.4641 -14.4091 -14.4091 -14.3726 -14.3726
   -14.3206 -14.3206 -14.3075 -14.3075  -2.0944  -2.0944   1.8613   1.8613
     4.9925   4.9925   5.4326   5.4326   8.2908   8.2908   9.3534   9.3534
    11.0721  11.0721  11.3380  11.3380

     occupation numbers 
     1.0000   1.0000   1.0000   1.0000   1.0000   1.0000   1.0000   1.0000
     1.0000   1.0000   1.0000   1.0000   1.0000   1.0000   1.0000   1.0000
     1.0000   1.0000   1.0000   1.0000   1.0000   1.0000   1.0000   1.0000
     1.0000   1.0000   1.0000   1.0000   0.0000   0.0000   0.0000   0.0000
     0.0000   0.0000   0.0000   0.0000

          k = 0.4419 0.1768-0.1768 (  2990 PWs)   bands (ev):

   -14.7023 -14.7023 -14.6887 -14.6887 -14.6220 -14.6220 -14.5521 -14.5521
   -14.5284 -14.5284 -14.4647 -14.4647 -14.4190 -14.4190 -14.3864 -14.3864
   -14.3153 -14.3153 -14.3004 -14.3004  -1.7977  -1.7977   1.3133   1.3133
     4.7187   4.7187   5.3962   5.3962   8.2135   8.2135   9.7707   9.7707
    11.2498  11.2498  11.2885  11.2885

     occupation numbers 
     1.0000   1.0000   1.0000   1.0000   1.0000   1.0000   1.0000   1.0000
     1.0000   1.0000   1.0000   1.0000   1.0000   1.0000   1.0000   1.0000
     1.0000   1.0000   1.0000   1.0000   1.0000   1.0000   1.0000   1.0000
     1.0000   1.0000   1.0000   1.0000   0.0000   0.0000   0.0000   0.0000
     0.0000   0.0000   0.0000   0.0000

          k =-0.2210-0.4861 0.4861 (  2994 PWs)   bands (ev):

   -14.7063 -14.7063 -14.6916 -14.6916 -14.6118 -14.6118 -14.5441 -14.5441
   -14.5315 -14.5315 -14.4593 -14.4593 -14.4284 -14.4284 -14.3983 -14.3983
   -14.3112 -14.3112 -14.2960 -14.2960  -1.5408  -1.5408   0.9008   0.9008
     4.5103   4.5103   5.4232   5.4232   8.1552   8.1552  10.0286  10.0286
    11.1666  11.1666  11.7292  11.7292

     occupation numbers 
     1.0000   1.0000   1.0000   1.0000   1.0000   1.0000   1.0000   1.0000
     1.0000   1.0000   1.0000   1.0000   1.0000   1.0000   1.0000   1.0000
     1.0000   1.0000   1.0000   1.0000   1.0000   1.0000   1.0000   1.0000
     1.0000   1.0000   1.0000   1.0000   0.0000   0.0000   0.0000   0.0000
     0.0000   0.0000   0.0000   0.0000

          k =-0.1768-0.4419 0.4419 (  2999 PWs)   bands (ev):

   -14.7078 -14.7078 -14.6935 -14.6935 -14.6052 -14.6052 -14.5390 -14.5390
   -14.5378 -14.5378 -14.4487 -14.4487 -14.4362 -14.4362 -14.4068 -14.4068
   -14.3085 -14.3085 -14.2946 -14.2946  -1.4357  -1.4357   0.7461   0.7461
     4.3789   4.3789   5.5119   5.5119   8.1334   8.1334  10.1632  10.1632
    11.0099  11.0099  12.3659  12.3659

     occupation numbers 
     1.0000   1.0000   1.0000   1.0000   1.0000   1.0000   1.0000   1.0000
     1.0000   1.0000   1.0000   1.0000   1.0000   1.0000   1.0000   1.0000
     1.0000   1.0000   1.0000   1.0000   1.0000   1.0000   1.0000   1.0000
     1.0000   1.0000   1.0000   1.0000   0.0000   0.0000   0.0000   0.0000
     0.0000   0.0000   0.0000   0.0000

          k =-0.1326-0.3977 0.3977 (  2996 PWs)   bands (ev):

   -14.7065 -14.7065 -14.6943 -14.6943 -14.6038 -14.6038 -14.5492 -14.5492
   -14.5347 -14.5347 -14.4411 -14.4411 -14.4340 -14.4340 -14.4112 -14.4112
   -14.3072 -14.3072 -14.2965 -14.2965  -1.5551  -1.5551   0.9234   0.9234
     4.3341   4.3341   5.6573   5.6573   8.1474   8.1474  10.2719  10.2719
    10.8265  10.8265  12.4746  12.4746

     occupation numbers 
     1.0000   1.0000   1.0000   1.0000   1.0000   1.0000   1.0000   1.0000
     1.0000   1.0000   1.0000   1.0000   1.0000   1.0000   1.0000   1.0000
     1.0000   1.0000   1.0000   1.0000   1.0000   1.0000   1.0000   1.0000
     1.0000   1.0000   1.0000   1.0000   0.0000   0.0000   0.0000   0.0000
     0.0000   0.0000   0.0000   0.0000

          k =-0.0884-0.3536 0.3536 (  2993 PWs)   bands (ev):

   -14.7026 -14.7026 -14.6938 -14.6938 -14.6081 -14.6081 -14.5595 -14.5595
   -14.5363 -14.5363 -14.4414 -14.4414 -14.4167 -14.4167 -14.4121 -14.4121
   -14.3075 -14.3075 -14.3017 -14.3017  -1.8169  -1.8169   1.3423   1.3423
     4.3885   4.3885   5.8500   5.8500   8.1834   8.1834  10.3813  10.3813
    10.6012  10.6012  11.8053  11.8053

     occupation numbers 
     1.0000   1.0000   1.0000   1.0000   1.0000   1.0000   1.0000   1.0000
     1.0000   1.0000   1.0000   1.0000   1.0000   1.0000   1.0000   1.0000
     1.0000   1.0000   1.0000   1.0000   1.0000   1.0000   1.0000   1.0000
     1.0000   1.0000   1.0000   1.0000   0.0000   0.0000   0.0000   0.0000
     0.0000   0.0000   0.0000   0.0000

          k =-0.0442-0.3094 0.3094 (  2987 PWs)   bands (ev):

   -14.6962 -14.6962 -14.6918 -14.6918 -14.6175 -14.6175 -14.5682 -14.5682
   -14.5431 -14.5431 -14.4364 -14.4364 -14.4101 -14.4101 -14.3988 -14.3988
   -14.3098 -14.3098 -14.3096 -14.3096  -2.1128  -2.1128   1.8745   1.8745
     4.5606   4.5606   6.0738   6.0738   8.2082   8.2082  10.3185  10.3185
    10.4124  10.4124  11.1919  11.1919

     occupation numbers 
     1.0000   1.0000   1.0000   1.0000   1.0000   1.0000   1.0000   1.0000
     1.0000   1.0000   1.0000   1.0000   1.0000   1.0000   1.0000   1.0000
     1.0000   1.0000   1.0000   1.0000   1.0000   1.0000   1.0000   1.0000
     1.0000   1.0000   1.0000   1.0000   0.0000   0.0000   0.0000   0.0000
     0.0000   0.0000   0.0000   0.0000

          k = 0.0000-0.2652 0.2652 (  2970 PWs)   bands (ev):

   -14.6883 -14.6883 -14.6881 -14.6881 -14.6294 -14.6294 -14.5754 -14.5754
   -14.5536 -14.5536 -14.4273 -14.4273 -14.4057 -14.4057 -14.3821 -14.3821
   -14.3200 -14.3200 -14.3134 -14.3134  -2.3859  -2.3859   2.4298   2.4298
     4.8749   4.8749   6.3013   6.3013   8.1512   8.1512  10.0013  10.0013
    10.1558  10.1558  11.0021  11.0021

     occupation numbers 
     1.0000   1.0000   1.0000   1.0000   1.0000   1.0000   1.0000   1.0000
     1.0000   1.0000   1.0000   1.0000   1.0000   1.0000   1.0000   1.0000
     1.0000   1.0000   1.0000   1.0000   1.0000   1.0000   1.0000   1.0000
     1.0000   1.0000   1.0000   1.0000   0.0000   0.0000   0.0000   0.0000
     0.0000   0.0000   0.0000   0.0000

          k = 0.3536 0.0000 0.0000 (  2978 PWs)   bands (ev):

   -14.6798 -14.6798 -14.6798 -14.6798 -14.6580 -14.6580 -14.5723 -14.5723
   -14.5343 -14.5343 -14.4640 -14.4640 -14.3961 -14.3961 -14.3416 -14.3416
   -14.3290 -14.3290 -14.3290 -14.3290  -2.4499  -2.4499   2.7105   2.7105
     5.4776   5.4776   5.4776   5.4776   7.9567   7.9567   8.8907   8.8907
    11.4741  11.4741  11.4741  11.4741

     occupation numbers 
     1.0000   1.0000   1.0000   1.0000   1.0000   1.0000   1.0000   1.0000
     1.0000   1.0000   1.0000   1.0000   1.0000   1.0000   1.0000   1.0000
     1.0000   1.0000   1.0000   1.0000   1.0000   1.0000   1.0000   1.0000
     1.0000   1.0000   1.0000   1.0000   0.0000   0.0000   0.0000   0.0000
     0.0000   0.0000   0.0000   0.0000

          k = 0.3977 0.0442-0.0442 (  2981 PWs)   bands (ev):

   -14.6865 -14.6865 -14.6839 -14.6839 -14.6500 -14.6500 -14.5628 -14.5628
   -14.5211 -14.5211 -14.4782 -14.4782 -14.4055 -14.4055 -14.3518 -14.3518
   -14.3229 -14.3229 -14.3193 -14.3193  -2.2385  -2.2385   2.2442   2.2442
     5.2268   5.2268   5.3142   5.3142   7.9806   7.9806   8.8562   8.8562
    11.6138  11.6138  11.8157  11.8157

     occupation numbers 
     1.0000   1.0000   1.0000   1.0000   1.0000   1.0000   1.0000   1.0000
     1.0000   1.0000   1.0000   1.0000   1.0000   1.0000   1.0000   1.0000
     1.0000   1.0000   1.0000   1.0000   1.0000   1.0000   1.0000   1.0000
     1.0000   1.0000   1.0000   1.0000   0.0000   0.0000   0.0000   0.0000
     0.0000   0.0000   0.0000   0.0000

          k = 0.4419 0.0884-0.0884 (  2986 PWs)   bands (ev):

   -14.6953 -14.6953 -14.6879 -14.6879 -14.6367 -14.6367 -14.5527 -14.5527
   -14.5113 -14.5113 -14.4879 -14.4879 -14.4160 -14.4160 -14.3669 -14.3669
   -14.3171 -14.3171 -14.3084 -14.3084  -1.9746  -1.9746   1.7313   1.7313
     4.8898   4.8898   5.2083   5.2083   8.1268   8.1268   8.9902   8.9902
    11.4834  11.4834  11.9798  11.9798

     occupation numbers 
     1.0000   1.0000   1.0000   1.0000   1.0000   1.0000   1.0000   1.0000
     1.0000   1.0000   1.0000   1.0000   1.0000   1.0000   1.0000   1.0000
     1.0000   1.0000   1.0000   1.0000   1.0000   1.0000   1.0000   1.0000
     1.0000   1.0000   1.0000   1.0000   0.0000   0.0000   0.0000   0.0000
     0.0000   0.0000   0.0000   0.0000

          k = 0.4861 0.1326-0.1326 (  2990 PWs)   bands (ev):

   -14.7033 -14.7033 -14.6913 -14.6913 -14.6217 -14.6217 -14.5426 -14.5426
   -14.5078 -14.5078 -14.4905 -14.4905 -14.4270 -14.4270 -14.3834 -14.3834
   -14.3120 -14.3120 -14.2991 -14.2991  -1.6777  -1.6777   1.2310   1.2310
     4.5513   4.5513   5.1655   5.1655   8.1693   8.1693   9.4502   9.4502
    11.3577  11.3577  11.9703  11.9703

     occupation numbers 
     1.0000   1.0000   1.0000   1.0000   1.0000   1.0000   1.0000   1.0000
     1.0000   1.0000   1.0000   1.0000   1.0000   1.0000   1.0000   1.0000
     1.0000   1.0000   1.0000   1.0000   1.0000   1.0000   1.0000   1.0000
     1.0000   1.0000   1.0000   1.0000   0.0000   0.0000   0.0000   0.0000
     0.0000   0.0000   0.0000   0.0000

          k =-0.1768-0.5303 0.5303 (  3004 PWs)   bands (ev):

   -14.7096 -14.7096 -14.6941 -14.6941 -14.6079 -14.6079 -14.5331 -14.5331
   -14.5101 -14.5101 -14.4867 -14.4867 -14.4377 -14.4377 -14.3983 -14.3983
   -14.3080 -14.3080 -14.2922 -14.2922  -1.3937  -1.3937   0.8112   0.8112
     4.2686   4.2686   5.1880   5.1880   8.1655   8.1655  10.0705  10.0705
    11.3403  11.3403  11.8459  11.8459

     occupation numbers 
     1.0000   1.0000   1.0000   1.0000   1.0000   1.0000   1.0000   1.0000
     1.0000   1.0000   1.0000   1.0000   1.0000   1.0000   1.0000   1.0000
[...]

     occupation numbers 
     1.0000   1.0000   1.0000   1.0000   1.0000   1.0000   1.0000   1.0000
     1.0000   1.0000   1.0000   1.0000   1.0000   1.0000   1.0000   1.0000
     1.0000   1.0000   1.0000   1.0000   1.0000   1.0000   1.0000   1.0000
     1.0000   1.0000   1.0000   1.0000   0.0000   0.0000   0.0000   0.0000
     0.0000   0.0000   0.0000   0.0000

          k =-0.1326-0.3977 0.5745 (  2999 PWs)   bands (ev):

   -14.7134 -14.7134 -14.7007 -14.7007 -14.5875 -14.5875 -14.5274 -14.5274
   -14.5070 -14.5070 -14.4841 -14.4841 -14.4499 -14.4499 -14.4185 -14.4185
   -14.3004 -14.3004 -14.2879 -14.2879  -1.1369  -1.1369   0.5138   0.5138
     4.0343   4.0343   4.9955   4.9955   8.8424   8.8424  10.0838  10.0838
    11.3615  11.3615  12.0469  12.0469

     occupation numbers 
     1.0000   1.0000   1.0000   1.0000   1.0000   1.0000   1.0000   1.0000
     1.0000   1.0000   1.0000   1.0000   1.0000   1.0000   1.0000   1.0000
     1.0000   1.0000   1.0000   1.0000   1.0000   1.0000   1.0000   1.0000
     1.0000   1.0000   1.0000   1.0000   0.0000   0.0000   0.0000   0.0000
     0.0000   0.0000   0.0000   0.0000

          k =-0.0884-0.3536 0.5303 (  3004 PWs)   bands (ev):

   -14.7133 -14.7133 -14.7007 -14.7007 -14.5870 -14.5870 -14.5303 -14.5303
   -14.5084 -14.5084 -14.4800 -14.4800 -14.4493 -14.4493 -14.4196 -14.4196
   -14.3003 -14.3003 -14.2882 -14.2882  -1.1914  -1.1914   0.5831   0.5831
     4.0012   4.0012   5.0646   5.0646   8.8877   8.8877  10.0755  10.0755
    11.4253  11.4253  12.0080  12.0080

     occupation numbers 
     1.0000   1.0000   1.0000   1.0000   1.0000   1.0000   1.0000   1.0000
     1.0000   1.0000   1.0000   1.0000   1.0000   1.0000   1.0000   1.0000
     1.0000   1.0000   1.0000   1.0000   1.0000   1.0000   1.0000   1.0000
     1.0000   1.0000   1.0000   1.0000   0.0000   0.0000   0.0000   0.0000
     0.0000   0.0000   0.0000   0.0000

          k =-0.0442-0.3094 0.4861 (  3006 PWs)   bands (ev):

   -14.7100 -14.7100 -14.6997 -14.6997 -14.5939 -14.5939 -14.5407 -14.5407
   -14.5107 -14.5107 -14.4776 -14.4776 -14.4362 -14.4362 -14.4152 -14.4152
   -14.3014 -14.3014 -14.2923 -14.2923  -1.4352  -1.4352   0.9025   0.9025
     4.0725   4.0725   5.2071   5.2071   8.9397   8.9397   9.9598   9.9598
    10.8472  10.8472  12.2346  12.2346

     occupation numbers 
     1.0000   1.0000   1.0000   1.0000   1.0000   1.0000   1.0000   1.0000
     1.0000   1.0000   1.0000   1.0000   1.0000   1.0000   1.0000   1.0000
     1.0000   1.0000   1.0000   1.0000   1.0000   1.0000   1.0000   1.0000
     1.0000   1.0000   1.0000   1.0000   0.0000   0.0000   0.0000   0.0000
     0.0000   0.0000   0.0000   0.0000

          k = 0.0000-0.2652 0.4419 (  3011 PWs)   bands (ev):

   -14.7039 -14.7039 -14.6974 -14.6974 -14.6067 -14.6067 -14.5516 -14.5516
   -14.5182 -14.5182 -14.4716 -14.4716 -14.4214 -14.4214 -14.4046 -14.4046
   -14.3042 -14.3042 -14.2998 -14.2998  -1.7333  -1.7333   1.3218   1.3218
     4.2673   4.2673   5.3975   5.3975   8.9393   8.9393   9.6054   9.6054
    10.6707  10.6707  12.0082  12.0083

     occupation numbers 
     1.0000   1.0000   1.0000   1.0000   1.0000   1.0000   1.0000   1.0000
     1.0000   1.0000   1.0000   1.0000   1.0000   1.0000   1.0000   1.0000
     1.0000   1.0000   1.0000   1.0000   1.0000   1.0000   1.0000   1.0000
     1.0000   1.0000   1.0000   1.0000   0.0000   0.0000   0.0000   0.0000
     0.0000   0.0000   0.0000   0.0000

          k =-0.1768-0.5303 0.7071 (  2992 PWs)   bands (ev):

   -14.7021 -14.7021 -14.7002 -14.7002 -14.6103 -14.6103 -14.5320 -14.5320
   -14.5130 -14.5130 -14.4866 -14.4866 -14.4377 -14.4377 -14.3941 -14.3941
   -14.3014 -14.3014 -14.3001 -14.3001  -1.4418  -1.4418   0.9402   0.9402
     4.4379   4.4379   4.8685   4.8685   8.5841   8.5841   8.9395   8.9395
    11.3588  11.3588  12.9693  12.9693

     occupation numbers 
     1.0000   1.0000   1.0000   1.0000   1.0000   1.0000   1.0000   1.0000
     1.0000   1.0000   1.0000   1.0000   1.0000   1.0000   1.0000   1.0000
     1.0000   1.0000   1.0000   1.0000   1.0000   1.0000   1.0000   1.0000
     1.0000   1.0000   1.0000   1.0000   0.0000   0.0000   0.0000   0.0000
     0.0000   0.0000   0.0000   0.0000

          k =-0.1326-0.4861 0.6629 (  2998 PWs)   bands (ev):

   -14.7088 -14.7088 -14.7026 -14.7026 -14.5930 -14.5930 -14.5219 -14.5219
   -14.5177 -14.5177 -14.4805 -14.4805 -14.4499 -14.4499 -14.4114 -14.4114
   -14.2985 -14.2985 -14.2923 -14.2923  -1.1379  -1.1379   0.5561   0.5561
     4.2081   4.2081   4.7469   4.7469   8.7501   8.7501   9.4143   9.4143
    11.1840  11.1840  12.9225  12.9225

     occupation numbers 
     1.0000   1.0000   1.0000   1.0000   1.0000   1.0000   1.0000   1.0000
     1.0000   1.0000   1.0000   1.0000   1.0000   1.0000   1.0000   1.0000
     1.0000   1.0000   1.0000   1.0000   1.0000   1.0000   1.0000   1.0000
     1.0000   1.0000   1.0000   1.0000   0.0000   0.0000   0.0000   0.0000
     0.0000   0.0000   0.0000   0.0000

          k =-0.0884-0.4419 0.6187 (  3004 PWs)   bands (ev):

   -14.7139 -14.7139 -14.7036 -14.7036 -14.5804 -14.5804 -14.5175 -14.5175
   -14.5101 -14.5101 -14.4825 -14.4825 -14.4611 -14.4611 -14.4232 -14.4232
   -14.2971 -14.2971 -14.2869 -14.2869  -0.8999  -0.8999   0.2805   0.2805
     4.0102   4.0102   4.7374   4.7374   8.8053   8.8053  10.1413  10.1413
    11.0806  11.0806  12.3430  12.3430

     occupation numbers 
     1.0000   1.0000   1.0000   1.0000   1.0000   1.0000   1.0000   1.0000
     1.0000   1.0000   1.0000   1.0000   1.0000   1.0000   1.0000   1.0000
     1.0000   1.0000   1.0000   1.0000   1.0000   1.0000   1.0000   1.0000
     1.0000   1.0000   1.0000   1.0000   0.0000   0.0000   0.0000   0.0000
     0.0000   0.0000   0.0000   0.0000

          k =-0.0442-0.3977 0.5745 (  2994 PWs)   bands (ev):

   -14.7158 -14.7158 -14.7036 -14.7036 -14.5771 -14.5771 -14.5140 -14.5140
   -14.5019 -14.5019 -14.4901 -14.4901 -14.4655 -14.4655 -14.4261 -14.4261
   -14.2970 -14.2970 -14.2850 -14.2850  -0.9020  -0.9020   0.2854   0.2854
     3.8975   3.8975   4.8264   4.8264   8.8824   8.8824  10.6096  10.6096
    11.2968  11.2968  11.6140  11.6140

     occupation numbers 
     1.0000   1.0000   1.0000   1.0000   1.0000   1.0000   1.0000   1.0000
     1.0000   1.0000   1.0000   1.0000   1.0000   1.0000   1.0000   1.0000
     1.0000   1.0000   1.0000   1.0000   1.0000   1.0000   1.0000   1.0000
     1.0000   1.0000   1.0000   1.0000   0.0000   0.0000   0.0000   0.0000
     0.0000   0.0000   0.0000   0.0000

          k = 0.0000-0.3536 0.5303 (  2995 PWs)   bands (ev):

   -14.7143 -14.7143 -14.7024 -14.7024 -14.5823 -14.5823 -14.5260 -14.5260
   -14.4992 -14.4992 -14.4895 -14.4895 -14.4550 -14.4550 -14.4227 -14.4227
   -14.2983 -14.2983 -14.2870 -14.2870  -1.1375  -1.1375   0.5545   0.5545
     3.9099   3.9099   4.9919   4.9919   8.9607   8.9607  10.4678  10.4678
    10.9199  10.9199  12.0991  12.0991

     occupation numbers 
     1.0000   1.0000   1.0000   1.0000   1.0000   1.0000   1.0000   1.0000
     1.0000   1.0000   1.0000   1.0000   1.0000   1.0000   1.0000   1.0000
     1.0000   1.0000   1.0000   1.0000   1.0000   1.0000   1.0000   1.0000
     1.0000   1.0000   1.0000   1.0000   0.0000   0.0000   0.0000   0.0000
     0.0000   0.0000   0.0000   0.0000

          k =-0.0884-0.5303 0.7071 (  2993 PWs)   bands (ev):

   -14.7055 -14.7055 -14.7043 -14.7043 -14.5911 -14.5911 -14.5415 -14.5415
   -14.5091 -14.5091 -14.4605 -14.4605 -14.4601 -14.4601 -14.4124 -14.4124
   -14.2963 -14.2963 -14.2951 -14.2951  -0.9153  -0.9153   0.2886   0.2886
     4.3643   4.3643   4.5784   4.5784   8.5525   8.5525   8.7607   8.7607
    12.0323  12.0323  13.2580  13.2581

     occupation numbers 
     1.0000   1.0000   1.0000   1.0000   1.0000   1.0000   1.0000   1.0000
     1.0000   1.0000   1.0000   1.0000   1.0000   1.0000   1.0000   1.0000
     1.0000   1.0000   1.0000   1.0000   1.0000   1.0000   1.0000   1.0000
     1.0000   1.0000   1.0000   1.0000   0.0000   0.0000   0.0000   0.0000
     0.0000   0.0000   0.0000   0.0000

          k =-0.0442-0.4861 0.6629 (  2992 PWs)   bands (ev):

   -14.7112 -14.7112 -14.7054 -14.7054 -14.5744 -14.5744 -14.5423 -14.5423
   -14.4987 -14.4987 -14.4730 -14.4730 -14.4582 -14.4582 -14.4283 -14.4283
   -14.2949 -14.2949 -14.2892 -14.2892  -0.6316  -0.6316  -0.0114  -0.0114
     4.1543   4.1543   4.5371   4.5371   8.6977   8.6977   9.3620   9.3620
    11.8497  11.8497  12.5600  12.5600

     occupation numbers 
     1.0000   1.0000   1.0000   1.0000   1.0000   1.0000   1.0000   1.0000
     1.0000   1.0000   1.0000   1.0000   1.0000   1.0000   1.0000   1.0000
     1.0000   1.0000   1.0000   1.0000   1.0000   1.0000   1.0000   1.0000
     1.0000   1.0000   1.0000   1.0000   0.0000   0.0000   0.0000   0.0000
     0.0000   0.0000   0.0000   0.0000

          k = 0.0000-0.4419 0.6187 (  2996 PWs)   bands (ev):

   -14.7151 -14.7151 -14.7050 -14.7050 -14.5714 -14.5714 -14.5263 -14.5263
   -14.4979 -14.4979 -14.4771 -14.4771 -14.4714 -14.4714 -14.4307 -14.4307
   -14.2952 -14.2952 -14.2854 -14.2854  -0.6339  -0.6339   0.0000   0.0000
     3.9614   3.9614   4.6417   4.6417   8.7851   8.7851  10.1798  10.1798
    11.6913  11.6913  11.7026  11.7026

     occupation numbers 
     1.0000   1.0000   1.0000   1.0000   1.0000   1.0000   1.0000   1.0000
     1.0000   1.0000   1.0000   1.0000   1.0000   1.0000   1.0000   1.0000
     1.0000   1.0000   1.0000   1.0000   1.0000   1.0000   1.0000   1.0000
     1.0000   1.0000   1.0000   1.0000   0.0000   0.0000   0.0000   0.0000
     0.0000   0.0000   0.0000   0.0000

          k =-0.7071 0.1768 0.0000 (  2986 PWs)   bands (ev):

   -14.7062 -14.7062 -14.7062 -14.7062 -14.5684 -14.5684 -14.5673 -14.5673
   -14.4877 -14.4877 -14.4819 -14.4819 -14.4355 -14.4355 -14.4343 -14.4343
   -14.2939 -14.2939 -14.2939 -14.2939  -0.3351  -0.3351  -0.3335  -0.3335
     4.4100   4.4100   4.4101   4.4101   8.6156   8.6156   8.6158   8.6158
    12.7545  12.7545  12.7545  12.7545

     occupation numbers 
     1.0000   1.0000   1.0000   1.0000   1.0000   1.0000   1.0000   1.0000
     1.0000   1.0000   1.0000   1.0000   1.0000   1.0000   1.0000   1.0000
     1.0000   1.0000   1.0000   1.0000   1.0000   1.0000   1.0000   1.0000
     1.0000   1.0000   1.0000   1.0000   0.0000   0.0000   0.0000   0.0000
     0.0000   0.0000   0.0000   0.0000

          k =-0.1768-0.4419 0.7071 (  3000 PWs)   bands (ev):

   -14.7089 -14.7089 -14.7027 -14.7027 -14.5923 -14.5923 -14.5323 -14.5323
   -14.5005 -14.5005 -14.4936 -14.4936 -14.4416 -14.4416 -14.4138 -14.4138
   -14.2984 -14.2984 -14.2929 -14.2929  -1.3081  -1.3081   0.7674   0.7674
     4.1292   4.1292   4.9047   4.9047   9.3386   9.3386   9.4689   9.4689
    10.6243  10.6243  12.6987  12.6987

     occupation numbers 
     1.0000   1.0000   1.0000   1.0000   1.0000   1.0000   1.0000   1.0000
     1.0000   1.0000   1.0000   1.0000   1.0000   1.0000   1.0000   1.0000
     1.0000   1.0000   1.0000   1.0000   1.0000   1.0000   1.0000   1.0000
     1.0000   1.0000   1.0000   1.0000   0.0000   0.0000   0.0000   0.0000
     0.0000   0.0000   0.0000   0.0000

          k =-0.1326-0.3977 0.6629 (  3005 PWs)   bands (ev):

   -14.7132 -14.7132 -14.7048 -14.7048 -14.5787 -14.5787 -14.5218 -14.5218
   -14.5046 -14.5046 -14.4883 -14.4883 -14.4558 -14.4558 -14.4253 -14.4253
   -14.2960 -14.2960 -14.2878 -14.2878  -1.0246  -1.0246   0.4284   0.4284
     4.0019   4.0019   4.7493   4.7493   9.3639   9.3640   9.9619   9.9619
    10.7357  10.7357  12.2291  12.2291

     occupation numbers 
     1.0000   1.0000   1.0000   1.0000   1.0000   1.0000   1.0000   1.0000
     1.0000   1.0000   1.0000   1.0000   1.0000   1.0000   1.0000   1.0000
     1.0000   1.0000   1.0000   1.0000   1.0000   1.0000   1.0000   1.0000
     1.0000   1.0000   1.0000   1.0000   0.0000   0.0000   0.0000   0.0000
     0.0000   0.0000   0.0000   0.0000

          k =-0.0884-0.3536 0.6187 (  3014 PWs)   bands (ev):

   -14.7149 -14.7149 -14.7054 -14.7054 -14.5734 -14.5734 -14.5180 -14.5180
   -14.5026 -14.5026 -14.4889 -14.4889 -14.4623 -14.4623 -14.4295 -14.4295
   -14.2953 -14.2953 -14.2859 -14.2859  -0.8866  -0.8866   0.2708   0.2708
     3.9615   3.9615   4.6924   4.6924   9.3636   9.3636  10.0860  10.0860
    11.2584  11.2584  11.5491  11.5491

     occupation numbers 
     1.0000   1.0000   1.0000   1.0000   1.0000   1.0000   1.0000   1.0000
     1.0000   1.0000   1.0000   1.0000   1.0000   1.0000   1.0000   1.0000
     1.0000   1.0000   1.0000   1.0000   1.0000   1.0000   1.0000   1.0000
     1.0000   1.0000   1.0000   1.0000   0.0000   0.0000   0.0000   0.0000
     0.0000   0.0000   0.0000   0.0000

          k =-0.0884-0.4419 0.7071 (  2996 PWs)   bands (ev):

   -14.7112 -14.7112 -14.7075 -14.7075 -14.5738 -14.5738 -14.5263 -14.5263
   -14.5106 -14.5106 -14.4712 -14.4712 -14.4639 -14.4639 -14.4289 -14.4289
   -14.2931 -14.2931 -14.2894 -14.2894  -0.8319  -0.8319   0.2184   0.2184
     4.1195   4.1195   4.5110   4.5110   9.4103   9.4103   9.4533   9.4533
    11.0046  11.0046  12.3975  12.3975

     occupation numbers 
     1.0000   1.0000   1.0000   1.0000   1.0000   1.0000   1.0000   1.0000
     1.0000   1.0000   1.0000   1.0000   1.0000   1.0000   1.0000   1.0000
     1.0000   1.0000   1.0000   1.0000   1.0000   1.0000   1.0000   1.0000
     1.0000   1.0000   1.0000   1.0000   0.0000   0.0000   0.0000   0.0000
     0.0000   0.0000   0.0000   0.0000

          k =-0.0442-0.3977 0.6629 (  3005 PWs)   bands (ev):

   -14.7140 -14.7140 -14.7087 -14.7087 -14.5614 -14.5614 -14.5279 -14.5279
   -14.5016 -14.5016 -14.4769 -14.4769 -14.4677 -14.4677 -14.4393 -14.4393
   -14.2917 -14.2917 -14.2865 -14.2865  -0.6120  -0.6120  -0.0109  -0.0109
     4.0379   4.0379   4.4307   4.4307   9.4905   9.4905  10.1617  10.1617
    10.9241  10.9241  11.5398  11.5398

     occupation numbers 
     1.0000   1.0000   1.0000   1.0000   1.0000   1.0000   1.0000   1.0000
     1.0000   1.0000   1.0000   1.0000   1.0000   1.0000   1.0000   1.0000
     1.0000   1.0000   1.0000   1.0000   1.0000   1.0000   1.0000   1.0000
     1.0000   1.0000   1.0000   1.0000   0.0000   0.0000   0.0000   0.0000
     0.0000   0.0000   0.0000   0.0000

          k =-0.0000-0.3536 0.6187 (  3003 PWs)   bands (ev):

   -14.7148 -14.7148 -14.7077 -14.7077 -14.5653 -14.5653 -14.5177 -14.5177
   -14.5078 -14.5078 -14.4763 -14.4763 -14.4718 -14.4718 -14.4359 -14.4359
   -14.2927 -14.2927 -14.2858 -14.2858  -0.7340  -0.7340   0.1191   0.1191
     3.9726   3.9726   4.5347   4.5347   9.5413   9.5413  10.3428  10.3428
    10.8134  10.8134  11.4442  11.4442

     occupation numbers 
     1.0000   1.0000   1.0000   1.0000   1.0000   1.0000   1.0000   1.0000
     1.0000   1.0000   1.0000   1.0000   1.0000   1.0000   1.0000   1.0000
     1.0000   1.0000   1.0000   1.0000   1.0000   1.0000   1.0000   1.0000
     1.0000   1.0000   1.0000   1.0000   0.0000   0.0000   0.0000   0.0000
     0.0000   0.0000   0.0000   0.0000

          k =-0.7071 0.2652 0.0000 (  3004 PWs)   bands (ev):

   -14.7107 -14.7107 -14.7106 -14.7106 -14.5523 -14.5523 -14.5508 -14.5508
   -14.4902 -14.4902 -14.4844 -14.4844 -14.4494 -14.4494 -14.4478 -14.4478
   -14.2897 -14.2897 -14.2896 -14.2896  -0.3192  -0.3192  -0.3177  -0.3177
     4.2460   4.2460   4.2461   4.2461   9.4212   9.4212   9.4215   9.4215
    11.6736  11.6736  11.6737  11.6737

     occupation numbers 
     1.0000   1.0000   1.0000   1.0000   1.0000   1.0000   1.0000   1.0000
     1.0000   1.0000   1.0000   1.0000   1.0000   1.0000   1.0000   1.0000
     1.0000   1.0000   1.0000   1.0000   1.0000   1.0000   1.0000   1.0000
     1.0000   1.0000   1.0000   1.0000   0.0000   0.0000   0.0000   0.0000
     0.0000   0.0000   0.0000   0.0000

          k =-0.7071 0.3536 0.0000 (  2996 PWs)   bands (ev):

   -14.7123 -14.7123 -14.7123 -14.7123 -14.5441 -14.5441 -14.5422 -14.5422
   -14.4925 -14.4925 -14.4867 -14.4867 -14.4555 -14.4555 -14.4536 -14.4536
   -14.2881 -14.2881 -14.2880 -14.2880  -0.3126  -0.3126  -0.3110  -0.3110
     4.1837   4.1837   4.1838   4.1838  10.0868  10.0868  10.0874  10.0874
    10.9110  10.9110  10.9114  10.9114

     occupation numbers 
     1.0000   1.0000   1.0000   1.0000   1.0000   1.0000   1.0000   1.0000
     1.0000   1.0000   1.0000   1.0000   1.0000   1.0000   1.0000   1.0000
     1.0000   1.0000   1.0000   1.0000   1.0000   1.0000   1.0000   1.0000
     1.0000   1.0000   1.0000   1.0000   0.0000   0.0000   0.0000   0.0000
     0.0000   0.0000   0.0000   0.0000

     the Fermi energy is     6.9095 ev

!    total energy              =    -884.10302716 Ry
     Harris-Foulkes estimate   =    -884.10302713 Ry
     estimated scf accuracy    <       0.00000052 Ry

     total all-electron energy =    -24709.358600 Ry

     The total energy is the sum of the following terms:

     one-electron contribution =    -154.06367140 Ry
     hartree contribution      =      95.62566773 Ry
     xc contribution           =     -96.23250026 Ry
     ewald contribution        =    -167.52979536 Ry
     one-center paw contrib.   =    -561.90272773 Ry
     smearing contrib. (-TS)   =      -0.00000015 Ry

     convergence has been achieved in   5 iterations

     Writing output data file Sn.save
 
     init_run     :      5.76s CPU      6.00s WALL (       1 calls)
     electrons    :    116.43s CPU    120.41s WALL (       1 calls)

     Called by init_run:
     wfcinit      :      5.42s CPU      5.59s WALL (       1 calls)
     potinit      :      0.12s CPU      0.14s WALL (       1 calls)

     Called by electrons:
     c_bands      :     99.28s CPU    102.70s WALL (       6 calls)
     sum_band     :     16.49s CPU     16.94s WALL (       6 calls)
     v_of_rho     :      0.05s CPU      0.05s WALL (       6 calls)
     v_h          :      0.00s CPU      0.00s WALL (       6 calls)
     v_xc         :      0.05s CPU      0.05s WALL (       6 calls)
     newd         :      0.05s CPU      0.06s WALL (       6 calls)
     PAW_pot      :      0.64s CPU      0.70s WALL (       6 calls)
     mix_rho      :      0.02s CPU      0.02s WALL (       6 calls)

     Called by c_bands:
     init_us_2    :      0.18s CPU      0.23s WALL (    1885 calls)
     cegterg      :     97.52s CPU    100.72s WALL (     870 calls)

     Called by sum_band:
     sum_band:bec :      0.12s CPU      0.12s WALL (     870 calls)
     addusdens    :      0.06s CPU      0.07s WALL (       6 calls)

     Called by *egterg:
     h_psi        :     77.24s CPU     79.23s WALL (    3089 calls)
     s_psi        :      1.35s CPU      1.36s WALL (    3089 calls)
     g_psi        :      0.25s CPU      0.25s WALL (    2074 calls)
     cdiaghg      :     11.36s CPU     11.55s WALL (    2799 calls)
     cegterg:over :      5.00s CPU      5.07s WALL (    2074 calls)
     cegterg:upda :      2.04s CPU      2.05s WALL (    2074 calls)
     cegterg:last :      1.14s CPU      1.15s WALL (     870 calls)

     Called by h_psi:
     h_psi:vloc   :     73.13s CPU     75.05s WALL (    3089 calls)
     h_psi:vnl    :      3.90s CPU      3.95s WALL (    3089 calls)
     add_vuspsi   :      1.47s CPU      1.48s WALL (    3089 calls)

     General routines
     calbec       :      3.21s CPU      3.27s WALL (    3959 calls)
     fft          :      0.07s CPU      0.08s WALL (     116 calls)
     fftw         :     81.96s CPU     84.08s WALL (  393636 calls)
     davcio       :      0.02s CPU      0.19s WALL (     145 calls)
 
     Parallel routines
     fft_scatter  :     46.62s CPU     48.07s WALL (  393752 calls)

     PAW routines
     PAW_pot      :      0.64s CPU      0.70s WALL (       6 calls)
     PAW_symme    :      0.01s CPU      0.01s WALL (      12 calls)
 
     PWSCF        :  2m 3.09s CPU     2m 7.67s WALL

 
   This run was terminated on:  19:58:42  15Mar2020            

=------------------------------------------------------------------------------=
   JOB DONE.
=------------------------------------------------------------------------------=
