
     Program PWSCF v.5.4.0 starts on 27Feb2020 at 21:23:17 

     This program is part of the open-source Quantum ESPRESSO suite
     for quantum simulation of materials; please cite
         "P. Giannozzi et al., J. Phys.:Condens. Matter 21 395502 (2009);
          URL http://www.quantum-espresso.org", 
     in publications or presentations arising from this work. More details at
     http://www.quantum-espresso.org/quote

     Parallel version (MPI & OpenMP), running on      16 processor cores
     Number of MPI processes:                16
     Threads/MPI process:                     1
     R & G space division:  proc/nbgrp/npool/nimage =      16
     Waiting for input...
     Reading input from standard input
Warning: card &IONS ignored
Warning: card / ignored
Warning: card &CELL ignored
Warning: card / ignored

     Current dimensions of program PWSCF are:
     Max number of different atomic species (ntypx) = 10
     Max number of k-points (npk) =  40000
     Max angular momentum in pseudopotentials (lmaxx) =  3

     Subspace diagonalization in iterative solution of the eigenvalue problem:
     a serial algorithm will be used

 
     Parallelization info
     --------------------
     sticks:   dense  smooth     PW     G-vecs:    dense   smooth      PW
     Min         162     162     46                 5516     5516     834
     Max         165     165     47                 5518     5518     837
     Sum        2611    2611    745                88275    88275   13371
 

     Title: 
     Sn                                                                         


     bravais-lattice index     =            0
     lattice parameter (alat)  =       8.8993  a.u.
     unit-cell volume          =     498.3785 (a.u.)^3
     number of atoms/cell      =            2
     number of atomic types    =            1
     number of electrons       =        28.00
     number of Kohn-Sham states=           18
     kinetic-energy cutoff     =     120.0000  Ry
     charge density cutoff     =     480.0000  Ry
     convergence threshold     =      1.0E-06
     mixing beta               =       0.7000
     number of iterations used =            8  plain     mixing
     Exchange-correlation      = PBE ( 1  4  3  4 0 0)

     celldm(1)=   8.899346  celldm(2)=   0.000000  celldm(3)=   0.000000
     celldm(4)=   0.000000  celldm(5)=   0.000000  celldm(6)=   0.000000

     crystal axes: (cart. coord. in units of alat)
               a(1) = (   0.000000   0.707107   0.707107 )  
               a(2) = (   0.707107   0.000000   0.707107 )  
               a(3) = (   0.707107   0.707107   0.000000 )  

     reciprocal axes: (cart. coord. in units 2 pi/alat)
               b(1) = ( -0.707107  0.707107  0.707107 )  
               b(2) = (  0.707107 -0.707107  0.707107 )  
               b(3) = (  0.707107  0.707107 -0.707107 )  


     PseudoPot. # 1 for Sn read from file:
     ../PseudopotentialDatabase/Sn_ONCV_PBE_FR-1.1.upf
     MD5 check sum: 6dd2180f739ea5ae1610ead5e1628a0e
     Pseudo is Norm-conserving, Zval = 14.0
     Generated using ONCVPSP code by D. R. Hamann
     Using radial grid of  602 points,  6 beta functions with: 
                l(1) =   0
                l(2) =   0
                l(3) =   1
                l(4) =   1
                l(5) =   2
                l(6) =   2

     atomic species   valence    mass     pseudopotential
        Sn            14.00   118.71000     Sn( 1.00)

     48 Sym. Ops., with inversion, found (24 have fractional translation)


                                    s                        frac. trans.

      isym =  1     identity                                     

 cryst.   s( 1) = (     1          0          0      )
                  (     0          1          0      )
                  (     0          0          1      )

 cart.    s( 1) = (  1.0000000  0.0000000  0.0000000 )
                  (  0.0000000  1.0000000  0.0000000 )
                  (  0.0000000  0.0000000  1.0000000 )


      isym =  2     180 deg rotation - cart. axis [0,0,1]        

 cryst.   s( 2) = (     0          1         -1      )
                  (     1          0         -1      )
                  (     0          0         -1      )

 cart.    s( 2) = ( -1.0000000  0.0000000  0.0000000 )
                  (  0.0000000 -1.0000000  0.0000000 )
                  (  0.0000000  0.0000000  1.0000000 )


      isym =  3     180 deg rotation - cart. axis [0,1,0]        

 cryst.   s( 3) = (     0         -1          1      )
                  (     0         -1          0      )
                  (     1         -1          0      )

 cart.    s( 3) = ( -1.0000000  0.0000000  0.0000000 )
                  (  0.0000000  1.0000000  0.0000000 )
                  (  0.0000000  0.0000000 -1.0000000 )


      isym =  4     180 deg rotation - cart. axis [1,0,0]        

 cryst.   s( 4) = (    -1          0          0      )
                  (    -1          0          1      )
                  (    -1          1          0      )

 cart.    s( 4) = (  1.0000000  0.0000000  0.0000000 )
                  (  0.0000000 -1.0000000  0.0000000 )
                  (  0.0000000  0.0000000 -1.0000000 )


      isym =  5     180 deg rotation - cart. axis [1,1,0]        

 cryst.   s( 5) = (    -1          0          1      )    f =( -0.2500000 )
                  (     0         -1          1      )       ( -0.2500000 )
                  (     0          0          1      )       ( -0.2500000 )

 cart.    s( 5) = (  0.0000000  1.0000000  0.0000000 )    f =( -0.3535534 )
                  (  1.0000000  0.0000000  0.0000000 )       ( -0.3535534 )
                  (  0.0000000  0.0000000 -1.0000000 )       ( -0.3535534 )


      isym =  6     180 deg rotation - cart. axis [1,-1,0]       

 cryst.   s( 6) = (     0         -1          0      )    f =( -0.2500000 )
                  (    -1          0          0      )       ( -0.2500000 )
                  (     0          0         -1      )       ( -0.2500000 )

 cart.    s( 6) = (  0.0000000 -1.0000000  0.0000000 )    f =( -0.3535534 )
                  ( -1.0000000  0.0000000  0.0000000 )       ( -0.3535534 )
                  (  0.0000000  0.0000000 -1.0000000 )       ( -0.3535534 )


      isym =  7      90 deg rotation - cart. axis [0,0,-1]       

 cryst.   s( 7) = (     0          1          0      )    f =( -0.2500000 )
                  (     0          1         -1      )       ( -0.2500000 )
                  (    -1          1          0      )       ( -0.2500000 )

 cart.    s( 7) = (  0.0000000  1.0000000  0.0000000 )    f =( -0.3535534 )
                  ( -1.0000000  0.0000000  0.0000000 )       ( -0.3535534 )
                  (  0.0000000  0.0000000  1.0000000 )       ( -0.3535534 )


      isym =  8      90 deg rotation - cart. axis [0,0,1]        

 cryst.   s( 8) = (     1          0         -1      )    f =( -0.2500000 )
                  (     1          0          0      )       ( -0.2500000 )
                  (     1         -1          0      )       ( -0.2500000 )

 cart.    s( 8) = (  0.0000000 -1.0000000  0.0000000 )    f =( -0.3535534 )
                  (  1.0000000  0.0000000  0.0000000 )       ( -0.3535534 )
                  (  0.0000000  0.0000000  1.0000000 )       ( -0.3535534 )


      isym =  9     180 deg rotation - cart. axis [1,0,1]        

 cryst.   s( 9) = (    -1          1          0      )    f =( -0.2500000 )
                  (     0          1          0      )       ( -0.2500000 )
                  (     0          1         -1      )       ( -0.2500000 )

 cart.    s( 9) = (  0.0000000  0.0000000  1.0000000 )    f =( -0.3535534 )
                  (  0.0000000 -1.0000000  0.0000000 )       ( -0.3535534 )
                  (  1.0000000  0.0000000  0.0000000 )       ( -0.3535534 )


      isym = 10     180 deg rotation - cart. axis [-1,0,1]       

 cryst.   s(10) = (     0          0         -1      )    f =( -0.2500000 )
                  (     0         -1          0      )       ( -0.2500000 )
                  (    -1          0          0      )       ( -0.2500000 )

 cart.    s(10) = (  0.0000000  0.0000000 -1.0000000 )    f =( -0.3535534 )
                  (  0.0000000 -1.0000000  0.0000000 )       ( -0.3535534 )
                  ( -1.0000000  0.0000000  0.0000000 )       ( -0.3535534 )


      isym = 11      90 deg rotation - cart. axis [0,1,0]        

 cryst.   s(11) = (     0          0          1      )    f =( -0.2500000 )
                  (    -1          0          1      )       ( -0.2500000 )
                  (     0         -1          1      )       ( -0.2500000 )

 cart.    s(11) = (  0.0000000  0.0000000  1.0000000 )    f =( -0.3535534 )
                  (  0.0000000  1.0000000  0.0000000 )       ( -0.3535534 )
                  ( -1.0000000  0.0000000  0.0000000 )       ( -0.3535534 )


      isym = 12      90 deg rotation - cart. axis [0,-1,0]       

 cryst.   s(12) = (     1         -1          0      )    f =( -0.2500000 )
                  (     1          0         -1      )       ( -0.2500000 )
                  (     1          0          0      )       ( -0.2500000 )

 cart.    s(12) = (  0.0000000  0.0000000 -1.0000000 )    f =( -0.3535534 )
                  (  0.0000000  1.0000000  0.0000000 )       ( -0.3535534 )
                  (  1.0000000  0.0000000  0.0000000 )       ( -0.3535534 )


      isym = 13     180 deg rotation - cart. axis [0,1,1]        

 cryst.   s(13) = (     1          0          0      )    f =( -0.2500000 )
                  (     1         -1          0      )       ( -0.2500000 )
                  (     1          0         -1      )       ( -0.2500000 )

 cart.    s(13) = ( -1.0000000  0.0000000  0.0000000 )    f =( -0.3535534 )
                  (  0.0000000  0.0000000  1.0000000 )       ( -0.3535534 )
                  (  0.0000000  1.0000000  0.0000000 )       ( -0.3535534 )


      isym = 14     180 deg rotation - cart. axis [0,1,-1]       

 cryst.   s(14) = (    -1          0          0      )    f =( -0.2500000 )
                  (     0          0         -1      )       ( -0.2500000 )
                  (     0         -1          0      )       ( -0.2500000 )

 cart.    s(14) = ( -1.0000000  0.0000000  0.0000000 )    f =( -0.3535534 )
                  (  0.0000000  0.0000000 -1.0000000 )       ( -0.3535534 )
                  (  0.0000000 -1.0000000  0.0000000 )       ( -0.3535534 )


      isym = 15      90 deg rotation - cart. axis [-1,0,0]       

 cryst.   s(15) = (     0         -1          1      )    f =( -0.2500000 )
                  (     0          0          1      )       ( -0.2500000 )
                  (    -1          0          1      )       ( -0.2500000 )

 cart.    s(15) = (  1.0000000  0.0000000  0.0000000 )    f =( -0.3535534 )
                  (  0.0000000  0.0000000  1.0000000 )       ( -0.3535534 )
                  (  0.0000000 -1.0000000  0.0000000 )       ( -0.3535534 )


      isym = 16      90 deg rotation - cart. axis [1,0,0]        

 cryst.   s(16) = (     0          1         -1      )    f =( -0.2500000 )
                  (    -1          1          0      )       ( -0.2500000 )
                  (     0          1          0      )       ( -0.2500000 )

 cart.    s(16) = (  1.0000000  0.0000000  0.0000000 )    f =( -0.3535534 )
                  (  0.0000000  0.0000000 -1.0000000 )       ( -0.3535534 )
                  (  0.0000000  1.0000000  0.0000000 )       ( -0.3535534 )


      isym = 17     120 deg rotation - cart. axis [-1,-1,-1]     

 cryst.   s(17) = (     0          0          1      )
                  (     1          0          0      )
                  (     0          1          0      )

 cart.    s(17) = (  0.0000000  1.0000000  0.0000000 )
                  (  0.0000000  0.0000000  1.0000000 )
                  (  1.0000000  0.0000000  0.0000000 )


      isym = 18     120 deg rotation - cart. axis [-1,1,1]       

 cryst.   s(18) = (     1         -1          0      )
                  (     0         -1          1      )
                  (     0         -1          0      )

 cart.    s(18) = (  0.0000000 -1.0000000  0.0000000 )
                  (  0.0000000  0.0000000  1.0000000 )
                  ( -1.0000000  0.0000000  0.0000000 )


      isym = 19     120 deg rotation - cart. axis [1,1,-1]       

 cryst.   s(19) = (    -1          1          0      )
                  (    -1          0          0      )
                  (    -1          0          1      )

 cart.    s(19) = (  0.0000000  1.0000000  0.0000000 )
                  (  0.0000000  0.0000000 -1.0000000 )
                  ( -1.0000000  0.0000000  0.0000000 )


      isym = 20     120 deg rotation - cart. axis [1,-1,1]       

 cryst.   s(20) = (     0          0         -1      )
                  (     0          1         -1      )
                  (     1          0         -1      )

 cart.    s(20) = (  0.0000000 -1.0000000  0.0000000 )
                  (  0.0000000  0.0000000 -1.0000000 )
                  (  1.0000000  0.0000000  0.0000000 )


      isym = 21     120 deg rotation - cart. axis [1,1,1]        

 cryst.   s(21) = (     0          1          0      )
                  (     0          0          1      )
                  (     1          0          0      )

 cart.    s(21) = (  0.0000000  0.0000000  1.0000000 )
                  (  1.0000000  0.0000000  0.0000000 )
                  (  0.0000000  1.0000000  0.0000000 )


      isym = 22     120 deg rotation - cart. axis [-1,1,-1]      

 cryst.   s(22) = (    -1          0          1      )
                  (    -1          1          0      )
                  (    -1          0          0      )

 cart.    s(22) = (  0.0000000  0.0000000  1.0000000 )
                  ( -1.0000000  0.0000000  0.0000000 )
                  (  0.0000000 -1.0000000  0.0000000 )


      isym = 23     120 deg rotation - cart. axis [1,-1,-1]      

 cryst.   s(23) = (     1          0         -1      )
                  (     0          0         -1      )
                  (     0          1         -1      )

 cart.    s(23) = (  0.0000000  0.0000000 -1.0000000 )
                  ( -1.0000000  0.0000000  0.0000000 )
                  (  0.0000000  1.0000000  0.0000000 )


      isym = 24     120 deg rotation - cart. axis [-1,-1,1]      

 cryst.   s(24) = (     0         -1          0      )
                  (     1         -1          0      )
                  (     0         -1          1      )

 cart.    s(24) = (  0.0000000  0.0000000 -1.0000000 )
                  (  1.0000000  0.0000000  0.0000000 )
                  (  0.0000000 -1.0000000  0.0000000 )


      isym = 25     inversion                                    

 cryst.   s(25) = (    -1          0          0      )    f =( -0.2500000 )
                  (     0         -1          0      )       ( -0.2500000 )
                  (     0          0         -1      )       ( -0.2500000 )

 cart.    s(25) = ( -1.0000000  0.0000000  0.0000000 )    f =( -0.3535534 )
                  (  0.0000000 -1.0000000  0.0000000 )       ( -0.3535534 )
                  (  0.0000000  0.0000000 -1.0000000 )       ( -0.3535534 )


      isym = 26     inv. 180 deg rotation - cart. axis [0,0,1]   

 cryst.   s(26) = (     0         -1          1      )    f =( -0.2500000 )
                  (    -1          0          1      )       ( -0.2500000 )
                  (     0          0          1      )       ( -0.2500000 )

 cart.    s(26) = (  1.0000000  0.0000000  0.0000000 )    f =( -0.3535534 )
                  (  0.0000000  1.0000000  0.0000000 )       ( -0.3535534 )
                  (  0.0000000  0.0000000 -1.0000000 )       ( -0.3535534 )


      isym = 27     inv. 180 deg rotation - cart. axis [0,1,0]   

 cryst.   s(27) = (     0          1         -1      )    f =( -0.2500000 )
                  (     0          1          0      )       ( -0.2500000 )
                  (    -1          1          0      )       ( -0.2500000 )

 cart.    s(27) = (  1.0000000  0.0000000  0.0000000 )    f =( -0.3535534 )
                  (  0.0000000 -1.0000000  0.0000000 )       ( -0.3535534 )
                  (  0.0000000  0.0000000  1.0000000 )       ( -0.3535534 )


      isym = 28     inv. 180 deg rotation - cart. axis [1,0,0]   

 cryst.   s(28) = (     1          0          0      )    f =( -0.2500000 )
                  (     1          0         -1      )       ( -0.2500000 )
                  (     1         -1          0      )       ( -0.2500000 )

 cart.    s(28) = ( -1.0000000  0.0000000  0.0000000 )    f =( -0.3535534 )
                  (  0.0000000  1.0000000  0.0000000 )       ( -0.3535534 )
                  (  0.0000000  0.0000000  1.0000000 )       ( -0.3535534 )


      isym = 29     inv. 180 deg rotation - cart. axis [1,1,0]   

 cryst.   s(29) = (     1          0         -1      )
                  (     0          1         -1      )
                  (     0          0         -1      )

 cart.    s(29) = (  0.0000000 -1.0000000  0.0000000 )
                  ( -1.0000000  0.0000000  0.0000000 )
                  (  0.0000000  0.0000000  1.0000000 )


      isym = 30     inv. 180 deg rotation - cart. axis [1,-1,0]  

 cryst.   s(30) = (     0          1          0      )
                  (     1          0          0      )
                  (     0          0          1      )

 cart.    s(30) = (  0.0000000  1.0000000  0.0000000 )
                  (  1.0000000  0.0000000  0.0000000 )
                  (  0.0000000  0.0000000  1.0000000 )


      isym = 31     inv.  90 deg rotation - cart. axis [0,0,-1]  

 cryst.   s(31) = (     0         -1          0      )
                  (     0         -1          1      )
                  (     1         -1          0      )

 cart.    s(31) = (  0.0000000 -1.0000000  0.0000000 )
                  (  1.0000000  0.0000000  0.0000000 )
                  (  0.0000000  0.0000000 -1.0000000 )


      isym = 32     inv.  90 deg rotation - cart. axis [0,0,1]   

 cryst.   s(32) = (    -1          0          1      )
                  (    -1          0          0      )
                  (    -1          1          0      )

 cart.    s(32) = (  0.0000000  1.0000000  0.0000000 )
                  ( -1.0000000  0.0000000  0.0000000 )
                  (  0.0000000  0.0000000 -1.0000000 )


      isym = 33     inv. 180 deg rotation - cart. axis [1,0,1]   

 cryst.   s(33) = (     1         -1          0      )
                  (     0         -1          0      )
                  (     0         -1          1      )

 cart.    s(33) = (  0.0000000  0.0000000 -1.0000000 )
                  (  0.0000000  1.0000000  0.0000000 )
                  ( -1.0000000  0.0000000  0.0000000 )


      isym = 34     inv. 180 deg rotation - cart. axis [-1,0,1]  

 cryst.   s(34) = (     0          0          1      )
                  (     0          1          0      )
                  (     1          0          0      )

 cart.    s(34) = (  0.0000000  0.0000000  1.0000000 )
                  (  0.0000000  1.0000000  0.0000000 )
                  (  1.0000000  0.0000000  0.0000000 )


      isym = 35     inv.  90 deg rotation - cart. axis [0,1,0]   

 cryst.   s(35) = (     0          0         -1      )
                  (     1          0         -1      )
                  (     0          1         -1      )

 cart.    s(35) = (  0.0000000  0.0000000 -1.0000000 )
                  (  0.0000000 -1.0000000  0.0000000 )
                  (  1.0000000  0.0000000  0.0000000 )


      isym = 36     inv.  90 deg rotation - cart. axis [0,-1,0]  

 cryst.   s(36) = (    -1          1          0      )
                  (    -1          0          1      )
                  (    -1          0          0      )

 cart.    s(36) = (  0.0000000  0.0000000  1.0000000 )
                  (  0.0000000 -1.0000000  0.0000000 )
                  ( -1.0000000  0.0000000  0.0000000 )


      isym = 37     inv. 180 deg rotation - cart. axis [0,1,1]   

 cryst.   s(37) = (    -1          0          0      )
                  (    -1          1          0      )
                  (    -1          0          1      )

 cart.    s(37) = (  1.0000000  0.0000000  0.0000000 )
                  (  0.0000000  0.0000000 -1.0000000 )
                  (  0.0000000 -1.0000000  0.0000000 )


      isym = 38     inv. 180 deg rotation - cart. axis [0,1,-1]  

 cryst.   s(38) = (     1          0          0      )
                  (     0          0          1      )
                  (     0          1          0      )

 cart.    s(38) = (  1.0000000  0.0000000  0.0000000 )
                  (  0.0000000  0.0000000  1.0000000 )
                  (  0.0000000  1.0000000  0.0000000 )


      isym = 39     inv.  90 deg rotation - cart. axis [-1,0,0]  

 cryst.   s(39) = (     0          1         -1      )
                  (     0          0         -1      )
                  (     1          0         -1      )

 cart.    s(39) = ( -1.0000000  0.0000000  0.0000000 )
                  (  0.0000000  0.0000000 -1.0000000 )
                  (  0.0000000  1.0000000  0.0000000 )


      isym = 40     inv.  90 deg rotation - cart. axis [1,0,0]   

 cryst.   s(40) = (     0         -1          1      )
                  (     1         -1          0      )
                  (     0         -1          0      )

 cart.    s(40) = ( -1.0000000  0.0000000  0.0000000 )
                  (  0.0000000  0.0000000  1.0000000 )
                  (  0.0000000 -1.0000000  0.0000000 )


      isym = 41     inv. 120 deg rotation - cart. axis [-1,-1,-1]

 cryst.   s(41) = (     0          0         -1      )    f =( -0.2500000 )
                  (    -1          0          0      )       ( -0.2500000 )
                  (     0         -1          0      )       ( -0.2500000 )

 cart.    s(41) = (  0.0000000 -1.0000000  0.0000000 )    f =( -0.3535534 )
                  (  0.0000000  0.0000000 -1.0000000 )       ( -0.3535534 )
                  ( -1.0000000  0.0000000  0.0000000 )       ( -0.3535534 )


      isym = 42     inv. 120 deg rotation - cart. axis [-1,1,1]  

 cryst.   s(42) = (    -1          1          0      )    f =( -0.2500000 )
                  (     0          1         -1      )       ( -0.2500000 )
                  (     0          1          0      )       ( -0.2500000 )

 cart.    s(42) = (  0.0000000  1.0000000  0.0000000 )    f =( -0.3535534 )
                  (  0.0000000  0.0000000 -1.0000000 )       ( -0.3535534 )
                  (  1.0000000  0.0000000  0.0000000 )       ( -0.3535534 )


      isym = 43     inv. 120 deg rotation - cart. axis [1,1,-1]  

 cryst.   s(43) = (     1         -1          0      )    f =( -0.2500000 )
                  (     1          0          0      )       ( -0.2500000 )
                  (     1          0         -1      )       ( -0.2500000 )

 cart.    s(43) = (  0.0000000 -1.0000000  0.0000000 )    f =( -0.3535534 )
                  (  0.0000000  0.0000000  1.0000000 )       ( -0.3535534 )
                  (  1.0000000  0.0000000  0.0000000 )       ( -0.3535534 )


      isym = 44     inv. 120 deg rotation - cart. axis [1,-1,1]  

 cryst.   s(44) = (     0          0          1      )    f =( -0.2500000 )
                  (     0         -1          1      )       ( -0.2500000 )
                  (    -1          0          1      )       ( -0.2500000 )

 cart.    s(44) = (  0.0000000  1.0000000  0.0000000 )    f =( -0.3535534 )
                  (  0.0000000  0.0000000  1.0000000 )       ( -0.3535534 )
                  ( -1.0000000  0.0000000  0.0000000 )       ( -0.3535534 )


      isym = 45     inv. 120 deg rotation - cart. axis [1,1,1]   

 cryst.   s(45) = (     0         -1          0      )    f =( -0.2500000 )
                  (     0          0         -1      )       ( -0.2500000 )
                  (    -1          0          0      )       ( -0.2500000 )

 cart.    s(45) = (  0.0000000  0.0000000 -1.0000000 )    f =( -0.3535534 )
                  ( -1.0000000  0.0000000  0.0000000 )       ( -0.3535534 )
                  (  0.0000000 -1.0000000  0.0000000 )       ( -0.3535534 )


      isym = 46     inv. 120 deg rotation - cart. axis [-1,1,-1] 

 cryst.   s(46) = (     1          0         -1      )    f =( -0.2500000 )
                  (     1         -1          0      )       ( -0.2500000 )
                  (     1          0          0      )       ( -0.2500000 )

 cart.    s(46) = (  0.0000000  0.0000000 -1.0000000 )    f =( -0.3535534 )
                  (  1.0000000  0.0000000  0.0000000 )       ( -0.3535534 )
                  (  0.0000000  1.0000000  0.0000000 )       ( -0.3535534 )


      isym = 47     inv. 120 deg rotation - cart. axis [1,-1,-1] 

 cryst.   s(47) = (    -1          0          1      )    f =( -0.2500000 )
                  (     0          0          1      )       ( -0.2500000 )
                  (     0         -1          1      )       ( -0.2500000 )

 cart.    s(47) = (  0.0000000  0.0000000  1.0000000 )    f =( -0.3535534 )
                  (  1.0000000  0.0000000  0.0000000 )       ( -0.3535534 )
                  (  0.0000000 -1.0000000  0.0000000 )       ( -0.3535534 )


      isym = 48     inv. 120 deg rotation - cart. axis [-1,-1,1] 

 cryst.   s(48) = (     0          1          0      )    f =( -0.2500000 )
                  (    -1          1          0      )       ( -0.2500000 )
                  (     0          1         -1      )       ( -0.2500000 )

 cart.    s(48) = (  0.0000000  0.0000000  1.0000000 )    f =( -0.3535534 )
                  ( -1.0000000  0.0000000  0.0000000 )       ( -0.3535534 )
                  (  0.0000000  1.0000000  0.0000000 )       ( -0.3535534 )


   Cartesian axes

     site n.     atom                  positions (alat units)
         1           Sn  tau(   1) = (   0.0000000   0.0000000   0.0000000  )
         2           Sn  tau(   2) = (   0.3535534   0.3535534   0.3535534  )

   Crystallographic axes

     site n.     atom                  positions (cryst. coord.)
         1           Sn  tau(   1) = (  0.0000000  0.0000000  0.0000000  )
         2           Sn  tau(   2) = (  0.2500000  0.2500000  0.2500000  )

     number of k points=  2300  gaussian smearing, width (Ry)=  0.0001
                       cart. coord. in units 2pi/alat
        k(    1) = (   0.0000000   0.0000000   0.0000000), wk =   0.0000219
        k(    2) = (   0.0157135   0.0157135  -0.0157135), wk =   0.0001756
        k(    3) = (   0.0314270   0.0314270  -0.0314270), wk =   0.0001756
        k(    4) = (   0.0471405   0.0471405  -0.0471405), wk =   0.0001756
        k(    5) = (   0.0628539   0.0628539  -0.0628539), wk =   0.0001756
        k(    6) = (   0.0785674   0.0785674  -0.0785674), wk =   0.0001756
        k(    7) = (   0.0942809   0.0942809  -0.0942809), wk =   0.0001756
        k(    8) = (   0.1099944   0.1099944  -0.1099944), wk =   0.0001756
        k(    9) = (   0.1257079   0.1257079  -0.1257079), wk =   0.0001756
        k(   10) = (   0.1414214   0.1414214  -0.1414214), wk =   0.0001756
        k(   11) = (   0.1571348   0.1571348  -0.1571348), wk =   0.0001756
        k(   12) = (   0.1728483   0.1728483  -0.1728483), wk =   0.0001756
        k(   13) = (   0.1885618   0.1885618  -0.1885618), wk =   0.0001756
        k(   14) = (   0.2042753   0.2042753  -0.2042753), wk =   0.0001756
        k(   15) = (   0.2199888   0.2199888  -0.2199888), wk =   0.0001756
        k(   16) = (   0.2357023   0.2357023  -0.2357023), wk =   0.0001756
        k(   17) = (   0.2514157   0.2514157  -0.2514157), wk =   0.0001756
        k(   18) = (   0.2671292   0.2671292  -0.2671292), wk =   0.0001756
        k(   19) = (   0.2828427   0.2828427  -0.2828427), wk =   0.0001756
        k(   20) = (   0.2985562   0.2985562  -0.2985562), wk =   0.0001756
        k(   21) = (   0.3142697   0.3142697  -0.3142697), wk =   0.0001756
        k(   22) = (   0.3299832   0.3299832  -0.3299832), wk =   0.0001756
        k(   23) = (   0.3456966   0.3456966  -0.3456966), wk =   0.0001756
        k(   24) = (   0.0314270   0.0000000   0.0000000), wk =   0.0001317
        k(   25) = (   0.0471405   0.0157135  -0.0157135), wk =   0.0005267
        k(   26) = (   0.0628539   0.0314270  -0.0314270), wk =   0.0005267
        k(   27) = (   0.0785674   0.0471405  -0.0471405), wk =   0.0005267
        k(   28) = (   0.0942809   0.0628539  -0.0628539), wk =   0.0005267
        k(   29) = (   0.1099944   0.0785674  -0.0785674), wk =   0.0005267
        k(   30) = (   0.1257079   0.0942809  -0.0942809), wk =   0.0005267
        k(   31) = (   0.1414214   0.1099944  -0.1099944), wk =   0.0005267
        k(   32) = (   0.1571348   0.1257079  -0.1257079), wk =   0.0005267
        k(   33) = (   0.1728483   0.1414214  -0.1414214), wk =   0.0005267
        k(   34) = (   0.1885618   0.1571348  -0.1571348), wk =   0.0005267
        k(   35) = (   0.2042753   0.1728483  -0.1728483), wk =   0.0005267
        k(   36) = (   0.2199888   0.1885618  -0.1885618), wk =   0.0005267
        k(   37) = (   0.2357023   0.2042753  -0.2042753), wk =   0.0005267
        k(   38) = (   0.2514157   0.2199888  -0.2199888), wk =   0.0005267
        k(   39) = (   0.2671292   0.2357023  -0.2357023), wk =   0.0005267
        k(   40) = (   0.2828427   0.2514157  -0.2514157), wk =   0.0005267
        k(   41) = (   0.2985562   0.2671292  -0.2671292), wk =   0.0005267
        k(   42) = (   0.3142697   0.2828427  -0.2828427), wk =   0.0005267
        k(   43) = (   0.3299832   0.2985562  -0.2985562), wk =   0.0005267
        k(   44) = (   0.3456966   0.3142697  -0.3142697), wk =   0.0005267
        k(   45) = (   0.3614101   0.3299832  -0.3299832), wk =   0.0005267
        k(   46) = (  -0.3299832  -0.3614101   0.3614101), wk =   0.0005267
        k(   47) = (  -0.3142697  -0.3456966   0.3456966), wk =   0.0005267
        k(   48) = (  -0.2985562  -0.3299832   0.3299832), wk =   0.0005267
        k(   49) = (  -0.2828427  -0.3142697   0.3142697), wk =   0.0005267
        k(   50) = (  -0.2671292  -0.2985562   0.2985562), wk =   0.0005267
        k(   51) = (  -0.2514157  -0.2828427   0.2828427), wk =   0.0005267
        k(   52) = (  -0.2357023  -0.2671292   0.2671292), wk =   0.0005267
        k(   53) = (  -0.2199888  -0.2514157   0.2514157), wk =   0.0005267
        k(   54) = (  -0.2042753  -0.2357023   0.2357023), wk =   0.0005267
        k(   55) = (  -0.1885618  -0.2199888   0.2199888), wk =   0.0005267
        k(   56) = (  -0.1728483  -0.2042753   0.2042753), wk =   0.0005267
        k(   57) = (  -0.1571348  -0.1885618   0.1885618), wk =   0.0005267
        k(   58) = (  -0.1414214  -0.1728483   0.1728483), wk =   0.0005267
        k(   59) = (  -0.1257079  -0.1571348   0.1571348), wk =   0.0005267
        k(   60) = (  -0.1099944  -0.1414214   0.1414214), wk =   0.0005267
        k(   61) = (  -0.0942809  -0.1257079   0.1257079), wk =   0.0005267
        k(   62) = (  -0.0785674  -0.1099944   0.1099944), wk =   0.0005267
        k(   63) = (  -0.0628539  -0.0942809   0.0942809), wk =   0.0005267
        k(   64) = (  -0.0471405  -0.0785674   0.0785674), wk =   0.0005267
        k(   65) = (  -0.0314270  -0.0628539   0.0628539), wk =   0.0005267
        k(   66) = (  -0.0157135  -0.0471405   0.0471405), wk =   0.0005267
        k(   67) = (  -0.0000000  -0.0314270   0.0314270), wk =   0.0002634
        k(   68) = (   0.0628539   0.0000000   0.0000000), wk =   0.0001317
        k(   69) = (   0.0785674   0.0157135  -0.0157135), wk =   0.0005267
        k(   70) = (   0.0942809   0.0314270  -0.0314270), wk =   0.0005267
        k(   71) = (   0.1099944   0.0471405  -0.0471405), wk =   0.0005267
        k(   72) = (   0.1257079   0.0628539  -0.0628539), wk =   0.0005267
        k(   73) = (   0.1414214   0.0785674  -0.0785674), wk =   0.0005267
        k(   74) = (   0.1571348   0.0942809  -0.0942809), wk =   0.0005267
        k(   75) = (   0.1728483   0.1099944  -0.1099944), wk =   0.0005267
        k(   76) = (   0.1885618   0.1257079  -0.1257079), wk =   0.0005267
        k(   77) = (   0.2042753   0.1414214  -0.1414214), wk =   0.0005267
        k(   78) = (   0.2199888   0.1571348  -0.1571348), wk =   0.0005267
        k(   79) = (   0.2357023   0.1728483  -0.1728483), wk =   0.0005267
        k(   80) = (   0.2514157   0.1885618  -0.1885618), wk =   0.0005267
        k(   81) = (   0.2671292   0.2042753  -0.2042753), wk =   0.0005267
        k(   82) = (   0.2828427   0.2199888  -0.2199888), wk =   0.0005267
        k(   83) = (   0.2985562   0.2357023  -0.2357023), wk =   0.0005267
        k(   84) = (   0.3142697   0.2514157  -0.2514157), wk =   0.0005267
        k(   85) = (   0.3299832   0.2671292  -0.2671292), wk =   0.0005267
        k(   86) = (   0.3456966   0.2828427  -0.2828427), wk =   0.0005267
        k(   87) = (   0.3614101   0.2985562  -0.2985562), wk =   0.0005267
        k(   88) = (   0.3771236   0.3142697  -0.3142697), wk =   0.0005267
        k(   89) = (  -0.3142697  -0.3771236   0.3771236), wk =   0.0005267
        k(   90) = (  -0.2985562  -0.3614101   0.3614101), wk =   0.0005267
        k(   91) = (  -0.2828427  -0.3456966   0.3456966), wk =   0.0005267
        k(   92) = (  -0.2671292  -0.3299832   0.3299832), wk =   0.0005267
        k(   93) = (  -0.2514157  -0.3142697   0.3142697), wk =   0.0005267
        k(   94) = (  -0.2357023  -0.2985562   0.2985562), wk =   0.0005267
        k(   95) = (  -0.2199888  -0.2828427   0.2828427), wk =   0.0005267
        k(   96) = (  -0.2042753  -0.2671292   0.2671292), wk =   0.0005267
        k(   97) = (  -0.1885618  -0.2514157   0.2514157), wk =   0.0005267
        k(   98) = (  -0.1728483  -0.2357023   0.2357023), wk =   0.0005267
        k(   99) = (  -0.1571348  -0.2199888   0.2199888), wk =   0.0005267
        k(  100) = (  -0.1414214  -0.2042753   0.2042753), wk =   0.0005267
        k(  101) = (  -0.1257079  -0.1885618   0.1885618), wk =   0.0005267
        k(  102) = (  -0.1099944  -0.1728483   0.1728483), wk =   0.0005267
        k(  103) = (  -0.0942809  -0.1571348   0.1571348), wk =   0.0005267
        k(  104) = (  -0.0785674  -0.1414214   0.1414214), wk =   0.0005267
        k(  105) = (  -0.0628539  -0.1257079   0.1257079), wk =   0.0005267
        k(  106) = (  -0.0471405  -0.1099944   0.1099944), wk =   0.0005267
        k(  107) = (  -0.0314270  -0.0942809   0.0942809), wk =   0.0005267
        k(  108) = (  -0.0157135  -0.0785674   0.0785674), wk =   0.0005267
        k(  109) = (   0.0000000  -0.0628539   0.0628539), wk =   0.0002634
        k(  110) = (   0.0942809   0.0000000   0.0000000), wk =   0.0001317
        k(  111) = (   0.1099944   0.0157135  -0.0157135), wk =   0.0005267
        k(  112) = (   0.1257079   0.0314270  -0.0314270), wk =   0.0005267
        k(  113) = (   0.1414214   0.0471405  -0.0471405), wk =   0.0005267
        k(  114) = (   0.1571348   0.0628539  -0.0628539), wk =   0.0005267
        k(  115) = (   0.1728483   0.0785674  -0.0785674), wk =   0.0005267
        k(  116) = (   0.1885618   0.0942809  -0.0942809), wk =   0.0005267
        k(  117) = (   0.2042753   0.1099944  -0.1099944), wk =   0.0005267
        k(  118) = (   0.2199888   0.1257079  -0.1257079), wk =   0.0005267
        k(  119) = (   0.2357023   0.1414214  -0.1414214), wk =   0.0005267
        k(  120) = (   0.2514157   0.1571348  -0.1571348), wk =   0.0005267
        k(  121) = (   0.2671292   0.1728483  -0.1728483), wk =   0.0005267
        k(  122) = (   0.2828427   0.1885618  -0.1885618), wk =   0.0005267
        k(  123) = (   0.2985562   0.2042753  -0.2042753), wk =   0.0005267
        k(  124) = (   0.3142697   0.2199888  -0.2199888), wk =   0.0005267
        k(  125) = (   0.3299832   0.2357023  -0.2357023), wk =   0.0005267
        k(  126) = (   0.3456966   0.2514157  -0.2514157), wk =   0.0005267
        k(  127) = (   0.3614101   0.2671292  -0.2671292), wk =   0.0005267
        k(  128) = (   0.3771236   0.2828427  -0.2828427), wk =   0.0005267
        k(  129) = (   0.3928371   0.2985562  -0.2985562), wk =   0.0005267
        k(  130) = (  -0.2985562  -0.3928371   0.3928371), wk =   0.0005267
        k(  131) = (  -0.2828427  -0.3771236   0.3771236), wk =   0.0005267
        k(  132) = (  -0.2671292  -0.3614101   0.3614101), wk =   0.0005267
        k(  133) = (  -0.2514157  -0.3456966   0.3456966), wk =   0.0005267
        k(  134) = (  -0.2357023  -0.3299832   0.3299832), wk =   0.0005267
        k(  135) = (  -0.2199888  -0.3142697   0.3142697), wk =   0.0005267
        k(  136) = (  -0.2042753  -0.2985562   0.2985562), wk =   0.0005267
        k(  137) = (  -0.1885618  -0.2828427   0.2828427), wk =   0.0005267
        k(  138) = (  -0.1728483  -0.2671292   0.2671292), wk =   0.0005267
        k(  139) = (  -0.1571348  -0.2514157   0.2514157), wk =   0.0005267
        k(  140) = (  -0.1414214  -0.2357023   0.2357023), wk =   0.0005267
        k(  141) = (  -0.1257079  -0.2199888   0.2199888), wk =   0.0005267
        k(  142) = (  -0.1099944  -0.2042753   0.2042753), wk =   0.0005267
        k(  143) = (  -0.0942809  -0.1885618   0.1885618), wk =   0.0005267
        k(  144) = (  -0.0785674  -0.1728483   0.1728483), wk =   0.0005267
        k(  145) = (  -0.0628539  -0.1571348   0.1571348), wk =   0.0005267
        k(  146) = (  -0.0471405  -0.1414214   0.1414214), wk =   0.0005267
        k(  147) = (  -0.0314270  -0.1257079   0.1257079), wk =   0.0005267
        k(  148) = (  -0.0157135  -0.1099944   0.1099944), wk =   0.0005267
        k(  149) = (   0.0000000  -0.0942809   0.0942809), wk =   0.0002634
        k(  150) = (   0.1257079   0.0000000   0.0000000), wk =   0.0001317
        k(  151) = (   0.1414214   0.0157135  -0.0157135), wk =   0.0005267
        k(  152) = (   0.1571348   0.0314270  -0.0314270), wk =   0.0005267
        k(  153) = (   0.1728483   0.0471405  -0.0471405), wk =   0.0005267
        k(  154) = (   0.1885618   0.0628539  -0.0628539), wk =   0.0005267
        k(  155) = (   0.2042753   0.0785674  -0.0785674), wk =   0.0005267
        k(  156) = (   0.2199888   0.0942809  -0.0942809), wk =   0.0005267
        k(  157) = (   0.2357023   0.1099944  -0.1099944), wk =   0.0005267
        k(  158) = (   0.2514157   0.1257079  -0.1257079), wk =   0.0005267
        k(  159) = (   0.2671292   0.1414214  -0.1414214), wk =   0.0005267
        k(  160) = (   0.2828427   0.1571348  -0.1571348), wk =   0.0005267
        k(  161) = (   0.2985562   0.1728483  -0.1728483), wk =   0.0005267
        k(  162) = (   0.3142697   0.1885618  -0.1885618), wk =   0.0005267
        k(  163) = (   0.3299832   0.2042753  -0.2042753), wk =   0.0005267
        k(  164) = (   0.3456966   0.2199888  -0.2199888), wk =   0.0005267
        k(  165) = (   0.3614101   0.2357023  -0.2357023), wk =   0.0005267
        k(  166) = (   0.3771236   0.2514157  -0.2514157), wk =   0.0005267
        k(  167) = (   0.3928371   0.2671292  -0.2671292), wk =   0.0005267
        k(  168) = (   0.4085506   0.2828427  -0.2828427), wk =   0.0005267
        k(  169) = (  -0.2828427  -0.4085506   0.4085506), wk =   0.0005267
        k(  170) = (  -0.2671292  -0.3928371   0.3928371), wk =   0.0005267
        k(  171) = (  -0.2514157  -0.3771236   0.3771236), wk =   0.0005267
        k(  172) = (  -0.2357023  -0.3614101   0.3614101), wk =   0.0005267
        k(  173) = (  -0.2199888  -0.3456966   0.3456966), wk =   0.0005267
        k(  174) = (  -0.2042753  -0.3299832   0.3299832), wk =   0.0005267
        k(  175) = (  -0.1885618  -0.3142697   0.3142697), wk =   0.0005267
        k(  176) = (  -0.1728483  -0.2985562   0.2985562), wk =   0.0005267
        k(  177) = (  -0.1571348  -0.2828427   0.2828427), wk =   0.0005267
        k(  178) = (  -0.1414214  -0.2671292   0.2671292), wk =   0.0005267
        k(  179) = (  -0.1257079  -0.2514157   0.2514157), wk =   0.0005267
        k(  180) = (  -0.1099944  -0.2357023   0.2357023), wk =   0.0005267
        k(  181) = (  -0.0942809  -0.2199888   0.2199888), wk =   0.0005267
        k(  182) = (  -0.0785674  -0.2042753   0.2042753), wk =   0.0005267
        k(  183) = (  -0.0628539  -0.1885618   0.1885618), wk =   0.0005267
        k(  184) = (  -0.0471405  -0.1728483   0.1728483), wk =   0.0005267
        k(  185) = (  -0.0314270  -0.1571348   0.1571348), wk =   0.0005267
        k(  186) = (  -0.0157135  -0.1414214   0.1414214), wk =   0.0005267
        k(  187) = (  -0.0000000  -0.1257079   0.1257079), wk =   0.0002634
        k(  188) = (   0.1571348   0.0000000   0.0000000), wk =   0.0001317
        k(  189) = (   0.1728483   0.0157135  -0.0157135), wk =   0.0005267
        k(  190) = (   0.1885618   0.0314270  -0.0314270), wk =   0.0005267
        k(  191) = (   0.2042753   0.0471405  -0.0471405), wk =   0.0005267
        k(  192) = (   0.2199888   0.0628539  -0.0628539), wk =   0.0005267
        k(  193) = (   0.2357023   0.0785674  -0.0785674), wk =   0.0005267
        k(  194) = (   0.2514157   0.0942809  -0.0942809), wk =   0.0005267
        k(  195) = (   0.2671292   0.1099944  -0.1099944), wk =   0.0005267
        k(  196) = (   0.2828427   0.1257079  -0.1257079), wk =   0.0005267
        k(  197) = (   0.2985562   0.1414214  -0.1414214), wk =   0.0005267
        k(  198) = (   0.3142697   0.1571348  -0.1571348), wk =   0.0005267
        k(  199) = (   0.3299832   0.1728483  -0.1728483), wk =   0.0005267
        k(  200) = (   0.3456966   0.1885618  -0.1885618), wk =   0.0005267
        k(  201) = (   0.3614101   0.2042753  -0.2042753), wk =   0.0005267
        k(  202) = (   0.3771236   0.2199888  -0.2199888), wk =   0.0005267
        k(  203) = (   0.3928371   0.2357023  -0.2357023), wk =   0.0005267
        k(  204) = (   0.4085506   0.2514157  -0.2514157), wk =   0.0005267
        k(  205) = (   0.4242641   0.2671292  -0.2671292), wk =   0.0005267
        k(  206) = (  -0.2671292  -0.4242641   0.4242641), wk =   0.0005267
        k(  207) = (  -0.2514157  -0.4085506   0.4085506), wk =   0.0005267
        k(  208) = (  -0.2357023  -0.3928371   0.3928371), wk =   0.0005267
        k(  209) = (  -0.2199888  -0.3771236   0.3771236), wk =   0.0005267
        k(  210) = (  -0.2042753  -0.3614101   0.3614101), wk =   0.0005267
        k(  211) = (  -0.1885618  -0.3456966   0.3456966), wk =   0.0005267
        k(  212) = (  -0.1728483  -0.3299832   0.3299832), wk =   0.0005267
        k(  213) = (  -0.1571348  -0.3142697   0.3142697), wk =   0.0005267
        k(  214) = (  -0.1414214  -0.2985562   0.2985562), wk =   0.0005267
        k(  215) = (  -0.1257079  -0.2828427   0.2828427), wk =   0.0005267
        k(  216) = (  -0.1099944  -0.2671292   0.2671292), wk =   0.0005267
        k(  217) = (  -0.0942809  -0.2514157   0.2514157), wk =   0.0005267
        k(  218) = (  -0.0785674  -0.2357023   0.2357023), wk =   0.0005267
        k(  219) = (  -0.0628539  -0.2199888   0.2199888), wk =   0.0005267
        k(  220) = (  -0.0471405  -0.2042753   0.2042753), wk =   0.0005267
        k(  221) = (  -0.0314270  -0.1885618   0.1885618), wk =   0.0005267
        k(  222) = (  -0.0157135  -0.1728483   0.1728483), wk =   0.0005267
        k(  223) = (  -0.0000000  -0.1571348   0.1571348), wk =   0.0002634
        k(  224) = (   0.1885618   0.0000000   0.0000000), wk =   0.0001317
        k(  225) = (   0.2042753   0.0157135  -0.0157135), wk =   0.0005267
        k(  226) = (   0.2199888   0.0314270  -0.0314270), wk =   0.0005267
        k(  227) = (   0.2357023   0.0471405  -0.0471405), wk =   0.0005267
        k(  228) = (   0.2514157   0.0628539  -0.0628539), wk =   0.0005267
        k(  229) = (   0.2671292   0.0785674  -0.0785674), wk =   0.0005267
        k(  230) = (   0.2828427   0.0942809  -0.0942809), wk =   0.0005267
        k(  231) = (   0.2985562   0.1099944  -0.1099944), wk =   0.0005267
        k(  232) = (   0.3142697   0.1257079  -0.1257079), wk =   0.0005267
        k(  233) = (   0.3299832   0.1414214  -0.1414214), wk =   0.0005267
        k(  234) = (   0.3456966   0.1571348  -0.1571348), wk =   0.0005267
        k(  235) = (   0.3614101   0.1728483  -0.1728483), wk =   0.0005267
        k(  236) = (   0.3771236   0.1885618  -0.1885618), wk =   0.0005267
        k(  237) = (   0.3928371   0.2042753  -0.2042753), wk =   0.0005267
        k(  238) = (   0.4085506   0.2199888  -0.2199888), wk =   0.0005267
        k(  239) = (   0.4242641   0.2357023  -0.2357023), wk =   0.0005267
        k(  240) = (   0.4399776   0.2514157  -0.2514157), wk =   0.0005267
        k(  241) = (  -0.2514157  -0.4399776   0.4399776), wk =   0.0005267
        k(  242) = (  -0.2357023  -0.4242641   0.4242641), wk =   0.0005267
        k(  243) = (  -0.2199888  -0.4085506   0.4085506), wk =   0.0005267
        k(  244) = (  -0.2042753  -0.3928371   0.3928371), wk =   0.0005267
        k(  245) = (  -0.1885618  -0.3771236   0.3771236), wk =   0.0005267
        k(  246) = (  -0.1728483  -0.3614101   0.3614101), wk =   0.0005267
        k(  247) = (  -0.1571348  -0.3456966   0.3456966), wk =   0.0005267
        k(  248) = (  -0.1414214  -0.3299832   0.3299832), wk =   0.0005267
        k(  249) = (  -0.1257079  -0.3142697   0.3142697), wk =   0.0005267
        k(  250) = (  -0.1099944  -0.2985562   0.2985562), wk =   0.0005267
        k(  251) = (  -0.0942809  -0.2828427   0.2828427), wk =   0.0005267
        k(  252) = (  -0.0785674  -0.2671292   0.2671292), wk =   0.0005267
        k(  253) = (  -0.0628539  -0.2514157   0.2514157), wk =   0.0005267
        k(  254) = (  -0.0471405  -0.2357023   0.2357023), wk =   0.0005267
        k(  255) = (  -0.0314270  -0.2199888   0.2199888), wk =   0.0005267
        k(  256) = (  -0.0157135  -0.2042753   0.2042753), wk =   0.0005267
        k(  257) = (   0.0000000  -0.1885618   0.1885618), wk =   0.0002634
        k(  258) = (   0.2199888   0.0000000   0.0000000), wk =   0.0001317
        k(  259) = (   0.2357023   0.0157135  -0.0157135), wk =   0.0005267
        k(  260) = (   0.2514157   0.0314270  -0.0314270), wk =   0.0005267
        k(  261) = (   0.2671292   0.0471405  -0.0471405), wk =   0.0005267
        k(  262) = (   0.2828427   0.0628539  -0.0628539), wk =   0.0005267
        k(  263) = (   0.2985562   0.0785674  -0.0785674), wk =   0.0005267
        k(  264) = (   0.3142697   0.0942809  -0.0942809), wk =   0.0005267
        k(  265) = (   0.3299832   0.1099944  -0.1099944), wk =   0.0005267
        k(  266) = (   0.3456966   0.1257079  -0.1257079), wk =   0.0005267
        k(  267) = (   0.3614101   0.1414214  -0.1414214), wk =   0.0005267
        k(  268) = (   0.3771236   0.1571348  -0.1571348), wk =   0.0005267
        k(  269) = (   0.3928371   0.1728483  -0.1728483), wk =   0.0005267
        k(  270) = (   0.4085506   0.1885618  -0.1885618), wk =   0.0005267
        k(  271) = (   0.4242641   0.2042753  -0.2042753), wk =   0.0005267
        k(  272) = (   0.4399776   0.2199888  -0.2199888), wk =   0.0005267
        k(  273) = (   0.4556910   0.2357023  -0.2357023), wk =   0.0005267
        k(  274) = (  -0.2357023  -0.4556910   0.4556910), wk =   0.0005267
        k(  275) = (  -0.2199888  -0.4399776   0.4399776), wk =   0.0005267
        k(  276) = (  -0.2042753  -0.4242641   0.4242641), wk =   0.0005267
        k(  277) = (  -0.1885618  -0.4085506   0.4085506), wk =   0.0005267
        k(  278) = (  -0.1728483  -0.3928371   0.3928371), wk =   0.0005267
        k(  279) = (  -0.1571348  -0.3771236   0.3771236), wk =   0.0005267
        k(  280) = (  -0.1414214  -0.3614101   0.3614101), wk =   0.0005267
        k(  281) = (  -0.1257079  -0.3456966   0.3456966), wk =   0.0005267
        k(  282) = (  -0.1099944  -0.3299832   0.3299832), wk =   0.0005267
        k(  283) = (  -0.0942809  -0.3142697   0.3142697), wk =   0.0005267
        k(  284) = (  -0.0785674  -0.2985562   0.2985562), wk =   0.0005267
        k(  285) = (  -0.0628539  -0.2828427   0.2828427), wk =   0.0005267
        k(  286) = (  -0.0471405  -0.2671292   0.2671292), wk =   0.0005267
        k(  287) = (  -0.0314270  -0.2514157   0.2514157), wk =   0.0005267
        k(  288) = (  -0.0157135  -0.2357023   0.2357023), wk =   0.0005267
        k(  289) = (   0.0000000  -0.2199888   0.2199888), wk =   0.0002634
        k(  290) = (   0.2514157   0.0000000   0.0000000), wk =   0.0001317
        k(  291) = (   0.2671292   0.0157135  -0.0157135), wk =   0.0005267
        k(  292) = (   0.2828427   0.0314270  -0.0314270), wk =   0.0005267
        k(  293) = (   0.2985562   0.0471405  -0.0471405), wk =   0.0005267
        k(  294) = (   0.3142697   0.0628539  -0.0628539), wk =   0.0005267
        k(  295) = (   0.3299832   0.0785674  -0.0785674), wk =   0.0005267
        k(  296) = (   0.3456966   0.0942809  -0.0942809), wk =   0.0005267
        k(  297) = (   0.3614101   0.1099944  -0.1099944), wk =   0.0005267
        k(  298) = (   0.3771236   0.1257079  -0.1257079), wk =   0.0005267
        k(  299) = (   0.3928371   0.1414214  -0.1414214), wk =   0.0005267
        k(  300) = (   0.4085506   0.1571348  -0.1571348), wk =   0.0005267
        k(  301) = (   0.4242641   0.1728483  -0.1728483), wk =   0.0005267
        k(  302) = (   0.4399776   0.1885618  -0.1885618), wk =   0.0005267
        k(  303) = (   0.4556910   0.2042753  -0.2042753), wk =   0.0005267
        k(  304) = (   0.4714045   0.2199888  -0.2199888), wk =   0.0005267
        k(  305) = (  -0.2199888  -0.4714045   0.4714045), wk =   0.0005267
        k(  306) = (  -0.2042753  -0.4556910   0.4556910), wk =   0.0005267
        k(  307) = (  -0.1885618  -0.4399776   0.4399776), wk =   0.0005267
        k(  308) = (  -0.1728483  -0.4242641   0.4242641), wk =   0.0005267
        k(  309) = (  -0.1571348  -0.4085506   0.4085506), wk =   0.0005267
        k(  310) = (  -0.1414214  -0.3928371   0.3928371), wk =   0.0005267
        k(  311) = (  -0.1257079  -0.3771236   0.3771236), wk =   0.0005267
        k(  312) = (  -0.1099944  -0.3614101   0.3614101), wk =   0.0005267
        k(  313) = (  -0.0942809  -0.3456966   0.3456966), wk =   0.0005267
        k(  314) = (  -0.0785674  -0.3299832   0.3299832), wk =   0.0005267
        k(  315) = (  -0.0628539  -0.3142697   0.3142697), wk =   0.0005267
        k(  316) = (  -0.0471405  -0.2985562   0.2985562), wk =   0.0005267
        k(  317) = (  -0.0314270  -0.2828427   0.2828427), wk =   0.0005267
        k(  318) = (  -0.0157135  -0.2671292   0.2671292), wk =   0.0005267
        k(  319) = (  -0.0000000  -0.2514157   0.2514157), wk =   0.0002634
        k(  320) = (   0.2828427   0.0000000   0.0000000), wk =   0.0001317
        k(  321) = (   0.2985562   0.0157135  -0.0157135), wk =   0.0005267
        k(  322) = (   0.3142697   0.0314270  -0.0314270), wk =   0.0005267
        k(  323) = (   0.3299832   0.0471405  -0.0471405), wk =   0.0005267
        k(  324) = (   0.3456966   0.0628539  -0.0628539), wk =   0.0005267
        k(  325) = (   0.3614101   0.0785674  -0.0785674), wk =   0.0005267
        k(  326) = (   0.3771236   0.0942809  -0.0942809), wk =   0.0005267
        k(  327) = (   0.3928371   0.1099944  -0.1099944), wk =   0.0005267
        k(  328) = (   0.4085506   0.1257079  -0.1257079), wk =   0.0005267
        k(  329) = (   0.4242641   0.1414214  -0.1414214), wk =   0.0005267
        k(  330) = (   0.4399776   0.1571348  -0.1571348), wk =   0.0005267
        k(  331) = (   0.4556910   0.1728483  -0.1728483), wk =   0.0005267
        k(  332) = (   0.4714045   0.1885618  -0.1885618), wk =   0.0005267
        k(  333) = (   0.4871180   0.2042753  -0.2042753), wk =   0.0005267
        k(  334) = (  -0.2042753  -0.4871180   0.4871180), wk =   0.0005267
        k(  335) = (  -0.1885618  -0.4714045   0.4714045), wk =   0.0005267
        k(  336) = (  -0.1728483  -0.4556910   0.4556910), wk =   0.0005267
        k(  337) = (  -0.1571348  -0.4399776   0.4399776), wk =   0.0005267
        k(  338) = (  -0.1414214  -0.4242641   0.4242641), wk =   0.0005267
        k(  339) = (  -0.1257079  -0.4085506   0.4085506), wk =   0.0005267
        k(  340) = (  -0.1099944  -0.3928371   0.3928371), wk =   0.0005267
        k(  341) = (  -0.0942809  -0.3771236   0.3771236), wk =   0.0005267
        k(  342) = (  -0.0785674  -0.3614101   0.3614101), wk =   0.0005267
        k(  343) = (  -0.0628539  -0.3456966   0.3456966), wk =   0.0005267
        k(  344) = (  -0.0471405  -0.3299832   0.3299832), wk =   0.0005267
        k(  345) = (  -0.0314270  -0.3142697   0.3142697), wk =   0.0005267
        k(  346) = (  -0.0157135  -0.2985562   0.2985562), wk =   0.0005267
        k(  347) = (   0.0000000  -0.2828427   0.2828427), wk =   0.0002634
        k(  348) = (   0.3142697   0.0000000   0.0000000), wk =   0.0001317
        k(  349) = (   0.3299832   0.0157135  -0.0157135), wk =   0.0005267
        k(  350) = (   0.3456966   0.0314270  -0.0314270), wk =   0.0005267
        k(  351) = (   0.3614101   0.0471405  -0.0471405), wk =   0.0005267
        k(  352) = (   0.3771236   0.0628539  -0.0628539), wk =   0.0005267
        k(  353) = (   0.3928371   0.0785674  -0.0785674), wk =   0.0005267
        k(  354) = (   0.4085506   0.0942809  -0.0942809), wk =   0.0005267
        k(  355) = (   0.4242641   0.1099944  -0.1099944), wk =   0.0005267
        k(  356) = (   0.4399776   0.1257079  -0.1257079), wk =   0.0005267
        k(  357) = (   0.4556910   0.1414214  -0.1414214), wk =   0.0005267
        k(  358) = (   0.4714045   0.1571348  -0.1571348), wk =   0.0005267
        k(  359) = (   0.4871180   0.1728483  -0.1728483), wk =   0.0005267
        k(  360) = (   0.5028315   0.1885618  -0.1885618), wk =   0.0005267
        k(  361) = (  -0.1885618  -0.5028315   0.5028315), wk =   0.0005267
        k(  362) = (  -0.1728483  -0.4871180   0.4871180), wk =   0.0005267
        k(  363) = (  -0.1571348  -0.4714045   0.4714045), wk =   0.0005267
        k(  364) = (  -0.1414214  -0.4556910   0.4556910), wk =   0.0005267
        k(  365) = (  -0.1257079  -0.4399776   0.4399776), wk =   0.0005267
        k(  366) = (  -0.1099944  -0.4242641   0.4242641), wk =   0.0005267
        k(  367) = (  -0.0942809  -0.4085506   0.4085506), wk =   0.0005267
        k(  368) = (  -0.0785674  -0.3928371   0.3928371), wk =   0.0005267
        k(  369) = (  -0.0628539  -0.3771236   0.3771236), wk =   0.0005267
        k(  370) = (  -0.0471405  -0.3614101   0.3614101), wk =   0.0005267
        k(  371) = (  -0.0314270  -0.3456966   0.3456966), wk =   0.0005267
        k(  372) = (  -0.0157135  -0.3299832   0.3299832), wk =   0.0005267
        k(  373) = (   0.0000000  -0.3142697   0.3142697), wk =   0.0002634
        k(  374) = (   0.3456966   0.0000000   0.0000000), wk =   0.0001317
        k(  375) = (   0.3614101   0.0157135  -0.0157135), wk =   0.0005267
        k(  376) = (   0.3771236   0.0314270  -0.0314270), wk =   0.0005267
        k(  377) = (   0.3928371   0.0471405  -0.0471405), wk =   0.0005267
        k(  378) = (   0.4085506   0.0628539  -0.0628539), wk =   0.0005267
        k(  379) = (   0.4242641   0.0785674  -0.0785674), wk =   0.0005267
        k(  380) = (   0.4399776   0.0942809  -0.0942809), wk =   0.0005267
        k(  381) = (   0.4556910   0.1099944  -0.1099944), wk =   0.0005267
        k(  382) = (   0.4714045   0.1257079  -0.1257079), wk =   0.0005267
        k(  383) = (   0.4871180   0.1414214  -0.1414214), wk =   0.0005267
        k(  384) = (   0.5028315   0.1571348  -0.1571348), wk =   0.0005267
        k(  385) = (   0.5185450   0.1728483  -0.1728483), wk =   0.0005267
        k(  386) = (  -0.1728483  -0.5185450   0.5185450), wk =   0.0005267
        k(  387) = (  -0.1571348  -0.5028315   0.5028315), wk =   0.0005267
        k(  388) = (  -0.1414214  -0.4871180   0.4871180), wk =   0.0005267
        k(  389) = (  -0.1257079  -0.4714045   0.4714045), wk =   0.0005267
        k(  390) = (  -0.1099944  -0.4556910   0.4556910), wk =   0.0005267
        k(  391) = (  -0.0942809  -0.4399776   0.4399776), wk =   0.0005267
        k(  392) = (  -0.0785674  -0.4242641   0.4242641), wk =   0.0005267
        k(  393) = (  -0.0628539  -0.4085506   0.4085506), wk =   0.0005267
        k(  394) = (  -0.0471405  -0.3928371   0.3928371), wk =   0.0005267
        k(  395) = (  -0.0314270  -0.3771236   0.3771236), wk =   0.0005267
        k(  396) = (  -0.0157135  -0.3614101   0.3614101), wk =   0.0005267
        k(  397) = (  -0.0000000  -0.3456966   0.3456966), wk =   0.0002634
        k(  398) = (   0.3771236   0.0000000   0.0000000), wk =   0.0001317
        k(  399) = (   0.3928371   0.0157135  -0.0157135), wk =   0.0005267
        k(  400) = (   0.4085506   0.0314270  -0.0314270), wk =   0.0005267
        k(  401) = (   0.4242641   0.0471405  -0.0471405), wk =   0.0005267
        k(  402) = (   0.4399776   0.0628539  -0.0628539), wk =   0.0005267
        k(  403) = (   0.4556910   0.0785674  -0.0785674), wk =   0.0005267
        k(  404) = (   0.4714045   0.0942809  -0.0942809), wk =   0.0005267
        k(  405) = (   0.4871180   0.1099944  -0.1099944), wk =   0.0005267
        k(  406) = (   0.5028315   0.1257079  -0.1257079), wk =   0.0005267
        k(  407) = (   0.5185450   0.1414214  -0.1414214), wk =   0.0005267
        k(  408) = (   0.5342585   0.1571348  -0.1571348), wk =   0.0005267
        k(  409) = (  -0.1571348  -0.5342585   0.5342585), wk =   0.0005267
        k(  410) = (  -0.1414214  -0.5185450   0.5185450), wk =   0.0005267
        k(  411) = (  -0.1257079  -0.5028315   0.5028315), wk =   0.0005267
        k(  412) = (  -0.1099944  -0.4871180   0.4871180), wk =   0.0005267
        k(  413) = (  -0.0942809  -0.4714045   0.4714045), wk =   0.0005267
        k(  414) = (  -0.0785674  -0.4556910   0.4556910), wk =   0.0005267
        k(  415) = (  -0.0628539  -0.4399776   0.4399776), wk =   0.0005267
        k(  416) = (  -0.0471405  -0.4242641   0.4242641), wk =   0.0005267
        k(  417) = (  -0.0314270  -0.4085506   0.4085506), wk =   0.0005267
        k(  418) = (  -0.0157135  -0.3928371   0.3928371), wk =   0.0005267
        k(  419) = (  -0.0000000  -0.3771236   0.3771236), wk =   0.0002634
        k(  420) = (   0.4085506   0.0000000   0.0000000), wk =   0.0001317
        k(  421) = (   0.4242641   0.0157135  -0.0157135), wk =   0.0005267
        k(  422) = (   0.4399776   0.0314270  -0.0314270), wk =   0.0005267
        k(  423) = (   0.4556910   0.0471405  -0.0471405), wk =   0.0005267
        k(  424) = (   0.4714045   0.0628539  -0.0628539), wk =   0.0005267
        k(  425) = (   0.4871180   0.0785674  -0.0785674), wk =   0.0005267
        k(  426) = (   0.5028315   0.0942809  -0.0942809), wk =   0.0005267
        k(  427) = (   0.5185450   0.1099944  -0.1099944), wk =   0.0005267
        k(  428) = (   0.5342585   0.1257079  -0.1257079), wk =   0.0005267
        k(  429) = (   0.5499719   0.1414214  -0.1414214), wk =   0.0005267
        k(  430) = (  -0.1414214  -0.5499719   0.5499719), wk =   0.0005267
        k(  431) = (  -0.1257079  -0.5342585   0.5342585), wk =   0.0005267
        k(  432) = (  -0.1099944  -0.5185450   0.5185450), wk =   0.0005267
        k(  433) = (  -0.0942809  -0.5028315   0.5028315), wk =   0.0005267
        k(  434) = (  -0.0785674  -0.4871180   0.4871180), wk =   0.0005267
        k(  435) = (  -0.0628539  -0.4714045   0.4714045), wk =   0.0005267
        k(  436) = (  -0.0471405  -0.4556910   0.4556910), wk =   0.0005267
        k(  437) = (  -0.0314270  -0.4399776   0.4399776), wk =   0.0005267
        k(  438) = (  -0.0157135  -0.4242641   0.4242641), wk =   0.0005267
        k(  439) = (   0.0000000  -0.4085506   0.4085506), wk =   0.0002634
        k(  440) = (   0.4399776   0.0000000   0.0000000), wk =   0.0001317
        k(  441) = (   0.4556910   0.0157135  -0.0157135), wk =   0.0005267
        k(  442) = (   0.4714045   0.0314270  -0.0314270), wk =   0.0005267
        k(  443) = (   0.4871180   0.0471405  -0.0471405), wk =   0.0005267
        k(  444) = (   0.5028315   0.0628539  -0.0628539), wk =   0.0005267
        k(  445) = (   0.5185450   0.0785674  -0.0785674), wk =   0.0005267
        k(  446) = (   0.5342585   0.0942809  -0.0942809), wk =   0.0005267
        k(  447) = (   0.5499719   0.1099944  -0.1099944), wk =   0.0005267
        k(  448) = (   0.5656854   0.1257079  -0.1257079), wk =   0.0005267
        k(  449) = (  -0.1257079  -0.5656854   0.5656854), wk =   0.0005267
        k(  450) = (  -0.1099944  -0.5499719   0.5499719), wk =   0.0005267
        k(  451) = (  -0.0942809  -0.5342585   0.5342585), wk =   0.0005267
        k(  452) = (  -0.0785674  -0.5185450   0.5185450), wk =   0.0005267
        k(  453) = (  -0.0628539  -0.5028315   0.5028315), wk =   0.0005267
        k(  454) = (  -0.0471405  -0.4871180   0.4871180), wk =   0.0005267
        k(  455) = (  -0.0314270  -0.4714045   0.4714045), wk =   0.0005267
        k(  456) = (  -0.0157135  -0.4556910   0.4556910), wk =   0.0005267
        k(  457) = (   0.0000000  -0.4399776   0.4399776), wk =   0.0002634
        k(  458) = (   0.4714045   0.0000000   0.0000000), wk =   0.0001317
        k(  459) = (   0.4871180   0.0157135  -0.0157135), wk =   0.0005267
        k(  460) = (   0.5028315   0.0314270  -0.0314270), wk =   0.0005267
        k(  461) = (   0.5185450   0.0471405  -0.0471405), wk =   0.0005267
        k(  462) = (   0.5342585   0.0628539  -0.0628539), wk =   0.0005267
        k(  463) = (   0.5499719   0.0785674  -0.0785674), wk =   0.0005267
        k(  464) = (   0.5656854   0.0942809  -0.0942809), wk =   0.0005267
        k(  465) = (   0.5813989   0.1099944  -0.1099944), wk =   0.0005267
        k(  466) = (  -0.1099944  -0.5813989   0.5813989), wk =   0.0005267
        k(  467) = (  -0.0942809  -0.5656854   0.5656854), wk =   0.0005267
        k(  468) = (  -0.0785674  -0.5499719   0.5499719), wk =   0.0005267
        k(  469) = (  -0.0628539  -0.5342585   0.5342585), wk =   0.0005267
        k(  470) = (  -0.0471405  -0.5185450   0.5185450), wk =   0.0005267
        k(  471) = (  -0.0314270  -0.5028315   0.5028315), wk =   0.0005267
        k(  472) = (  -0.0157135  -0.4871180   0.4871180), wk =   0.0005267
        k(  473) = (  -0.0000000  -0.4714045   0.4714045), wk =   0.0002634
        k(  474) = (   0.5028315   0.0000000   0.0000000), wk =   0.0001317
        k(  475) = (   0.5185450   0.0157135  -0.0157135), wk =   0.0005267
        k(  476) = (   0.5342585   0.0314270  -0.0314270), wk =   0.0005267
        k(  477) = (   0.5499719   0.0471405  -0.0471405), wk =   0.0005267
        k(  478) = (   0.5656854   0.0628539  -0.0628539), wk =   0.0005267
        k(  479) = (   0.5813989   0.0785674  -0.0785674), wk =   0.0005267
        k(  480) = (   0.5971124   0.0942809  -0.0942809), wk =   0.0005267
        k(  481) = (  -0.0942809  -0.5971124   0.5971124), wk =   0.0005267
        k(  482) = (  -0.0785674  -0.5813989   0.5813989), wk =   0.0005267
        k(  483) = (  -0.0628539  -0.5656854   0.5656854), wk =   0.0005267
        k(  484) = (  -0.0471405  -0.5499719   0.5499719), wk =   0.0005267
        k(  485) = (  -0.0314270  -0.5342585   0.5342585), wk =   0.0005267
        k(  486) = (  -0.0157135  -0.5185450   0.5185450), wk =   0.0005267
        k(  487) = (   0.0000000  -0.5028315   0.5028315), wk =   0.0002634
        k(  488) = (   0.5342585   0.0000000   0.0000000), wk =   0.0001317
        k(  489) = (   0.5499719   0.0157135  -0.0157135), wk =   0.0005267
        k(  490) = (   0.5656854   0.0314270  -0.0314270), wk =   0.0005267
        k(  491) = (   0.5813989   0.0471405  -0.0471405), wk =   0.0005267
        k(  492) = (   0.5971124   0.0628539  -0.0628539), wk =   0.0005267
        k(  493) = (   0.6128259   0.0785674  -0.0785674), wk =   0.0005267
        k(  494) = (  -0.0785674  -0.6128259   0.6128259), wk =   0.0005267
        k(  495) = (  -0.0628539  -0.5971124   0.5971124), wk =   0.0005267
        k(  496) = (  -0.0471405  -0.5813989   0.5813989), wk =   0.0005267
        k(  497) = (  -0.0314270  -0.5656854   0.5656854), wk =   0.0005267
        k(  498) = (  -0.0157135  -0.5499719   0.5499719), wk =   0.0005267
        k(  499) = (   0.0000000  -0.5342585   0.5342585), wk =   0.0002634
        k(  500) = (   0.5656854   0.0000000   0.0000000), wk =   0.0001317
        k(  501) = (   0.5813989   0.0157135  -0.0157135), wk =   0.0005267
        k(  502) = (   0.5971124   0.0314270  -0.0314270), wk =   0.0005267
        k(  503) = (   0.6128259   0.0471405  -0.0471405), wk =   0.0005267
        k(  504) = (   0.6285394   0.0628539  -0.0628539), wk =   0.0005267
        k(  505) = (  -0.0628539  -0.6285394   0.6285394), wk =   0.0005267
        k(  506) = (  -0.0471405  -0.6128259   0.6128259), wk =   0.0005267
        k(  507) = (  -0.0314270  -0.5971124   0.5971124), wk =   0.0005267
        k(  508) = (  -0.0157135  -0.5813989   0.5813989), wk =   0.0005267
        k(  509) = (   0.0000000  -0.5656854   0.5656854), wk =   0.0002634
        k(  510) = (   0.5971124   0.0000000   0.0000000), wk =   0.0001317
        k(  511) = (   0.6128259   0.0157135  -0.0157135), wk =   0.0005267
        k(  512) = (   0.6285394   0.0314270  -0.0314270), wk =   0.0005267
        k(  513) = (   0.6442528   0.0471405  -0.0471405), wk =   0.0005267
        k(  514) = (  -0.0471405  -0.6442528   0.6442528), wk =   0.0005267
        k(  515) = (  -0.0314270  -0.6285394   0.6285394), wk =   0.0005267
        k(  516) = (  -0.0157135  -0.6128259   0.6128259), wk =   0.0005267
        k(  517) = (  -0.0000000  -0.5971124   0.5971124), wk =   0.0002634
        k(  518) = (   0.6285394   0.0000000   0.0000000), wk =   0.0001317
        k(  519) = (   0.6442528   0.0157135  -0.0157135), wk =   0.0005267
        k(  520) = (   0.6599663   0.0314270  -0.0314270), wk =   0.0005267
        k(  521) = (  -0.0314270  -0.6599663   0.6599663), wk =   0.0005267
        k(  522) = (  -0.0157135  -0.6442528   0.6442528), wk =   0.0005267
        k(  523) = (   0.0000000  -0.6285394   0.6285394), wk =   0.0002634
        k(  524) = (   0.6599663   0.0000000   0.0000000), wk =   0.0001317
        k(  525) = (   0.6756798   0.0157135  -0.0157135), wk =   0.0005267
        k(  526) = (  -0.0157135  -0.6756798   0.6756798), wk =   0.0005267
        k(  527) = (   0.0000000  -0.6599663   0.6599663), wk =   0.0002634
        k(  528) = (   0.6913933   0.0000000   0.0000000), wk =   0.0001317
        k(  529) = (  -0.0000000  -0.6913933   0.6913933), wk =   0.0002634
        k(  530) = (   0.0628539   0.0314270   0.0000000), wk =   0.0005267
        k(  531) = (   0.0785674   0.0471405  -0.0157135), wk =   0.0010535
        k(  532) = (   0.0942809   0.0628539  -0.0314270), wk =   0.0010535
        k(  533) = (   0.1099944   0.0785674  -0.0471405), wk =   0.0010535
        k(  534) = (   0.1257079   0.0942809  -0.0628539), wk =   0.0010535
        k(  535) = (   0.1414214   0.1099944  -0.0785674), wk =   0.0010535
        k(  536) = (   0.1571348   0.1257079  -0.0942809), wk =   0.0010535
        k(  537) = (   0.1728483   0.1414214  -0.1099944), wk =   0.0010535
        k(  538) = (   0.1885618   0.1571348  -0.1257079), wk =   0.0010535
        k(  539) = (   0.2042753   0.1728483  -0.1414214), wk =   0.0010535
        k(  540) = (   0.2199888   0.1885618  -0.1571348), wk =   0.0010535
        k(  541) = (   0.2357023   0.2042753  -0.1728483), wk =   0.0010535
        k(  542) = (   0.2514157   0.2199888  -0.1885618), wk =   0.0010535
        k(  543) = (   0.2671292   0.2357023  -0.2042753), wk =   0.0010535
        k(  544) = (   0.2828427   0.2514157  -0.2199888), wk =   0.0010535
        k(  545) = (   0.2985562   0.2671292  -0.2357023), wk =   0.0010535
        k(  546) = (   0.3142697   0.2828427  -0.2514157), wk =   0.0010535
        k(  547) = (   0.3299832   0.2985562  -0.2671292), wk =   0.0010535
        k(  548) = (   0.3456966   0.3142697  -0.2828427), wk =   0.0010535
        k(  549) = (   0.3614101   0.3299832  -0.2985562), wk =   0.0010535
        k(  550) = (  -0.3299832  -0.3614101   0.3928371), wk =   0.0010535
        k(  551) = (   0.0942809   0.0314270   0.0000000), wk =   0.0005267
        k(  552) = (   0.1099944   0.0471405  -0.0157135), wk =   0.0010535
        k(  553) = (   0.1257079   0.0628539  -0.0314270), wk =   0.0010535
        k(  554) = (   0.1414214   0.0785674  -0.0471405), wk =   0.0010535
        k(  555) = (   0.1571348   0.0942809  -0.0628539), wk =   0.0010535
        k(  556) = (   0.1728483   0.1099944  -0.0785674), wk =   0.0010535
        k(  557) = (   0.1885618   0.1257079  -0.0942809), wk =   0.0010535
        k(  558) = (   0.2042753   0.1414214  -0.1099944), wk =   0.0010535
        k(  559) = (   0.2199888   0.1571348  -0.1257079), wk =   0.0010535
        k(  560) = (   0.2357023   0.1728483  -0.1414214), wk =   0.0010535
        k(  561) = (   0.2514157   0.1885618  -0.1571348), wk =   0.0010535
        k(  562) = (   0.2671292   0.2042753  -0.1728483), wk =   0.0010535
        k(  563) = (   0.2828427   0.2199888  -0.1885618), wk =   0.0010535
        k(  564) = (   0.2985562   0.2357023  -0.2042753), wk =   0.0010535
        k(  565) = (   0.3142697   0.2514157  -0.2199888), wk =   0.0010535
        k(  566) = (   0.3299832   0.2671292  -0.2357023), wk =   0.0010535
        k(  567) = (   0.3456966   0.2828427  -0.2514157), wk =   0.0010535
        k(  568) = (   0.3614101   0.2985562  -0.2671292), wk =   0.0010535
        k(  569) = (   0.3771236   0.3142697  -0.2828427), wk =   0.0010535
        k(  570) = (  -0.3142697  -0.3771236   0.4085506), wk =   0.0010535
        k(  571) = (  -0.2985562  -0.3614101   0.3928371), wk =   0.0010535
        k(  572) = (  -0.2828427  -0.3456966   0.3771236), wk =   0.0010535
        k(  573) = (  -0.2671292  -0.3299832   0.3614101), wk =   0.0010535
        k(  574) = (  -0.2514157  -0.3142697   0.3456966), wk =   0.0010535
        k(  575) = (  -0.2357023  -0.2985562   0.3299832), wk =   0.0010535
        k(  576) = (  -0.2199888  -0.2828427   0.3142697), wk =   0.0010535
        k(  577) = (  -0.2042753  -0.2671292   0.2985562), wk =   0.0010535
        k(  578) = (  -0.1885618  -0.2514157   0.2828427), wk =   0.0010535
        k(  579) = (  -0.1728483  -0.2357023   0.2671292), wk =   0.0010535
        k(  580) = (  -0.1571348  -0.2199888   0.2514157), wk =   0.0010535
        k(  581) = (  -0.1414214  -0.2042753   0.2357023), wk =   0.0010535
        k(  582) = (  -0.1257079  -0.1885618   0.2199888), wk =   0.0010535
        k(  583) = (  -0.1099944  -0.1728483   0.2042753), wk =   0.0010535
        k(  584) = (  -0.0942809  -0.1571348   0.1885618), wk =   0.0010535
        k(  585) = (  -0.0785674  -0.1414214   0.1728483), wk =   0.0010535
        k(  586) = (  -0.0628539  -0.1257079   0.1571348), wk =   0.0010535
        k(  587) = (  -0.0471405  -0.1099944   0.1414214), wk =   0.0010535
        k(  588) = (  -0.0314270  -0.0942809   0.1257079), wk =   0.0010535
        k(  589) = (  -0.0157135  -0.0785674   0.1099944), wk =   0.0010535
        k(  590) = (   0.0000000  -0.0628539   0.0942809), wk =   0.0005267
        k(  591) = (   0.1257079   0.0314270   0.0000000), wk =   0.0005267
        k(  592) = (   0.1414214   0.0471405  -0.0157135), wk =   0.0010535
        k(  593) = (   0.1571348   0.0628539  -0.0314270), wk =   0.0010535
        k(  594) = (   0.1728483   0.0785674  -0.0471405), wk =   0.0010535
        k(  595) = (   0.1885618   0.0942809  -0.0628539), wk =   0.0010535
        k(  596) = (   0.2042753   0.1099944  -0.0785674), wk =   0.0010535
        k(  597) = (   0.2199888   0.1257079  -0.0942809), wk =   0.0010535
        k(  598) = (   0.2357023   0.1414214  -0.1099944), wk =   0.0010535
        k(  599) = (   0.2514157   0.1571348  -0.1257079), wk =   0.0010535
        k(  600) = (   0.2671292   0.1728483  -0.1414214), wk =   0.0010535
        k(  601) = (   0.2828427   0.1885618  -0.1571348), wk =   0.0010535
        k(  602) = (   0.2985562   0.2042753  -0.1728483), wk =   0.0010535
        k(  603) = (   0.3142697   0.2199888  -0.1885618), wk =   0.0010535
        k(  604) = (   0.3299832   0.2357023  -0.2042753), wk =   0.0010535
        k(  605) = (   0.3456966   0.2514157  -0.2199888), wk =   0.0010535
        k(  606) = (   0.3614101   0.2671292  -0.2357023), wk =   0.0010535
        k(  607) = (   0.3771236   0.2828427  -0.2514157), wk =   0.0010535
        k(  608) = (   0.3928371   0.2985562  -0.2671292), wk =   0.0010535
        k(  609) = (  -0.2985562  -0.3928371   0.4242641), wk =   0.0010535
        k(  610) = (  -0.2828427  -0.3771236   0.4085506), wk =   0.0010535
        k(  611) = (  -0.2671292  -0.3614101   0.3928371), wk =   0.0010535
        k(  612) = (  -0.2514157  -0.3456966   0.3771236), wk =   0.0010535
        k(  613) = (  -0.2357023  -0.3299832   0.3614101), wk =   0.0010535
        k(  614) = (  -0.2199888  -0.3142697   0.3456966), wk =   0.0010535
        k(  615) = (  -0.2042753  -0.2985562   0.3299832), wk =   0.0010535
        k(  616) = (  -0.1885618  -0.2828427   0.3142697), wk =   0.0010535
        k(  617) = (  -0.1728483  -0.2671292   0.2985562), wk =   0.0010535
        k(  618) = (  -0.1571348  -0.2514157   0.2828427), wk =   0.0010535
        k(  619) = (  -0.1414214  -0.2357023   0.2671292), wk =   0.0010535
        k(  620) = (  -0.1257079  -0.2199888   0.2514157), wk =   0.0010535
        k(  621) = (  -0.1099944  -0.2042753   0.2357023), wk =   0.0010535
        k(  622) = (  -0.0942809  -0.1885618   0.2199888), wk =   0.0010535
        k(  623) = (  -0.0785674  -0.1728483   0.2042753), wk =   0.0010535
        k(  624) = (  -0.0628539  -0.1571348   0.1885618), wk =   0.0010535
        k(  625) = (  -0.0471405  -0.1414214   0.1728483), wk =   0.0010535
        k(  626) = (  -0.0314270  -0.1257079   0.1571348), wk =   0.0010535
        k(  627) = (  -0.0157135  -0.1099944   0.1414214), wk =   0.0010535
        k(  628) = (   0.0000000  -0.0942809   0.1257079), wk =   0.0005267
        k(  629) = (   0.1571348   0.0314270   0.0000000), wk =   0.0005267
        k(  630) = (   0.1728483   0.0471405  -0.0157135), wk =   0.0010535
        k(  631) = (   0.1885618   0.0628539  -0.0314270), wk =   0.0010535
        k(  632) = (   0.2042753   0.0785674  -0.0471405), wk =   0.0010535
        k(  633) = (   0.2199888   0.0942809  -0.0628539), wk =   0.0010535
        k(  634) = (   0.2357023   0.1099944  -0.0785674), wk =   0.0010535
        k(  635) = (   0.2514157   0.1257079  -0.0942809), wk =   0.0010535
        k(  636) = (   0.2671292   0.1414214  -0.1099944), wk =   0.0010535
        k(  637) = (   0.2828427   0.1571348  -0.1257079), wk =   0.0010535
        k(  638) = (   0.2985562   0.1728483  -0.1414214), wk =   0.0010535
        k(  639) = (   0.3142697   0.1885618  -0.1571348), wk =   0.0010535
        k(  640) = (   0.3299832   0.2042753  -0.1728483), wk =   0.0010535
        k(  641) = (   0.3456966   0.2199888  -0.1885618), wk =   0.0010535
        k(  642) = (   0.3614101   0.2357023  -0.2042753), wk =   0.0010535
        k(  643) = (   0.3771236   0.2514157  -0.2199888), wk =   0.0010535
        k(  644) = (   0.3928371   0.2671292  -0.2357023), wk =   0.0010535
        k(  645) = (   0.4085506   0.2828427  -0.2514157), wk =   0.0010535
        k(  646) = (  -0.2828427  -0.4085506   0.4399776), wk =   0.0010535
        k(  647) = (  -0.2671292  -0.3928371   0.4242641), wk =   0.0010535
        k(  648) = (  -0.2514157  -0.3771236   0.4085506), wk =   0.0010535
        k(  649) = (  -0.2357023  -0.3614101   0.3928371), wk =   0.0010535
        k(  650) = (  -0.2199888  -0.3456966   0.3771236), wk =   0.0010535
        k(  651) = (  -0.2042753  -0.3299832   0.3614101), wk =   0.0010535
        k(  652) = (  -0.1885618  -0.3142697   0.3456966), wk =   0.0010535
        k(  653) = (  -0.1728483  -0.2985562   0.3299832), wk =   0.0010535
        k(  654) = (  -0.1571348  -0.2828427   0.3142697), wk =   0.0010535
        k(  655) = (  -0.1414214  -0.2671292   0.2985562), wk =   0.0010535
        k(  656) = (  -0.1257079  -0.2514157   0.2828427), wk =   0.0010535
        k(  657) = (  -0.1099944  -0.2357023   0.2671292), wk =   0.0010535
        k(  658) = (  -0.0942809  -0.2199888   0.2514157), wk =   0.0010535
        k(  659) = (  -0.0785674  -0.2042753   0.2357023), wk =   0.0010535
        k(  660) = (  -0.0628539  -0.1885618   0.2199888), wk =   0.0010535
        k(  661) = (  -0.0471405  -0.1728483   0.2042753), wk =   0.0010535
        k(  662) = (  -0.0314270  -0.1571348   0.1885618), wk =   0.0010535
        k(  663) = (  -0.0157135  -0.1414214   0.1728483), wk =   0.0010535
        k(  664) = (  -0.0000000  -0.1257079   0.1571348), wk =   0.0005267
        k(  665) = (   0.1885618   0.0314270   0.0000000), wk =   0.0005267
        k(  666) = (   0.2042753   0.0471405  -0.0157135), wk =   0.0010535
        k(  667) = (   0.2199888   0.0628539  -0.0314270), wk =   0.0010535
        k(  668) = (   0.2357023   0.0785674  -0.0471405), wk =   0.0010535
        k(  669) = (   0.2514157   0.0942809  -0.0628539), wk =   0.0010535
        k(  670) = (   0.2671292   0.1099944  -0.0785674), wk =   0.0010535
        k(  671) = (   0.2828427   0.1257079  -0.0942809), wk =   0.0010535
        k(  672) = (   0.2985562   0.1414214  -0.1099944), wk =   0.0010535
        k(  673) = (   0.3142697   0.1571348  -0.1257079), wk =   0.0010535
        k(  674) = (   0.3299832   0.1728483  -0.1414214), wk =   0.0010535
        k(  675) = (   0.3456966   0.1885618  -0.1571348), wk =   0.0010535
        k(  676) = (   0.3614101   0.2042753  -0.1728483), wk =   0.0010535
        k(  677) = (   0.3771236   0.2199888  -0.1885618), wk =   0.0010535
        k(  678) = (   0.3928371   0.2357023  -0.2042753), wk =   0.0010535
        k(  679) = (   0.4085506   0.2514157  -0.2199888), wk =   0.0010535
        k(  680) = (   0.4242641   0.2671292  -0.2357023), wk =   0.0010535
        k(  681) = (  -0.2671292  -0.4242641   0.4556910), wk =   0.0010535
        k(  682) = (  -0.2514157  -0.4085506   0.4399776), wk =   0.0010535
        k(  683) = (  -0.2357023  -0.3928371   0.4242641), wk =   0.0010535
        k(  684) = (  -0.2199888  -0.3771236   0.4085506), wk =   0.0010535
        k(  685) = (  -0.2042753  -0.3614101   0.3928371), wk =   0.0010535
        k(  686) = (  -0.1885618  -0.3456966   0.3771236), wk =   0.0010535
        k(  687) = (  -0.1728483  -0.3299832   0.3614101), wk =   0.0010535
        k(  688) = (  -0.1571348  -0.3142697   0.3456966), wk =   0.0010535
        k(  689) = (  -0.1414214  -0.2985562   0.3299832), wk =   0.0010535
        k(  690) = (  -0.1257079  -0.2828427   0.3142697), wk =   0.0010535
        k(  691) = (  -0.1099944  -0.2671292   0.2985562), wk =   0.0010535
        k(  692) = (  -0.0942809  -0.2514157   0.2828427), wk =   0.0010535
        k(  693) = (  -0.0785674  -0.2357023   0.2671292), wk =   0.0010535
        k(  694) = (  -0.0628539  -0.2199888   0.2514157), wk =   0.0010535
        k(  695) = (  -0.0471405  -0.2042753   0.2357023), wk =   0.0010535
        k(  696) = (  -0.0314270  -0.1885618   0.2199888), wk =   0.0010535
        k(  697) = (  -0.0157135  -0.1728483   0.2042753), wk =   0.0010535
        k(  698) = (  -0.0000000  -0.1571348   0.1885618), wk =   0.0005267
        k(  699) = (   0.2199888   0.0314270   0.0000000), wk =   0.0005267
        k(  700) = (   0.2357023   0.0471405  -0.0157135), wk =   0.0010535
        k(  701) = (   0.2514157   0.0628539  -0.0314270), wk =   0.0010535
        k(  702) = (   0.2671292   0.0785674  -0.0471405), wk =   0.0010535
        k(  703) = (   0.2828427   0.0942809  -0.0628539), wk =   0.0010535
        k(  704) = (   0.2985562   0.1099944  -0.0785674), wk =   0.0010535
[...]
    13.2979  13.6791

     occupation numbers 
     1.0000   1.0000   1.0000   1.0000   1.0000   1.0000   1.0000   1.0000
     1.0000   1.0000   1.0000   1.0000   1.0000   1.0000   0.0000   0.0000
     0.0000   0.0000

          k =-0.0157-0.4243 0.6757 ( 11036 PWs)   bands (ev):

   -12.4222 -12.4190 -12.2835 -12.2667 -12.2198 -12.2096 -12.1920 -12.1775
   -12.0471 -12.0439   0.1531   0.4434   5.8109   6.0490  10.7771  11.2488
    13.2602  13.4533

     occupation numbers 
     1.0000   1.0000   1.0000   1.0000   1.0000   1.0000   1.0000   1.0000
     1.0000   1.0000   1.0000   1.0000   1.0000   1.0000   0.0000   0.0000
     0.0000   0.0000

          k = 0.0000-0.4086 0.6600 ( 11036 PWs)   bands (ev):

   -12.4231 -12.4187 -12.2844 -12.2617 -12.2215 -12.2092 -12.1959 -12.1764
   -12.0474 -12.0430   0.1137   0.4856   5.7584   6.0888  10.7719  11.4562
    13.1866  13.3043

     occupation numbers 
     1.0000   1.0000   1.0000   1.0000   1.0000   1.0000   1.0000   1.0000
     1.0000   1.0000   1.0000   1.0000   1.0000   1.0000   0.0000   0.0000
     0.0000   0.0000

          k =-0.0157-0.4557 0.7071 ( 11029 PWs)   bands (ev):

   -12.4200 -12.4195 -12.2837 -12.2759 -12.2171 -12.2096 -12.1847 -12.1780
   -12.0467 -12.0462   0.2046   0.3861   5.9282   5.9917  10.7676  10.7947
    13.5298  13.7266

     occupation numbers 
     1.0000   1.0000   1.0000   1.0000   1.0000   1.0000   1.0000   1.0000
     1.0000   1.0000   1.0000   1.0000   1.0000   1.0000   0.0000   0.0000
     0.0000   0.0000

          k = 0.0000-0.4400 0.6914 ( 11024 PWs)   bands (ev):

   -12.4211 -12.4194 -12.2811 -12.2738 -12.2156 -12.2124 -12.1863 -12.1798
   -12.0467 -12.0450   0.2408   0.3519   5.8814   5.9976  10.7824  11.0191
    13.4685  13.5019

     occupation numbers 
     1.0000   1.0000   1.0000   1.0000   1.0000   1.0000   1.0000   1.0000
     1.0000   1.0000   1.0000   1.0000   1.0000   1.0000   0.0000   0.0000
     0.0000   0.0000

          k =-0.1414-0.4243 0.7071 ( 11058 PWs)   bands (ev):

   -12.4209 -12.4151 -12.3064 -12.2462 -12.2377 -12.2156 -12.1827 -12.1600
   -12.0512 -12.0462  -0.4370   1.0917   5.7567   6.4150  10.6025  11.2257
    12.7751  14.0634

     occupation numbers 
     1.0000   1.0000   1.0000   1.0000   1.0000   1.0000   1.0000   1.0000
     1.0000   1.0000   1.0000   1.0000   1.0000   1.0000   0.0000   0.0000
     0.0000   0.0000

          k =-0.1257-0.4086 0.6914 ( 11043 PWs)   bands (ev):

   -12.4220 -12.4159 -12.3017 -12.2429 -12.2398 -12.2132 -12.1877 -12.1635
   -12.0503 -12.0448  -0.3418   0.9811   5.7234   6.3570  10.6591  11.3642
    12.7752  13.9072

     occupation numbers 
     1.0000   1.0000   1.0000   1.0000   1.0000   1.0000   1.0000   1.0000
     1.0000   1.0000   1.0000   1.0000   1.0000   1.0000   0.0000   0.0000
     0.0000   0.0000

          k =-0.1100-0.3928 0.6757 ( 11037 PWs)   bands (ev):

   -12.4229 -12.4164 -12.2978 -12.2430 -12.2381 -12.2117 -12.1920 -12.1664
   -12.0498 -12.0437  -0.2564   0.8841   5.6995   6.3110  10.6908  11.5026
    12.8038  13.7215

     occupation numbers 
     1.0000   1.0000   1.0000   1.0000   1.0000   1.0000   1.0000   1.0000
     1.0000   1.0000   1.0000   1.0000   1.0000   1.0000   0.0000   0.0000
     0.0000   0.0000

          k =-0.0943-0.3771 0.6600 ( 11042 PWs)   bands (ev):

   -12.4236 -12.4167 -12.2949 -12.2443 -12.2351 -12.2114 -12.1949 -12.1684
   -12.0494 -12.0429  -0.1893   0.8090   5.6841   6.2791  10.7074  11.6132
    12.8628  13.5365

     occupation numbers 
     1.0000   1.0000   1.0000   1.0000   1.0000   1.0000   1.0000   1.0000
     1.0000   1.0000   1.0000   1.0000   1.0000   1.0000   0.0000   0.0000
     0.0000   0.0000

          k =-0.0786-0.3614 0.6443 ( 11043 PWs)   bands (ev):

   -12.4239 -12.4169 -12.2934 -12.2451 -12.2330 -12.2118 -12.1962 -12.1695
   -12.0492 -12.0425  -0.1512   0.7671   5.6766   6.2628  10.7145  11.6742
    12.9284  13.4012

     occupation numbers 
     1.0000   1.0000   1.0000   1.0000   1.0000   1.0000   1.0000   1.0000
     1.0000   1.0000   1.0000   1.0000   1.0000   1.0000   0.0000   0.0000
     0.0000   0.0000

          k =-0.1100-0.4243 0.7071 ( 11034 PWs)   bands (ev):

   -12.4214 -12.4167 -12.3003 -12.2465 -12.2394 -12.2085 -12.1897 -12.1645
   -12.0495 -12.0453  -0.2813   0.9121   5.7636   6.2791  10.7276  11.1772
    12.8484  13.9681

     occupation numbers 
     1.0000   1.0000   1.0000   1.0000   1.0000   1.0000   1.0000   1.0000
     1.0000   1.0000   1.0000   1.0000   1.0000   1.0000   0.0000   0.0000
     0.0000   0.0000

          k =-0.0943-0.4086 0.6914 ( 11036 PWs)   bands (ev):

   -12.4223 -12.4174 -12.2954 -12.2487 -12.2359 -12.2064 -12.1943 -12.1682
   -12.0487 -12.0442  -0.1890   0.8096   5.7413   6.2251  10.7907  11.3177
    12.8420  13.7686

     occupation numbers 
     1.0000   1.0000   1.0000   1.0000   1.0000   1.0000   1.0000   1.0000
     1.0000   1.0000   1.0000   1.0000   1.0000   1.0000   0.0000   0.0000
     0.0000   0.0000

          k =-0.0786-0.3928 0.6757 ( 11035 PWs)   bands (ev):

   -12.4231 -12.4178 -12.2916 -12.2503 -12.2327 -12.2058 -12.1977 -12.1710
   -12.0483 -12.0433  -0.1115   0.7253   5.7240   6.1881  10.8211  11.4641
    12.8596  13.5631

     occupation numbers 
     1.0000   1.0000   1.0000   1.0000   1.0000   1.0000   1.0000   1.0000
     1.0000   1.0000   1.0000   1.0000   1.0000   1.0000   0.0000   0.0000
     0.0000   0.0000

          k =-0.0629-0.3771 0.6600 ( 11037 PWs)   bands (ev):

   -12.4235 -12.4181 -12.2893 -12.2509 -12.2303 -12.2069 -12.1990 -12.1727
   -12.0480 -12.0427  -0.0616   0.6717   5.7104   6.1705  10.8337  11.5805
    12.8979  13.3861

     occupation numbers 
     1.0000   1.0000   1.0000   1.0000   1.0000   1.0000   1.0000   1.0000
     1.0000   1.0000   1.0000   1.0000   1.0000   1.0000   0.0000   0.0000
     0.0000   0.0000

          k =-0.0471-0.3614 0.6443 ( 11040 PWs)   bands (ev):

   -12.4238 -12.4180 -12.2888 -12.2503 -12.2299 -12.2076 -12.1995 -12.1730
   -12.0480 -12.0425  -0.0531   0.6628   5.7003   6.1732  10.8341  11.6403
    12.9167  13.3035

     occupation numbers 
     1.0000   1.0000   1.0000   1.0000   1.0000   1.0000   1.0000   1.0000
     1.0000   1.0000   1.0000   1.0000   1.0000   1.0000   0.0000   0.0000
     0.0000   0.0000

          k =-0.0314-0.3457 0.6285 ( 11040 PWs)   bands (ev):

   -12.4237 -12.4178 -12.2901 -12.2487 -12.2318 -12.2071 -12.1995 -12.1720
   -12.0482 -12.0426  -0.0889   0.7014   5.6947   6.1955  10.8225  11.6323
    12.8693  13.3746

     occupation numbers 
     1.0000   1.0000   1.0000   1.0000   1.0000   1.0000   1.0000   1.0000
     1.0000   1.0000   1.0000   1.0000   1.0000   1.0000   0.0000   0.0000
     0.0000   0.0000

          k =-0.0157-0.3300 0.6128 ( 11040 PWs)   bands (ev):

   -12.4234 -12.4174 -12.2929 -12.2462 -12.2351 -12.2078 -12.1972 -12.1699
   -12.0487 -12.0431  -0.1576   0.7760   5.6954   6.2354  10.7949  11.5653
    12.8102  13.5372

     occupation numbers 
     1.0000   1.0000   1.0000   1.0000   1.0000   1.0000   1.0000   1.0000
     1.0000   1.0000   1.0000   1.0000   1.0000   1.0000   0.0000   0.0000
     0.0000   0.0000

          k = 0.0000-0.3143 0.5971 ( 11043 PWs)   bands (ev):

   -12.4228 -12.4168 -12.2969 -12.2432 -12.2389 -12.2101 -12.1929 -12.1670
   -12.0494 -12.0438  -0.2451   0.8725   5.7044   6.2901  10.7435  11.4653
    12.7782  13.7270

     occupation numbers 
     1.0000   1.0000   1.0000   1.0000   1.0000   1.0000   1.0000   1.0000
     1.0000   1.0000   1.0000   1.0000   1.0000   1.0000   0.0000   0.0000
     0.0000   0.0000

          k =-0.0786-0.4243 0.7071 ( 11032 PWs)   bands (ev):

   -12.4216 -12.4181 -12.2937 -12.2550 -12.2324 -12.2015 -12.1967 -12.1696
   -12.0480 -12.0448  -0.1208   0.7339   5.7874   6.1573  10.8314  11.1315
    12.9559  13.8160

     occupation numbers 
     1.0000   1.0000   1.0000   1.0000   1.0000   1.0000   1.0000   1.0000
     1.0000   1.0000   1.0000   1.0000   1.0000   1.0000   0.0000   0.0000
     0.0000   0.0000

          k =-0.0629-0.4086 0.6914 ( 11034 PWs)   bands (ev):

   -12.4223 -12.4188 -12.2888 -12.2570 -12.2292 -12.2018 -12.1989 -12.1733
   -12.0473 -12.0440  -0.0331   0.6405   5.7749   6.1091  10.8966  11.2760
    12.9421  13.5960

     occupation numbers 
     1.0000   1.0000   1.0000   1.0000   1.0000   1.0000   1.0000   1.0000
     1.0000   1.0000   1.0000   1.0000   1.0000   1.0000   0.0000   0.0000
     0.0000   0.0000

          k =-0.0471-0.3928 0.6757 ( 11041 PWs)   bands (ev):

   -12.4229 -12.4190 -12.2855 -12.2577 -12.2266 -12.2056 -12.1980 -12.1758
   -12.0470 -12.0433   0.0301   0.5745   5.7591   6.0867  10.9179  11.4340
    12.9461  13.3922

     occupation numbers 
     1.0000   1.0000   1.0000   1.0000   1.0000   1.0000   1.0000   1.0000
     1.0000   1.0000   1.0000   1.0000   1.0000   1.0000   0.0000   0.0000
     0.0000   0.0000

          k =-0.0314-0.3771 0.6600 ( 11046 PWs)   bands (ev):

   -12.4234 -12.4190 -12.2845 -12.2566 -12.2258 -12.2073 -12.1986 -12.1764
   -12.0471 -12.0428   0.0470   0.5574   5.7390   6.0919  10.9183  11.5582
    12.9526  13.2504

     occupation numbers 
     1.0000   1.0000   1.0000   1.0000   1.0000   1.0000   1.0000   1.0000
     1.0000   1.0000   1.0000   1.0000   1.0000   1.0000   0.0000   0.0000
     0.0000   0.0000

          k =-0.0157-0.3614 0.6443 ( 11048 PWs)   bands (ev):

   -12.4236 -12.4187 -12.2858 -12.2539 -12.2277 -12.2058 -12.2008 -12.1753
   -12.0473 -12.0426   0.0091   0.5976   5.7184   6.1218  10.9015  11.6203
    12.9107  13.2478

     occupation numbers 
     1.0000   1.0000   1.0000   1.0000   1.0000   1.0000   1.0000   1.0000
     1.0000   1.0000   1.0000   1.0000   1.0000   1.0000   0.0000   0.0000
     0.0000   0.0000

          k =-0.0000-0.3457 0.6285 ( 11035 PWs)   bands (ev):

   -12.4236 -12.4182 -12.2888 -12.2501 -12.2312 -12.2041 -12.2020 -12.1729
   -12.0479 -12.0427  -0.0656   0.6770   5.7025   6.1711  10.8630  11.6154
    12.8470  13.3661

     occupation numbers 
     1.0000   1.0000   1.0000   1.0000   1.0000   1.0000   1.0000   1.0000
     1.0000   1.0000   1.0000   1.0000   1.0000   1.0000   0.0000   0.0000
     0.0000   0.0000

          k =-0.0471-0.4243 0.7071 ( 11039 PWs)   bands (ev):

   -12.4215 -12.4193 -12.2867 -12.2634 -12.2254 -12.2039 -12.1945 -12.1752
   -12.0467 -12.0447   0.0438   0.5576   5.8281   6.0507  10.9152  11.0862
    13.0954  13.6348

     occupation numbers 
     1.0000   1.0000   1.0000   1.0000   1.0000   1.0000   1.0000   1.0000
     1.0000   1.0000   1.0000   1.0000   1.0000   1.0000   0.0000   0.0000
     0.0000   0.0000

          k =-0.0314-0.4086 0.6914 ( 11036 PWs)   bands (ev):

   -12.4221 -12.4198 -12.2820 -12.2647 -12.2224 -12.2081 -12.1930 -12.1788
   -12.0462 -12.0441   0.1228   0.4768   5.8206   6.0136  10.9699  11.2422
    13.0739  13.4131

     occupation numbers 
     1.0000   1.0000   1.0000   1.0000   1.0000   1.0000   1.0000   1.0000
     1.0000   1.0000   1.0000   1.0000   1.0000   1.0000   0.0000   0.0000
     0.0000   0.0000

          k =-0.0157-0.3928 0.6757 ( 11042 PWs)   bands (ev):

   -12.4227 -12.4198 -12.2805 -12.2633 -12.2214 -12.2103 -12.1940 -12.1797
   -12.0463 -12.0434   0.1472   0.4528   5.7915   6.0209  10.9705  11.4165
    13.0575  13.2339

     occupation numbers 
     1.0000   1.0000   1.0000   1.0000   1.0000   1.0000   1.0000   1.0000
     1.0000   1.0000   1.0000   1.0000   1.0000   1.0000   0.0000   0.0000
     0.0000   0.0000

          k =-0.0000-0.3771 0.6600 ( 11045 PWs)   bands (ev):

   -12.4233 -12.4194 -12.2823 -12.2591 -12.2237 -12.2088 -12.1972 -12.1780
   -12.0467 -12.0428   0.0964   0.5061   5.7528   6.0614  10.9484  11.5500
    12.9927  13.1812

     occupation numbers 
     1.0000   1.0000   1.0000   1.0000   1.0000   1.0000   1.0000   1.0000
     1.0000   1.0000   1.0000   1.0000   1.0000   1.0000   0.0000   0.0000
     0.0000   0.0000

          k =-0.0157-0.4243 0.7071 ( 11027 PWs)   bands (ev):

   -12.4211 -12.4203 -12.2793 -12.2715 -12.2182 -12.2110 -12.1878 -12.1813
   -12.0457 -12.0451   0.2120   0.3835   5.8857   5.9600  10.9825  11.0379
    13.2613  13.4448

     occupation numbers 
     1.0000   1.0000   1.0000   1.0000   1.0000   1.0000   1.0000   1.0000
     1.0000   1.0000   1.0000   1.0000   1.0000   1.0000   0.0000   0.0000
     0.0000   0.0000

          k = 0.0000-0.4086 0.6914 ( 11028 PWs)   bands (ev):

   -12.4218 -12.4203 -12.2774 -12.2698 -12.2173 -12.2132 -12.1890 -12.1825
   -12.0457 -12.0443   0.2365   0.3605   5.8535   5.9641  10.9980  11.2276
    13.2151  13.2537

     occupation numbers 
     1.0000   1.0000   1.0000   1.0000   1.0000   1.0000   1.0000   1.0000
     1.0000   1.0000   1.0000   1.0000   1.0000   1.0000   0.0000   0.0000
     0.0000   0.0000

          k =-0.0786-0.3928 0.7071 ( 11047 PWs)   bands (ev):

   -12.4228 -12.4183 -12.2904 -12.2518 -12.2323 -12.2032 -12.1993 -12.1720
   -12.0478 -12.0436  -0.0937   0.7067   5.7377   6.1587  10.8970  11.3988
    12.8406  13.5631

     occupation numbers 
     1.0000   1.0000   1.0000   1.0000   1.0000   1.0000   1.0000   1.0000
     1.0000   1.0000   1.0000   1.0000   1.0000   1.0000   0.0000   0.0000
     0.0000   0.0000

          k =-0.0629-0.3771 0.6914 ( 11045 PWs)   bands (ev):

   -12.4231 -12.4189 -12.2864 -12.2545 -12.2289 -12.2041 -12.2003 -12.1750
   -12.0471 -12.0431  -0.0120   0.6199   5.7393   6.1095  10.9562  11.4875
    12.8644  13.3719

     occupation numbers 
     1.0000   1.0000   1.0000   1.0000   1.0000   1.0000   1.0000   1.0000
     1.0000   1.0000   1.0000   1.0000   1.0000   1.0000   0.0000   0.0000
     0.0000   0.0000

          k =-0.0471-0.3614 0.6757 ( 11039 PWs)   bands (ev):

   -12.4233 -12.4192 -12.2840 -12.2561 -12.2266 -12.2069 -12.1987 -12.1768
   -12.0468 -12.0429   0.0392   0.5661   5.7420   6.0828  10.9810  11.5463
    12.9031  13.2381

     occupation numbers 
     1.0000   1.0000   1.0000   1.0000   1.0000   1.0000   1.0000   1.0000
     1.0000   1.0000   1.0000   1.0000   1.0000   1.0000   0.0000   0.0000
     0.0000   0.0000

          k =-0.0471-0.3928 0.7071 ( 11037 PWs)   bands (ev):

   -12.4225 -12.4197 -12.2834 -12.2602 -12.2257 -12.2059 -12.1964 -12.1775
   -12.0463 -12.0437   0.0612   0.5423   5.7883   6.0419  11.0319  11.3265
    12.9351  13.3860

     occupation numbers 
     1.0000   1.0000   1.0000   1.0000   1.0000   1.0000   1.0000   1.0000
     1.0000   1.0000   1.0000   1.0000   1.0000   1.0000   0.0000   0.0000
     0.0000   0.0000

          k =-0.0314-0.3771 0.6914 ( 11044 PWs)   bands (ev):

   -12.4226 -12.4202 -12.2796 -12.2623 -12.2229 -12.2095 -12.1945 -12.1804
   -12.0458 -12.0435   0.1319   0.4697   5.7965   6.0026  11.0908  11.4078
    12.9472  13.2125

     occupation numbers 
     1.0000   1.0000   1.0000   1.0000   1.0000   1.0000   1.0000   1.0000
     1.0000   1.0000   1.0000   1.0000   1.0000   1.0000   0.0000   0.0000
     0.0000   0.0000

          k =-0.0157-0.3614 0.6757 ( 11052 PWs)   bands (ev):

   -12.4229 -12.4202 -12.2791 -12.2617 -12.2225 -12.2103 -12.1948 -12.1807
   -12.0459 -12.0432   0.1401   0.4617   5.7867   6.0051  11.0901  11.4764
    12.9464  13.1383

     occupation numbers 
     1.0000   1.0000   1.0000   1.0000   1.0000   1.0000   1.0000   1.0000
     1.0000   1.0000   1.0000   1.0000   1.0000   1.0000   0.0000   0.0000
     0.0000   0.0000

          k = 0.0000-0.3457 0.6600 ( 11051 PWs)   bands (ev):

   -12.4231 -12.4197 -12.2819 -12.2586 -12.2252 -12.2076 -12.1973 -12.1784
   -12.0463 -12.0431   0.0788   0.5251   5.7629   6.0455  11.0459  11.5000
    12.8980  13.2154

     occupation numbers 
     1.0000   1.0000   1.0000   1.0000   1.0000   1.0000   1.0000   1.0000
     1.0000   1.0000   1.0000   1.0000   1.0000   1.0000   0.0000   0.0000
     0.0000   0.0000

          k =-0.0157-0.3928 0.7071 ( 11036 PWs)   bands (ev):

   -12.4218 -12.4209 -12.2760 -12.2683 -12.2191 -12.2124 -12.1898 -12.1835
   -12.0452 -12.0443   0.2191   0.3797   5.8561   5.9408  11.1471  11.2441
    13.0611  13.2143

     occupation numbers 
     1.0000   1.0000   1.0000   1.0000   1.0000   1.0000   1.0000   1.0000
     1.0000   1.0000   1.0000   1.0000   1.0000   1.0000   0.0000   0.0000
     0.0000   0.0000

          k =-0.0000-0.3771 0.6914 ( 11050 PWs)   bands (ev):

   -12.4222 -12.4209 -12.2750 -12.2673 -12.2186 -12.2137 -12.1905 -12.1841
   -12.0452 -12.0439   0.2315   0.3681   5.8396   5.9429  11.1577  11.3600
    13.0351  13.0973

     occupation numbers 
     1.0000   1.0000   1.0000   1.0000   1.0000   1.0000   1.0000   1.0000
     1.0000   1.0000   1.0000   1.0000   1.0000   1.0000   0.0000   0.0000
     0.0000   0.0000

          k =-0.0157-0.3614 0.7071 ( 11050 PWs)   bands (ev):

   -12.4222 -12.4211 -12.2745 -12.2667 -12.2193 -12.2134 -12.1907 -12.1844
   -12.0450 -12.0439   0.2257   0.3745   5.8405   5.9350  11.2151  11.3670
    12.9761  13.0827

     occupation numbers 
     1.0000   1.0000   1.0000   1.0000   1.0000   1.0000   1.0000   1.0000
     1.0000   1.0000   1.0000   1.0000   1.0000   1.0000   0.0000   0.0000
     0.0000   0.0000

     the Fermi energy is     8.3005 ev

!    total energy              =    -233.44836263 Ry
     Harris-Foulkes estimate   =    -233.44836281 Ry
     estimated scf accuracy    <       0.00000046 Ry

     The total energy is the sum of the following terms:

     one-electron contribution =     -95.31645109 Ry
     hartree contribution      =      58.35632143 Ry
     xc contribution           =     -28.70689135 Ry
     ewald contribution        =    -167.78134157 Ry
     smearing contrib. (-TS)   =      -0.00000004 Ry

     convergence has been achieved in   5 iterations

     Writing output data file Sn.save
 
     init_run     :     56.51s CPU     60.99s WALL (       1 calls)
     electrons    :   1178.71s CPU   1225.52s WALL (       1 calls)

     Called by init_run:
     wfcinit      :     56.09s CPU     60.30s WALL (       1 calls)
     potinit      :      0.03s CPU      0.04s WALL (       1 calls)

     Called by electrons:
     c_bands      :   1053.05s CPU   1095.78s WALL (       5 calls)
     sum_band     :    125.47s CPU    129.13s WALL (       5 calls)
     v_of_rho     :      0.11s CPU      0.12s WALL (       6 calls)
     v_h          :      0.01s CPU      0.01s WALL (       6 calls)
     v_xc         :      0.10s CPU      0.11s WALL (       6 calls)
     mix_rho      :      0.02s CPU      0.03s WALL (       5 calls)

     Called by c_bands:
     init_us_2    :      7.96s CPU      9.42s WALL (   25300 calls)
     cegterg      :   1005.60s CPU   1045.46s WALL (   11500 calls)

     Called by sum_band:

     Called by *egterg:
     h_psi        :    862.56s CPU    899.47s WALL (   49561 calls)
     g_psi        :      2.51s CPU      2.55s WALL (   35761 calls)
     cdiaghg      :     46.55s CPU     46.97s WALL (   47261 calls)
     cegterg:over :     67.76s CPU     68.24s WALL (   35761 calls)
     cegterg:upda :     21.39s CPU     21.56s WALL (   35761 calls)
     cegterg:last :     12.46s CPU     12.55s WALL (   15043 calls)

     Called by h_psi:
     h_psi:vloc   :    800.82s CPU    836.32s WALL (   49561 calls)
     h_psi:vnl    :     59.66s CPU     60.83s WALL (   49561 calls)
     add_vuspsi   :     18.00s CPU     18.25s WALL (   49561 calls)

     General routines
     calbec       :     41.19s CPU     42.26s WALL (   49561 calls)
     fft          :      0.08s CPU      0.18s WALL (      65 calls)
     fftw         :    858.98s CPU    895.06s WALL ( 1644476 calls)
     davcio       :      0.26s CPU      4.49s WALL (    2300 calls)
 
     Parallel routines
     fft_scatter  :    567.19s CPU    590.69s WALL ( 1644541 calls)
 
     PWSCF        : 20m39.91s CPU    21m36.33s WALL

 
   This run was terminated on:  21:44:53  27Feb2020            

=------------------------------------------------------------------------------=
   JOB DONE.
=------------------------------------------------------------------------------=
