
     Program PWSCF v.5.4.0 starts on  5Mar2020 at 19:18:31 

     This program is part of the open-source Quantum ESPRESSO suite
     for quantum simulation of materials; please cite
         "P. Giannozzi et al., J. Phys.:Condens. Matter 21 395502 (2009);
          URL http://www.quantum-espresso.org", 
     in publications or presentations arising from this work. More details at
     http://www.quantum-espresso.org/quote

     Parallel version (MPI & OpenMP), running on      16 processor cores
     Number of MPI processes:                16
     Threads/MPI process:                     1
     R & G space division:  proc/nbgrp/npool/nimage =      16
     Waiting for input...
     Reading input from standard input
Warning: card &IONS ignored
Warning: card / ignored
Warning: card &CELL ignored
Warning: card / ignored

     Current dimensions of program PWSCF are:
     Max number of different atomic species (ntypx) = 10
     Max number of k-points (npk) =  40000
     Max angular momentum in pseudopotentials (lmaxx) =  3

     Subspace diagonalization in iterative solution of the eigenvalue problem:
     a serial algorithm will be used

 
     Parallelization info
     --------------------
     sticks:   dense  smooth     PW     G-vecs:    dense   smooth      PW
     Min         108     108     31                 2989     2989     461
     Max         109     109     32                 2993     2993     465
     Sum        1735    1735    499                47855    47855    7391
 

     Title: 
     Sn                                                                         


     bravais-lattice index     =            0
     lattice parameter (alat)  =       8.8887  a.u.
     unit-cell volume          =     496.5847 (a.u.)^3
     number of atoms/cell      =            2
     number of atomic types    =            1
     number of electrons       =        28.00
     number of Kohn-Sham states=           18
     kinetic-energy cutoff     =      80.0000  Ry
     charge density cutoff     =     320.0000  Ry
     convergence threshold     =      1.0E-06
     mixing beta               =       0.7000
     number of iterations used =            8  plain     mixing
     Exchange-correlation      = PBE ( 1  4  3  4 0 0)

     celldm(1)=   8.888656  celldm(2)=   0.000000  celldm(3)=   0.000000
     celldm(4)=   0.000000  celldm(5)=   0.000000  celldm(6)=   0.000000

     crystal axes: (cart. coord. in units of alat)
               a(1) = (   0.000000   0.707107   0.707107 )  
               a(2) = (   0.707107   0.000000   0.707107 )  
               a(3) = (   0.707107   0.707107   0.000000 )  

     reciprocal axes: (cart. coord. in units 2 pi/alat)
               b(1) = ( -0.707107  0.707107  0.707107 )  
               b(2) = (  0.707107 -0.707107  0.707107 )  
               b(3) = (  0.707107  0.707107 -0.707107 )  


     PseudoPot. # 1 for Sn read from file:
     ../PseudopotentialDatabase/Sn_ONCV_PBE-1.1.upf
     MD5 check sum: 7fc728ef37b8342e916bba54f6049344
     Pseudo is Norm-conserving, Zval = 14.0
     Generated using ONCVPSP code by D. R. Hamann
     Using radial grid of  602 points,  6 beta functions with: 
                l(1) =   0
                l(2) =   0
                l(3) =   1
                l(4) =   1
                l(5) =   2
                l(6) =   2

     atomic species   valence    mass     pseudopotential
        Sn            14.00   118.71000     Sn( 1.00)

     24 Sym. Ops. (no inversion) found
          (note: 24 additional sym.ops. were found but ignored
           their fractional translations are incommensurate with FFT grid)

                                    s                        frac. trans.

      isym =  1     identity                                     

 cryst.   s( 1) = (     1          0          0      )
                  (     0          1          0      )
                  (     0          0          1      )

 cart.    s( 1) = (  1.0000000  0.0000000  0.0000000 )
                  (  0.0000000  1.0000000  0.0000000 )
                  (  0.0000000  0.0000000  1.0000000 )


      isym =  2     180 deg rotation - cart. axis [0,0,1]        

 cryst.   s( 2) = (     0          1         -1      )
                  (     1          0         -1      )
                  (     0          0         -1      )

 cart.    s( 2) = ( -1.0000000  0.0000000  0.0000000 )
                  (  0.0000000 -1.0000000  0.0000000 )
                  (  0.0000000  0.0000000  1.0000000 )


      isym =  3     180 deg rotation - cart. axis [0,1,0]        

 cryst.   s( 3) = (     0         -1          1      )
                  (     0         -1          0      )
                  (     1         -1          0      )

 cart.    s( 3) = ( -1.0000000  0.0000000  0.0000000 )
                  (  0.0000000  1.0000000  0.0000000 )
                  (  0.0000000  0.0000000 -1.0000000 )


      isym =  4     180 deg rotation - cart. axis [1,0,0]        

 cryst.   s( 4) = (    -1          0          0      )
                  (    -1          0          1      )
                  (    -1          1          0      )

 cart.    s( 4) = (  1.0000000  0.0000000  0.0000000 )
                  (  0.0000000 -1.0000000  0.0000000 )
                  (  0.0000000  0.0000000 -1.0000000 )


      isym =  5     120 deg rotation - cart. axis [-1,-1,-1]     

 cryst.   s( 5) = (     0          0          1      )
                  (     1          0          0      )
                  (     0          1          0      )

 cart.    s( 5) = (  0.0000000  1.0000000  0.0000000 )
                  (  0.0000000  0.0000000  1.0000000 )
                  (  1.0000000  0.0000000  0.0000000 )


      isym =  6     120 deg rotation - cart. axis [-1,1,1]       

 cryst.   s( 6) = (     1         -1          0      )
                  (     0         -1          1      )
                  (     0         -1          0      )

 cart.    s( 6) = (  0.0000000 -1.0000000  0.0000000 )
                  (  0.0000000  0.0000000  1.0000000 )
                  ( -1.0000000  0.0000000  0.0000000 )


      isym =  7     120 deg rotation - cart. axis [1,1,-1]       

 cryst.   s( 7) = (    -1          1          0      )
                  (    -1          0          0      )
                  (    -1          0          1      )

 cart.    s( 7) = (  0.0000000  1.0000000  0.0000000 )
                  (  0.0000000  0.0000000 -1.0000000 )
                  ( -1.0000000  0.0000000  0.0000000 )


      isym =  8     120 deg rotation - cart. axis [1,-1,1]       

 cryst.   s( 8) = (     0          0         -1      )
                  (     0          1         -1      )
                  (     1          0         -1      )

 cart.    s( 8) = (  0.0000000 -1.0000000  0.0000000 )
                  (  0.0000000  0.0000000 -1.0000000 )
                  (  1.0000000  0.0000000  0.0000000 )


      isym =  9     120 deg rotation - cart. axis [1,1,1]        

 cryst.   s( 9) = (     0          1          0      )
                  (     0          0          1      )
                  (     1          0          0      )

 cart.    s( 9) = (  0.0000000  0.0000000  1.0000000 )
                  (  1.0000000  0.0000000  0.0000000 )
                  (  0.0000000  1.0000000  0.0000000 )


      isym = 10     120 deg rotation - cart. axis [-1,1,-1]      

 cryst.   s(10) = (    -1          0          1      )
                  (    -1          1          0      )
                  (    -1          0          0      )

 cart.    s(10) = (  0.0000000  0.0000000  1.0000000 )
                  ( -1.0000000  0.0000000  0.0000000 )
                  (  0.0000000 -1.0000000  0.0000000 )


      isym = 11     120 deg rotation - cart. axis [1,-1,-1]      

 cryst.   s(11) = (     1          0         -1      )
                  (     0          0         -1      )
                  (     0          1         -1      )

 cart.    s(11) = (  0.0000000  0.0000000 -1.0000000 )
                  ( -1.0000000  0.0000000  0.0000000 )
                  (  0.0000000  1.0000000  0.0000000 )


      isym = 12     120 deg rotation - cart. axis [-1,-1,1]      

 cryst.   s(12) = (     0         -1          0      )
                  (     1         -1          0      )
                  (     0         -1          1      )

 cart.    s(12) = (  0.0000000  0.0000000 -1.0000000 )
                  (  1.0000000  0.0000000  0.0000000 )
                  (  0.0000000 -1.0000000  0.0000000 )


      isym = 13     inv. 180 deg rotation - cart. axis [1,1,0]   

 cryst.   s(13) = (     1          0         -1      )
                  (     0          1         -1      )
                  (     0          0         -1      )

 cart.    s(13) = (  0.0000000 -1.0000000  0.0000000 )
                  ( -1.0000000  0.0000000  0.0000000 )
                  (  0.0000000  0.0000000  1.0000000 )


      isym = 14     inv. 180 deg rotation - cart. axis [1,-1,0]  

 cryst.   s(14) = (     0          1          0      )
                  (     1          0          0      )
                  (     0          0          1      )

 cart.    s(14) = (  0.0000000  1.0000000  0.0000000 )
                  (  1.0000000  0.0000000  0.0000000 )
                  (  0.0000000  0.0000000  1.0000000 )


      isym = 15     inv.  90 deg rotation - cart. axis [0,0,-1]  

 cryst.   s(15) = (     0         -1          0      )
                  (     0         -1          1      )
                  (     1         -1          0      )

 cart.    s(15) = (  0.0000000 -1.0000000  0.0000000 )
                  (  1.0000000  0.0000000  0.0000000 )
                  (  0.0000000  0.0000000 -1.0000000 )


      isym = 16     inv.  90 deg rotation - cart. axis [0,0,1]   

 cryst.   s(16) = (    -1          0          1      )
                  (    -1          0          0      )
                  (    -1          1          0      )

 cart.    s(16) = (  0.0000000  1.0000000  0.0000000 )
                  ( -1.0000000  0.0000000  0.0000000 )
                  (  0.0000000  0.0000000 -1.0000000 )


      isym = 17     inv. 180 deg rotation - cart. axis [1,0,1]   

 cryst.   s(17) = (     1         -1          0      )
                  (     0         -1          0      )
                  (     0         -1          1      )

 cart.    s(17) = (  0.0000000  0.0000000 -1.0000000 )
                  (  0.0000000  1.0000000  0.0000000 )
                  ( -1.0000000  0.0000000  0.0000000 )


      isym = 18     inv. 180 deg rotation - cart. axis [-1,0,1]  

 cryst.   s(18) = (     0          0          1      )
                  (     0          1          0      )
                  (     1          0          0      )

 cart.    s(18) = (  0.0000000  0.0000000  1.0000000 )
                  (  0.0000000  1.0000000  0.0000000 )
                  (  1.0000000  0.0000000  0.0000000 )


      isym = 19     inv.  90 deg rotation - cart. axis [0,1,0]   

 cryst.   s(19) = (     0          0         -1      )
                  (     1          0         -1      )
                  (     0          1         -1      )

 cart.    s(19) = (  0.0000000  0.0000000 -1.0000000 )
                  (  0.0000000 -1.0000000  0.0000000 )
                  (  1.0000000  0.0000000  0.0000000 )


      isym = 20     inv.  90 deg rotation - cart. axis [0,-1,0]  

 cryst.   s(20) = (    -1          1          0      )
                  (    -1          0          1      )
                  (    -1          0          0      )

 cart.    s(20) = (  0.0000000  0.0000000  1.0000000 )
                  (  0.0000000 -1.0000000  0.0000000 )
                  ( -1.0000000  0.0000000  0.0000000 )


      isym = 21     inv. 180 deg rotation - cart. axis [0,1,1]   

 cryst.   s(21) = (    -1          0          0      )
                  (    -1          1          0      )
                  (    -1          0          1      )

 cart.    s(21) = (  1.0000000  0.0000000  0.0000000 )
                  (  0.0000000  0.0000000 -1.0000000 )
                  (  0.0000000 -1.0000000  0.0000000 )


      isym = 22     inv. 180 deg rotation - cart. axis [0,1,-1]  

 cryst.   s(22) = (     1          0          0      )
                  (     0          0          1      )
                  (     0          1          0      )

 cart.    s(22) = (  1.0000000  0.0000000  0.0000000 )
                  (  0.0000000  0.0000000  1.0000000 )
                  (  0.0000000  1.0000000  0.0000000 )


      isym = 23     inv.  90 deg rotation - cart. axis [-1,0,0]  

 cryst.   s(23) = (     0          1         -1      )
                  (     0          0         -1      )
                  (     1          0         -1      )

 cart.    s(23) = ( -1.0000000  0.0000000  0.0000000 )
                  (  0.0000000  0.0000000 -1.0000000 )
                  (  0.0000000  1.0000000  0.0000000 )


      isym = 24     inv.  90 deg rotation - cart. axis [1,0,0]   

 cryst.   s(24) = (     0         -1          1      )
                  (     1         -1          0      )
                  (     0         -1          0      )

 cart.    s(24) = ( -1.0000000  0.0000000  0.0000000 )
                  (  0.0000000  0.0000000  1.0000000 )
                  (  0.0000000 -1.0000000  0.0000000 )


   Cartesian axes

     site n.     atom                  positions (alat units)
         1           Sn  tau(   1) = (   0.0000000   0.0000000   0.0000000  )
         2           Sn  tau(   2) = (   0.3535534   0.3535534   0.3535534  )

   Crystallographic axes

     site n.     atom                  positions (cryst. coord.)
         1           Sn  tau(   1) = (  0.0000000  0.0000000  0.0000000  )
         2           Sn  tau(   2) = (  0.2500000  0.2500000  0.2500000  )

     number of k points=   120  gaussian smearing, width (Ry)=  0.0001
                       cart. coord. in units 2pi/alat
        k(    1) = (   0.0000000   0.0000000   0.0000000), wk =   0.0005926
        k(    2) = (   0.0471405   0.0471405  -0.0471405), wk =   0.0047407
        k(    3) = (   0.0942809   0.0942809  -0.0942809), wk =   0.0047407
        k(    4) = (   0.1414214   0.1414214  -0.1414214), wk =   0.0047407
        k(    5) = (   0.1885618   0.1885618  -0.1885618), wk =   0.0047407
        k(    6) = (   0.2357023   0.2357023  -0.2357023), wk =   0.0047407
        k(    7) = (   0.2828427   0.2828427  -0.2828427), wk =   0.0047407
        k(    8) = (   0.3299832   0.3299832  -0.3299832), wk =   0.0047407
        k(    9) = (   0.0942809   0.0000000   0.0000000), wk =   0.0035556
        k(   10) = (   0.1414214   0.0471405  -0.0471405), wk =   0.0142222
        k(   11) = (   0.1885618   0.0942809  -0.0942809), wk =   0.0142222
        k(   12) = (   0.2357023   0.1414214  -0.1414214), wk =   0.0142222
        k(   13) = (   0.2828427   0.1885618  -0.1885618), wk =   0.0142222
        k(   14) = (   0.3299832   0.2357023  -0.2357023), wk =   0.0142222
        k(   15) = (   0.3771236   0.2828427  -0.2828427), wk =   0.0142222
        k(   16) = (  -0.2828427  -0.3771236   0.3771236), wk =   0.0142222
        k(   17) = (  -0.2357023  -0.3299832   0.3299832), wk =   0.0142222
        k(   18) = (  -0.1885618  -0.2828427   0.2828427), wk =   0.0142222
        k(   19) = (  -0.1414214  -0.2357023   0.2357023), wk =   0.0142222
        k(   20) = (  -0.0942809  -0.1885618   0.1885618), wk =   0.0142222
        k(   21) = (  -0.0471405  -0.1414214   0.1414214), wk =   0.0142222
        k(   22) = (   0.0000000  -0.0942809   0.0942809), wk =   0.0071111
        k(   23) = (   0.1885618   0.0000000   0.0000000), wk =   0.0035556
        k(   24) = (   0.2357023   0.0471405  -0.0471405), wk =   0.0142222
        k(   25) = (   0.2828427   0.0942809  -0.0942809), wk =   0.0142222
        k(   26) = (   0.3299832   0.1414214  -0.1414214), wk =   0.0142222
        k(   27) = (   0.3771236   0.1885618  -0.1885618), wk =   0.0142222
        k(   28) = (   0.4242641   0.2357023  -0.2357023), wk =   0.0142222
        k(   29) = (  -0.2357023  -0.4242641   0.4242641), wk =   0.0142222
        k(   30) = (  -0.1885618  -0.3771236   0.3771236), wk =   0.0142222
        k(   31) = (  -0.1414214  -0.3299832   0.3299832), wk =   0.0142222
        k(   32) = (  -0.0942809  -0.2828427   0.2828427), wk =   0.0142222
        k(   33) = (  -0.0471405  -0.2357023   0.2357023), wk =   0.0142222
        k(   34) = (   0.0000000  -0.1885618   0.1885618), wk =   0.0071111
        k(   35) = (   0.2828427   0.0000000   0.0000000), wk =   0.0035556
        k(   36) = (   0.3299832   0.0471405  -0.0471405), wk =   0.0142222
        k(   37) = (   0.3771236   0.0942809  -0.0942809), wk =   0.0142222
        k(   38) = (   0.4242641   0.1414214  -0.1414214), wk =   0.0142222
        k(   39) = (   0.4714045   0.1885618  -0.1885618), wk =   0.0142222
        k(   40) = (  -0.1885618  -0.4714045   0.4714045), wk =   0.0142222
        k(   41) = (  -0.1414214  -0.4242641   0.4242641), wk =   0.0142222
        k(   42) = (  -0.0942809  -0.3771236   0.3771236), wk =   0.0142222
        k(   43) = (  -0.0471405  -0.3299832   0.3299832), wk =   0.0142222
        k(   44) = (   0.0000000  -0.2828427   0.2828427), wk =   0.0071111
        k(   45) = (   0.3771236   0.0000000   0.0000000), wk =   0.0035556
        k(   46) = (   0.4242641   0.0471405  -0.0471405), wk =   0.0142222
        k(   47) = (   0.4714045   0.0942809  -0.0942809), wk =   0.0142222
        k(   48) = (   0.5185450   0.1414214  -0.1414214), wk =   0.0142222
        k(   49) = (  -0.1414214  -0.5185450   0.5185450), wk =   0.0142222
        k(   50) = (  -0.0942809  -0.4714045   0.4714045), wk =   0.0142222
        k(   51) = (  -0.0471405  -0.4242641   0.4242641), wk =   0.0142222
        k(   52) = (  -0.0000000  -0.3771236   0.3771236), wk =   0.0071111
        k(   53) = (   0.4714045   0.0000000   0.0000000), wk =   0.0035556
        k(   54) = (   0.5185450   0.0471405  -0.0471405), wk =   0.0142222
        k(   55) = (   0.5656854   0.0942809  -0.0942809), wk =   0.0142222
        k(   56) = (  -0.0942809  -0.5656854   0.5656854), wk =   0.0142222
        k(   57) = (  -0.0471405  -0.5185450   0.5185450), wk =   0.0142222
        k(   58) = (  -0.0000000  -0.4714045   0.4714045), wk =   0.0071111
        k(   59) = (   0.5656854   0.0000000   0.0000000), wk =   0.0035556
        k(   60) = (   0.6128259   0.0471405  -0.0471405), wk =   0.0142222
        k(   61) = (  -0.0471405  -0.6128259   0.6128259), wk =   0.0142222
        k(   62) = (   0.0000000  -0.5656854   0.5656854), wk =   0.0071111
        k(   63) = (   0.6599663   0.0000000   0.0000000), wk =   0.0035556
        k(   64) = (   0.0000000  -0.6599663   0.6599663), wk =   0.0071111
        k(   65) = (   0.1885618   0.0942809  -0.0000000), wk =   0.0142222
        k(   66) = (   0.2357023   0.1414214  -0.0471405), wk =   0.0284444
        k(   67) = (   0.2828427   0.1885618  -0.0942809), wk =   0.0284444
        k(   68) = (   0.3299832   0.2357023  -0.1414214), wk =   0.0284444
        k(   69) = (   0.3771236   0.2828427  -0.1885618), wk =   0.0284444
        k(   70) = (  -0.2828427  -0.3771236   0.4714045), wk =   0.0284444
        k(   71) = (   0.2828427   0.0942809   0.0000000), wk =   0.0142222
        k(   72) = (   0.3299832   0.1414214  -0.0471405), wk =   0.0284444
        k(   73) = (   0.3771236   0.1885618  -0.0942809), wk =   0.0284444
        k(   74) = (   0.4242641   0.2357023  -0.1414214), wk =   0.0284444
        k(   75) = (  -0.2357023  -0.4242641   0.5185450), wk =   0.0284444
        k(   76) = (  -0.1885618  -0.3771236   0.4714045), wk =   0.0284444
        k(   77) = (  -0.1414214  -0.3299832   0.4242641), wk =   0.0284444
        k(   78) = (  -0.0942809  -0.2828427   0.3771236), wk =   0.0284444
        k(   79) = (  -0.0471405  -0.2357023   0.3299832), wk =   0.0284444
        k(   80) = (   0.0000000  -0.1885618   0.2828427), wk =   0.0142222
        k(   81) = (   0.3771236   0.0942809   0.0000000), wk =   0.0142222
        k(   82) = (   0.4242641   0.1414214  -0.0471405), wk =   0.0284444
        k(   83) = (   0.4714045   0.1885618  -0.0942809), wk =   0.0284444
        k(   84) = (  -0.1885618  -0.4714045   0.5656854), wk =   0.0284444
        k(   85) = (  -0.1414214  -0.4242641   0.5185450), wk =   0.0284444
        k(   86) = (  -0.0942809  -0.3771236   0.4714045), wk =   0.0284444
        k(   87) = (  -0.0471405  -0.3299832   0.4242641), wk =   0.0284444
        k(   88) = (   0.0000000  -0.2828427   0.3771236), wk =   0.0142222
        k(   89) = (   0.4714045   0.0942809  -0.0000000), wk =   0.0142222
        k(   90) = (   0.5185450   0.1414214  -0.0471405), wk =   0.0284444
        k(   91) = (  -0.1414214  -0.5185450   0.6128259), wk =   0.0284444
        k(   92) = (  -0.0942809  -0.4714045   0.5656854), wk =   0.0284444
        k(   93) = (  -0.0471405  -0.4242641   0.5185450), wk =   0.0284444
        k(   94) = (  -0.0000000  -0.3771236   0.4714045), wk =   0.0142222
        k(   95) = (   0.5656854   0.0942809   0.0000000), wk =   0.0142222
        k(   96) = (  -0.0942809  -0.5656854   0.6599663), wk =   0.0284444
        k(   97) = (  -0.0471405  -0.5185450   0.6128259), wk =   0.0284444
        k(   98) = (   0.0000000  -0.4714045   0.5656854), wk =   0.0142222
        k(   99) = (  -0.0471405  -0.6128259   0.7071068), wk =   0.0142222
        k(  100) = (   0.0000000  -0.5656854   0.6599663), wk =   0.0142222
        k(  101) = (   0.3771236   0.1885618  -0.0000000), wk =   0.0142222
        k(  102) = (   0.4242641   0.2357023  -0.0471405), wk =   0.0284444
        k(  103) = (  -0.2357023  -0.4242641   0.6128259), wk =   0.0284444
        k(  104) = (  -0.1885618  -0.3771236   0.5656854), wk =   0.0284444
        k(  105) = (   0.4714045   0.1885618  -0.0000000), wk =   0.0142222
        k(  106) = (  -0.1885618  -0.4714045   0.6599663), wk =   0.0284444
        k(  107) = (  -0.1414214  -0.4242641   0.6128259), wk =   0.0284444
        k(  108) = (  -0.0942809  -0.3771236   0.5656854), wk =   0.0284444
        k(  109) = (  -0.0471405  -0.3299832   0.5185450), wk =   0.0284444
        k(  110) = (   0.0000000  -0.2828427   0.4714045), wk =   0.0142222
        k(  111) = (  -0.1414214  -0.5185450   0.7071068), wk =   0.0142222
        k(  112) = (  -0.0942809  -0.4714045   0.6599663), wk =   0.0284444
        k(  113) = (  -0.0471405  -0.4242641   0.6128259), wk =   0.0284444
        k(  114) = (   0.0000000  -0.3771236   0.5656854), wk =   0.0142222
        k(  115) = (  -0.0471405  -0.5185450   0.7071068), wk =   0.0142222
        k(  116) = (   0.0000000  -0.4714045   0.6599663), wk =   0.0142222
        k(  117) = (  -0.1414214  -0.4242641   0.7071068), wk =   0.0142222
        k(  118) = (  -0.0942809  -0.3771236   0.6599663), wk =   0.0284444
        k(  119) = (  -0.0471405  -0.4242641   0.7071068), wk =   0.0142222
        k(  120) = (  -0.0000000  -0.3771236   0.6599663), wk =   0.0142222

                       cryst. coord.
        k(    1) = (   0.0000000   0.0000000   0.0000000), wk =   0.0005926
        k(    2) = (   0.0000000   0.0000000   0.0666667), wk =   0.0047407
        k(    3) = (   0.0000000   0.0000000   0.1333333), wk =   0.0047407
        k(    4) = (   0.0000000   0.0000000   0.2000000), wk =   0.0047407
        k(    5) = (   0.0000000   0.0000000   0.2666667), wk =   0.0047407
        k(    6) = (   0.0000000   0.0000000   0.3333333), wk =   0.0047407
        k(    7) = (   0.0000000   0.0000000   0.4000000), wk =   0.0047407
        k(    8) = (   0.0000000   0.0000000   0.4666667), wk =   0.0047407
        k(    9) = (   0.0000000   0.0666667   0.0666667), wk =   0.0035556
        k(   10) = (   0.0000000   0.0666667   0.1333333), wk =   0.0142222
        k(   11) = (   0.0000000   0.0666667   0.2000000), wk =   0.0142222
        k(   12) = (   0.0000000   0.0666667   0.2666667), wk =   0.0142222
        k(   13) = (   0.0000000   0.0666667   0.3333333), wk =   0.0142222
        k(   14) = (   0.0000000   0.0666667   0.4000000), wk =   0.0142222
        k(   15) = (   0.0000000   0.0666667   0.4666667), wk =   0.0142222
        k(   16) = (   0.0000000   0.0666667  -0.4666667), wk =   0.0142222
        k(   17) = (   0.0000000   0.0666667  -0.4000000), wk =   0.0142222
        k(   18) = (   0.0000000   0.0666667  -0.3333333), wk =   0.0142222
        k(   19) = (   0.0000000   0.0666667  -0.2666667), wk =   0.0142222
        k(   20) = (   0.0000000   0.0666667  -0.2000000), wk =   0.0142222
        k(   21) = (   0.0000000   0.0666667  -0.1333333), wk =   0.0142222
        k(   22) = (   0.0000000   0.0666667  -0.0666667), wk =   0.0071111
        k(   23) = (   0.0000000   0.1333333   0.1333333), wk =   0.0035556
        k(   24) = (   0.0000000   0.1333333   0.2000000), wk =   0.0142222
        k(   25) = (   0.0000000   0.1333333   0.2666667), wk =   0.0142222
        k(   26) = (   0.0000000   0.1333333   0.3333333), wk =   0.0142222
        k(   27) = (   0.0000000   0.1333333   0.4000000), wk =   0.0142222
        k(   28) = (   0.0000000   0.1333333   0.4666667), wk =   0.0142222
        k(   29) = (   0.0000000   0.1333333  -0.4666667), wk =   0.0142222
        k(   30) = (   0.0000000   0.1333333  -0.4000000), wk =   0.0142222
        k(   31) = (   0.0000000   0.1333333  -0.3333333), wk =   0.0142222
        k(   32) = (   0.0000000   0.1333333  -0.2666667), wk =   0.0142222
        k(   33) = (   0.0000000   0.1333333  -0.2000000), wk =   0.0142222
        k(   34) = (   0.0000000   0.1333333  -0.1333333), wk =   0.0071111
        k(   35) = (   0.0000000   0.2000000   0.2000000), wk =   0.0035556
        k(   36) = (   0.0000000   0.2000000   0.2666667), wk =   0.0142222
        k(   37) = (   0.0000000   0.2000000   0.3333333), wk =   0.0142222
        k(   38) = (   0.0000000   0.2000000   0.4000000), wk =   0.0142222
        k(   39) = (   0.0000000   0.2000000   0.4666667), wk =   0.0142222
        k(   40) = (   0.0000000   0.2000000  -0.4666667), wk =   0.0142222
        k(   41) = (   0.0000000   0.2000000  -0.4000000), wk =   0.0142222
        k(   42) = (   0.0000000   0.2000000  -0.3333333), wk =   0.0142222
        k(   43) = (   0.0000000   0.2000000  -0.2666667), wk =   0.0142222
        k(   44) = (   0.0000000   0.2000000  -0.2000000), wk =   0.0071111
        k(   45) = (   0.0000000   0.2666667   0.2666667), wk =   0.0035556
        k(   46) = (   0.0000000   0.2666667   0.3333333), wk =   0.0142222
        k(   47) = (   0.0000000   0.2666667   0.4000000), wk =   0.0142222
        k(   48) = (   0.0000000   0.2666667   0.4666667), wk =   0.0142222
        k(   49) = (   0.0000000   0.2666667  -0.4666667), wk =   0.0142222
        k(   50) = (   0.0000000   0.2666667  -0.4000000), wk =   0.0142222
        k(   51) = (   0.0000000   0.2666667  -0.3333333), wk =   0.0142222
        k(   52) = (   0.0000000   0.2666667  -0.2666667), wk =   0.0071111
        k(   53) = (   0.0000000   0.3333333   0.3333333), wk =   0.0035556
        k(   54) = (   0.0000000   0.3333333   0.4000000), wk =   0.0142222
        k(   55) = (   0.0000000   0.3333333   0.4666667), wk =   0.0142222
        k(   56) = (   0.0000000   0.3333333  -0.4666667), wk =   0.0142222
        k(   57) = (   0.0000000   0.3333333  -0.4000000), wk =   0.0142222
        k(   58) = (   0.0000000   0.3333333  -0.3333333), wk =   0.0071111
        k(   59) = (   0.0000000   0.4000000   0.4000000), wk =   0.0035556
        k(   60) = (   0.0000000   0.4000000   0.4666667), wk =   0.0142222
        k(   61) = (   0.0000000   0.4000000  -0.4666667), wk =   0.0142222
        k(   62) = (   0.0000000   0.4000000  -0.4000000), wk =   0.0071111
        k(   63) = (   0.0000000   0.4666667   0.4666667), wk =   0.0035556
        k(   64) = (   0.0000000   0.4666667  -0.4666667), wk =   0.0071111
        k(   65) = (   0.0666667   0.1333333   0.2000000), wk =   0.0142222
        k(   66) = (   0.0666667   0.1333333   0.2666667), wk =   0.0284444
        k(   67) = (   0.0666667   0.1333333   0.3333333), wk =   0.0284444
        k(   68) = (   0.0666667   0.1333333   0.4000000), wk =   0.0284444
        k(   69) = (   0.0666667   0.1333333   0.4666667), wk =   0.0284444
        k(   70) = (   0.0666667   0.1333333  -0.4666667), wk =   0.0284444
        k(   71) = (   0.0666667   0.2000000   0.2666667), wk =   0.0142222
        k(   72) = (   0.0666667   0.2000000   0.3333333), wk =   0.0284444
        k(   73) = (   0.0666667   0.2000000   0.4000000), wk =   0.0284444
        k(   74) = (   0.0666667   0.2000000   0.4666667), wk =   0.0284444
        k(   75) = (   0.0666667   0.2000000  -0.4666667), wk =   0.0284444
        k(   76) = (   0.0666667   0.2000000  -0.4000000), wk =   0.0284444
        k(   77) = (   0.0666667   0.2000000  -0.3333333), wk =   0.0284444
        k(   78) = (   0.0666667   0.2000000  -0.2666667), wk =   0.0284444
        k(   79) = (   0.0666667   0.2000000  -0.2000000), wk =   0.0284444
        k(   80) = (   0.0666667   0.2000000  -0.1333333), wk =   0.0142222
        k(   81) = (   0.0666667   0.2666667   0.3333333), wk =   0.0142222
        k(   82) = (   0.0666667   0.2666667   0.4000000), wk =   0.0284444
        k(   83) = (   0.0666667   0.2666667   0.4666667), wk =   0.0284444
        k(   84) = (   0.0666667   0.2666667  -0.4666667), wk =   0.0284444
        k(   85) = (   0.0666667   0.2666667  -0.4000000), wk =   0.0284444
        k(   86) = (   0.0666667   0.2666667  -0.3333333), wk =   0.0284444
        k(   87) = (   0.0666667   0.2666667  -0.2666667), wk =   0.0284444
        k(   88) = (   0.0666667   0.2666667  -0.2000000), wk =   0.0142222
        k(   89) = (   0.0666667   0.3333333   0.4000000), wk =   0.0142222
        k(   90) = (   0.0666667   0.3333333   0.4666667), wk =   0.0284444
        k(   91) = (   0.0666667   0.3333333  -0.4666667), wk =   0.0284444
        k(   92) = (   0.0666667   0.3333333  -0.4000000), wk =   0.0284444
        k(   93) = (   0.0666667   0.3333333  -0.3333333), wk =   0.0284444
        k(   94) = (   0.0666667   0.3333333  -0.2666667), wk =   0.0142222
        k(   95) = (   0.0666667   0.4000000   0.4666667), wk =   0.0142222
        k(   96) = (   0.0666667   0.4000000  -0.4666667), wk =   0.0284444
        k(   97) = (   0.0666667   0.4000000  -0.4000000), wk =   0.0284444
        k(   98) = (   0.0666667   0.4000000  -0.3333333), wk =   0.0142222
        k(   99) = (   0.0666667   0.4666667  -0.4666667), wk =   0.0142222
        k(  100) = (   0.0666667   0.4666667  -0.4000000), wk =   0.0142222
        k(  101) = (   0.1333333   0.2666667   0.4000000), wk =   0.0142222
        k(  102) = (   0.1333333   0.2666667   0.4666667), wk =   0.0284444
        k(  103) = (   0.1333333   0.2666667  -0.4666667), wk =   0.0284444
        k(  104) = (   0.1333333   0.2666667  -0.4000000), wk =   0.0284444
        k(  105) = (   0.1333333   0.3333333   0.4666667), wk =   0.0142222
        k(  106) = (   0.1333333   0.3333333  -0.4666667), wk =   0.0284444
        k(  107) = (   0.1333333   0.3333333  -0.4000000), wk =   0.0284444
        k(  108) = (   0.1333333   0.3333333  -0.3333333), wk =   0.0284444
        k(  109) = (   0.1333333   0.3333333  -0.2666667), wk =   0.0284444
        k(  110) = (   0.1333333   0.3333333  -0.2000000), wk =   0.0142222
        k(  111) = (   0.1333333   0.4000000  -0.4666667), wk =   0.0142222
        k(  112) = (   0.1333333   0.4000000  -0.4000000), wk =   0.0284444
        k(  113) = (   0.1333333   0.4000000  -0.3333333), wk =   0.0284444
        k(  114) = (   0.1333333   0.4000000  -0.2666667), wk =   0.0142222
        k(  115) = (   0.1333333   0.4666667  -0.4000000), wk =   0.0142222
        k(  116) = (   0.1333333   0.4666667  -0.3333333), wk =   0.0142222
        k(  117) = (   0.2000000   0.4000000  -0.4000000), wk =   0.0142222
        k(  118) = (   0.2000000   0.4000000  -0.3333333), wk =   0.0284444
        k(  119) = (   0.2000000   0.4666667  -0.3333333), wk =   0.0142222
        k(  120) = (   0.2000000   0.4666667  -0.2666667), wk =   0.0142222

     Dense  grid:    47855 G-vectors     FFT dimensions: (  54,  54,  54)

     Largest allocated arrays     est. size (Mb)     dimensions
        Kohn-Sham Wavefunctions         0.10 Mb     (     380,   18)
        NL pseudopotentials             0.21 Mb     (     380,   36)
        Each V/rho on FFT grid          0.18 Mb     (   11664)
        Each G-vector array             0.02 Mb     (    2990)
        G-vector shells                 0.00 Mb     (     418)
     Largest temporary arrays     est. size (Mb)     dimensions
        Auxiliary wavefunctions         0.42 Mb     (     380,   72)
        Each subspace H/S matrix        0.08 Mb     (      72,   72)
        Each <psi_i|beta_j> matrix      0.01 Mb     (      36,   18)
        Arrays for rho mixing           1.42 Mb     (   11664,    8)

     Initial potential from superposition of free atoms

     starting charge   27.82674, renormalised to   28.00000
     Starting wfc are random

     total cpu time spent up to now is        3.4 secs

     Self-consistent Calculation

     iteration #  1     ecut=    80.00 Ry     beta=0.70
     Davidson diagonalization with overlap
     ethr =  1.00E-02,  avg # of iterations =  7.0

     Threshold (ethr) on eigenvalues was too large:
     Diagonalizing with lowered threshold

     Davidson diagonalization with overlap
     ethr =  1.07E-04,  avg # of iterations =  1.9

     total cpu time spent up to now is       36.1 secs

     total energy              =    -241.29490605 Ry
     Harris-Foulkes estimate   =    -241.30567781 Ry
     estimated scf accuracy    <       0.02990390 Ry

     iteration #  2     ecut=    80.00 Ry     beta=0.70
     Davidson diagonalization with overlap
     ethr =  1.07E-04,  avg # of iterations =  2.0

     total cpu time spent up to now is       45.4 secs

     total energy              =    -241.29885764 Ry
     Harris-Foulkes estimate   =    -241.29887851 Ry
     estimated scf accuracy    <       0.00161120 Ry

     iteration #  3     ecut=    80.00 Ry     beta=0.70
     Davidson diagonalization with overlap
     ethr =  5.75E-06,  avg # of iterations =  2.8

     total cpu time spent up to now is       54.0 secs

     total energy              =    -241.29899845 Ry
     Harris-Foulkes estimate   =    -241.29897098 Ry
     estimated scf accuracy    <       0.00008913 Ry

     iteration #  4     ecut=    80.00 Ry     beta=0.70
     Davidson diagonalization with overlap
     ethr =  3.18E-07,  avg # of iterations =  1.9

     total cpu time spent up to now is       61.9 secs

     total energy              =    -241.29900313 Ry
     Harris-Foulkes estimate   =    -241.29900313 Ry
     estimated scf accuracy    <       0.00000127 Ry

     iteration #  5     ecut=    80.00 Ry     beta=0.70
     Davidson diagonalization with overlap
     ethr =  4.53E-09,  avg # of iterations =  2.2

     total cpu time spent up to now is       70.6 secs

     End of self-consistent calculation

          k = 0.0000 0.0000 0.0000 (  5985 PWs)   bands (ev):

   -13.2256 -13.2256 -13.2256 -13.1711 -13.1711 -12.9218 -12.9218 -12.9218
   -12.9170 -12.9170  -1.7452   7.2439   8.4718   8.4718   8.4718  10.5475
    10.5475  10.5475

     occupation numbers 
     1.0000   1.0000   1.0000   1.0000   1.0000   1.0000   1.0000   1.0000
     1.0000   1.0000   1.0000   1.0000   0.0000   0.0000   0.0000   0.0000
     0.0000   0.0000

          k = 0.0471 0.0471-0.0471 (  5991 PWs)   bands (ev):

   -13.2284 -13.2284 -13.2247 -13.1672 -13.1672 -12.9309 -12.9309 -12.9229
   -12.9086 -12.9086  -1.7053   6.7865   8.3894   8.3894   8.6840  10.6554
    10.6554  10.6968

     occupation numbers 
     1.0000   1.0000   1.0000   1.0000   1.0000   1.0000   1.0000   1.0000
     1.0000   1.0000   1.0000   1.0000   0.1286   0.1286   0.0000   0.0000
     0.0000   0.0000

          k = 0.0943 0.0943-0.0943 (  6000 PWs)   bands (ev):

   -13.2347 -13.2347 -13.2219 -13.1581 -13.1581 -12.9420 -12.9420 -12.9262
   -12.8993 -12.8993  -1.5868   5.9445   8.1922   8.1922   8.8060  10.9157
    10.9157  11.1964

     occupation numbers 
     1.0000   1.0000   1.0000   1.0000   1.0000   1.0000   1.0000   1.0000
     1.0000   1.0000   1.0000   1.0000   1.0000   1.0000   0.0000   0.0000
     0.0000   0.0000

          k = 0.1414 0.1414-0.1414 (  6030 PWs)   bands (ev):

   -13.2415 -13.2415 -13.2178 -13.1473 -13.1473 -12.9521 -12.9521 -12.9311
   -12.8916 -12.8916  -1.3935   5.0470   7.9608   7.9608   8.7167  11.2082
    11.2082  11.9608

     occupation numbers 
     1.0000   1.0000   1.0000   1.0000   1.0000   1.0000   1.0000   1.0000
     1.0000   1.0000   1.0000   1.0000   1.0000   1.0000   0.0000   0.0000
     0.0000   0.0000

          k = 0.1886 0.1886-0.1886 (  6012 PWs)   bands (ev):

   -13.2471 -13.2471 -13.2130 -13.1374 -13.1374 -12.9605 -12.9605 -12.9368
   -12.8857 -12.8857  -1.1342   4.1843   7.7454   7.7454   8.5611  11.4337
    11.4337  12.8517

     occupation numbers 
     1.0000   1.0000   1.0000   1.0000   1.0000   1.0000   1.0000   1.0000
     1.0000   1.0000   1.0000   1.0000   1.0000   1.0000   0.0000   0.0000
     0.0000   0.0000

          k = 0.2357 0.2357-0.2357 (  6008 PWs)   bands (ev):

   -13.2512 -13.2512 -13.2083 -13.1297 -13.1297 -12.9665 -12.9665 -12.9425
   -12.8816 -12.8816  -0.8282   3.4079   7.5711   7.5711   8.4159  11.5517
    11.5517  13.7734

     occupation numbers 
     1.0000   1.0000   1.0000   1.0000   1.0000   1.0000   1.0000   1.0000
     1.0000   1.0000   1.0000   1.0000   1.0000   1.0000   0.0000   0.0000
     0.0000   0.0000

          k = 0.2828 0.2828-0.2828 (  6017 PWs)   bands (ev):

   -13.2538 -13.2538 -13.2044 -13.1247 -13.1247 -12.9702 -12.9702 -12.9470
   -12.8791 -12.8791  -0.5191   2.7782   7.4501   7.4501   8.3105  11.5884
    11.5884  14.1708

     occupation numbers 
     1.0000   1.0000   1.0000   1.0000   1.0000   1.0000   1.0000   1.0000
     1.0000   1.0000   1.0000   1.0000   1.0000   1.0000   1.0000   0.0000
     0.0000   0.0000

          k = 0.3300 0.3300-0.3300 (  6026 PWs)   bands (ev):

   -13.2550 -13.2550 -13.2023 -13.1223 -13.1223 -12.9718 -12.9718 -12.9495
   -12.8779 -12.8779  -0.3014   2.3983   7.3884   7.3884   8.2558  11.5919
    11.5919  14.1298

     occupation numbers 
     1.0000   1.0000   1.0000   1.0000   1.0000   1.0000   1.0000   1.0000
     1.0000   1.0000   1.0000   1.0000   1.0000   1.0000   1.0000   0.0000
     0.0000   0.0000

          k = 0.0943 0.0000 0.0000 (  6006 PWs)   bands (ev):

   -13.2278 -13.2278 -13.2277 -13.1682 -13.1634 -12.9414 -12.9197 -12.9189
   -12.9189 -12.9040  -1.6920   6.7003   8.2400   8.2400   8.9931  10.3822
    10.8476  10.8476

     occupation numbers 
     1.0000   1.0000   1.0000   1.0000   1.0000   1.0000   1.0000   1.0000
     1.0000   1.0000   1.0000   1.0000   1.0000   1.0000   0.0000   0.0000
     0.0000   0.0000

          k = 0.1414 0.0471-0.0471 (  6006 PWs)   bands (ev):

   -13.2345 -13.2319 -13.2249 -13.1624 -13.1540 -12.9537 -12.9306 -12.9190
   -12.9086 -12.8969  -1.5994   6.0770   8.0115   8.0430   9.2581  10.3864
    11.1611  11.2508

     occupation numbers 
     1.0000   1.0000   1.0000   1.0000   1.0000   1.0000   1.0000   1.0000
     1.0000   1.0000   1.0000   1.0000   1.0000   1.0000   0.0000   0.0000
     0.0000   0.0000

          k = 0.1886 0.0943-0.0943 (  6007 PWs)   bands (ev):

   -13.2423 -13.2381 -13.2201 -13.1529 -13.1426 -12.9650 -12.9413 -12.9236
   -12.8994 -12.8890  -1.4304   5.2581   7.7746   7.8015   9.2517  10.6489
    11.4864  11.8603

     occupation numbers 
     1.0000   1.0000   1.0000   1.0000   1.0000   1.0000   1.0000   1.0000
     1.0000   1.0000   1.0000   1.0000   1.0000   1.0000   0.0000   0.0000
     0.0000   0.0000

          k = 0.2357 0.1414-0.1414 (  6014 PWs)   bands (ev):

   -13.2494 -13.2442 -13.2140 -13.1429 -13.1319 -12.9740 -12.9511 -12.9306
   -12.8918 -12.8821  -1.1917   4.4155   7.5417   7.5691   9.1145  10.9864
    11.7284  12.5461

     occupation numbers 
     1.0000   1.0000   1.0000   1.0000   1.0000   1.0000   1.0000   1.0000
     1.0000   1.0000   1.0000   1.0000   1.0000   1.0000   0.0000   0.0000
     0.0000   0.0000

          k = 0.2828 0.1886-0.1886 (  6009 PWs)   bands (ev):

   -13.2548 -13.2491 -13.2073 -13.1339 -13.1237 -12.9797 -12.9594 -12.9387
   -12.8858 -12.8769  -0.8980   3.6257   7.3064   7.4149   8.9590  11.2430
    11.8380  13.2524

     occupation numbers 
     1.0000   1.0000   1.0000   1.0000   1.0000   1.0000   1.0000   1.0000
     1.0000   1.0000   1.0000   1.0000   1.0000   1.0000   0.0000   0.0000
     0.0000   0.0000

          k = 0.3300 0.2357-0.2357 (  6012 PWs)   bands (ev):

   -13.2583 -13.2528 -13.2012 -13.1267 -13.1192 -12.9813 -12.9663 -12.9465
   -12.8812 -12.8736  -0.5821   2.9499   7.1181   7.3214   8.8303  11.3851
    11.8371  13.9104

     occupation numbers 
     1.0000   1.0000   1.0000   1.0000   1.0000   1.0000   1.0000   1.0000
     1.0000   1.0000   1.0000   1.0000   1.0000   1.0000   0.0000   0.0000
     0.0000   0.0000

          k = 0.3771 0.2828-0.2828 (  6009 PWs)   bands (ev):

   -13.2600 -13.2552 -13.1970 -13.1215 -13.1182 -12.9792 -12.9718 -12.9527
   -12.8780 -12.8723  -0.3186   2.4768   6.9877   7.2927   8.7464  11.4643
    11.7814  14.2162

     occupation numbers 
     1.0000   1.0000   1.0000   1.0000   1.0000   1.0000   1.0000   1.0000
     1.0000   1.0000   1.0000   1.0000   1.0000   1.0000   0.0000   0.0000
     0.0000   0.0000

          k =-0.2828-0.3771 0.3771 (  6012 PWs)   bands (ev):

   -13.2599 -13.2564 -13.1955 -13.1201 -13.1183 -12.9759 -12.9746 -12.9558
   -12.8760 -12.8730  -0.2358   2.3414   6.9212   7.3289   8.7143  11.5305
    11.7117  14.2672

     occupation numbers 
     1.0000   1.0000   1.0000   1.0000   1.0000   1.0000   1.0000   1.0000
     1.0000   1.0000   1.0000   1.0000   1.0000   1.0000   0.0000   0.0000
     0.0000   0.0000

          k =-0.2357-0.3300 0.3300 (  6014 PWs)   bands (ev):

   -13.2582 -13.2565 -13.1972 -13.1240 -13.1177 -12.9780 -12.9698 -12.9540
   -12.8755 -12.8753  -0.3939   2.6053   6.9224   7.4274   8.7356  11.5991
    11.6383  14.2374

     occupation numbers 
     1.0000   1.0000   1.0000   1.0000   1.0000   1.0000   1.0000   1.0000
     1.0000   1.0000   1.0000   1.0000   1.0000   1.0000   0.0000   0.0000
     0.0000   0.0000

          k =-0.1886-0.2828 0.2828 (  6019 PWs)   bands (ev):

   -13.2551 -13.2548 -13.2016 -13.1297 -13.1205 -12.9772 -12.9658 -12.9471
   -12.8799 -12.8762  -0.6872   3.1594   6.9939   7.5825   8.8072  11.5418
    11.6461  13.8187

     occupation numbers 
     1.0000   1.0000   1.0000   1.0000   1.0000   1.0000   1.0000   1.0000
     1.0000   1.0000   1.0000   1.0000   1.0000   1.0000   0.0000   0.0000
     0.0000   0.0000

          k =-0.1414-0.2357 0.2357 (  6015 PWs)   bands (ev):

   -13.2519 -13.2498 -13.2078 -13.1370 -13.1270 -12.9729 -12.9610 -12.9378
   -12.8861 -12.8788  -1.0012   3.8800   7.1372   7.7841   8.9185  11.3842
    11.6013  13.0548

     occupation numbers 
     1.0000   1.0000   1.0000   1.0000   1.0000   1.0000   1.0000   1.0000
     1.0000   1.0000   1.0000   1.0000   1.0000   1.0000   0.0000   0.0000
     0.0000   0.0000

          k =-0.0943-0.1886 0.1886 (  6012 PWs)   bands (ev):

   -13.2470 -13.2434 -13.2144 -13.1459 -13.1367 -12.9652 -12.9542 -12.9283
   -12.8941 -12.8835  -1.2789   4.6908   7.3532   8.0134   9.0415  11.1456
    11.3709  12.3467

     occupation numbers 
     1.0000   1.0000   1.0000   1.0000   1.0000   1.0000   1.0000   1.0000
     1.0000   1.0000   1.0000   1.0000   1.0000   1.0000   0.0000   0.0000
     0.0000   0.0000

          k =-0.0471-0.1414 0.1414 (  6005 PWs)   bands (ev):

   -13.2406 -13.2361 -13.2203 -13.1554 -13.1483 -12.9549 -12.9456 -12.9201
   -12.9037 -12.8902  -1.4953   5.5279   7.6432   8.2353   9.1041  10.8716
    10.9918  11.7348

     occupation numbers 
     1.0000   1.0000   1.0000   1.0000   1.0000   1.0000   1.0000   1.0000
     1.0000   1.0000   1.0000   1.0000   1.0000   1.0000   0.0000   0.0000
     0.0000   0.0000

          k = 0.0000-0.0943 0.0943 (  6011 PWs)   bands (ev):

   -13.2337 -13.2300 -13.2242 -13.1637 -13.1595 -12.9431 -12.9362 -12.9159
   -12.9122 -12.8986  -1.6391   6.2935   8.0097   8.3858   8.9694  10.6703
    10.7124  11.1623

     occupation numbers 
     1.0000   1.0000   1.0000   1.0000   1.0000   1.0000   1.0000   1.0000
     1.0000   1.0000   1.0000   1.0000   1.0000   0.9952   0.0000   0.0000
     0.0000   0.0000

          k = 0.1886 0.0000 0.0000 (  6022 PWs)   bands (ev):

   -13.2336 -13.2336 -13.2302 -13.1598 -13.1442 -12.9687 -12.9278 -12.9109
   -12.9109 -12.8960  -1.5327   5.8095   7.7689   7.7689   9.7701  10.0288
    11.5212  11.5212

     occupation numbers 
     1.0000   1.0000   1.0000   1.0000   1.0000   1.0000   1.0000   1.0000
     1.0000   1.0000   1.0000   1.0000   1.0000   1.0000   0.0000   0.0000
     0.0000   0.0000

          k = 0.2357 0.0471-0.0471 (  6011 PWs)   bands (ev):

   -13.2416 -13.2384 -13.2255 -13.1523 -13.1319 -12.9828 -12.9365 -12.9115
   -12.9030 -12.8904  -1.3885   5.2218   7.5023   7.5276   9.9085  10.0712
    11.8958  11.9803

     occupation numbers 
     1.0000   1.0000   1.0000   1.0000   1.0000   1.0000   1.0000   1.0000
     1.0000   1.0000   1.0000   1.0000   1.0000   1.0000   0.0000   0.0000
     0.0000   0.0000

          k = 0.2828 0.0943-0.0943 (  6006 PWs)   bands (ev):

   -13.2506 -13.2441 -13.2172 -13.1426 -13.1201 -12.9944 -12.9471 -12.9197
   -12.8945 -12.8815  -1.1719   4.4981   7.1930   7.3238   9.8088  10.4125
    12.1878  12.3818

     occupation numbers 
     1.0000   1.0000   1.0000   1.0000   1.0000   1.0000   1.0000   1.0000
     1.0000   1.0000   1.0000   1.0000   1.0000   1.0000   0.0000   0.0000
     0.0000   0.0000

          k = 0.3300 0.1414-0.1414 (  6004 PWs)   bands (ev):

   -13.2585 -13.2493 -13.2071 -13.1327 -13.1109 -13.0020 -12.9575 -12.9309
   -12.8871 -12.8733  -0.8939   3.7586   6.8881   7.1765   9.6570  10.8302
    12.3292  12.6579

     occupation numbers 
     1.0000   1.0000   1.0000   1.0000   1.0000   1.0000   1.0000   1.0000
     1.0000   1.0000   1.0000   1.0000   1.0000   1.0000   0.0000   0.0000
     0.0000   0.0000

          k = 0.3771 0.1886-0.1886 (  6011 PWs)   bands (ev):

   -13.2646 -13.2536 -13.1968 -13.1237 -13.1060 -13.0043 -12.9671 -12.9430
   -12.8810 -12.8671  -0.5788   3.0816   6.6271   7.0951   9.5128  11.1547
    12.3256  13.0548

     occupation numbers 
     1.0000   1.0000   1.0000   1.0000   1.0000   1.0000   1.0000   1.0000
     1.0000   1.0000   1.0000   1.0000   1.0000   1.0000   0.0000   0.0000
     0.0000   0.0000

          k = 0.4243 0.2357-0.2357 (  5999 PWs)   bands (ev):

   -13.2683 -13.2568 -13.1881 -13.1159 -13.1062 -13.0007 -12.9759 -12.9540
   -12.8762 -12.8633  -0.2835   2.5515   6.4285   7.0833   9.4051  11.3357
    12.2360  13.6556

     occupation numbers 
     1.0000   1.0000   1.0000   1.0000   1.0000   1.0000   1.0000   1.0000
     1.0000   1.0000   1.0000   1.0000   1.0000   1.0000   0.0000   0.0000
     0.0000   0.0000

          k =-0.2357-0.4243 0.4243 (  6000 PWs)   bands (ev):

   -13.2696 -13.2590 -13.1827 -13.1105 -13.1100 -12.9921 -12.9833 -12.9623
   -12.8728 -12.8624  -0.1249   2.2984   6.3020   7.1408   9.3455  11.4510
    12.1125  14.2355

     occupation numbers 
     1.0000   1.0000   1.0000   1.0000   1.0000   1.0000   1.0000   1.0000
     1.0000   1.0000   1.0000   1.0000   1.0000   1.0000   0.0000   0.0000
     0.0000   0.0000

          k =-0.1886-0.3771 0.3771 (  6005 PWs)   bands (ev):

   -13.2684 -13.2599 -13.1821 -13.1173 -13.1068 -12.9885 -12.9796 -12.9671
   -12.8709 -12.8645  -0.2122   2.4358   6.2549   7.2639   9.3363  11.5610
    11.9751  14.2989

     occupation numbers 
     1.0000   1.0000   1.0000   1.0000   1.0000   1.0000   1.0000   1.0000
     1.0000   1.0000   1.0000   1.0000   1.0000   1.0000   0.0000   0.0000
     0.0000   0.0000

          k =-0.1414-0.3300 0.3300 (  6012 PWs)   bands (ev):

   -13.2646 -13.2594 -13.1866 -13.1250 -13.1077 -12.9899 -12.9693 -12.9636
   -12.8708 -12.8696  -0.4800   2.8943   6.2950   7.4442   9.3715  11.6682
    11.8122  13.6831

     occupation numbers 
     1.0000   1.0000   1.0000   1.0000   1.0000   1.0000   1.0000   1.0000
     1.0000   1.0000   1.0000   1.0000   1.0000   1.0000   0.0000   0.0000
     0.0000   0.0000

          k =-0.0943-0.2828 0.2828 (  6008 PWs)   bands (ev):

   -13.2586 -13.2571 -13.1950 -13.1327 -13.1135 -12.9865 -12.9667 -12.9481
   -12.8776 -12.8726  -0.7971   3.5286   6.4337   7.6675   9.4336  11.5944
    11.6976  12.9793

     occupation numbers 
     1.0000   1.0000   1.0000   1.0000   1.0000   1.0000   1.0000   1.0000
     1.0000   1.0000   1.0000   1.0000   1.0000   1.0000   0.0000   0.0000
     0.0000   0.0000

          k =-0.0471-0.2357 0.2357 (  6004 PWs)   bands (ev):

   -13.2530 -13.2508 -13.2050 -13.1407 -13.1235 -12.9786 -12.9617 -12.9331
   -12.8880 -12.8765  -1.0901   4.2359   6.6889   7.9082   9.4768  11.3153
    11.4826  12.5381

     occupation numbers 
     1.0000   1.0000   1.0000   1.0000   1.0000   1.0000   1.0000   1.0000
     1.0000   1.0000   1.0000   1.0000   1.0000   1.0000   0.0000   0.0000
     0.0000   0.0000

          k = 0.0000-0.1886 0.1886 (  6015 PWs)   bands (ev):

   -13.2473 -13.2425 -13.2143 -13.1487 -13.1359 -12.9676 -12.9543 -12.9211
   -12.8993 -12.8824  -1.3275   4.9314   7.0878   8.1209   9.3991  11.0362
    11.1410  12.2324

     occupation numbers 
     1.0000   1.0000   1.0000   1.0000   1.0000   1.0000   1.0000   1.0000
     1.0000   1.0000   1.0000   1.0000   1.0000   1.0000   0.0000   0.0000
     0.0000   0.0000

          k = 0.2828 0.0000 0.0000 (  6018 PWs)   bands (ev):

   -13.2418 -13.2418 -13.2290 -13.1463 -13.1183 -13.0002 -12.9408 -12.8994
   -12.8994 -12.8956  -1.2688   4.8867   7.2813   7.2813   9.6675  10.3148
    12.3396  12.3396

     occupation numbers 
     1.0000   1.0000   1.0000   1.0000   1.0000   1.0000   1.0000   1.0000
     1.0000   1.0000   1.0000   1.0000   1.0000   1.0000   0.0000   0.0000
     0.0000   0.0000

          k = 0.3300 0.0471-0.0471 (  6010 PWs)   bands (ev):

   -13.2496 -13.2466 -13.2221 -13.1371 -13.1045 -13.0154 -12.9501 -12.9077
   -12.8923 -12.8853  -1.0749   4.3471   7.0000   7.0726   9.6678  10.3867
    12.6335  12.7172

     occupation numbers 
     1.0000   1.0000   1.0000   1.0000   1.0000   1.0000   1.0000   1.0000
     1.0000   1.0000   1.0000   1.0000   1.0000   1.0000   0.0000   0.0000
     0.0000   0.0000

          k = 0.3771 0.0943-0.0943 (  6011 PWs)   bands (ev):

   -13.2591 -13.2515 -13.2099 -13.1268 -13.0932 -13.0265 -12.9610 -12.9217
   -12.8850 -12.8737  -0.8149   3.7234   6.6486   6.9217   9.7836  10.5518
    12.6176  12.9369

     occupation numbers 
     1.0000   1.0000   1.0000   1.0000   1.0000   1.0000   1.0000   1.0000
     1.0000   1.0000   1.0000   1.0000   1.0000   1.0000   0.0000   0.0000
     0.0000   0.0000

          k = 0.4243 0.1414-0.1414 (  5995 PWs)   bands (ev):

   -13.2676 -13.2559 -13.1959 -13.1164 -13.0865 -13.0318 -12.9723 -12.9374
   -12.8784 -12.8640  -0.5066   3.1024   6.3069   6.8391   9.7636  10.9974
    12.5959  12.9725

     occupation numbers 
     1.0000   1.0000   1.0000   1.0000   1.0000   1.0000   1.0000   1.0000
     1.0000   1.0000   1.0000   1.0000   1.0000   1.0000   0.0000   0.0000
     0.0000   0.0000

          k = 0.4714 0.1886-0.1886 (  5998 PWs)   bands (ev):

   -13.2740 -13.2594 -13.1826 -13.1068 -13.0863 -13.0300 -12.9832 -12.9523
   -12.8731 -12.8571  -0.1920   2.5649   6.0251   6.8290   9.7028  11.4495
    12.8192  12.8786

     occupation numbers 
     1.0000   1.0000   1.0000   1.0000   1.0000   1.0000   1.0000   1.0000
     1.0000   1.0000   1.0000   1.0000   1.0000   1.0000   0.0000   0.0000
     0.0000   0.0000

          k =-0.1886-0.4714 0.4714 (  5996 PWs)   bands (ev):

   -13.2776 -13.2619 -13.1725 -13.0986 -13.0922 -13.0213 -12.9932 -12.9640
   -12.8692 -12.8534   0.0304   2.2301   5.8266   6.8917   9.6700  11.6867
    12.7201  13.4103

     occupation numbers 
     1.0000   1.0000   1.0000   1.0000   1.0000   1.0000   1.0000   1.0000
     1.0000   1.0000   1.0000   1.0000   1.0000   1.0000   0.0000   0.0000
     0.0000   0.0000

          k =-0.1414-0.4243 0.4243 (  5996 PWs)   bands (ev):

   -13.2779 -13.2633 -13.1680 -13.1025 -13.0932 -13.0071 -13.0007 -12.9708
   -12.8669 -12.8536   0.0195   2.2468   5.7254   7.0231   9.6785  11.8096
    12.5269  14.0055

     occupation numbers 
     1.0000   1.0000   1.0000   1.0000   1.0000   1.0000   1.0000   1.0000
     1.0000   1.0000   1.0000   1.0000   1.0000   1.0000   0.0000   0.0000
     0.0000   0.0000

          k =-0.0943-0.3771 0.3771 (  5997 PWs)   bands (ev):

   -13.2749 -13.2632 -13.1701 -13.1146 -13.0930 -13.0034 -12.9890 -12.9727
   -12.8663 -12.8577  -0.2151   2.6002   5.7365   7.2141   9.7186  11.9249
    12.2912  13.5459

     occupation numbers 
     1.0000   1.0000   1.0000   1.0000   1.0000   1.0000   1.0000   1.0000
     1.0000   1.0000   1.0000   1.0000   1.0000   1.0000   0.0000   0.0000
     0.0000   0.0000

          k =-0.0471-0.3300 0.3300 (  6008 PWs)   bands (ev):

   -13.2688 -13.2615 -13.1789 -13.1253 -13.0990 -12.9998 -12.9737 -12.9663
   -12.8677 -12.8656  -0.5305   3.1275   5.8817   7.4482   9.7566  11.9898
    12.0135  12.8040

     occupation numbers 
     1.0000   1.0000   1.0000   1.0000   1.0000   1.0000   1.0000   1.0000
     1.0000   1.0000   1.0000   1.0000   1.0000   1.0000   0.0000   0.0000
     0.0000   0.0000

          k = 0.0000-0.2828 0.2828 (  6029 PWs)   bands (ev):

   -13.2603 -13.2580 -13.1919 -13.1338 -13.1101 -12.9908 -12.9683 -12.9481
   -12.8764 -12.8711  -0.8351   3.7004   6.1909   7.6962   9.7155  11.6363
    11.8013  12.5151

     occupation numbers 
     1.0000   1.0000   1.0000   1.0000   1.0000   1.0000   1.0000   1.0000
     1.0000   1.0000   1.0000   1.0000   1.0000   1.0000   0.0000   0.0000
     0.0000   0.0000

          k = 0.3771 0.0000 0.0000 (  5998 PWs)   bands (ev):

   -13.2506 -13.2506 -13.2223 -13.1282 -13.0883 -13.0344 -12.9582 -12.9026
   -12.8869 -12.8869  -0.9031   3.9769   6.8554   6.8554   9.3805  10.3734
    13.2154  13.2154

     occupation numbers 
     1.0000   1.0000   1.0000   1.0000   1.0000   1.0000   1.0000   1.0000
     1.0000   1.0000   1.0000   1.0000   1.0000   1.0000   0.0000   0.0000
     0.0000   0.0000

          k = 0.4243 0.0471-0.0471 (  6020 PWs)   bands (ev):

   -13.2576 -13.2549 -13.2127 -13.1175 -13.0740 -13.0498 -12.9689 -12.9146
   -12.8806 -12.8765  -0.6622   3.4834   6.5869   6.6947   9.4259  10.3107
    13.3053  13.5680

     occupation numbers 
     1.0000   1.0000   1.0000   1.0000   1.0000   1.0000   1.0000   1.0000
     1.0000   1.0000   1.0000   1.0000   1.0000   1.0000   0.0000   0.0000
     0.0000   0.0000

          k = 0.4714 0.0943-0.0943 (  6013 PWs)   bands (ev):

   -13.2669 -13.2589 -13.1972 -13.1063 -13.0654 -13.0582 -12.9807 -12.9321
   -12.8746 -12.8650  -0.3649   2.9519   6.2195   6.6025   9.5822  10.5024
    13.1368  13.6987

     occupation numbers 
     1.0000   1.0000   1.0000   1.0000   1.0000   1.0000   1.0000   1.0000
     1.0000   1.0000   1.0000   1.0000   1.0000   1.0000   0.0000   0.0000
     0.0000   0.0000

          k = 0.5185 0.1414-0.1414 (  6005 PWs)   bands (ev):

   -13.2753 -13.2621 -13.1804 -13.0952 -13.0677 -13.0548 -12.9929 -12.9503
   -12.8696 -12.8554  -0.0412   2.4520   5.8612   6.5844   9.6227  11.0756
    12.9924  13.6366

     occupation numbers 
     1.0000   1.0000   1.0000   1.0000   1.0000   1.0000   1.0000   1.0000
     1.0000   1.0000   1.0000   1.0000   1.0000   1.0000   0.0000   0.0000
     0.0000   0.0000

          k =-0.1414-0.5185 0.5185 (  5996 PWs)   bands (ev):

   -13.2813 -13.2646 -13.1666 -13.0853 -13.0696 -13.0513 -13.0046 -12.9649
   -12.8659 -12.8490   0.2309   2.0811   5.5797   6.6410   9.6390  11.8085
    12.9660  13.4593

     occupation numbers 
     1.0000   1.0000   1.0000   1.0000   1.0000   1.0000   1.0000   1.0000
     1.0000   1.0000   1.0000   1.0000   1.0000   1.0000   0.0000   0.0000
     0.0000   0.0000

          k =-0.0943-0.4714 0.4714 (  5987 PWs)   bands (ev):

   -13.2838 -13.2659 -13.1590 -13.0792 -13.0783 -13.0396 -13.0137 -12.9731
   -12.8637 -12.8465   0.2931   2.0033   5.4119   6.7690   9.6878  12.3420
    13.2083  13.2656

     occupation numbers 
     1.0000   1.0000   1.0000   1.0000   1.0000   1.0000   1.0000   1.0000
     1.0000   1.0000   1.0000   1.0000   1.0000   1.0000   0.0000   0.0000
     0.0000   0.0000

          k =-0.0471-0.4243 0.4243 (  5990 PWs)   bands (ev):

   -13.2824 -13.2660 -13.1586 -13.0963 -13.0779 -13.0186 -13.0165 -12.9755
   -12.8632 -12.8486   0.0917   2.2640   5.3861   6.9593   9.7648  12.5240
    12.8770  13.3734

     occupation numbers 
     1.0000   1.0000   1.0000   1.0000   1.0000   1.0000   1.0000   1.0000
     1.0000   1.0000   1.0000   1.0000   1.0000   1.0000   0.0000   0.0000
     0.0000   0.0000

          k =-0.0000-0.3771 0.3771 (  5989 PWs)   bands (ev):

   -13.2772 -13.2645 -13.1654 -13.1132 -13.0859 -13.0108 -12.9940 -12.9739
   -12.8645 -12.8552  -0.2197   2.6859   5.5332   7.1956   9.8241  12.4539
    12.6437  12.6497

     occupation numbers 
     1.0000   1.0000   1.0000   1.0000   1.0000   1.0000   1.0000   1.0000
     1.0000   1.0000   1.0000   1.0000   1.0000   1.0000   0.0000   0.0000
     0.0000   0.0000

          k = 0.4714 0.0000 0.0000 (  6014 PWs)   bands (ev):

   -13.2585 -13.2585 -13.2094 -13.1064 -13.0697 -13.0562 -12.9794 -12.9167
   -12.8754 -12.8754  -0.4394   3.0969   6.5211   6.5211   9.2006  10.0759
    14.1040  14.1040

     occupation numbers 
     1.0000   1.0000   1.0000   1.0000   1.0000   1.0000   1.0000   1.0000
     1.0000   1.0000   1.0000   1.0000   1.0000   1.0000   0.0000   0.0000
     0.0000   0.0000

          k = 0.5185 0.0471-0.0471 (  6004 PWs)   bands (ev):

   -13.2645 -13.2619 -13.1970 -13.0945 -13.0846 -13.0420 -12.9914 -12.9305
   -12.8704 -12.8674  -0.1554   2.6471   6.2830   6.4148   9.2916   9.9943
    14.1176  14.4079

     occupation numbers 
     1.0000   1.0000   1.0000   1.0000   1.0000   1.0000   1.0000   1.0000
     1.0000   1.0000   1.0000   1.0000   1.0000   1.0000   0.0000   0.0000
     0.0000   0.0000

          k = 0.5657 0.0943-0.0943 (  6001 PWs)   bands (ev):

   -13.2728 -13.2646 -13.1792 -13.0928 -13.0824 -13.0335 -13.0041 -12.9496
   -12.8663 -12.8576   0.1697   2.1980   5.9264   6.3828   9.4394  10.2971
    13.9195  14.4340

     occupation numbers 
     1.0000   1.0000   1.0000   1.0000   1.0000   1.0000   1.0000   1.0000
     1.0000   1.0000   1.0000   1.0000   1.0000   1.0000   0.0000   0.0000
     0.0000   0.0000

          k =-0.0943-0.5657 0.5657 (  5986 PWs)   bands (ev):

   -13.2804 -13.2665 -13.1625 -13.0908 -13.0711 -13.0344 -13.0168 -12.9668
   -12.8633 -12.8493   0.4777   1.8239   5.5834   6.4268   9.4957  10.9984
    13.7323  14.2547

     occupation numbers 
     1.0000   1.0000   1.0000   1.0000   1.0000   1.0000   1.0000   1.0000
     1.0000   1.0000   1.0000   1.0000   1.0000   1.0000   0.0000   0.0000
     0.0000   0.0000

          k =-0.0471-0.5185 0.5185 (  5988 PWs)   bands (ev):

   -13.2851 -13.2675 -13.1539 -13.0752 -13.0631 -13.0487 -13.0267 -12.9755
   -12.8618 -12.8445   0.5957   1.6950   5.3429   6.5441   9.5671  11.8819
    13.5607  13.9273

     occupation numbers 
     1.0000   1.0000   1.0000   1.0000   1.0000   1.0000   1.0000   1.0000
     1.0000   1.0000   1.0000   1.0000   1.0000   1.0000   0.0000   0.0000
     0.0000   0.0000

          k =-0.0000-0.4714 0.4714 (  5960 PWs)   bands (ev):

   -13.2860 -13.2674 -13.1533 -13.0723 -13.0657 -13.0487 -13.0264 -12.9770
   -12.8617 -12.8441   0.4024   1.9153   5.2624   6.7268   9.6719  12.7569
    13.2643  13.4565

     occupation numbers 
     1.0000   1.0000   1.0000   1.0000   1.0000   1.0000   1.0000   1.0000
     1.0000   1.0000   1.0000   1.0000   1.0000   1.0000   0.0000   0.0000
     0.0000   0.0000

          k = 0.5657 0.0000 0.0000 (  5986 PWs)   bands (ev):

   -13.2645 -13.2645 -13.1905 -13.1045 -13.0819 -13.0235 -13.0034 -12.9370
   -12.8666 -12.8666   0.1166   2.2591   6.2923   6.2923   9.1417   9.7067
    14.9478  14.9479

     occupation numbers 
     1.0000   1.0000   1.0000   1.0000   1.0000   1.0000   1.0000   1.0000
     1.0000   1.0000   1.0000   1.0000   1.0000   1.0000   0.0000   0.0000
     0.0000   0.0000

          k = 0.6128 0.0471-0.0471 (  5991 PWs)   bands (ev):

   -13.2690 -13.2664 -13.1756 -13.1180 -13.0691 -13.0163 -13.0102 -12.9527
   -12.8637 -12.8610   0.4385   1.8523   6.0977   6.2434   9.2701   9.6840
    14.9396  15.1506

     occupation numbers 
     1.0000   1.0000   1.0000   1.0000   1.0000   1.0000   1.0000   1.0000
     1.0000   1.0000   1.0000   1.0000   1.0000   1.0000   0.0000   0.0000
     0.0000   0.0000

          k =-0.0471-0.6128 0.6128 (  5985 PWs)   bands (ev):

   -13.2760 -13.2677 -13.1579 -13.1215 -13.0568 -13.0295 -13.0061 -12.9708
   -12.8618 -12.8534   0.7704   1.4859   5.7782   6.2710   9.3717  10.1536
    14.6867  14.9981

     occupation numbers 
     1.0000   1.0000   1.0000   1.0000   1.0000   1.0000   1.0000   1.0000
     1.0000   1.0000   1.0000   1.0000   1.0000   1.0000   0.0000   0.0000
     0.0000   0.0000

          k = 0.0000-0.5657 0.5657 (  5982 PWs)   bands (ev):

   -13.2821 -13.2681 -13.1515 -13.1048 -13.0511 -13.0367 -13.0216 -12.9772
   -12.8611 -12.8472   0.8664   1.3989   5.4893   6.3735   9.4490  10.9560
    14.2742  14.5647

     occupation numbers 
     1.0000   1.0000   1.0000   1.0000   1.0000   1.0000   1.0000   1.0000
     1.0000   1.0000   1.0000   1.0000   1.0000   1.0000   0.0000   0.0000
     0.0000   0.0000

          k = 0.6600 0.0000 0.0000 (  5986 PWs)   bands (ev):

   -13.2676 -13.2676 -13.1661 -13.1370 -13.0558 -13.0292 -12.9918 -12.9625
   -12.8619 -12.8619   0.7580   1.4756   6.1763   6.1763   9.2095   9.4024
    15.5734  15.5735

     occupation numbers 
     1.0000   1.0000   1.0000   1.0000   1.0000   1.0000   1.0000   1.0000
     1.0000   1.0000   1.0000   1.0000   1.0000   1.0000   0.0000   0.0000
     0.0000   0.0000

          k = 0.0000-0.6600 0.6600 (  5994 PWs)   bands (ev):

   -13.2706 -13.2680 -13.1520 -13.1457 -13.0435 -13.0419 -12.9829 -12.9768
   -12.8613 -12.8587   1.0830   1.1402   6.0355   6.1857   9.3093   9.5269
    15.3964  15.5067

     occupation numbers 
     1.0000   1.0000   1.0000   1.0000   1.0000   1.0000   1.0000   1.0000
     1.0000   1.0000   1.0000   1.0000   1.0000   1.0000   0.0000   0.0000
     0.0000   0.0000

          k = 0.1886 0.0943-0.0000 (  6004 PWs)   bands (ev):

   -13.2404 -13.2360 -13.2228 -13.1563 -13.1431 -12.9669 -12.9377 -12.9138
   -12.9078 -12.8903  -1.4812   5.5284   7.5435   7.9816   9.5428  10.3491
    11.3912  11.7856

     occupation numbers 
     1.0000   1.0000   1.0000   1.0000   1.0000   1.0000   1.0000   1.0000
     1.0000   1.0000   1.0000   1.0000   1.0000   1.0000   0.0000   0.0000
     0.0000   0.0000

          k = 0.2357 0.1414-0.0471 (  6009 PWs)   bands (ev):

   -13.2476 -13.2428 -13.2161 -13.1474 -13.1311 -12.9786 -12.9473 -12.9216
   -12.8974 -12.8829  -1.2884   4.8118   7.1519   7.8225   9.5914  10.5905
    11.7099  12.2560

     occupation numbers 
     1.0000   1.0000   1.0000   1.0000   1.0000   1.0000   1.0000   1.0000
     1.0000   1.0000   1.0000   1.0000   1.0000   1.0000   0.0000   0.0000
     0.0000   0.0000

          k = 0.2828 0.1886-0.0943 (  6003 PWs)   bands (ev):

   -13.2545 -13.2493 -13.2073 -13.1382 -13.1204 -12.9875 -12.9561 -12.9329
   -12.8878 -12.8765  -1.0295   4.0509   6.8615   7.6151   9.4925  10.9543
    11.9654  12.6509

     occupation numbers 
     1.0000   1.0000   1.0000   1.0000   1.0000   1.0000   1.0000   1.0000
     1.0000   1.0000   1.0000   1.0000   1.0000   1.0000   0.0000   0.0000
     0.0000   0.0000

          k = 0.3300 0.2357-0.1414 (  6012 PWs)   bands (ev):

   -13.2603 -13.2540 -13.1983 -13.1297 -13.1130 -12.9921 -12.9636 -12.9452
   -12.8805 -12.8715  -0.7231   3.3312   6.6582   7.4214   9.3693  11.2349
    12.0417  13.1669

     occupation numbers 
     1.0000   1.0000   1.0000   1.0000   1.0000   1.0000   1.0000   1.0000
     1.0000   1.0000   1.0000   1.0000   1.0000   1.0000   0.0000   0.0000
     0.0000   0.0000

          k = 0.3771 0.2828-0.1886 (  6008 PWs)   bands (ev):

   -13.2644 -13.2570 -13.1907 -13.1223 -13.1099 -12.9920 -12.9704 -12.9559
   -12.8758 -12.8678  -0.4121   2.7304   6.5301   7.2766   9.2722  11.3693
    12.0292  13.8036

     occupation numbers 
     1.0000   1.0000   1.0000   1.0000   1.0000   1.0000   1.0000   1.0000
     1.0000   1.0000   1.0000   1.0000   1.0000   1.0000   0.0000   0.0000
     0.0000   0.0000

          k =-0.2828-0.3771 0.4714 (  6016 PWs)   bands (ev):

   -13.2666 -13.2584 -13.1864 -13.1164 -13.1108 -12.9876 -12.9780 -12.9616
   -12.8736 -12.8658  -0.1912   2.3609   6.4685   7.1996   9.2203  11.4116
    12.0079  14.2919

     occupation numbers 
     1.0000   1.0000   1.0000   1.0000   1.0000   1.0000   1.0000   1.0000
     1.0000   1.0000   1.0000   1.0000   1.0000   1.0000   0.0000   0.0000
     0.0000   0.0000

          k = 0.2828 0.0943 0.0000 (  6007 PWs)   bands (ev):

   -13.2471 -13.2444 -13.2207 -13.1444 -13.1190 -12.9974 -12.9445 -12.9135
   -12.8962 -12.8849  -1.2198   4.6952   7.0654   7.4341   9.9918  10.1587
    12.2441  12.3248

     occupation numbers 
     1.0000   1.0000   1.0000   1.0000   1.0000   1.0000   1.0000   1.0000
     1.0000   1.0000   1.0000   1.0000   1.0000   1.0000   0.0000   0.0000
     0.0000   0.0000

          k = 0.3300 0.1414-0.0471 (  5994 PWs)   bands (ev):

   -13.2553 -13.2506 -13.2103 -13.1349 -13.1070 -13.0091 -12.9546 -12.9247
   -12.8869 -12.8767  -0.9816   4.0586   6.6894   7.2710  10.0132  10.4243
    12.4082  12.5768

     occupation numbers 
     1.0000   1.0000   1.0000   1.0000   1.0000   1.0000   1.0000   1.0000
     1.0000   1.0000   1.0000   1.0000   1.0000   1.0000   0.0000   0.0000
     0.0000   0.0000

          k = 0.3771 0.1886-0.0943 (  6006 PWs)   bands (ev):

   -13.2635 -13.2553 -13.1978 -13.1252 -13.0981 -13.0163 -12.9647 -12.9388
   -12.8793 -12.8684  -0.6875   3.4010   6.3934   7.1014   9.9079  10.8755
    12.4245  12.8007

     occupation numbers 
     1.0000   1.0000   1.0000   1.0000   1.0000   1.0000   1.0000   1.0000
     1.0000   1.0000   1.0000   1.0000   1.0000   1.0000   0.0000   0.0000
     0.0000   0.0000

          k = 0.4243 0.2357-0.1414 (  6005 PWs)   bands (ev):

   -13.2700 -13.2588 -13.1858 -13.1161 -13.0944 -13.0175 -12.9748 -12.9527
   -12.8740 -12.8616  -0.3688   2.8028   6.1712   6.9834   9.8060  11.2213
    12.5279  13.0374

     occupation numbers 
     1.0000   1.0000   1.0000   1.0000   1.0000   1.0000   1.0000   1.0000
     1.0000   1.0000   1.0000   1.0000   1.0000   1.0000   0.0000   0.0000
     0.0000   0.0000

          k =-0.2357-0.4243 0.5185 (  6000 PWs)   bands (ev):

   -13.2740 -13.2612 -13.1766 -13.1083 -13.0961 -13.0125 -12.9848 -12.9632
   -12.8704 -12.8574  -0.0999   2.3667   6.0192   6.9425   9.7406  11.3674
    12.5571  13.5724

     occupation numbers 
     1.0000   1.0000   1.0000   1.0000   1.0000   1.0000   1.0000   1.0000
     1.0000   1.0000   1.0000   1.0000   1.0000   1.0000   0.0000   0.0000
     0.0000   0.0000

          k =-0.1886-0.3771 0.4714 (  5991 PWs)   bands (ev):

   -13.2750 -13.2623 -13.1725 -13.1064 -13.0981 -13.0051 -12.9909 -12.9687
   -12.8685 -12.8566  -0.0168   2.2427   5.9405   6.9839   9.7214  11.4222
    12.5011  14.1008

     occupation numbers 
     1.0000   1.0000   1.0000   1.0000   1.0000   1.0000   1.0000   1.0000
     1.0000   1.0000   1.0000   1.0000   1.0000   1.0000   0.0000   0.0000
     0.0000   0.0000

          k =-0.1414-0.3300 0.4243 (  6007 PWs)   bands (ev):

   -13.2730 -13.2622 -13.1746 -13.1139 -13.0965 -13.0055 -12.9820 -12.9696
   -12.8683 -12.8592  -0.1837   2.4971   5.9443   7.1014   9.7468  11.4434
    12.4128  13.7249

     occupation numbers 
     1.0000   1.0000   1.0000   1.0000   1.0000   1.0000   1.0000   1.0000
     1.0000   1.0000   1.0000   1.0000   1.0000   1.0000   0.0000   0.0000
     0.0000   0.0000

          k =-0.0943-0.2828 0.3771 (  6000 PWs)   bands (ev):

   -13.2680 -13.2607 -13.1825 -13.1228 -13.0990 -13.0056 -12.9696 -12.9628
   -12.8703 -12.8649  -0.4830   3.0025   6.0452   7.2804   9.8045  11.3728
    12.3175  13.0700

     occupation numbers 
     1.0000   1.0000   1.0000   1.0000   1.0000   1.0000   1.0000   1.0000
     1.0000   1.0000   1.0000   1.0000   1.0000   1.0000   0.0000   0.0000
     0.0000   0.0000

          k =-0.0471-0.2357 0.3300 (  6004 PWs)   bands (ev):

   -13.2606 -13.2576 -13.1941 -13.1315 -13.1068 -13.0004 -12.9634 -12.9462
   -12.8769 -12.8710  -0.7980   3.6177   6.2639   7.4955   9.8608  11.0991
    12.2597  12.5689

     occupation numbers 
     1.0000   1.0000   1.0000   1.0000   1.0000   1.0000   1.0000   1.0000
     1.0000   1.0000   1.0000   1.0000   1.0000   1.0000   0.0000   0.0000
     0.0000   0.0000

          k = 0.0000-0.1886 0.2828 (  5998 PWs)   bands (ev):

   -13.2534 -13.2513 -13.2064 -13.1398 -13.1182 -12.9909 -12.9559 -12.9307
   -12.8877 -12.8765  -1.0741   4.2462   6.6276   7.7015   9.8268  10.7508
    12.0087  12.4113

     occupation numbers 
     1.0000   1.0000   1.0000   1.0000   1.0000   1.0000   1.0000   1.0000
     1.0000   1.0000   1.0000   1.0000   1.0000   1.0000   0.0000   0.0000
     0.0000   0.0000

          k = 0.3771 0.0943 0.0000 (  6008 PWs)   bands (ev):

   -13.2543 -13.2533 -13.2142 -13.1275 -13.0905 -13.0307 -12.9597 -12.9157
   -12.8837 -12.8791  -0.8581   3.8544   6.6548   6.9398   9.6998  10.4046
    12.7272  13.1559

     occupation numbers 
     1.0000   1.0000   1.0000   1.0000   1.0000   1.0000   1.0000   1.0000
     1.0000   1.0000   1.0000   1.0000   1.0000   1.0000   0.0000   0.0000
     0.0000   0.0000

          k = 0.4243 0.1414-0.0471 (  6007 PWs)   bands (ev):

   -13.2633 -13.2581 -13.2003 -13.1170 -13.0792 -13.0417 -12.9708 -12.9311
   -12.8761 -12.8691  -0.5795   3.3001   6.3048   6.7889   9.8773  10.5515
    12.5985  13.4508

     occupation numbers 
     1.0000   1.0000   1.0000   1.0000   1.0000   1.0000   1.0000   1.0000
     1.0000   1.0000   1.0000   1.0000   1.0000   1.0000   0.0000   0.0000
     0.0000   0.0000

          k = 0.4714 0.1886-0.0943 (  5994 PWs)   bands (ev):

   -13.2719 -13.2616 -13.1845 -13.1065 -13.0736 -13.0460 -12.9825 -12.9482
   -12.8708 -12.8594  -0.2614   2.7538   5.9903   6.6826   9.9061  11.0486
    12.4873  13.5236

     occupation numbers 
     1.0000   1.0000   1.0000   1.0000   1.0000   1.0000   1.0000   1.0000
     1.0000   1.0000   1.0000   1.0000   1.0000   1.0000   0.0000   0.0000
     0.0000   0.0000

          k =-0.1886-0.4714 0.5657 (  6009 PWs)   bands (ev):

   -13.2782 -13.2642 -13.1706 -13.0969 -13.0749 -13.0425 -12.9942 -12.9629
   -12.8669 -12.8524   0.0410   2.3005   5.7393   6.6573   9.8928  11.5803
    12.5933  13.4621

     occupation numbers 
     1.0000   1.0000   1.0000   1.0000   1.0000   1.0000   1.0000   1.0000
     1.0000   1.0000   1.0000   1.0000   1.0000   1.0000   0.0000   0.0000
     0.0000   0.0000

          k =-0.1414-0.4243 0.5185 (  5992 PWs)   bands (ev):

   -13.2813 -13.2657 -13.1618 -13.0912 -13.0800 -13.0335 -13.0039 -12.9720
   -12.8644 -12.8493   0.2006   2.0832   5.5765   6.7166   9.9095  11.7877
    13.0198  13.4344

     occupation numbers 
     1.0000   1.0000   1.0000   1.0000   1.0000   1.0000   1.0000   1.0000
     1.0000   1.0000   1.0000   1.0000   1.0000   1.0000   0.0000   0.0000
     0.0000   0.0000

          k =-0.0943-0.3771 0.4714 (  5993 PWs)   bands (ev):

   -13.2807 -13.2661 -13.1603 -13.0987 -13.0809 -13.0237 -13.0040 -12.9752
   -12.8635 -12.8503   0.0936   2.2280   5.5227   6.8525   9.9613  11.8195
    12.9266  13.6134

     occupation numbers 
     1.0000   1.0000   1.0000   1.0000   1.0000   1.0000   1.0000   1.0000
     1.0000   1.0000   1.0000   1.0000   1.0000   1.0000   0.0000   0.0000
     0.0000   0.0000

          k =-0.0471-0.3300 0.4243 (  5998 PWs)   bands (ev):

   -13.2765 -13.2651 -13.1664 -13.1118 -13.0842 -13.0192 -12.9875 -12.9739
   -12.8643 -12.8557  -0.1898   2.6329   5.6014   7.0493  10.0242  11.7613
    12.5543  13.2210

     occupation numbers 
     1.0000   1.0000   1.0000   1.0000   1.0000   1.0000   1.0000   1.0000
     1.0000   1.0000   1.0000   1.0000   1.0000   1.0000   0.0000   0.0000
     0.0000   0.0000

          k = 0.0000-0.2828 0.3771 (  6006 PWs)   bands (ev):

   -13.2692 -13.2625 -13.1789 -13.1230 -13.0937 -13.0116 -12.9697 -12.9660
   -12.8668 -12.8650  -0.5091   3.1295   5.8407   7.2799  10.0323  11.4480
    12.3837  12.7810

     occupation numbers 
     1.0000   1.0000   1.0000   1.0000   1.0000   1.0000   1.0000   1.0000
     1.0000   1.0000   1.0000   1.0000   1.0000   1.0000   0.0000   0.0000
     0.0000   0.0000

          k = 0.4714 0.0943-0.0000 (  6008 PWs)   bands (ev):

   -13.2614 -13.2613 -13.2018 -13.1063 -13.0651 -13.0596 -12.9801 -12.9264
   -12.8723 -12.8711  -0.4006   3.0269   6.3412   6.5417   9.5080  10.2254
    13.3454  14.0705

     occupation numbers 
     1.0000   1.0000   1.0000   1.0000   1.0000   1.0000   1.0000   1.0000
     1.0000   1.0000   1.0000   1.0000   1.0000   1.0000   0.0000   0.0000
     0.0000   0.0000

          k = 0.5185 0.1414-0.0471 (  6003 PWs)   bands (ev):

   -13.2702 -13.2645 -13.1848 -13.0948 -13.0751 -13.0493 -12.9924 -12.9446
   -12.8671 -12.8610  -0.0890   2.5498   6.0186   6.4265   9.7140  10.4216
    13.1725  14.2966

     occupation numbers 
     1.0000   1.0000   1.0000   1.0000   1.0000   1.0000   1.0000   1.0000
     1.0000   1.0000   1.0000   1.0000   1.0000   1.0000   0.0000   0.0000
     0.0000   0.0000

          k =-0.1414-0.5185 0.6128 (  6005 PWs)   bands (ev):

   -13.2782 -13.2669 -13.1673 -13.0838 -13.0774 -13.0456 -13.0052 -12.9628
   -12.8636 -12.8520   0.2340   2.1160   5.6915   6.4012   9.7790  11.0504
    12.9974  14.2176

     occupation numbers 
     1.0000   1.0000   1.0000   1.0000   1.0000   1.0000   1.0000   1.0000
     1.0000   1.0000   1.0000   1.0000   1.0000   1.0000   0.0000   0.0000
     0.0000   0.0000

          k =-0.0943-0.4714 0.5657 (  5987 PWs)   bands (ev):

   -13.2835 -13.2683 -13.1550 -13.0760 -13.0687 -13.0514 -13.0167 -12.9750
   -12.8614 -12.8463   0.4580   1.8446   5.4412   6.4638   9.8298  11.8591
    12.8945  13.9019

     occupation numbers 
     1.0000   1.0000   1.0000   1.0000   1.0000   1.0000   1.0000   1.0000
     1.0000   1.0000   1.0000   1.0000   1.0000   1.0000   0.0000   0.0000
     0.0000   0.0000

          k =-0.0471-0.4243 0.5185 (  5978 PWs)   bands (ev):

   -13.2852 -13.2686 -13.1513 -13.0775 -13.0637 -13.0499 -13.0218 -12.9789
   -12.8606 -12.8449   0.4030   1.9117   5.3187   6.6046   9.9139  12.4355
    13.0921  13.3296

     occupation numbers 
     1.0000   1.0000   1.0000   1.0000   1.0000   1.0000   1.0000   1.0000
     1.0000   1.0000   1.0000   1.0000   1.0000   1.0000   0.0000   0.0000
     0.0000   0.0000

          k =-0.0000-0.3771 0.4714 (  5976 PWs)   bands (ev):

   -13.2827 -13.2676 -13.1553 -13.0951 -13.0713 -13.0330 -13.0108 -12.9777
   -12.8615 -12.8482   0.1298   2.2401   5.3619   6.8083  10.0082  12.3484
    12.6878  13.4978

     occupation numbers 
     1.0000   1.0000   1.0000   1.0000   1.0000   1.0000   1.0000   1.0000
     1.0000   1.0000   1.0000   1.0000   1.0000   1.0000   0.0000   0.0000
     0.0000   0.0000

          k = 0.5657 0.0943 0.0000 (  5998 PWs)   bands (ev):

   -13.2672 -13.2670 -13.1833 -13.0990 -13.0821 -13.0281 -13.0039 -12.9449
   -12.8638 -12.8637   0.1463   2.2280   6.1387   6.2573   9.4317   9.9121
    14.1295  14.8999

     occupation numbers 
     1.0000   1.0000   1.0000   1.0000   1.0000   1.0000   1.0000   1.0000
     1.0000   1.0000   1.0000   1.0000   1.0000   1.0000   0.0000   0.0000
     0.0000   0.0000

          k =-0.0943-0.5657 0.6600 (  5989 PWs)   bands (ev):

   -13.2747 -13.2689 -13.1644 -13.1065 -13.0699 -13.0202 -13.0171 -12.9643
   -12.8610 -12.8551   0.4795   1.8228   5.8424   6.2042   9.6253  10.2326
    13.9394  14.9046

     occupation numbers 
     1.0000   1.0000   1.0000   1.0000   1.0000   1.0000   1.0000   1.0000
     1.0000   1.0000   1.0000   1.0000   1.0000   1.0000   0.0000   0.0000
     0.0000   0.0000

          k =-0.0471-0.5185 0.6128 (  5988 PWs)   bands (ev):

   -13.2815 -13.2699 -13.1498 -13.1011 -13.0591 -13.0299 -13.0243 -12.9787
   -12.8595 -12.8479   0.7519   1.5277   5.5324   6.2617   9.6977  10.9847
    13.7387  14.3843

     occupation numbers 
     1.0000   1.0000   1.0000   1.0000   1.0000   1.0000   1.0000   1.0000
     1.0000   1.0000   1.0000   1.0000   1.0000   1.0000   0.0000   0.0000
     0.0000   0.0000

          k = 0.0000-0.4714 0.5657 (  5989 PWs)   bands (ev):

   -13.2854 -13.2698 -13.1471 -13.0791 -13.0592 -13.0434 -13.0330 -12.9813
   -12.8593 -12.8441   0.6942   1.5984   5.3351   6.4000   9.7958  11.8940
    13.5087  13.6001

     occupation numbers 
     1.0000   1.0000   1.0000   1.0000   1.0000   1.0000   1.0000   1.0000
     1.0000   1.0000   1.0000   1.0000   1.0000   1.0000   0.0000   0.0000
     0.0000   0.0000

          k =-0.0471-0.6128 0.7071 (  5998 PWs)   bands (ev):

   -13.2702 -13.2701 -13.1594 -13.1309 -13.0561 -13.0296 -12.9973 -12.9691
   -12.8593 -12.8593   0.7742   1.4723   6.0551   6.0942   9.4773   9.6431
    14.9066  15.3214

     occupation numbers 
     1.0000   1.0000   1.0000   1.0000   1.0000   1.0000   1.0000   1.0000
     1.0000   1.0000   1.0000   1.0000   1.0000   1.0000   0.0000   0.0000
     0.0000   0.0000

          k = 0.0000-0.5657 0.6600 (  5993 PWs)   bands (ev):

   -13.2763 -13.2705 -13.1457 -13.1289 -13.0459 -13.0410 -12.9987 -12.9826
   -12.8588 -12.8530   1.0369   1.2120   5.7828   6.1295   9.6006  10.1530
    14.6350  14.7353

     occupation numbers 
     1.0000   1.0000   1.0000   1.0000   1.0000   1.0000   1.0000   1.0000
     1.0000   1.0000   1.0000   1.0000   1.0000   1.0000   0.0000   0.0000
     0.0000   0.0000

          k = 0.3771 0.1886-0.0000 (  6014 PWs)   bands (ev):

   -13.2604 -13.2595 -13.1972 -13.1258 -13.0943 -13.0213 -12.9640 -12.9388
   -12.8754 -12.8711  -0.7250   3.5405   6.2446   7.1301  10.3459  10.4640
    12.2901  12.9955

     occupation numbers 
     1.0000   1.0000   1.0000   1.0000   1.0000   1.0000   1.0000   1.0000
     1.0000   1.0000   1.0000   1.0000   1.0000   1.0000   0.0000   0.0000
     0.0000   0.0000

          k = 0.4243 0.2357-0.0471 (  6009 PWs)   bands (ev):

   -13.2693 -13.2631 -13.1821 -13.1163 -13.0844 -13.0294 -12.9742 -12.9556
   -12.8682 -12.8632  -0.4188   2.9937   5.9293   6.9407  10.3079  10.9451
    12.2329  13.3189

     occupation numbers 
     1.0000   1.0000   1.0000   1.0000   1.0000   1.0000   1.0000   1.0000
     1.0000   1.0000   1.0000   1.0000   1.0000   1.0000   0.0000   0.0000
     0.0000   0.0000

          k =-0.2357-0.4243 0.6128 (  6007 PWs)   bands (ev):

   -13.2761 -13.2655 -13.1690 -13.1065 -13.0801 -13.0314 -12.9868 -12.9685
   -12.8651 -12.8553  -0.1016   2.4926   5.7355   6.7793  10.2479  11.2798
    12.4958  13.4777

     occupation numbers 
     1.0000   1.0000   1.0000   1.0000   1.0000   1.0000   1.0000   1.0000
     1.0000   1.0000   1.0000   1.0000   1.0000   1.0000   0.0000   0.0000
     0.0000   0.0000

          k =-0.1886-0.3771 0.5657 (  5983 PWs)   bands (ev):

   -13.2797 -13.2666 -13.1614 -13.0983 -13.0809 -13.0288 -12.9986 -12.9744
   -12.8637 -12.8511   0.1319   2.1600   5.6448   6.6890  10.2141  11.3567
    12.9798  13.5800

     occupation numbers 
     1.0000   1.0000   1.0000   1.0000   1.0000   1.0000   1.0000   1.0000
     1.0000   1.0000   1.0000   1.0000   1.0000   1.0000   0.0000   0.0000
     0.0000   0.0000

          k = 0.4714 0.1886-0.0000 (  6007 PWs)   bands (ev):

   -13.2683 -13.2658 -13.1842 -13.1064 -13.0670 -13.0534 -12.9822 -12.9481
   -12.8649 -12.8646  -0.2868   2.8335   5.9702   6.6107  10.2607  10.5633
    12.4204  13.9680

     occupation numbers 
     1.0000   1.0000   1.0000   1.0000   1.0000   1.0000   1.0000   1.0000
     1.0000   1.0000   1.0000   1.0000   1.0000   1.0000   0.0000   0.0000
     0.0000   0.0000

          k =-0.1886-0.4714 0.6600 (  6015 PWs)   bands (ev):

   -13.2761 -13.2689 -13.1666 -13.0957 -13.0627 -13.0561 -12.9951 -12.9658
   -12.8615 -12.8549   0.0368   2.3729   5.7070   6.4472  10.3923  11.0463
    12.2734  14.1570

     occupation numbers 
     1.0000   1.0000   1.0000   1.0000   1.0000   1.0000   1.0000   1.0000
     1.0000   1.0000   1.0000   1.0000   1.0000   1.0000   0.0000   0.0000
     0.0000   0.0000

          k =-0.1414-0.4243 0.6128 (  6004 PWs)   bands (ev):

   -13.2816 -13.2705 -13.1530 -13.0865 -13.0635 -13.0532 -13.0082 -12.9782
   -12.8594 -12.8485   0.3212   2.0064   5.5228   6.3694  10.4138  11.5767
    12.4149  13.8974

     occupation numbers 
     1.0000   1.0000   1.0000   1.0000   1.0000   1.0000   1.0000   1.0000
     1.0000   1.0000   1.0000   1.0000   1.0000   1.0000   0.0000   0.0000
     0.0000   0.0000

          k =-0.0943-0.3771 0.5657 (  5993 PWs)   bands (ev):

   -13.2836 -13.2709 -13.1478 -13.0842 -13.0624 -13.0512 -13.0147 -12.9826
   -12.8586 -12.8464   0.4041   1.9060   5.4305   6.3984  10.4634  11.6704
    13.0774  13.2443

     occupation numbers 
     1.0000   1.0000   1.0000   1.0000   1.0000   1.0000   1.0000   1.0000
     1.0000   1.0000   1.0000   1.0000   1.0000   1.0000   0.0000   0.0000
     0.0000   0.0000

          k =-0.0471-0.3300 0.5185 (  5993 PWs)   bands (ev):

   -13.2817 -13.2702 -13.1525 -13.0930 -13.0647 -13.0466 -13.0060 -12.9800
   -12.8593 -12.8489   0.2079   2.1481   5.4521   6.5249  10.5292  11.5931
    12.4573  13.7959

     occupation numbers 
     1.0000   1.0000   1.0000   1.0000   1.0000   1.0000   1.0000   1.0000
     1.0000   1.0000   1.0000   1.0000   1.0000   1.0000   0.0000   0.0000
     0.0000   0.0000

          k = 0.0000-0.2828 0.4714 (  6005 PWs)   bands (ev):

   -13.2763 -13.2679 -13.1653 -13.1056 -13.0720 -13.0402 -12.9881 -12.9715
   -12.8618 -12.8556  -0.1057   2.5567   5.6124   6.7217  10.5485  11.2493
    12.1427  13.7912

     occupation numbers 
     1.0000   1.0000   1.0000   1.0000   1.0000   1.0000   1.0000   1.0000
     1.0000   1.0000   1.0000   1.0000   1.0000   1.0000   0.0000   0.0000
     0.0000   0.0000

          k =-0.1414-0.5185 0.7071 (  6008 PWs)   bands (ev):

   -13.2737 -13.2714 -13.1661 -13.0854 -13.0831 -13.0385 -13.0055 -12.9636
   -12.8585 -12.8570   0.2317   2.1353   5.8205   6.2037  10.1591  10.4497
    12.9856  14.6887

     occupation numbers 
     1.0000   1.0000   1.0000   1.0000   1.0000   1.0000   1.0000   1.0000
     1.0000   1.0000   1.0000   1.0000   1.0000   1.0000   0.0000   0.0000
     0.0000   0.0000

          k =-0.0943-0.4714 0.6600 (  5993 PWs)   bands (ev):

   -13.2801 -13.2735 -13.1472 -13.0893 -13.0717 -13.0337 -13.0193 -12.9815
   -12.8561 -12.8496   0.5512   1.7639   5.6008   6.0979  10.3245  11.0532
    12.7960  14.2537

     occupation numbers 
     1.0000   1.0000   1.0000   1.0000   1.0000   1.0000   1.0000   1.0000
     1.0000   1.0000   1.0000   1.0000   1.0000   1.0000   0.0000   0.0000
     0.0000   0.0000

          k =-0.0471-0.4243 0.6128 (  5987 PWs)   bands (ev):

   -13.2842 -13.2738 -13.1379 -13.0815 -13.0645 -13.0408 -13.0289 -12.9894
   -12.8554 -12.8452   0.7069   1.5972   5.4152   6.1435  10.4041  11.8826
    12.6907  13.3857

     occupation numbers 
     1.0000   1.0000   1.0000   1.0000   1.0000   1.0000   1.0000   1.0000
     1.0000   1.0000   1.0000   1.0000   1.0000   1.0000   0.0000   0.0000
     0.0000   0.0000

          k = 0.0000-0.3771 0.5657 (  5990 PWs)   bands (ev):

   -13.2848 -13.2728 -13.1412 -13.0757 -13.0640 -13.0503 -13.0249 -12.9870
   -12.8564 -12.8450   0.5221   1.8010   5.3500   6.2975  10.5022  12.1765
    12.5741  13.1671

     occupation numbers 
     1.0000   1.0000   1.0000   1.0000   1.0000   1.0000   1.0000   1.0000
     1.0000   1.0000   1.0000   1.0000   1.0000   1.0000   0.0000   0.0000
     0.0000   0.0000

          k =-0.0471-0.5185 0.7071 (  5997 PWs)   bands (ev):

   -13.2760 -13.2751 -13.1430 -13.1157 -13.0575 -13.0311 -13.0105 -12.9850
   -12.8542 -12.8534   0.8183   1.4584   5.8059   5.9331  10.1656  10.2741
    13.7463  14.4925

     occupation numbers 
     1.0000   1.0000   1.0000   1.0000   1.0000   1.0000   1.0000   1.0000
     1.0000   1.0000   1.0000   1.0000   1.0000   1.0000   0.0000   0.0000
     0.0000   0.0000

          k = 0.0000-0.4714 0.6600 (  5992 PWs)   bands (ev):

   -13.2813 -13.2753 -13.1317 -13.1080 -13.0503 -13.0413 -13.0168 -12.9950
   -12.8539 -12.8479   0.9921   1.2922   5.5796   5.9635  10.2942  11.0255
    13.5462  13.5578

     occupation numbers 
     1.0000   1.0000   1.0000   1.0000   1.0000   1.0000   1.0000   1.0000
     1.0000   1.0000   1.0000   1.0000   1.0000   1.0000   0.0000   0.0000
     0.0000   0.0000

          k =-0.1414-0.4243 0.7071 (  6006 PWs)   bands (ev):

   -13.2804 -13.2738 -13.1478 -13.0838 -13.0701 -13.0476 -13.0110 -12.9824
   -12.8557 -12.8498   0.3622   1.9875   5.5258   6.2106  10.9888  11.1308
    12.1254  14.0813

     occupation numbers 
     1.0000   1.0000   1.0000   1.0000   1.0000   1.0000   1.0000   1.0000
     1.0000   1.0000   1.0000   1.0000   1.0000   1.0000   0.0000   0.0000
     0.0000   0.0000

          k =-0.0943-0.3771 0.6600 (  5986 PWs)   bands (ev):

   -13.2835 -13.2757 -13.1346 -13.0783 -13.0699 -13.0427 -13.0248 -12.9926
   -12.8537 -12.8461   0.6346   1.6828   5.4447   6.0658  11.0281  11.6105
    12.3486  13.2435

     occupation numbers 
     1.0000   1.0000   1.0000   1.0000   1.0000   1.0000   1.0000   1.0000
     1.0000   1.0000   1.0000   1.0000   1.0000   1.0000   0.0000   0.0000
     0.0000   0.0000

          k =-0.0471-0.4243 0.7071 (  5981 PWs)   bands (ev):

   -13.2811 -13.2786 -13.1254 -13.0991 -13.0599 -13.0353 -13.0229 -13.0003
   -12.8505 -12.8482   0.8783   1.4251   5.5943   5.8247  11.0948  11.1048
    12.6086  13.3753

     occupation numbers 
     1.0000   1.0000   1.0000   1.0000   1.0000   1.0000   1.0000   1.0000
     1.0000   1.0000   1.0000   1.0000   1.0000   1.0000   0.0000   0.0000
     0.0000   0.0000

          k =-0.0000-0.3771 0.6600 (  5992 PWs)   bands (ev):

   -13.2832 -13.2787 -13.1203 -13.0939 -13.0578 -13.0408 -13.0262 -13.0039
   -12.8505 -12.8461   0.9395   1.3678   5.5094   5.8362  11.1668  11.8365
    12.4884  12.5934

     occupation numbers 
     1.0000   1.0000   1.0000   1.0000   1.0000   1.0000   1.0000   1.0000
     1.0000   1.0000   1.0000   1.0000   1.0000   1.0000   0.0000   0.0000
     0.0000   0.0000

     the Fermi energy is     8.3883 ev

!    total energy              =    -241.29900345 Ry
     Harris-Foulkes estimate   =    -241.29900344 Ry
     estimated scf accuracy    <       0.00000005 Ry

     The total energy is the sum of the following terms:

     one-electron contribution =    -109.12945803 Ry
     hartree contribution      =      65.22502975 Ry
     xc contribution           =     -29.41145191 Ry
     ewald contribution        =    -167.98312310 Ry
     smearing contrib. (-TS)   =      -0.00000015 Ry

     convergence has been achieved in   5 iterations

     Writing output data file Sn.save
 
     init_run     :      2.84s CPU      3.20s WALL (       1 calls)
     electrons    :     63.59s CPU     67.23s WALL (       1 calls)

     Called by init_run:
     wfcinit      :      2.67s CPU      2.91s WALL (       1 calls)
     potinit      :      0.03s CPU      0.04s WALL (       1 calls)

     Called by electrons:
     c_bands      :     56.04s CPU     59.53s WALL (       6 calls)
     sum_band     :      7.43s CPU      7.54s WALL (       6 calls)
     v_of_rho     :      0.08s CPU      0.09s WALL (       6 calls)
     v_h          :      0.01s CPU      0.01s WALL (       6 calls)
     v_xc         :      0.07s CPU      0.08s WALL (       6 calls)
     mix_rho      :      0.02s CPU      0.03s WALL (       6 calls)

     Called by c_bands:
     init_us_2    :      0.28s CPU      0.31s WALL (    1560 calls)
     cegterg      :     54.45s CPU     57.84s WALL (     720 calls)

     Called by sum_band:

     Called by *egterg:
     h_psi        :     48.93s CPU     52.30s WALL (    2999 calls)
     g_psi        :      0.15s CPU      0.15s WALL (    2159 calls)
     cdiaghg      :      2.88s CPU      2.95s WALL (    2759 calls)
     cegterg:over :      2.05s CPU      2.07s WALL (    2159 calls)
     cegterg:upda :      0.71s CPU      0.72s WALL (    2159 calls)
     cegterg:last :      0.44s CPU      0.44s WALL (     919 calls)

     Called by h_psi:
     h_psi:vloc   :     46.56s CPU     49.79s WALL (    2999 calls)
     h_psi:vnl    :      2.29s CPU      2.42s WALL (    2999 calls)
     add_vuspsi   :      0.71s CPU      0.73s WALL (    2999 calls)

     General routines
     calbec       :      1.56s CPU      1.66s WALL (    2999 calls)
     fft          :      0.07s CPU      0.12s WALL (      67 calls)
     fftw         :     51.00s CPU     54.16s WALL (   97074 calls)
     davcio       :      0.01s CPU      0.18s WALL (     120 calls)
 
     Parallel routines
     fft_scatter  :     33.18s CPU     35.27s WALL (   97141 calls)
 
     PWSCF        :  1m 6.69s CPU     1m11.05s WALL

 
   This run was terminated on:  19:19:42   5Mar2020            

=------------------------------------------------------------------------------=
   JOB DONE.
=------------------------------------------------------------------------------=
