
     Program PWSCF v.5.4.0 starts on  5Mar2020 at 19:24:55 

     This program is part of the open-source Quantum ESPRESSO suite
     for quantum simulation of materials; please cite
         "P. Giannozzi et al., J. Phys.:Condens. Matter 21 395502 (2009);
          URL http://www.quantum-espresso.org", 
     in publications or presentations arising from this work. More details at
     http://www.quantum-espresso.org/quote

     Parallel version (MPI & OpenMP), running on      16 processor cores
     Number of MPI processes:                16
     Threads/MPI process:                     1
     R & G space division:  proc/nbgrp/npool/nimage =      16
     Waiting for input...
     Reading input from standard input
Warning: card &IONS ignored
Warning: card / ignored
Warning: card &CELL ignored
Warning: card / ignored

     Current dimensions of program PWSCF are:
     Max number of different atomic species (ntypx) = 10
     Max number of k-points (npk) =  40000
     Max angular momentum in pseudopotentials (lmaxx) =  3

     Atomic positions and unit cell read from directory:
     ./Sn.save/
 

     Subspace diagonalization in iterative solution of the eigenvalue problem:
     a serial algorithm will be used

 
     Parallelization info
     --------------------
     sticks:   dense  smooth     PW     G-vecs:    dense   smooth      PW
     Min         108     108     31                 2989     2989     451
     Max         109     109     32                 2993     2993     454
     Sum        1735    1735    499                47855    47855    7239
 


     bravais-lattice index     =            0
     lattice parameter (alat)  =       8.8887  a.u.
     unit-cell volume          =     496.5847 (a.u.)^3
     number of atoms/cell      =            2
     number of atomic types    =            1
     number of electrons       =        28.00
     number of Kohn-Sham states=           18
     kinetic-energy cutoff     =      80.0000  Ry
     charge density cutoff     =     320.0000  Ry
     Exchange-correlation      = PBE ( 1  4  3  4 0 0)

     celldm(1)=   8.888656  celldm(2)=   0.000000  celldm(3)=   0.000000
     celldm(4)=   0.000000  celldm(5)=   0.000000  celldm(6)=   0.000000

     crystal axes: (cart. coord. in units of alat)
               a(1) = (   0.000000   0.707107   0.707107 )  
               a(2) = (   0.707107   0.000000   0.707107 )  
               a(3) = (   0.707107   0.707107   0.000000 )  

     reciprocal axes: (cart. coord. in units 2 pi/alat)
               b(1) = ( -0.707107  0.707107  0.707107 )  
               b(2) = (  0.707107 -0.707107  0.707107 )  
               b(3) = (  0.707107  0.707107 -0.707107 )  


     PseudoPot. # 1 for Sn read from file:
     ../PseudopotentialDatabase/Sn_ONCV_PBE-1.1.upf
     MD5 check sum: 7fc728ef37b8342e916bba54f6049344
     Pseudo is Norm-conserving, Zval = 14.0
     Generated using ONCVPSP code by D. R. Hamann
     Using radial grid of  602 points,  6 beta functions with: 
                l(1) =   0
                l(2) =   0
                l(3) =   1
                l(4) =   1
                l(5) =   2
                l(6) =   2

     atomic species   valence    mass     pseudopotential
        Sn            14.00   118.71000     Sn( 1.00)

     24 Sym. Ops. (no inversion) found
          (note: 24 additional sym.ops. were found but ignored
           their fractional translations are incommensurate with FFT grid)

                                    s                        frac. trans.

      isym =  1     identity                                     

 cryst.   s( 1) = (     1          0          0      )
                  (     0          1          0      )
                  (     0          0          1      )

 cart.    s( 1) = (  1.0000000  0.0000000  0.0000000 )
                  (  0.0000000  1.0000000  0.0000000 )
                  (  0.0000000  0.0000000  1.0000000 )


      isym =  2     180 deg rotation - cart. axis [0,0,1]        

 cryst.   s( 2) = (     0          1         -1      )
                  (     1          0         -1      )
                  (     0          0         -1      )

 cart.    s( 2) = ( -1.0000000  0.0000000  0.0000000 )
                  (  0.0000000 -1.0000000  0.0000000 )
                  (  0.0000000  0.0000000  1.0000000 )


      isym =  3     180 deg rotation - cart. axis [0,1,0]        

 cryst.   s( 3) = (     0         -1          1      )
                  (     0         -1          0      )
                  (     1         -1          0      )

 cart.    s( 3) = ( -1.0000000  0.0000000  0.0000000 )
                  (  0.0000000  1.0000000  0.0000000 )
                  (  0.0000000  0.0000000 -1.0000000 )


      isym =  4     180 deg rotation - cart. axis [1,0,0]        

 cryst.   s( 4) = (    -1          0          0      )
                  (    -1          0          1      )
                  (    -1          1          0      )

 cart.    s( 4) = (  1.0000000  0.0000000  0.0000000 )
                  (  0.0000000 -1.0000000  0.0000000 )
                  (  0.0000000  0.0000000 -1.0000000 )


      isym =  5     120 deg rotation - cart. axis [-1,-1,-1]     

 cryst.   s( 5) = (     0          0          1      )
                  (     1          0          0      )
                  (     0          1          0      )

 cart.    s( 5) = (  0.0000000  1.0000000  0.0000000 )
                  (  0.0000000  0.0000000  1.0000000 )
                  (  1.0000000  0.0000000  0.0000000 )


      isym =  6     120 deg rotation - cart. axis [-1,1,1]       

 cryst.   s( 6) = (     1         -1          0      )
                  (     0         -1          1      )
                  (     0         -1          0      )

 cart.    s( 6) = (  0.0000000 -1.0000000  0.0000000 )
                  (  0.0000000  0.0000000  1.0000000 )
                  ( -1.0000000  0.0000000  0.0000000 )


      isym =  7     120 deg rotation - cart. axis [1,1,-1]       

 cryst.   s( 7) = (    -1          1          0      )
                  (    -1          0          0      )
                  (    -1          0          1      )

 cart.    s( 7) = (  0.0000000  1.0000000  0.0000000 )
                  (  0.0000000  0.0000000 -1.0000000 )
                  ( -1.0000000  0.0000000  0.0000000 )


      isym =  8     120 deg rotation - cart. axis [1,-1,1]       

 cryst.   s( 8) = (     0          0         -1      )
                  (     0          1         -1      )
                  (     1          0         -1      )

 cart.    s( 8) = (  0.0000000 -1.0000000  0.0000000 )
                  (  0.0000000  0.0000000 -1.0000000 )
                  (  1.0000000  0.0000000  0.0000000 )


      isym =  9     120 deg rotation - cart. axis [1,1,1]        

 cryst.   s( 9) = (     0          1          0      )
                  (     0          0          1      )
                  (     1          0          0      )

 cart.    s( 9) = (  0.0000000  0.0000000  1.0000000 )
                  (  1.0000000  0.0000000  0.0000000 )
                  (  0.0000000  1.0000000  0.0000000 )


      isym = 10     120 deg rotation - cart. axis [-1,1,-1]      

 cryst.   s(10) = (    -1          0          1      )
                  (    -1          1          0      )
                  (    -1          0          0      )

 cart.    s(10) = (  0.0000000  0.0000000  1.0000000 )
                  ( -1.0000000  0.0000000  0.0000000 )
                  (  0.0000000 -1.0000000  0.0000000 )


      isym = 11     120 deg rotation - cart. axis [1,-1,-1]      

 cryst.   s(11) = (     1          0         -1      )
                  (     0          0         -1      )
                  (     0          1         -1      )

 cart.    s(11) = (  0.0000000  0.0000000 -1.0000000 )
                  ( -1.0000000  0.0000000  0.0000000 )
                  (  0.0000000  1.0000000  0.0000000 )


      isym = 12     120 deg rotation - cart. axis [-1,-1,1]      

 cryst.   s(12) = (     0         -1          0      )
                  (     1         -1          0      )
                  (     0         -1          1      )

 cart.    s(12) = (  0.0000000  0.0000000 -1.0000000 )
                  (  1.0000000  0.0000000  0.0000000 )
                  (  0.0000000 -1.0000000  0.0000000 )


      isym = 13     inv. 180 deg rotation - cart. axis [1,1,0]   

 cryst.   s(13) = (     1          0         -1      )
                  (     0          1         -1      )
                  (     0          0         -1      )

 cart.    s(13) = (  0.0000000 -1.0000000  0.0000000 )
                  ( -1.0000000  0.0000000  0.0000000 )
                  (  0.0000000  0.0000000  1.0000000 )


      isym = 14     inv. 180 deg rotation - cart. axis [1,-1,0]  

 cryst.   s(14) = (     0          1          0      )
                  (     1          0          0      )
                  (     0          0          1      )

 cart.    s(14) = (  0.0000000  1.0000000  0.0000000 )
                  (  1.0000000  0.0000000  0.0000000 )
                  (  0.0000000  0.0000000  1.0000000 )


      isym = 15     inv.  90 deg rotation - cart. axis [0,0,-1]  

 cryst.   s(15) = (     0         -1          0      )
                  (     0         -1          1      )
                  (     1         -1          0      )

 cart.    s(15) = (  0.0000000 -1.0000000  0.0000000 )
                  (  1.0000000  0.0000000  0.0000000 )
                  (  0.0000000  0.0000000 -1.0000000 )


      isym = 16     inv.  90 deg rotation - cart. axis [0,0,1]   

 cryst.   s(16) = (    -1          0          1      )
                  (    -1          0          0      )
                  (    -1          1          0      )

 cart.    s(16) = (  0.0000000  1.0000000  0.0000000 )
                  ( -1.0000000  0.0000000  0.0000000 )
                  (  0.0000000  0.0000000 -1.0000000 )


      isym = 17     inv. 180 deg rotation - cart. axis [1,0,1]   

 cryst.   s(17) = (     1         -1          0      )
                  (     0         -1          0      )
                  (     0         -1          1      )

 cart.    s(17) = (  0.0000000  0.0000000 -1.0000000 )
                  (  0.0000000  1.0000000  0.0000000 )
                  ( -1.0000000  0.0000000  0.0000000 )


      isym = 18     inv. 180 deg rotation - cart. axis [-1,0,1]  

 cryst.   s(18) = (     0          0          1      )
                  (     0          1          0      )
                  (     1          0          0      )

 cart.    s(18) = (  0.0000000  0.0000000  1.0000000 )
                  (  0.0000000  1.0000000  0.0000000 )
                  (  1.0000000  0.0000000  0.0000000 )


      isym = 19     inv.  90 deg rotation - cart. axis [0,1,0]   

 cryst.   s(19) = (     0          0         -1      )
                  (     1          0         -1      )
                  (     0          1         -1      )

 cart.    s(19) = (  0.0000000  0.0000000 -1.0000000 )
                  (  0.0000000 -1.0000000  0.0000000 )
                  (  1.0000000  0.0000000  0.0000000 )


      isym = 20     inv.  90 deg rotation - cart. axis [0,-1,0]  

 cryst.   s(20) = (    -1          1          0      )
                  (    -1          0          1      )
                  (    -1          0          0      )

 cart.    s(20) = (  0.0000000  0.0000000  1.0000000 )
                  (  0.0000000 -1.0000000  0.0000000 )
                  ( -1.0000000  0.0000000  0.0000000 )


      isym = 21     inv. 180 deg rotation - cart. axis [0,1,1]   

 cryst.   s(21) = (    -1          0          0      )
                  (    -1          1          0      )
                  (    -1          0          1      )

 cart.    s(21) = (  1.0000000  0.0000000  0.0000000 )
                  (  0.0000000  0.0000000 -1.0000000 )
                  (  0.0000000 -1.0000000  0.0000000 )


      isym = 22     inv. 180 deg rotation - cart. axis [0,1,-1]  

 cryst.   s(22) = (     1          0          0      )
                  (     0          0          1      )
                  (     0          1          0      )

 cart.    s(22) = (  1.0000000  0.0000000  0.0000000 )
                  (  0.0000000  0.0000000  1.0000000 )
                  (  0.0000000  1.0000000  0.0000000 )


      isym = 23     inv.  90 deg rotation - cart. axis [-1,0,0]  

 cryst.   s(23) = (     0          1         -1      )
                  (     0          0         -1      )
                  (     1          0         -1      )

 cart.    s(23) = ( -1.0000000  0.0000000  0.0000000 )
                  (  0.0000000  0.0000000 -1.0000000 )
                  (  0.0000000  1.0000000  0.0000000 )


      isym = 24     inv.  90 deg rotation - cart. axis [1,0,0]   

 cryst.   s(24) = (     0         -1          1      )
                  (     1         -1          0      )
                  (     0         -1          0      )

 cart.    s(24) = ( -1.0000000  0.0000000  0.0000000 )
                  (  0.0000000  0.0000000  1.0000000 )
                  (  0.0000000 -1.0000000  0.0000000 )


   Cartesian axes

     site n.     atom                  positions (alat units)
         1           Sn  tau(   1) = (   0.0000000   0.0000000   0.0000000  )
         2           Sn  tau(   2) = (   0.3535534   0.3535534   0.3535534  )

   Crystallographic axes

     site n.     atom                  positions (cryst. coord.)
         1           Sn  tau(   1) = (  0.0000000  0.0000000  0.0000000  )
         2           Sn  tau(   2) = (  0.2500000  0.2500000  0.2500000  )

     number of k points=    90  gaussian smearing, width (Ry)=  0.0001
                       cart. coord. in units 2pi/alat
        k(    1) = (   0.0000000   0.0000000   0.0000000), wk =   0.0222222
        k(    2) = (   0.0000000   0.0392837   0.0000000), wk =   0.0222222
        k(    3) = (   0.0000000   0.0785674   0.0000000), wk =   0.0222222
        k(    4) = (   0.0000000   0.1178511   0.0000000), wk =   0.0222222
        k(    5) = (   0.0000000   0.1571348   0.0000000), wk =   0.0222222
        k(    6) = (   0.0000000   0.1964186   0.0000000), wk =   0.0222222
        k(    7) = (   0.0000000   0.2357023   0.0000000), wk =   0.0222222
        k(    8) = (   0.0000000   0.2749860   0.0000000), wk =   0.0222222
        k(    9) = (   0.0000000   0.3142697   0.0000000), wk =   0.0222222
        k(   10) = (   0.0000000   0.3535534   0.0000000), wk =   0.0222222
        k(   11) = (   0.0000000   0.3928371   0.0000000), wk =   0.0222222
        k(   12) = (   0.0000000   0.4321208   0.0000000), wk =   0.0222222
        k(   13) = (   0.0000000   0.4714045   0.0000000), wk =   0.0222222
        k(   14) = (   0.0000000   0.5106882   0.0000000), wk =   0.0222222
        k(   15) = (   0.0000000   0.5499719   0.0000000), wk =   0.0222222
        k(   16) = (   0.0000000   0.5892557   0.0000000), wk =   0.0222222
        k(   17) = (   0.0000000   0.6285394   0.0000000), wk =   0.0222222
        k(   18) = (   0.0000000   0.6678231   0.0000000), wk =   0.0222222
        k(   19) = (   0.0000000   0.7071068   0.0000000), wk =   0.0222222
        k(   20) = (   0.0392837   0.7071068   0.0000000), wk =   0.0222222
        k(   21) = (   0.0785674   0.7071068   0.0000000), wk =   0.0222222
        k(   22) = (   0.1178511   0.7071068  -0.0000000), wk =   0.0222222
        k(   23) = (   0.1571348   0.7071068  -0.0000000), wk =   0.0222222
        k(   24) = (   0.1964186   0.7071068   0.0000000), wk =   0.0222222
        k(   25) = (   0.2357023   0.7071068   0.0000000), wk =   0.0222222
        k(   26) = (   0.2749860   0.7071068   0.0000000), wk =   0.0222222
        k(   27) = (   0.3142697   0.7071068   0.0000000), wk =   0.0222222
        k(   28) = (   0.3535534   0.7071068   0.0000000), wk =   0.0222222
        k(   29) = (   0.3535534   0.6799104   0.0271964), wk =   0.0222222
        k(   30) = (   0.3535534   0.6527140   0.0543928), wk =   0.0222222
        k(   31) = (   0.3535534   0.6255175   0.0815892), wk =   0.0222222
        k(   32) = (   0.3535534   0.5983211   0.1087857), wk =   0.0222222
        k(   33) = (   0.3535534   0.5711247   0.1359821), wk =   0.0222222
        k(   34) = (   0.3535534   0.5439283   0.1631785), wk =   0.0222222
        k(   35) = (   0.3535534   0.5167319   0.1903749), wk =   0.0222222
        k(   36) = (   0.3535534   0.4895355   0.2175713), wk =   0.0222222
        k(   37) = (   0.3535534   0.4623390   0.2447677), wk =   0.0222222
        k(   38) = (   0.3535534   0.4351426   0.2719641), wk =   0.0222222
        k(   39) = (   0.3535534   0.4079462   0.2991606), wk =   0.0222222
        k(   40) = (   0.3535534   0.3807498   0.3263570), wk =   0.0222222
        k(   41) = (   0.3535534   0.3535534   0.3535534), wk =   0.0222222
        k(   42) = (   0.3314563   0.3314563   0.3314563), wk =   0.0222222
        k(   43) = (   0.3093592   0.3093592   0.3093592), wk =   0.0222222
        k(   44) = (   0.2872621   0.2872621   0.2872621), wk =   0.0222222
        k(   45) = (   0.2651650   0.2651650   0.2651650), wk =   0.0222222
        k(   46) = (   0.2430680   0.2430680   0.2430680), wk =   0.0222222
        k(   47) = (   0.2209709   0.2209709   0.2209709), wk =   0.0222222
        k(   48) = (   0.1988738   0.1988738   0.1988738), wk =   0.0222222
        k(   49) = (   0.1767767   0.1767767   0.1767767), wk =   0.0222222
        k(   50) = (   0.1546796   0.1546796   0.1546796), wk =   0.0222222
        k(   51) = (   0.1325825   0.1325825   0.1325825), wk =   0.0222222
        k(   52) = (   0.1104854   0.1104854   0.1104854), wk =   0.0222222
        k(   53) = (   0.0883883   0.0883883   0.0883883), wk =   0.0222222
        k(   54) = (   0.0662913   0.0662913   0.0662913), wk =   0.0222222
        k(   55) = (   0.0441942   0.0441942   0.0441942), wk =   0.0222222
        k(   56) = (   0.0220971   0.0220971   0.0220971), wk =   0.0222222
        k(   57) = (   0.0000000   0.0000000   0.0000000), wk =   0.0222222
        k(   58) = (   0.0252538   0.0252538  -0.0000000), wk =   0.0222222
        k(   59) = (   0.0505076   0.0505076   0.0000000), wk =   0.0222222
        k(   60) = (   0.0757614   0.0757614   0.0000000), wk =   0.0222222
        k(   61) = (   0.1010153   0.1010153   0.0000000), wk =   0.0222222
        k(   62) = (   0.1262691   0.1262691  -0.0000000), wk =   0.0222222
        k(   63) = (   0.1515229   0.1515229   0.0000000), wk =   0.0222222
        k(   64) = (   0.1767767   0.1767767   0.0000000), wk =   0.0222222
        k(   65) = (   0.2020305   0.2020305  -0.0000000), wk =   0.0222222
        k(   66) = (   0.2272843   0.2272843   0.0000000), wk =   0.0222222
        k(   67) = (   0.2525381   0.2525381   0.0000000), wk =   0.0222222
        k(   68) = (   0.2777919   0.2777919   0.0000000), wk =   0.0222222
        k(   69) = (   0.3030458   0.3030458  -0.0000000), wk =   0.0222222
        k(   70) = (   0.3282996   0.3282996   0.0000000), wk =   0.0222222
        k(   71) = (   0.3535534   0.3535534   0.0000000), wk =   0.0222222
        k(   72) = (   0.3788072   0.3788072  -0.0000000), wk =   0.0222222
        k(   73) = (   0.4040610   0.4040610   0.0000000), wk =   0.0222222
        k(   74) = (   0.4293148   0.4293148   0.0000000), wk =   0.0222222
        k(   75) = (   0.4545686   0.4545686   0.0000000), wk =   0.0222222
        k(   76) = (   0.4798225   0.4798225  -0.0000000), wk =   0.0222222
        k(   77) = (   0.5050763   0.5050763   0.0000000), wk =   0.0222222
        k(   78) = (   0.5303301   0.5303301   0.0000000), wk =   0.0222222
        k(   79) = (   0.5155987   0.5155987   0.0294628), wk =   0.0222222
        k(   80) = (   0.5008673   0.5008673   0.0589256), wk =   0.0222222
        k(   81) = (   0.4861359   0.4861359   0.0883883), wk =   0.0222222
        k(   82) = (   0.4714045   0.4714045   0.1178511), wk =   0.0222222
        k(   83) = (   0.4566731   0.4566731   0.1473139), wk =   0.0222222
        k(   84) = (   0.4419417   0.4419417   0.1767767), wk =   0.0222222
        k(   85) = (   0.4272103   0.4272103   0.2062395), wk =   0.0222222
        k(   86) = (   0.4124790   0.4124790   0.2357023), wk =   0.0222222
        k(   87) = (   0.3977476   0.3977476   0.2651650), wk =   0.0222222
        k(   88) = (   0.3830162   0.3830162   0.2946278), wk =   0.0222222
        k(   89) = (   0.3682848   0.3682848   0.3240906), wk =   0.0222222
        k(   90) = (   0.3535534   0.3535534   0.3535534), wk =   0.0222222

                       cryst. coord.
        k(    1) = (   0.0000000   0.0000000   0.0000000), wk =   0.0222222
        k(    2) = (   0.0277778   0.0000000   0.0277778), wk =   0.0222222
        k(    3) = (   0.0555556   0.0000000   0.0555556), wk =   0.0222222
        k(    4) = (   0.0833333   0.0000000   0.0833333), wk =   0.0222222
        k(    5) = (   0.1111111   0.0000000   0.1111111), wk =   0.0222222
        k(    6) = (   0.1388889   0.0000000   0.1388889), wk =   0.0222222
        k(    7) = (   0.1666667   0.0000000   0.1666667), wk =   0.0222222
        k(    8) = (   0.1944444   0.0000000   0.1944444), wk =   0.0222222
        k(    9) = (   0.2222222   0.0000000   0.2222222), wk =   0.0222222
        k(   10) = (   0.2500000   0.0000000   0.2500000), wk =   0.0222222
        k(   11) = (   0.2777778   0.0000000   0.2777778), wk =   0.0222222
        k(   12) = (   0.3055556   0.0000000   0.3055556), wk =   0.0222222
        k(   13) = (   0.3333333   0.0000000   0.3333333), wk =   0.0222222
        k(   14) = (   0.3611111   0.0000000   0.3611111), wk =   0.0222222
        k(   15) = (   0.3888889   0.0000000   0.3888889), wk =   0.0222222
        k(   16) = (   0.4166667   0.0000000   0.4166667), wk =   0.0222222
        k(   17) = (   0.4444444   0.0000000   0.4444444), wk =   0.0222222
        k(   18) = (   0.4722222   0.0000000   0.4722222), wk =   0.0222222
        k(   19) = (   0.5000000   0.0000000   0.5000000), wk =   0.0222222
        k(   20) = (   0.5000000   0.0277778   0.5277778), wk =   0.0222222
        k(   21) = (   0.5000000   0.0555556   0.5555556), wk =   0.0222222
        k(   22) = (   0.5000000   0.0833333   0.5833333), wk =   0.0222222
        k(   23) = (   0.5000000   0.1111111   0.6111111), wk =   0.0222222
        k(   24) = (   0.5000000   0.1388889   0.6388889), wk =   0.0222222
        k(   25) = (   0.5000000   0.1666667   0.6666667), wk =   0.0222222
        k(   26) = (   0.5000000   0.1944444   0.6944444), wk =   0.0222222
        k(   27) = (   0.5000000   0.2222222   0.7222222), wk =   0.0222222
        k(   28) = (   0.5000000   0.2500000   0.7500000), wk =   0.0222222
        k(   29) = (   0.5000000   0.2692308   0.7307692), wk =   0.0222222
        k(   30) = (   0.5000000   0.2884615   0.7115385), wk =   0.0222222
        k(   31) = (   0.5000000   0.3076923   0.6923077), wk =   0.0222222
        k(   32) = (   0.5000000   0.3269231   0.6730769), wk =   0.0222222
        k(   33) = (   0.5000000   0.3461538   0.6538462), wk =   0.0222222
        k(   34) = (   0.5000000   0.3653846   0.6346154), wk =   0.0222222
        k(   35) = (   0.5000000   0.3846154   0.6153846), wk =   0.0222222
        k(   36) = (   0.5000000   0.4038462   0.5961538), wk =   0.0222222
        k(   37) = (   0.5000000   0.4230769   0.5769231), wk =   0.0222222
        k(   38) = (   0.5000000   0.4423077   0.5576923), wk =   0.0222222
        k(   39) = (   0.5000000   0.4615385   0.5384615), wk =   0.0222222
        k(   40) = (   0.5000000   0.4807692   0.5192308), wk =   0.0222222
        k(   41) = (   0.5000000   0.5000000   0.5000000), wk =   0.0222222
        k(   42) = (   0.4687500   0.4687500   0.4687500), wk =   0.0222222
        k(   43) = (   0.4375000   0.4375000   0.4375000), wk =   0.0222222
        k(   44) = (   0.4062500   0.4062500   0.4062500), wk =   0.0222222
        k(   45) = (   0.3750000   0.3750000   0.3750000), wk =   0.0222222
        k(   46) = (   0.3437500   0.3437500   0.3437500), wk =   0.0222222
        k(   47) = (   0.3125000   0.3125000   0.3125000), wk =   0.0222222
        k(   48) = (   0.2812500   0.2812500   0.2812500), wk =   0.0222222
        k(   49) = (   0.2500000   0.2500000   0.2500000), wk =   0.0222222
        k(   50) = (   0.2187500   0.2187500   0.2187500), wk =   0.0222222
        k(   51) = (   0.1875000   0.1875000   0.1875000), wk =   0.0222222
        k(   52) = (   0.1562500   0.1562500   0.1562500), wk =   0.0222222
        k(   53) = (   0.1250000   0.1250000   0.1250000), wk =   0.0222222
        k(   54) = (   0.0937500   0.0937500   0.0937500), wk =   0.0222222
        k(   55) = (   0.0625000   0.0625000   0.0625000), wk =   0.0222222
        k(   56) = (   0.0312500   0.0312500   0.0312500), wk =   0.0222222
        k(   57) = (   0.0000000   0.0000000   0.0000000), wk =   0.0222222
        k(   58) = (   0.0178571   0.0178571   0.0357143), wk =   0.0222222
        k(   59) = (   0.0357143   0.0357143   0.0714286), wk =   0.0222222
        k(   60) = (   0.0535714   0.0535714   0.1071429), wk =   0.0222222
        k(   61) = (   0.0714286   0.0714286   0.1428571), wk =   0.0222222
        k(   62) = (   0.0892857   0.0892857   0.1785714), wk =   0.0222222
        k(   63) = (   0.1071429   0.1071429   0.2142857), wk =   0.0222222
        k(   64) = (   0.1250000   0.1250000   0.2500000), wk =   0.0222222
        k(   65) = (   0.1428571   0.1428571   0.2857143), wk =   0.0222222
        k(   66) = (   0.1607143   0.1607143   0.3214286), wk =   0.0222222
        k(   67) = (   0.1785714   0.1785714   0.3571429), wk =   0.0222222
        k(   68) = (   0.1964286   0.1964286   0.3928571), wk =   0.0222222
        k(   69) = (   0.2142857   0.2142857   0.4285714), wk =   0.0222222
        k(   70) = (   0.2321429   0.2321429   0.4642857), wk =   0.0222222
        k(   71) = (   0.2500000   0.2500000   0.5000000), wk =   0.0222222
        k(   72) = (   0.2678571   0.2678571   0.5357143), wk =   0.0222222
        k(   73) = (   0.2857143   0.2857143   0.5714286), wk =   0.0222222
        k(   74) = (   0.3035714   0.3035714   0.6071429), wk =   0.0222222
        k(   75) = (   0.3214286   0.3214286   0.6428571), wk =   0.0222222
        k(   76) = (   0.3392857   0.3392857   0.6785714), wk =   0.0222222
        k(   77) = (   0.3571429   0.3571429   0.7142857), wk =   0.0222222
        k(   78) = (   0.3750000   0.3750000   0.7500000), wk =   0.0222222
        k(   79) = (   0.3854167   0.3854167   0.7291667), wk =   0.0222222
        k(   80) = (   0.3958333   0.3958333   0.7083333), wk =   0.0222222
        k(   81) = (   0.4062500   0.4062500   0.6875000), wk =   0.0222222
        k(   82) = (   0.4166667   0.4166667   0.6666667), wk =   0.0222222
        k(   83) = (   0.4270833   0.4270833   0.6458333), wk =   0.0222222
        k(   84) = (   0.4375000   0.4375000   0.6250000), wk =   0.0222222
        k(   85) = (   0.4479167   0.4479167   0.6041667), wk =   0.0222222
        k(   86) = (   0.4583333   0.4583333   0.5833333), wk =   0.0222222
        k(   87) = (   0.4687500   0.4687500   0.5625000), wk =   0.0222222
        k(   88) = (   0.4791667   0.4791667   0.5416667), wk =   0.0222222
        k(   89) = (   0.4895833   0.4895833   0.5208333), wk =   0.0222222
        k(   90) = (   0.5000000   0.5000000   0.5000000), wk =   0.0222222

     Dense  grid:    47855 G-vectors     FFT dimensions: (  54,  54,  54)

     Largest allocated arrays     est. size (Mb)     dimensions
        Kohn-Sham Wavefunctions         0.11 Mb     (     389,   18)
        NL pseudopotentials             0.21 Mb     (     389,   36)
        Each V/rho on FFT grid          0.18 Mb     (   11664)
        Each G-vector array             0.02 Mb     (    2990)
        G-vector shells                 0.00 Mb     (     418)
     Largest temporary arrays     est. size (Mb)     dimensions
        Auxiliary wavefunctions         0.43 Mb     (     389,   72)
        Each subspace H/S matrix        0.08 Mb     (      72,   72)
        Each <psi_i|beta_j> matrix      0.01 Mb     (      36,   18)

     The potential is recalculated from file :
     ./Sn.save/charge-density.dat

     Starting wfc are random

     Band Structure Calculation
     Davidson diagonalization with overlap

     Computing kpt #:     1
     total cpu time spent up to now is        0.9 secs

     Computing kpt #:     2
     total cpu time spent up to now is        1.2 secs

     Computing kpt #:     3
     total cpu time spent up to now is        1.5 secs

     Computing kpt #:     4
     total cpu time spent up to now is        1.8 secs

     Computing kpt #:     5
     total cpu time spent up to now is        2.1 secs

     Computing kpt #:     6
     total cpu time spent up to now is        2.3 secs

     Computing kpt #:     7
     total cpu time spent up to now is        2.6 secs

     Computing kpt #:     8
     total cpu time spent up to now is        2.9 secs

     Computing kpt #:     9
     total cpu time spent up to now is        3.2 secs

     Computing kpt #:    10
     total cpu time spent up to now is        3.5 secs

     Computing kpt #:    11
     total cpu time spent up to now is        3.8 secs

     Computing kpt #:    12
     total cpu time spent up to now is        4.0 secs

     Computing kpt #:    13
     total cpu time spent up to now is        4.3 secs

     Computing kpt #:    14
     total cpu time spent up to now is        4.6 secs

     Computing kpt #:    15
     total cpu time spent up to now is        4.9 secs

     Computing kpt #:    16
     total cpu time spent up to now is        5.2 secs

     Computing kpt #:    17
     total cpu time spent up to now is        5.5 secs

     Computing kpt #:    18
     total cpu time spent up to now is        5.8 secs

     Computing kpt #:    19
     total cpu time spent up to now is        6.0 secs

     Computing kpt #:    20
     total cpu time spent up to now is        6.4 secs

     Computing kpt #:    21
     total cpu time spent up to now is        6.7 secs

     Computing kpt #:    22
     total cpu time spent up to now is        7.0 secs

     Computing kpt #:    23
     total cpu time spent up to now is        7.3 secs

     Computing kpt #:    24
     total cpu time spent up to now is        7.5 secs

     Computing kpt #:    25
     total cpu time spent up to now is        7.8 secs

     Computing kpt #:    26
     total cpu time spent up to now is        8.1 secs

     Computing kpt #:    27
     total cpu time spent up to now is        8.3 secs

     Computing kpt #:    28
     total cpu time spent up to now is        8.6 secs

     Computing kpt #:    29
     total cpu time spent up to now is        8.9 secs

     Computing kpt #:    30
     total cpu time spent up to now is        9.2 secs

     Computing kpt #:    31
     total cpu time spent up to now is        9.4 secs

     Computing kpt #:    32
     total cpu time spent up to now is        9.7 secs

     Computing kpt #:    33
     total cpu time spent up to now is       10.0 secs

     Computing kpt #:    34
     total cpu time spent up to now is       10.3 secs

     Computing kpt #:    35
     total cpu time spent up to now is       10.6 secs

     Computing kpt #:    36
     total cpu time spent up to now is       10.9 secs

     Computing kpt #:    37
     total cpu time spent up to now is       11.1 secs

     Computing kpt #:    38
     total cpu time spent up to now is       11.4 secs

     Computing kpt #:    39
     total cpu time spent up to now is       11.7 secs

     Computing kpt #:    40
     total cpu time spent up to now is       12.0 secs

     Computing kpt #:    41
     total cpu time spent up to now is       12.4 secs

     Computing kpt #:    42
     total cpu time spent up to now is       12.7 secs

     Computing kpt #:    43
     total cpu time spent up to now is       13.1 secs

     Computing kpt #:    44
     total cpu time spent up to now is       13.4 secs

     Computing kpt #:    45
     total cpu time spent up to now is       13.7 secs

     Computing kpt #:    46
     total cpu time spent up to now is       14.0 secs

     Computing kpt #:    47
     total cpu time spent up to now is       14.4 secs

     Computing kpt #:    48
     total cpu time spent up to now is       14.7 secs

     Computing kpt #:    49
     total cpu time spent up to now is       15.0 secs

     Computing kpt #:    50
     total cpu time spent up to now is       15.2 secs

     Computing kpt #:    51
     total cpu time spent up to now is       15.5 secs

     Computing kpt #:    52
     total cpu time spent up to now is       15.8 secs

     Computing kpt #:    53
     total cpu time spent up to now is       16.1 secs

     Computing kpt #:    54
     total cpu time spent up to now is       16.3 secs

     Computing kpt #:    55
     total cpu time spent up to now is       16.6 secs

     Computing kpt #:    56
     total cpu time spent up to now is       16.9 secs

     Computing kpt #:    57
     total cpu time spent up to now is       17.2 secs

     Computing kpt #:    58
     total cpu time spent up to now is       17.5 secs

     Computing kpt #:    59
     total cpu time spent up to now is       17.7 secs

     Computing kpt #:    60
     total cpu time spent up to now is       18.0 secs

     Computing kpt #:    61
     total cpu time spent up to now is       18.3 secs

     Computing kpt #:    62
     total cpu time spent up to now is       18.6 secs

     Computing kpt #:    63
     total cpu time spent up to now is       18.9 secs

     Computing kpt #:    64
     total cpu time spent up to now is       19.1 secs

     Computing kpt #:    65
     total cpu time spent up to now is       19.4 secs

     Computing kpt #:    66
     total cpu time spent up to now is       19.7 secs

     Computing kpt #:    67
     total cpu time spent up to now is       20.0 secs

     Computing kpt #:    68
     total cpu time spent up to now is       20.3 secs

     Computing kpt #:    69
     total cpu time spent up to now is       20.6 secs

     Computing kpt #:    70
     total cpu time spent up to now is       20.9 secs

     Computing kpt #:    71
     total cpu time spent up to now is       21.1 secs

     Computing kpt #:    72
     total cpu time spent up to now is       21.4 secs

     Computing kpt #:    73
     total cpu time spent up to now is       21.7 secs

     Computing kpt #:    74
     total cpu time spent up to now is       22.0 secs

     Computing kpt #:    75
     total cpu time spent up to now is       22.3 secs

     Computing kpt #:    76
     total cpu time spent up to now is       22.6 secs

     Computing kpt #:    77
     total cpu time spent up to now is       22.9 secs

     Computing kpt #:    78
     total cpu time spent up to now is       23.2 secs

     Computing kpt #:    79
     total cpu time spent up to now is       23.4 secs

     Computing kpt #:    80
     total cpu time spent up to now is       23.7 secs

     Computing kpt #:    81
     total cpu time spent up to now is       24.0 secs

     Computing kpt #:    82
     total cpu time spent up to now is       24.3 secs

     Computing kpt #:    83
     total cpu time spent up to now is       24.6 secs

     Computing kpt #:    84
     total cpu time spent up to now is       24.8 secs

     Computing kpt #:    85
     total cpu time spent up to now is       25.1 secs

     Computing kpt #:    86
     total cpu time spent up to now is       25.4 secs

     Computing kpt #:    87
     total cpu time spent up to now is       25.7 secs

     Computing kpt #:    88
     total cpu time spent up to now is       26.0 secs

     Computing kpt #:    89
     total cpu time spent up to now is       26.3 secs

     Computing kpt #:    90
     total cpu time spent up to now is       26.6 secs

     ethr =  3.57E-09,  avg # of iterations = 16.5

     total cpu time spent up to now is       26.6 secs

     End of band structure calculation

          k = 0.0000 0.0000 0.0000 (  5985 PWs)   bands (ev):

   -13.2241 -13.2241 -13.2241 -13.1695 -13.1695 -12.9202 -12.9202 -12.9202
   -12.9154 -12.9154  -1.7445   7.2449   8.4725   8.4725   8.4725  10.5479
    10.5479  10.5479

          k = 0.0000 0.0393 0.0000 (  5977 PWs)   bands (ev):

   -13.2245 -13.2244 -13.2244 -13.1690 -13.1681 -12.9265 -12.9197 -12.9197
   -12.9159 -12.9103  -1.7352   7.1211   8.4273   8.4273   8.5929  10.5166
    10.6050  10.6050

          k = 0.0000 0.0786 0.0000 (  5990 PWs)   bands (ev):

   -13.2256 -13.2255 -13.2255 -13.1675 -13.1641 -12.9358 -12.9182 -12.9182
   -12.9173 -12.9044  -1.7075   6.8361   8.3050   8.3050   8.8666  10.4296
    10.7629  10.7629

          k = 0.0000 0.1179 0.0000 (  6014 PWs)   bands (ev):

   -13.2273 -13.2273 -13.2269 -13.1650 -13.1579 -12.9462 -12.9197 -12.9157
   -12.9157 -12.8997  -1.6613   6.4878   8.1329   8.1329   9.1916  10.3032
    10.9940  10.9940

          k = 0.0000 0.1571 0.0000 (  6010 PWs)   bands (ev):

   -13.2298 -13.2298 -13.2281 -13.1616 -13.1500 -12.9575 -12.9229 -12.9124
   -12.9124 -12.8962  -1.5967   6.1155   7.9351   7.9351   9.5215  10.1547
    11.2740  11.2740

          k = 0.0000 0.1964 0.0000 (  6022 PWs)   bands (ev):

   -13.2327 -13.2327 -13.2288 -13.1573 -13.1407 -12.9696 -12.9271 -12.9084
   -12.9084 -12.8941  -1.5139   5.7337   7.7279   7.7279   9.8297   9.9979
    11.5862  11.5862

          k = 0.0000 0.2357 0.0000 (  6022 PWs)   bands (ev):

   -13.2359 -13.2359 -13.2287 -13.1521 -13.1303 -12.9824 -12.9321 -12.9039
   -12.9039 -12.8932  -1.4129   5.3489   7.5210   7.5210   9.8429  10.0928
    11.9201  11.9201

          k = 0.0000 0.2750 0.0000 (  6018 PWs)   bands (ev):

   -13.2395 -13.2395 -13.2278 -13.1460 -13.1190 -12.9959 -12.9379 -12.8989
   -12.8989 -12.8937  -1.2940   4.9642   7.3207   7.3207   9.6961  10.2869
    12.2690  12.2690

          k = 0.0000 0.3143 0.0000 (  6014 PWs)   bands (ev):

   -13.2432 -13.2432 -13.2259 -13.1391 -13.1071 -13.0098 -12.9445 -12.8955
   -12.8937 -12.8937  -1.1573   4.5818   7.1310   7.1310   9.5620  10.3925
    12.6282  12.6282

          k = 0.0000 0.3536 0.0000 (  5982 PWs)   bands (ev):

   -13.2468 -13.2468 -13.2230 -13.1315 -13.0945 -13.0241 -12.9519 -12.8986
   -12.8884 -12.8884  -1.0031   4.2029   6.9546   6.9546   9.4437  10.4053
    12.9943  12.9943

          k = 0.0000 0.3928 0.0000 (  5998 PWs)   bands (ev):

   -13.2504 -13.2504 -13.2190 -13.1232 -13.0815 -13.0387 -12.9599 -12.9029
   -12.8833 -12.8833  -0.8317   3.8287   6.7934   6.7934   9.3433  10.3403
    13.3643  13.3643

          k = 0.0000 0.4321 0.0000 (  6014 PWs)   bands (ev):

   -13.2538 -13.2538 -13.2140 -13.1143 -13.0682 -13.0534 -12.9686 -12.9084
   -12.8783 -12.8783  -0.6435   3.4600   6.6487   6.6487   9.2621  10.2226
    13.7355  13.7355

          k = 0.0000 0.4714 0.0000 (  6014 PWs)   bands (ev):

   -13.2570 -13.2570 -13.2079 -13.1048 -13.0682 -13.0546 -12.9778 -12.9151
   -12.8738 -12.8738  -0.4387   3.0977   6.5216   6.5216   9.2013  10.0766
    14.1046  14.1046

          k = 0.0000 0.5107 0.0000 (  6006 PWs)   bands (ev):

   -13.2597 -13.2597 -13.2007 -13.0949 -13.0828 -13.0410 -12.9875 -12.9229
   -12.8697 -12.8697  -0.2178   2.7428   6.4129   6.4129   9.1616   9.9205
    14.4671  14.4671

          k = 0.0000 0.5500 0.0000 (  6002 PWs)   bands (ev):

   -13.2621 -13.2621 -13.1925 -13.0972 -13.0845 -13.0274 -12.9976 -12.9316
   -12.8662 -12.8662   0.0186   2.3961   6.3233   6.3233   9.1435   9.7665
    14.8155  14.8155

          k = 0.0000 0.5893 0.0000 (  5994 PWs)   bands (ev):

   -13.2640 -13.2640 -13.1834 -13.1113 -13.0739 -13.0139 -13.0081 -12.9413
   -12.8635 -12.8635   0.2701   2.0585   6.2531   6.2531   9.1474   9.6225
    15.1375  15.1375

          k = 0.0000 0.6285 0.0000 (  5986 PWs)   bands (ev):

   -13.2653 -13.2653 -13.1733 -13.1249 -13.0630 -13.0189 -13.0006 -12.9519
   -12.8614 -12.8614   0.5360   1.7308   6.2027   6.2027   9.1734   9.4935
    15.4116  15.4116

          k = 0.0000 0.6678 0.0000 (  5978 PWs)   bands (ev):

   -13.2662 -13.2662 -13.1623 -13.1380 -13.0520 -13.0298 -12.9876 -12.9632
   -12.8602 -12.8602   0.8158   1.4140   6.1724   6.1724   9.2215   9.3825
    15.6040  15.6040

          k = 0.0000 0.7071 0.0000 (  5962 PWs)   bands (ev):

   -13.2664 -13.2664 -13.1505 -13.1505 -13.0410 -13.0408 -12.9752 -12.9751
   -12.8597 -12.8597   1.1087   1.1087   6.1622   6.1622   9.2914   9.2914
    15.6747  15.6747

          k = 0.0393 0.7071 0.0000 (  5990 PWs)   bands (ev):

   -13.2669 -13.2669 -13.1494 -13.1494 -13.0410 -13.0409 -12.9763 -12.9762
   -12.8593 -12.8593   1.1100   1.1100   6.1428   6.1428   9.3374   9.3374
    15.5872  15.5872

          k = 0.0786 0.7071 0.0000 (  5994 PWs)   bands (ev):

   -13.2683 -13.2683 -13.1460 -13.1460 -13.0412 -13.0411 -12.9795 -12.9794
   -12.8579 -12.8579   1.1138   1.1139   6.0887   6.0887   9.4708   9.4709
    15.3383  15.3383

          k = 0.1179 0.7071-0.0000 (  5986 PWs)   bands (ev):

   -13.2703 -13.2703 -13.1408 -13.1408 -13.0416 -13.0414 -12.9844 -12.9843
   -12.8559 -12.8559   1.1198   1.1198   6.0109   6.0109   9.6808   9.6808
    14.9673  14.9673

          k = 0.1571 0.7071-0.0000 (  5988 PWs)   bands (ev):

   -13.2725 -13.2725 -13.1342 -13.1341 -13.0421 -13.0420 -12.9905 -12.9904
   -12.8536 -12.8536   1.1271   1.1272   5.9225   5.9225   9.9538   9.9538
    14.5224  14.5224

          k = 0.1964 0.7071 0.0000 (  5998 PWs)   bands (ev):

   -13.2748 -13.2748 -13.1267 -13.1267 -13.0430 -13.0429 -12.9971 -12.9971
   -12.8512 -12.8512   1.1350   1.1351   5.8352   5.8352  10.2769  10.2770
    14.0414  14.0414

          k = 0.2357 0.7071 0.0000 (  6004 PWs)   bands (ev):

   -13.2769 -13.2769 -13.1191 -13.1191 -13.0442 -13.0441 -13.0035 -13.0034
   -12.8492 -12.8492   1.1425   1.1426   5.7585   5.7585  10.6381  10.6381
    13.5500  13.5500

          k = 0.2750 0.7071 0.0000 (  5998 PWs)   bands (ev):

   -13.2784 -13.2784 -13.1123 -13.1123 -13.0458 -13.0457 -13.0088 -13.0087
   -12.8476 -12.8476   1.1487   1.1487   5.6991   5.6992  11.0226  11.0226
    13.0694  13.0694

          k = 0.3143 0.7071 0.0000 (  5996 PWs)   bands (ev):

   -13.2794 -13.2794 -13.1073 -13.1073 -13.0473 -13.0472 -13.0123 -13.0122
   -12.8466 -12.8466   1.1527   1.1528   5.6618   5.6618  11.3975  11.3975
    12.6361  12.6361

          k = 0.3536 0.7071 0.0000 (  6008 PWs)   bands (ev):

   -13.2798 -13.2798 -13.1055 -13.1054 -13.0480 -13.0478 -13.0135 -13.0134
   -12.8462 -12.8462   1.1542   1.1542   5.6491   5.6491  11.6081  11.6081
    12.4058  12.4058

          k = 0.3536 0.6799 0.0272 (  5994 PWs)   bands (ev):

   -13.2812 -13.2779 -13.1159 -13.0943 -13.0558 -13.0402 -13.0226 -13.0047
   -12.8481 -12.8449   0.9681   1.3417   5.5390   5.7863  11.3992  11.7360
    12.3447  12.5770

          k = 0.3536 0.6527 0.0544 (  5990 PWs)   bands (ev):

   -13.2821 -13.2758 -13.1256 -13.0830 -13.0630 -13.0369 -13.0281 -12.9968
   -12.8503 -12.8441   0.7875   1.5254   5.4626   5.9444  11.1698  11.7138
    12.4677  12.7886

          k = 0.3536 0.6255 0.0816 (  5994 PWs)   bands (ev):

   -13.2824 -13.2733 -13.1346 -13.0764 -13.0647 -13.0458 -13.0220 -12.9898
   -12.8529 -12.8440   0.6159   1.6995   5.4270   6.1174  10.9372  11.6139
    12.7058  13.0064

          k = 0.3536 0.5983 0.1088 (  5998 PWs)   bands (ev):

   -13.2820 -13.2707 -13.1430 -13.0814 -13.0569 -13.0541 -13.0144 -12.9836
   -12.8557 -12.8447   0.4556   1.8577   5.4388   6.2994  10.7044  11.5084
    12.9881  13.1879

          k = 0.3536 0.5711 0.1360 (  5988 PWs)   bands (ev):

   -13.2808 -13.2680 -13.1508 -13.0882 -13.0681 -13.0409 -13.0068 -12.9783
   -12.8587 -12.8463   0.3087   1.9943   5.5035   6.4844  10.4694  11.4222
    13.2468  13.2896

          k = 0.3536 0.5439 0.1632 (  5978 PWs)   bands (ev):

   -13.2788 -13.2653 -13.1583 -13.0949 -13.0791 -13.0273 -12.9995 -12.9738
   -12.8617 -12.8488   0.1766   2.1058   5.6243   6.6661  10.2270  11.3643
    13.0912  13.5972

          k = 0.3536 0.5167 0.1904 (  5988 PWs)   bands (ev):

   -13.2759 -13.2627 -13.1657 -13.1010 -13.0894 -13.0138 -12.9927 -12.9698
   -12.8648 -12.8521   0.0604   2.1913   5.8009   6.8381   9.9705  11.3390
    12.7838  13.8956

          k = 0.3536 0.4895 0.2176 (  5992 PWs)   bands (ev):

   -13.2722 -13.2603 -13.1730 -13.1066 -13.0987 -13.0010 -12.9865 -12.9662
   -12.8677 -12.8563  -0.0390   2.2528   6.0292   6.9942   9.6922  11.3471
    12.4461  14.1564

          k = 0.3536 0.4623 0.2448 (  6014 PWs)   bands (ev):

   -13.2678 -13.2580 -13.1804 -13.1114 -13.1065 -12.9895 -12.9811 -12.9627
   -12.8704 -12.8612  -0.1211   2.2944   6.3017   7.1289   9.3875  11.3857
    12.1428  14.3268

          k = 0.3536 0.4351 0.2720 (  6022 PWs)   bands (ev):

   -13.2631 -13.2562 -13.1876 -13.1152 -13.1126 -12.9803 -12.9766 -12.9587
   -12.8728 -12.8663  -0.1853   2.3208   6.6076   7.2375   9.0582  11.4466
    11.9004  14.3522

          k = 0.3536 0.4079 0.2992 (  6014 PWs)   bands (ev):

   -13.2585 -13.2548 -13.1940 -13.1181 -13.1170 -12.9743 -12.9732 -12.9540
   -12.8746 -12.8712  -0.2314   2.3362   6.9301   7.3169   8.7176  11.5152
    11.7279  14.2648

          k = 0.3536 0.3807 0.3264 (  6010 PWs)   bands (ev):

   -13.2550 -13.2539 -13.1987 -13.1199 -13.1196 -12.9713 -12.9711 -12.9499
   -12.8758 -12.8748  -0.2592   2.3441   7.2301   7.3651   8.4053  11.5706
    11.6258  14.1640

          k = 0.3536 0.3536 0.3536 (  5996 PWs)   bands (ev):

   -13.2536 -13.2536 -13.2005 -13.1205 -13.1205 -12.9704 -12.9704 -12.9482
   -12.8762 -12.8762  -0.2684   2.3465   7.3813   7.3813   8.2497  11.5921
    11.5921  14.1225

          k = 0.3315 0.3315 0.3315 (  6026 PWs)   bands (ev):

   -13.2535 -13.2535 -13.2007 -13.1207 -13.1207 -12.9702 -12.9702 -12.9479
   -12.8763 -12.8763  -0.2968   2.3927   7.3881   7.3881   8.2558  11.5924
    11.5924  14.1298

          k = 0.3094 0.3094 0.3094 (  6023 PWs)   bands (ev):

   -13.2531 -13.2531 -13.2014 -13.1215 -13.1215 -12.9697 -12.9697 -12.9471
   -12.8767 -12.8767  -0.3759   2.5255   7.4085   7.4085   8.2739  11.5924
    11.5924  14.1494

          k = 0.2873 0.2873 0.2873 (  6017 PWs)   bands (ev):

   -13.2524 -13.2524 -13.2026 -13.1228 -13.1228 -12.9688 -12.9688 -12.9457
   -12.8773 -12.8773  -0.4920   2.7306   7.4424   7.4424   8.3039  11.5899
    11.5899  14.1702

          k = 0.2652 0.2652 0.2652 (  6026 PWs)   bands (ev):

   -13.2515 -13.2515 -13.2041 -13.1247 -13.1247 -12.9675 -12.9675 -12.9439
   -12.8783 -12.8783  -0.6300   2.9927   7.4894   7.4894   8.3452  11.5814
    11.5814  14.1406

          k = 0.2431 0.2431 0.2431 (  6020 PWs)   bands (ev):

   -13.2502 -13.2502 -13.2060 -13.1271 -13.1271 -12.9657 -12.9657 -12.9417
   -12.8795 -12.8795  -0.7777   3.2987   7.5491   7.5491   8.3972  11.5620
    11.5620  13.9015

          k = 0.2210 0.2210 0.2210 (  6015 PWs)   bands (ev):

   -13.2486 -13.2486 -13.2081 -13.1302 -13.1302 -12.9633 -12.9633 -12.9392
   -12.8811 -12.8811  -0.9262   3.6389   7.6209   7.6209   8.4587  11.5262
    11.5262  13.4942

          k = 0.1989 0.1989 0.1989 (  6009 PWs)   bands (ev):

   -13.2466 -13.2466 -13.2104 -13.1339 -13.1339 -12.9604 -12.9604 -12.9365
   -12.8831 -12.8831  -1.0695   4.0061   7.7038   7.7038   8.5278  11.4691
    11.4691  13.0563

          k = 0.1768 0.1768 0.1768 (  6018 PWs)   bands (ev):

   -13.2443 -13.2443 -13.2127 -13.1381 -13.1381 -12.9570 -12.9570 -12.9338
   -12.8855 -12.8855  -1.2037   4.3946   7.7967   7.7967   8.6017  11.3876
    11.3876  12.6226

          k = 0.1547 0.1547 0.1547 (  6018 PWs)   bands (ev):

   -13.2416 -13.2416 -13.2150 -13.1428 -13.1428 -12.9531 -12.9531 -12.9311
   -12.8882 -12.8882  -1.3259   4.7993   7.8978   7.8978   8.6757  11.2820
    11.2820  12.2033

          k = 0.1326 0.1326 0.1326 (  6012 PWs)   bands (ev):

   -13.2387 -13.2387 -13.2171 -13.1477 -13.1477 -12.9488 -12.9488 -12.9285
   -12.8914 -12.8914  -1.4344   5.2153   8.0046   8.0046   8.7428  11.1565
    11.1565  11.8056

          k = 0.1105 0.1105 0.1105 (  5997 PWs)   bands (ev):

   -13.2355 -13.2355 -13.2191 -13.1528 -13.1528 -12.9440 -12.9440 -12.9262
   -12.8949 -12.8949  -1.5277   5.6369   8.1139   8.1139   8.7917  11.0189
    11.0189  11.4387

          k = 0.0884 0.0884 0.0884 (  6000 PWs)   bands (ev):

   -13.2323 -13.2323 -13.2208 -13.1578 -13.1578 -12.9390 -12.9390 -12.9241
   -12.8988 -12.8988  -1.6051   6.0566   8.2208   8.2208   8.8061  10.8794
    10.8794  11.1166

          k = 0.0663 0.0663 0.0663 (  6003 PWs)   bands (ev):

   -13.2292 -13.2292 -13.2222 -13.1623 -13.1623 -12.9339 -12.9339 -12.9225
   -12.9031 -12.9031  -1.6658   6.4626   8.3188   8.3188   8.7677  10.7500
    10.7500  10.8578

          k = 0.0442 0.0442 0.0442 (  5985 PWs)   bands (ev):

   -13.2265 -13.2265 -13.2232 -13.1661 -13.1661 -12.9287 -12.9287 -12.9212
   -12.9076 -12.9076  -1.7094   6.8338   8.3995   8.3995   8.6686  10.6435
    10.6435  10.6781

          k = 0.0221 0.0221 0.0221 (  5973 PWs)   bands (ev):

   -13.2247 -13.2247 -13.2238 -13.1686 -13.1686 -12.9236 -12.9236 -12.9205
   -12.9122 -12.9122  -1.7357   7.1248   8.4534   8.4534   8.5396  10.5728
    10.5728  10.5787

          k = 0.0000 0.0000 0.0000 (  5985 PWs)   bands (ev):

   -13.2241 -13.2241 -13.2241 -13.1695 -13.1695 -12.9202 -12.9202 -12.9202
   -12.9154 -12.9154  -1.7445   7.2449   8.4725   8.4725   8.4725  10.5479
    10.5479  10.5479

          k = 0.0253 0.0253-0.0000 (  5973 PWs)   bands (ev):

   -13.2248 -13.2244 -13.2240 -13.1689 -13.1685 -12.9244 -12.9224 -12.9198
   -12.9140 -12.9115  -1.7368   7.1398   8.4345   8.4664   8.5426  10.5567
    10.5608  10.5960

          k = 0.0505 0.0505 0.0000 (  5991 PWs)   bands (ev):

   -13.2267 -13.2253 -13.2238 -13.1672 -13.1658 -12.9305 -12.9264 -12.9185
   -12.9120 -12.9061  -1.7139   6.8833   8.3259   8.4480   8.6961  10.5832
    10.5982  10.7370

          k = 0.0758 0.0758 0.0000 (  6017 PWs)   bands (ev):

   -13.2296 -13.2269 -13.2233 -13.1645 -13.1616 -12.9368 -12.9310 -12.9164
   -12.9108 -12.9008  -1.6759   6.5552   8.1597   8.4172   8.8603  10.6273
    10.6573  10.9598

          k = 0.1010 0.1010 0.0000 (  6015 PWs)   bands (ev):

   -13.2331 -13.2290 -13.2223 -13.1611 -13.1564 -12.9433 -12.9359 -12.9135
   -12.9106 -12.8957  -1.6228   6.1974   7.9516   8.3736   9.0074  10.6889
    10.7357  11.2424

          k = 0.1263 0.1263-0.0000 (  6003 PWs)   bands (ev):

   -13.2368 -13.2318 -13.2206 -13.1573 -13.1505 -12.9498 -12.9409 -12.9116
   -12.9098 -12.8910  -1.5549   5.8293   7.7163   8.3169   9.1352  10.7680
    10.8318  11.5549

          k = 0.1515 0.1515 0.0000 (  5997 PWs)   bands (ev):

   -13.2405 -13.2351 -13.2181 -13.1532 -13.1442 -12.9564 -12.9459 -12.9138
   -12.9054 -12.8866  -1.4727   5.4611   7.4656   8.2471   9.2489  10.8644
    10.9451  11.8628

          k = 0.1768 0.1768 0.0000 (  6015 PWs)   bands (ev):

   -13.2441 -13.2390 -13.2147 -13.1490 -13.1375 -12.9629 -12.9506 -12.9174
   -12.9003 -12.8826  -1.3764   5.0984   7.2085   8.1644   9.3533  10.9779
    11.0753  12.1306

          k = 0.2020 0.2020-0.0000 (  6007 PWs)   bands (ev):

   -13.2475 -13.2432 -13.2103 -13.1449 -13.1306 -12.9694 -12.9550 -12.9222
   -12.8947 -12.8789  -1.2666   4.7451   6.9520   8.0694   9.4514  11.1083
    11.2222  12.3290

          k = 0.2273 0.2273 0.0000 (  6001 PWs)   bands (ev):

   -13.2506 -13.2479 -13.2050 -13.1409 -13.1237 -12.9758 -12.9591 -12.9284
   -12.8887 -12.8755  -1.1441   4.4035   6.7016   7.9630   9.5436  11.2555
    11.3858  12.4477

          k = 0.2525 0.2525 0.0000 (  6009 PWs)   bands (ev):

   -13.2535 -13.2527 -13.1987 -13.1370 -13.1167 -12.9820 -12.9628 -12.9359
   -12.8824 -12.8726  -1.0098   4.0754   6.4613   7.8468   9.6284  11.4192
    11.5657  12.5004

          k = 0.2778 0.2778 0.0000 (  6021 PWs)   bands (ev):

   -13.2577 -13.2560 -13.1918 -13.1330 -13.1099 -12.9880 -12.9661 -12.9446
   -12.8761 -12.8700  -0.8646   3.7620   6.2348   7.7225   9.7028  11.5990
    11.7612  12.5149

          k = 0.3030 0.3030-0.0000 (  6013 PWs)   bands (ev):

   -13.2627 -13.2582 -13.1843 -13.1288 -13.1031 -12.9938 -12.9691 -12.9544
   -12.8698 -12.8677  -0.7099   3.4642   6.0251   7.5922   9.7630  11.7945
    11.9712  12.5193

          k = 0.3283 0.3283 0.0000 (  6007 PWs)   bands (ev):

   -13.2675 -13.2601 -13.1768 -13.1241 -13.0965 -12.9994 -12.9728 -12.9642
   -12.8658 -12.8638  -0.5475   3.1827   5.8351   7.4581   9.8049  12.0053
    12.1940  12.5355

          k = 0.3536 0.3536 0.0000 (  5995 PWs)   bands (ev):

   -13.2719 -13.2617 -13.1696 -13.1184 -13.0901 -13.0046 -12.9810 -12.9701
   -12.8642 -12.8582  -0.3792   2.9181   5.6675   7.3223   9.8255  12.2310
    12.4260  12.5784

          k = 0.3788 0.3788-0.0000 (  5989 PWs)   bands (ev):

   -13.2759 -13.2630 -13.1635 -13.1111 -13.0839 -13.0096 -12.9933 -12.9724
   -12.8628 -12.8533  -0.2074   2.6708   5.5251   7.1872   9.8240  12.4708
    12.6569  12.6599

          k = 0.4041 0.4041 0.0000 (  5993 PWs)   bands (ev):

   -13.2793 -13.2641 -13.1586 -13.1021 -13.0781 -13.0142 -13.0071 -12.9737
   -12.8618 -12.8491  -0.0350   2.4410   5.4106   7.0546   9.8018  12.7241
    12.7740  12.8769

          k = 0.4293 0.4293 0.0000 (  5983 PWs)   bands (ev):

   -13.2819 -13.2649 -13.1551 -13.0914 -13.0725 -13.0217 -13.0185 -12.9746
   -12.8610 -12.8458   0.1349   2.2291   5.3269   6.9265   9.7627  12.9294
    12.9898  13.0221

          k = 0.4546 0.4546 0.0000 (  5967 PWs)   bands (ev):

   -13.2837 -13.2655 -13.1528 -13.0793 -13.0673 -13.0369 -13.0224 -12.9752
   -12.8604 -12.8435   0.2989   2.0352   5.2767   6.8045   9.7112  12.9594
    13.1201  13.2668

          k = 0.4798 0.4798-0.0000 (  5960 PWs)   bands (ev):

   -13.2846 -13.2659 -13.1513 -13.0663 -13.0626 -13.0522 -13.0259 -12.9755
   -12.8600 -12.8422   0.4534   1.8596   5.2623   6.6901   9.6524  12.6225
    13.3423  13.5534

          k = 0.5051 0.5051 0.0000 (  5988 PWs)   bands (ev):

   -13.2845 -13.2662 -13.1505 -13.0677 -13.0582 -13.0527 -13.0291 -12.9756
   -12.8597 -12.8420   0.5950   1.7022   5.2854   6.5847   9.5905  12.1517
    13.5916  13.8477

          k = 0.5303 0.5303 0.0000 (  5990 PWs)   bands (ev):

   -13.2835 -13.2664 -13.1501 -13.0829 -13.0542 -13.0389 -13.0319 -12.9757
   -12.8596 -12.8428   0.7209   1.5632   5.3461   6.4892   9.5291  11.6480
    13.8638  14.1467

          k = 0.5156 0.5156 0.0295 (  5978 PWs)   bands (ev):

   -13.2840 -13.2662 -13.1511 -13.0732 -13.0588 -13.0476 -13.0279 -12.9750
   -12.8599 -12.8424   0.6232   1.6690   5.3182   6.5484   9.5686  11.9419
    13.6281  13.9404

          k = 0.5009 0.5009 0.0589 (  5985 PWs)   bands (ev):

   -13.2838 -13.2656 -13.1534 -13.0660 -13.0648 -13.0545 -13.0215 -12.9735
   -12.8606 -12.8429   0.4960   1.8026   5.3306   6.6198   9.6144  12.2078
    13.3304  13.6830

          k = 0.4861 0.4861 0.0884 (  5981 PWs)   bands (ev):

   -13.2828 -13.2647 -13.1565 -13.0738 -13.0707 -13.0465 -13.0143 -12.9716
   -12.8617 -12.8441   0.3641   1.9342   5.3881   6.7021   9.6598  12.3297
    13.1595  13.3949

          k = 0.4714 0.4714 0.1179 (  5981 PWs)   bands (ev):

   -13.2810 -13.2635 -13.1603 -13.0817 -13.0806 -13.0339 -13.0070 -12.9696
   -12.8632 -12.8463   0.2382   2.0501   5.4939   6.7930   9.6931  12.1720
    13.0955  13.2900

          k = 0.4567 0.4567 0.1473 (  5989 PWs)   bands (ev):

   -13.2785 -13.2621 -13.1649 -13.0901 -13.0894 -13.0209 -12.9999 -12.9676
   -12.8650 -12.8493   0.1231   2.1443   5.6484   6.8900   9.6950  11.9035
    12.7993  13.5756

          k = 0.4419 0.4419 0.1768 (  5983 PWs)   bands (ev):

   -13.2752 -13.2605 -13.1701 -13.0986 -13.0967 -13.0082 -12.9932 -12.9656
   -12.8671 -12.8530   0.0211   2.2160   5.8490   6.9899   9.6385  11.6676
    12.5179  13.8874

          k = 0.4272 0.4272 0.2062 (  5998 PWs)   bands (ev):

   -13.2712 -13.2589 -13.1760 -13.1057 -13.1033 -12.9964 -12.9869 -12.9636
   -12.8692 -12.8574  -0.0664   2.2673   6.0904   7.0886   9.4990  11.5180
    12.2601  14.1618

          k = 0.4125 0.4125 0.2357 (  6009 PWs)   bands (ev):

   -13.2668 -13.2573 -13.1824 -13.1113 -13.1091 -12.9860 -12.9814 -12.9611
   -12.8713 -12.8622  -0.1387   2.3021   6.3650   7.1814   9.2739  11.4632
    12.0343  14.3277

          k = 0.3977 0.3977 0.2652 (  6011 PWs)   bands (ev):

   -13.2623 -13.2558 -13.1889 -13.1155 -13.1139 -12.9782 -12.9768 -12.9577
   -12.8732 -12.8672  -0.1952   2.3243   6.6629   7.2625   8.9872  11.4785
    11.8479  14.3386

          k = 0.3830 0.3830 0.2946 (  6012 PWs)   bands (ev):

   -13.2580 -13.2546 -13.1947 -13.1183 -13.1175 -12.9734 -12.9733 -12.9534
   -12.8748 -12.8717  -0.2358   2.3375   6.9686   7.3263   8.6751  11.5268
    11.7083  14.2509

          k = 0.3683 0.3683 0.3241 (  6009 PWs)   bands (ev):

   -13.2548 -13.2539 -13.1989 -13.1199 -13.1197 -12.9711 -12.9711 -12.9497
   -12.8758 -12.8750  -0.2603   2.3444   7.2458   7.3672   8.3889  11.5733
    11.6216  14.1593

          k = 0.3536 0.3536 0.3536 (  5996 PWs)   bands (ev):

   -13.2536 -13.2536 -13.2005 -13.1205 -13.1205 -12.9704 -12.9704 -12.9482
   -12.8762 -12.8762  -0.2684   2.3465   7.3813   7.3813   8.2497  11.5921
    11.5921  14.1225

     Writing output data file Sn.save
 
     init_run     :      0.20s CPU      0.31s WALL (       1 calls)
     electrons    :     24.33s CPU     25.93s WALL (       1 calls)

     Called by init_run:
     wfcinit      :      0.00s CPU      0.01s WALL (       1 calls)
     potinit      :      0.02s CPU      0.04s WALL (       1 calls)

     Called by electrons:
     c_bands      :     24.33s CPU     25.93s WALL (       1 calls)
     v_of_rho     :      0.01s CPU      0.01s WALL (       1 calls)
     v_h          :      0.00s CPU      0.00s WALL (       1 calls)
     v_xc         :      0.01s CPU      0.01s WALL (       1 calls)

     Called by c_bands:
     init_us_2    :      0.01s CPU      0.02s WALL (      90 calls)
     cegterg      :     22.61s CPU     23.92s WALL (      92 calls)

     Called by sum_band:

     Called by *egterg:
     h_psi        :     19.05s CPU     20.40s WALL (    1670 calls)
     g_psi        :      0.06s CPU      0.06s WALL (    1488 calls)
     cdiaghg      :      1.94s CPU      1.96s WALL (    1578 calls)
     cegterg:over :      1.47s CPU      1.50s WALL (    1488 calls)
     cegterg:upda :      0.45s CPU      0.46s WALL (    1488 calls)
     cegterg:last :      0.26s CPU      0.26s WALL (     386 calls)

     Called by h_psi:
     h_psi:vloc   :     18.04s CPU     19.35s WALL (    1670 calls)
     h_psi:vnl    :      0.97s CPU      1.01s WALL (    1670 calls)
     add_vuspsi   :      0.28s CPU      0.29s WALL (    1670 calls)

     General routines
     calbec       :      0.68s CPU      0.72s WALL (    1670 calls)
     fft          :      0.02s CPU      0.03s WALL (      10 calls)
     fftw         :     17.09s CPU     18.33s WALL (   45264 calls)
     davcio       :      0.03s CPU      0.12s WALL (      90 calls)
 
     Parallel routines
     fft_scatter  :     10.53s CPU     11.27s WALL (   45274 calls)
 
     PWSCF        :    24.95s CPU        26.76s WALL

 
   This run was terminated on:  19:25:22   5Mar2020            

=------------------------------------------------------------------------------=
   JOB DONE.
=------------------------------------------------------------------------------=
