
     Program PWSCF v.5.4.0 starts on 15Mar2020 at 19:52: 8 

     This program is part of the open-source Quantum ESPRESSO suite
     for quantum simulation of materials; please cite
         "P. Giannozzi et al., J. Phys.:Condens. Matter 21 395502 (2009);
          URL http://www.quantum-espresso.org", 
     in publications or presentations arising from this work. More details at
     http://www.quantum-espresso.org/quote

     Parallel version (MPI & OpenMP), running on      16 processor cores
     Number of MPI processes:                16
     Threads/MPI process:                     1
     R & G space division:  proc/nbgrp/npool/nimage =      16
     Waiting for input...
     Reading input from standard input
Warning: card &IONS ignored
Warning: card / ignored
Warning: card &CELL ignored
Warning: card / ignored

     Current dimensions of program PWSCF are:
     Max number of different atomic species (ntypx) = 10
     Max number of k-points (npk) =  40000
     Max angular momentum in pseudopotentials (lmaxx) =  3
               file Sn.rel-pbe-dn-rrkjus_psl.1.0.0.UPF: wavefunction(s)  5S 4D 4D renormalized

     Subspace diagonalization in iterative solution of the eigenvalue problem:
     a serial algorithm will be used

 
     Parallelization info
     --------------------
     sticks:   dense  smooth     PW     G-vecs:    dense   smooth      PW
     Min          81      81     23                 1953     1953     312
     Max          82      82     24                 1958     1958     316
     Sum        1303    1303    379                31283    31283    5029
 

     Title: 
     Sn                                                                         


     bravais-lattice index     =            0
     lattice parameter (alat)  =       8.9127  a.u.
     unit-cell volume          =     500.6268 (a.u.)^3
     number of atoms/cell      =            2
     number of atomic types    =            1
     number of electrons       =        28.00
     number of Kohn-Sham states=           36
     kinetic-energy cutoff     =      60.0000  Ry
     charge density cutoff     =     240.0000  Ry
     convergence threshold     =      1.0E-06
     mixing beta               =       0.7000
     number of iterations used =            8  plain     mixing
     Exchange-correlation      = PBE ( 1  4  3  4 0 0)
     Non magnetic calculation with spin-orbit


     celldm(1)=   8.912709  celldm(2)=   0.000000  celldm(3)=   0.000000
     celldm(4)=   0.000000  celldm(5)=   0.000000  celldm(6)=   0.000000

     crystal axes: (cart. coord. in units of alat)
               a(1) = (   0.000000   0.707107   0.707107 )  
               a(2) = (   0.707107   0.000000   0.707107 )  
               a(3) = (   0.707107   0.707107   0.000000 )  

     reciprocal axes: (cart. coord. in units 2 pi/alat)
               b(1) = ( -0.707107  0.707107  0.707107 )  
               b(2) = (  0.707107 -0.707107  0.707107 )  
               b(3) = (  0.707107  0.707107 -0.707107 )  


     PseudoPot. # 1 for Sn read from file:
     ../PseudopotentialDatabase/Sn.rel-pbe-dn-rrkjus_psl.1.0.0.UPF
     MD5 check sum: e9415cc9ba1036dfb73502962f03961a
     Pseudo is Ultrasoft + core correction, Zval = 14.0
     Generated using "atomic" code by A. Dal Corso  v.6.3
     Using radial grid of 1243 points, 10 beta functions with: 
                l(1) =   0
                l(2) =   0
                l(3) =   1
                l(4) =   1
                l(5) =   1
                l(6) =   1
                l(7) =   2
                l(8) =   2
                l(9) =   2
               l(10) =   2
     Q(r) pseudized with 0 coefficients 


     atomic species   valence    mass     pseudopotential
        Sn            14.00   118.71000     Sn( 1.00)

     24 Sym. Ops. (no inversion) found
          (note: 24 additional sym.ops. were found but ignored
           their fractional translations are incommensurate with FFT grid)

                                    s                        frac. trans.

      isym =  1     identity                                     

 cryst.   s( 1) = (     1          0          0      )
                  (     0          1          0      )
                  (     0          0          1      )

 cart.    s( 1) = (  1.0000000  0.0000000  0.0000000 )
                  (  0.0000000  1.0000000  0.0000000 )
                  (  0.0000000  0.0000000  1.0000000 )


      isym =  2     180 deg rotation - cart. axis [0,0,1]        

 cryst.   s( 2) = (     0          1         -1      )
                  (     1          0         -1      )
                  (     0          0         -1      )

 cart.    s( 2) = ( -1.0000000  0.0000000  0.0000000 )
                  (  0.0000000 -1.0000000  0.0000000 )
                  (  0.0000000  0.0000000  1.0000000 )


      isym =  3     180 deg rotation - cart. axis [0,1,0]        

 cryst.   s( 3) = (     0         -1          1      )
                  (     0         -1          0      )
                  (     1         -1          0      )

 cart.    s( 3) = ( -1.0000000  0.0000000  0.0000000 )
                  (  0.0000000  1.0000000  0.0000000 )
                  (  0.0000000  0.0000000 -1.0000000 )


      isym =  4     180 deg rotation - cart. axis [1,0,0]        

 cryst.   s( 4) = (    -1          0          0      )
                  (    -1          0          1      )
                  (    -1          1          0      )

 cart.    s( 4) = (  1.0000000  0.0000000  0.0000000 )
                  (  0.0000000 -1.0000000  0.0000000 )
                  (  0.0000000  0.0000000 -1.0000000 )


      isym =  5     120 deg rotation - cart. axis [-1,-1,-1]     

 cryst.   s( 5) = (     0          0          1      )
                  (     1          0          0      )
                  (     0          1          0      )

 cart.    s( 5) = (  0.0000000  1.0000000  0.0000000 )
                  (  0.0000000  0.0000000  1.0000000 )
                  (  1.0000000  0.0000000  0.0000000 )


      isym =  6     120 deg rotation - cart. axis [-1,1,1]       

 cryst.   s( 6) = (     1         -1          0      )
                  (     0         -1          1      )
                  (     0         -1          0      )

 cart.    s( 6) = (  0.0000000 -1.0000000  0.0000000 )
                  (  0.0000000  0.0000000  1.0000000 )
                  ( -1.0000000  0.0000000  0.0000000 )


      isym =  7     120 deg rotation - cart. axis [1,1,-1]       

 cryst.   s( 7) = (    -1          1          0      )
                  (    -1          0          0      )
                  (    -1          0          1      )

 cart.    s( 7) = (  0.0000000  1.0000000  0.0000000 )
                  (  0.0000000  0.0000000 -1.0000000 )
                  ( -1.0000000  0.0000000  0.0000000 )


      isym =  8     120 deg rotation - cart. axis [1,-1,1]       

 cryst.   s( 8) = (     0          0         -1      )
                  (     0          1         -1      )
                  (     1          0         -1      )

 cart.    s( 8) = (  0.0000000 -1.0000000  0.0000000 )
                  (  0.0000000  0.0000000 -1.0000000 )
                  (  1.0000000  0.0000000  0.0000000 )


      isym =  9     120 deg rotation - cart. axis [1,1,1]        

 cryst.   s( 9) = (     0          1          0      )
                  (     0          0          1      )
                  (     1          0          0      )

 cart.    s( 9) = (  0.0000000  0.0000000  1.0000000 )
                  (  1.0000000  0.0000000  0.0000000 )
                  (  0.0000000  1.0000000  0.0000000 )


      isym = 10     120 deg rotation - cart. axis [-1,1,-1]      

 cryst.   s(10) = (    -1          0          1      )
                  (    -1          1          0      )
                  (    -1          0          0      )

 cart.    s(10) = (  0.0000000  0.0000000  1.0000000 )
                  ( -1.0000000  0.0000000  0.0000000 )
                  (  0.0000000 -1.0000000  0.0000000 )


      isym = 11     120 deg rotation - cart. axis [1,-1,-1]      

 cryst.   s(11) = (     1          0         -1      )
                  (     0          0         -1      )
                  (     0          1         -1      )

 cart.    s(11) = (  0.0000000  0.0000000 -1.0000000 )
                  ( -1.0000000  0.0000000  0.0000000 )
                  (  0.0000000  1.0000000  0.0000000 )


      isym = 12     120 deg rotation - cart. axis [-1,-1,1]      

 cryst.   s(12) = (     0         -1          0      )
                  (     1         -1          0      )
                  (     0         -1          1      )

 cart.    s(12) = (  0.0000000  0.0000000 -1.0000000 )
                  (  1.0000000  0.0000000  0.0000000 )
                  (  0.0000000 -1.0000000  0.0000000 )


      isym = 13     inv. 180 deg rotation - cart. axis [1,1,0]   

 cryst.   s(13) = (     1          0         -1      )
                  (     0          1         -1      )
                  (     0          0         -1      )

 cart.    s(13) = (  0.0000000 -1.0000000  0.0000000 )
                  ( -1.0000000  0.0000000  0.0000000 )
                  (  0.0000000  0.0000000  1.0000000 )


      isym = 14     inv. 180 deg rotation - cart. axis [1,-1,0]  

 cryst.   s(14) = (     0          1          0      )
                  (     1          0          0      )
                  (     0          0          1      )

 cart.    s(14) = (  0.0000000  1.0000000  0.0000000 )
                  (  1.0000000  0.0000000  0.0000000 )
                  (  0.0000000  0.0000000  1.0000000 )


      isym = 15     inv.  90 deg rotation - cart. axis [0,0,-1]  

 cryst.   s(15) = (     0         -1          0      )
                  (     0         -1          1      )
                  (     1         -1          0      )

 cart.    s(15) = (  0.0000000 -1.0000000  0.0000000 )
                  (  1.0000000  0.0000000  0.0000000 )
                  (  0.0000000  0.0000000 -1.0000000 )


      isym = 16     inv.  90 deg rotation - cart. axis [0,0,1]   

 cryst.   s(16) = (    -1          0          1      )
                  (    -1          0          0      )
                  (    -1          1          0      )

 cart.    s(16) = (  0.0000000  1.0000000  0.0000000 )
                  ( -1.0000000  0.0000000  0.0000000 )
                  (  0.0000000  0.0000000 -1.0000000 )


      isym = 17     inv. 180 deg rotation - cart. axis [1,0,1]   

 cryst.   s(17) = (     1         -1          0      )
                  (     0         -1          0      )
                  (     0         -1          1      )

 cart.    s(17) = (  0.0000000  0.0000000 -1.0000000 )
                  (  0.0000000  1.0000000  0.0000000 )
                  ( -1.0000000  0.0000000  0.0000000 )


      isym = 18     inv. 180 deg rotation - cart. axis [-1,0,1]  

 cryst.   s(18) = (     0          0          1      )
                  (     0          1          0      )
                  (     1          0          0      )

 cart.    s(18) = (  0.0000000  0.0000000  1.0000000 )
                  (  0.0000000  1.0000000  0.0000000 )
                  (  1.0000000  0.0000000  0.0000000 )


      isym = 19     inv.  90 deg rotation - cart. axis [0,1,0]   

 cryst.   s(19) = (     0          0         -1      )
                  (     1          0         -1      )
                  (     0          1         -1      )

 cart.    s(19) = (  0.0000000  0.0000000 -1.0000000 )
                  (  0.0000000 -1.0000000  0.0000000 )
                  (  1.0000000  0.0000000  0.0000000 )


      isym = 20     inv.  90 deg rotation - cart. axis [0,-1,0]  

 cryst.   s(20) = (    -1          1          0      )
                  (    -1          0          1      )
                  (    -1          0          0      )

 cart.    s(20) = (  0.0000000  0.0000000  1.0000000 )
                  (  0.0000000 -1.0000000  0.0000000 )
                  ( -1.0000000  0.0000000  0.0000000 )


      isym = 21     inv. 180 deg rotation - cart. axis [0,1,1]   

 cryst.   s(21) = (    -1          0          0      )
                  (    -1          1          0      )
                  (    -1          0          1      )

 cart.    s(21) = (  1.0000000  0.0000000  0.0000000 )
                  (  0.0000000  0.0000000 -1.0000000 )
                  (  0.0000000 -1.0000000  0.0000000 )


      isym = 22     inv. 180 deg rotation - cart. axis [0,1,-1]  

 cryst.   s(22) = (     1          0          0      )
                  (     0          0          1      )
                  (     0          1          0      )

 cart.    s(22) = (  1.0000000  0.0000000  0.0000000 )
                  (  0.0000000  0.0000000  1.0000000 )
                  (  0.0000000  1.0000000  0.0000000 )


      isym = 23     inv.  90 deg rotation - cart. axis [-1,0,0]  

 cryst.   s(23) = (     0          1         -1      )
                  (     0          0         -1      )
                  (     1          0         -1      )

 cart.    s(23) = ( -1.0000000  0.0000000  0.0000000 )
                  (  0.0000000  0.0000000 -1.0000000 )
                  (  0.0000000  1.0000000  0.0000000 )


      isym = 24     inv.  90 deg rotation - cart. axis [1,0,0]   

 cryst.   s(24) = (     0         -1          1      )
                  (     1         -1          0      )
                  (     0         -1          0      )

 cart.    s(24) = ( -1.0000000  0.0000000  0.0000000 )
                  (  0.0000000  0.0000000  1.0000000 )
                  (  0.0000000 -1.0000000  0.0000000 )


   Cartesian axes

     site n.     atom                  positions (alat units)
         1           Sn  tau(   1) = (   0.0000000   0.0000000   0.0000000  )
         2           Sn  tau(   2) = (   0.3535534   0.3535534   0.3535534  )

   Crystallographic axes

     site n.     atom                  positions (cryst. coord.)
         1           Sn  tau(   1) = (  0.0000000  0.0000000  0.0000000  )
         2           Sn  tau(   2) = (  0.2500000  0.2500000  0.2500000  )

     number of k points=   145  gaussian smearing, width (Ry)=  0.0001
                       cart. coord. in units 2pi/alat
        k(    1) = (   0.0000000   0.0000000   0.0000000), wk =   0.0002441
        k(    2) = (   0.0441942   0.0441942  -0.0441942), wk =   0.0019531
        k(    3) = (   0.0883883   0.0883883  -0.0883883), wk =   0.0019531
        k(    4) = (   0.1325825   0.1325825  -0.1325825), wk =   0.0019531
        k(    5) = (   0.1767767   0.1767767  -0.1767767), wk =   0.0019531
        k(    6) = (   0.2209709   0.2209709  -0.2209709), wk =   0.0019531
        k(    7) = (   0.2651650   0.2651650  -0.2651650), wk =   0.0019531
        k(    8) = (   0.3093592   0.3093592  -0.3093592), wk =   0.0019531
        k(    9) = (  -0.3535534  -0.3535534   0.3535534), wk =   0.0009766
        k(   10) = (   0.0883883   0.0000000   0.0000000), wk =   0.0014648
        k(   11) = (   0.1325825   0.0441942  -0.0441942), wk =   0.0058594
        k(   12) = (   0.1767767   0.0883883  -0.0883883), wk =   0.0058594
        k(   13) = (   0.2209709   0.1325825  -0.1325825), wk =   0.0058594
        k(   14) = (   0.2651650   0.1767767  -0.1767767), wk =   0.0058594
        k(   15) = (   0.3093592   0.2209709  -0.2209709), wk =   0.0058594
        k(   16) = (   0.3535534   0.2651650  -0.2651650), wk =   0.0058594
        k(   17) = (  -0.3093592  -0.3977476   0.3977476), wk =   0.0058594
        k(   18) = (  -0.2651650  -0.3535534   0.3535534), wk =   0.0058594
        k(   19) = (  -0.2209709  -0.3093592   0.3093592), wk =   0.0058594
        k(   20) = (  -0.1767767  -0.2651650   0.2651650), wk =   0.0058594
        k(   21) = (  -0.1325825  -0.2209709   0.2209709), wk =   0.0058594
        k(   22) = (  -0.0883883  -0.1767767   0.1767767), wk =   0.0058594
        k(   23) = (  -0.0441942  -0.1325825   0.1325825), wk =   0.0058594
        k(   24) = (   0.0000000  -0.0883883   0.0883883), wk =   0.0029297
        k(   25) = (   0.1767767   0.0000000   0.0000000), wk =   0.0014648
        k(   26) = (   0.2209709   0.0441942  -0.0441942), wk =   0.0058594
        k(   27) = (   0.2651650   0.0883883  -0.0883883), wk =   0.0058594
        k(   28) = (   0.3093592   0.1325825  -0.1325825), wk =   0.0058594
        k(   29) = (   0.3535534   0.1767767  -0.1767767), wk =   0.0058594
        k(   30) = (   0.3977476   0.2209709  -0.2209709), wk =   0.0058594
        k(   31) = (  -0.2651650  -0.4419417   0.4419417), wk =   0.0058594
        k(   32) = (  -0.2209709  -0.3977476   0.3977476), wk =   0.0058594
        k(   33) = (  -0.1767767  -0.3535534   0.3535534), wk =   0.0058594
        k(   34) = (  -0.1325825  -0.3093592   0.3093592), wk =   0.0058594
        k(   35) = (  -0.0883883  -0.2651650   0.2651650), wk =   0.0058594
        k(   36) = (  -0.0441942  -0.2209709   0.2209709), wk =   0.0058594
        k(   37) = (   0.0000000  -0.1767767   0.1767767), wk =   0.0029297
        k(   38) = (   0.2651650   0.0000000   0.0000000), wk =   0.0014648
        k(   39) = (   0.3093592   0.0441942  -0.0441942), wk =   0.0058594
        k(   40) = (   0.3535534   0.0883883  -0.0883883), wk =   0.0058594
        k(   41) = (   0.3977476   0.1325825  -0.1325825), wk =   0.0058594
        k(   42) = (   0.4419417   0.1767767  -0.1767767), wk =   0.0058594
        k(   43) = (  -0.2209709  -0.4861359   0.4861359), wk =   0.0058594
        k(   44) = (  -0.1767767  -0.4419417   0.4419417), wk =   0.0058594
        k(   45) = (  -0.1325825  -0.3977476   0.3977476), wk =   0.0058594
        k(   46) = (  -0.0883883  -0.3535534   0.3535534), wk =   0.0058594
        k(   47) = (  -0.0441942  -0.3093592   0.3093592), wk =   0.0058594
        k(   48) = (   0.0000000  -0.2651650   0.2651650), wk =   0.0029297
        k(   49) = (   0.3535534   0.0000000   0.0000000), wk =   0.0014648
        k(   50) = (   0.3977476   0.0441942  -0.0441942), wk =   0.0058594
        k(   51) = (   0.4419417   0.0883883  -0.0883883), wk =   0.0058594
        k(   52) = (   0.4861359   0.1325825  -0.1325825), wk =   0.0058594
        k(   53) = (  -0.1767767  -0.5303301   0.5303301), wk =   0.0058594
        k(   54) = (  -0.1325825  -0.4861359   0.4861359), wk =   0.0058594
        k(   55) = (  -0.0883883  -0.4419417   0.4419417), wk =   0.0058594
        k(   56) = (  -0.0441942  -0.3977476   0.3977476), wk =   0.0058594
        k(   57) = (   0.0000000  -0.3535534   0.3535534), wk =   0.0029297
        k(   58) = (   0.4419417   0.0000000   0.0000000), wk =   0.0014648
        k(   59) = (   0.4861359   0.0441942  -0.0441942), wk =   0.0058594
        k(   60) = (   0.5303301   0.0883883  -0.0883883), wk =   0.0058594
        k(   61) = (  -0.1325825  -0.5745243   0.5745243), wk =   0.0058594
        k(   62) = (  -0.0883883  -0.5303301   0.5303301), wk =   0.0058594
        k(   63) = (  -0.0441942  -0.4861359   0.4861359), wk =   0.0058594
        k(   64) = (   0.0000000  -0.4419417   0.4419417), wk =   0.0029297
        k(   65) = (   0.5303301   0.0000000   0.0000000), wk =   0.0014648
        k(   66) = (   0.5745243   0.0441942  -0.0441942), wk =   0.0058594
        k(   67) = (  -0.0883883  -0.6187184   0.6187184), wk =   0.0058594
        k(   68) = (  -0.0441942  -0.5745243   0.5745243), wk =   0.0058594
        k(   69) = (   0.0000000  -0.5303301   0.5303301), wk =   0.0029297
        k(   70) = (   0.6187184   0.0000000   0.0000000), wk =   0.0014648
        k(   71) = (  -0.0441942  -0.6629126   0.6629126), wk =   0.0058594
        k(   72) = (   0.0000000  -0.6187184   0.6187184), wk =   0.0029297
        k(   73) = (  -0.7071068   0.0000000   0.0000000), wk =   0.0007324
        k(   74) = (   0.1767767   0.0883883   0.0000000), wk =   0.0058594
        k(   75) = (   0.2209709   0.1325825  -0.0441942), wk =   0.0117188
        k(   76) = (   0.2651650   0.1767767  -0.0883883), wk =   0.0117188
        k(   77) = (   0.3093592   0.2209709  -0.1325825), wk =   0.0117188
        k(   78) = (   0.3535534   0.2651650  -0.1767767), wk =   0.0117188
        k(   79) = (  -0.3093592  -0.3977476   0.4861359), wk =   0.0117188
        k(   80) = (  -0.2651650  -0.3535534   0.4419417), wk =   0.0058594
        k(   81) = (   0.2651650   0.0883883   0.0000000), wk =   0.0058594
        k(   82) = (   0.3093592   0.1325825  -0.0441942), wk =   0.0117188
        k(   83) = (   0.3535534   0.1767767  -0.0883883), wk =   0.0117188
        k(   84) = (   0.3977476   0.2209709  -0.1325825), wk =   0.0117188
        k(   85) = (  -0.2651650  -0.4419417   0.5303301), wk =   0.0117188
        k(   86) = (  -0.2209709  -0.3977476   0.4861359), wk =   0.0117188
        k(   87) = (  -0.1767767  -0.3535534   0.4419417), wk =   0.0117188
        k(   88) = (  -0.1325825  -0.3093592   0.3977476), wk =   0.0117188
        k(   89) = (  -0.0883883  -0.2651650   0.3535534), wk =   0.0117188
        k(   90) = (  -0.0441942  -0.2209709   0.3093592), wk =   0.0117188
        k(   91) = (   0.0000000  -0.1767767   0.2651650), wk =   0.0058594
        k(   92) = (   0.3535534   0.0883883   0.0000000), wk =   0.0058594
        k(   93) = (   0.3977476   0.1325825  -0.0441942), wk =   0.0117188
        k(   94) = (   0.4419417   0.1767767  -0.0883883), wk =   0.0117188
        k(   95) = (  -0.2209709  -0.4861359   0.5745243), wk =   0.0117188
        k(   96) = (  -0.1767767  -0.4419417   0.5303301), wk =   0.0117188
        k(   97) = (  -0.1325825  -0.3977476   0.4861359), wk =   0.0117188
        k(   98) = (  -0.0883883  -0.3535534   0.4419417), wk =   0.0117188
        k(   99) = (  -0.0441942  -0.3093592   0.3977476), wk =   0.0117188
        k(  100) = (   0.0000000  -0.2651650   0.3535534), wk =   0.0058594
        k(  101) = (   0.4419417   0.0883883   0.0000000), wk =   0.0058594
        k(  102) = (   0.4861359   0.1325825  -0.0441942), wk =   0.0117188
        k(  103) = (  -0.1767767  -0.5303301   0.6187184), wk =   0.0117188
        k(  104) = (  -0.1325825  -0.4861359   0.5745243), wk =   0.0117188
        k(  105) = (  -0.0883883  -0.4419417   0.5303301), wk =   0.0117188
        k(  106) = (  -0.0441942  -0.3977476   0.4861359), wk =   0.0117188
        k(  107) = (   0.0000000  -0.3535534   0.4419417), wk =   0.0058594
        k(  108) = (   0.5303301   0.0883883   0.0000000), wk =   0.0058594
        k(  109) = (  -0.1325825  -0.5745243   0.6629126), wk =   0.0117188
        k(  110) = (  -0.0883883  -0.5303301   0.6187184), wk =   0.0117188
        k(  111) = (  -0.0441942  -0.4861359   0.5745243), wk =   0.0117188
        k(  112) = (   0.0000000  -0.4419417   0.5303301), wk =   0.0058594
        k(  113) = (  -0.0883883  -0.6187184   0.7071068), wk =   0.0058594
        k(  114) = (  -0.0441942  -0.5745243   0.6629126), wk =   0.0117188
        k(  115) = (  -0.0000000  -0.5303301   0.6187184), wk =   0.0058594
        k(  116) = (  -0.7071068   0.0883883   0.0000000), wk =   0.0029297
        k(  117) = (   0.3535534   0.1767767   0.0000000), wk =   0.0058594
        k(  118) = (   0.3977476   0.2209709  -0.0441942), wk =   0.0117188
        k(  119) = (  -0.2651650  -0.4419417   0.6187184), wk =   0.0117188
        k(  120) = (  -0.2209709  -0.3977476   0.5745243), wk =   0.0117188
        k(  121) = (  -0.1767767  -0.3535534   0.5303301), wk =   0.0058594
        k(  122) = (   0.4419417   0.1767767   0.0000000), wk =   0.0058594
        k(  123) = (  -0.2209709  -0.4861359   0.6629126), wk =   0.0117188
        k(  124) = (  -0.1767767  -0.4419417   0.6187184), wk =   0.0117188
        k(  125) = (  -0.1325825  -0.3977476   0.5745243), wk =   0.0117188
        k(  126) = (  -0.0883883  -0.3535534   0.5303301), wk =   0.0117188
        k(  127) = (  -0.0441942  -0.3093592   0.4861359), wk =   0.0117188
        k(  128) = (   0.0000000  -0.2651650   0.4419417), wk =   0.0058594
        k(  129) = (  -0.1767767  -0.5303301   0.7071068), wk =   0.0058594
        k(  130) = (  -0.1325825  -0.4861359   0.6629126), wk =   0.0117188
        k(  131) = (  -0.0883883  -0.4419417   0.6187184), wk =   0.0117188
        k(  132) = (  -0.0441942  -0.3977476   0.5745243), wk =   0.0117188
        k(  133) = (   0.0000000  -0.3535534   0.5303301), wk =   0.0058594
        k(  134) = (  -0.0883883  -0.5303301   0.7071068), wk =   0.0058594
        k(  135) = (  -0.0441942  -0.4861359   0.6629126), wk =   0.0117188
        k(  136) = (   0.0000000  -0.4419417   0.6187184), wk =   0.0058594
        k(  137) = (  -0.7071068   0.1767767   0.0000000), wk =   0.0029297
        k(  138) = (  -0.1767767  -0.4419417   0.7071068), wk =   0.0058594
        k(  139) = (  -0.1325825  -0.3977476   0.6629126), wk =   0.0117188
        k(  140) = (  -0.0883883  -0.3535534   0.6187184), wk =   0.0058594
        k(  141) = (  -0.0883883  -0.4419417   0.7071068), wk =   0.0058594
        k(  142) = (  -0.0441942  -0.3977476   0.6629126), wk =   0.0117188
        k(  143) = (  -0.0000000  -0.3535534   0.6187184), wk =   0.0058594
        k(  144) = (  -0.7071068   0.2651650   0.0000000), wk =   0.0029297
        k(  145) = (  -0.7071068   0.3535534   0.0000000), wk =   0.0014648

                       cryst. coord.
        k(    1) = (   0.0000000   0.0000000   0.0000000), wk =   0.0002441
        k(    2) = (   0.0000000   0.0000000   0.0625000), wk =   0.0019531
        k(    3) = (   0.0000000   0.0000000   0.1250000), wk =   0.0019531
        k(    4) = (   0.0000000   0.0000000   0.1875000), wk =   0.0019531
        k(    5) = (   0.0000000   0.0000000   0.2500000), wk =   0.0019531
        k(    6) = (   0.0000000   0.0000000   0.3125000), wk =   0.0019531
        k(    7) = (   0.0000000   0.0000000   0.3750000), wk =   0.0019531
        k(    8) = (   0.0000000   0.0000000   0.4375000), wk =   0.0019531
        k(    9) = (   0.0000000   0.0000000  -0.5000000), wk =   0.0009766
        k(   10) = (   0.0000000   0.0625000   0.0625000), wk =   0.0014648
        k(   11) = (   0.0000000   0.0625000   0.1250000), wk =   0.0058594
        k(   12) = (   0.0000000   0.0625000   0.1875000), wk =   0.0058594
        k(   13) = (   0.0000000   0.0625000   0.2500000), wk =   0.0058594
        k(   14) = (   0.0000000   0.0625000   0.3125000), wk =   0.0058594
        k(   15) = (   0.0000000   0.0625000   0.3750000), wk =   0.0058594
        k(   16) = (   0.0000000   0.0625000   0.4375000), wk =   0.0058594
        k(   17) = (   0.0000000   0.0625000  -0.5000000), wk =   0.0058594
        k(   18) = (   0.0000000   0.0625000  -0.4375000), wk =   0.0058594
        k(   19) = (   0.0000000   0.0625000  -0.3750000), wk =   0.0058594
        k(   20) = (   0.0000000   0.0625000  -0.3125000), wk =   0.0058594
        k(   21) = (   0.0000000   0.0625000  -0.2500000), wk =   0.0058594
        k(   22) = (   0.0000000   0.0625000  -0.1875000), wk =   0.0058594
        k(   23) = (   0.0000000   0.0625000  -0.1250000), wk =   0.0058594
        k(   24) = (   0.0000000   0.0625000  -0.0625000), wk =   0.0029297
        k(   25) = (   0.0000000   0.1250000   0.1250000), wk =   0.0014648
        k(   26) = (   0.0000000   0.1250000   0.1875000), wk =   0.0058594
        k(   27) = (   0.0000000   0.1250000   0.2500000), wk =   0.0058594
        k(   28) = (   0.0000000   0.1250000   0.3125000), wk =   0.0058594
        k(   29) = (   0.0000000   0.1250000   0.3750000), wk =   0.0058594
        k(   30) = (   0.0000000   0.1250000   0.4375000), wk =   0.0058594
        k(   31) = (   0.0000000   0.1250000  -0.5000000), wk =   0.0058594
        k(   32) = (   0.0000000   0.1250000  -0.4375000), wk =   0.0058594
        k(   33) = (   0.0000000   0.1250000  -0.3750000), wk =   0.0058594
        k(   34) = (   0.0000000   0.1250000  -0.3125000), wk =   0.0058594
        k(   35) = (   0.0000000   0.1250000  -0.2500000), wk =   0.0058594
        k(   36) = (   0.0000000   0.1250000  -0.1875000), wk =   0.0058594
        k(   37) = (   0.0000000   0.1250000  -0.1250000), wk =   0.0029297
        k(   38) = (   0.0000000   0.1875000   0.1875000), wk =   0.0014648
        k(   39) = (   0.0000000   0.1875000   0.2500000), wk =   0.0058594
        k(   40) = (   0.0000000   0.1875000   0.3125000), wk =   0.0058594
        k(   41) = (   0.0000000   0.1875000   0.3750000), wk =   0.0058594
        k(   42) = (   0.0000000   0.1875000   0.4375000), wk =   0.0058594
        k(   43) = (   0.0000000   0.1875000  -0.5000000), wk =   0.0058594
        k(   44) = (   0.0000000   0.1875000  -0.4375000), wk =   0.0058594
        k(   45) = (   0.0000000   0.1875000  -0.3750000), wk =   0.0058594
        k(   46) = (   0.0000000   0.1875000  -0.3125000), wk =   0.0058594
        k(   47) = (   0.0000000   0.1875000  -0.2500000), wk =   0.0058594
        k(   48) = (   0.0000000   0.1875000  -0.1875000), wk =   0.0029297
        k(   49) = (   0.0000000   0.2500000   0.2500000), wk =   0.0014648
        k(   50) = (   0.0000000   0.2500000   0.3125000), wk =   0.0058594
        k(   51) = (   0.0000000   0.2500000   0.3750000), wk =   0.0058594
        k(   52) = (   0.0000000   0.2500000   0.4375000), wk =   0.0058594
        k(   53) = (   0.0000000   0.2500000  -0.5000000), wk =   0.0058594
        k(   54) = (   0.0000000   0.2500000  -0.4375000), wk =   0.0058594
        k(   55) = (   0.0000000   0.2500000  -0.3750000), wk =   0.0058594
        k(   56) = (   0.0000000   0.2500000  -0.3125000), wk =   0.0058594
        k(   57) = (   0.0000000   0.2500000  -0.2500000), wk =   0.0029297
        k(   58) = (   0.0000000   0.3125000   0.3125000), wk =   0.0014648
        k(   59) = (   0.0000000   0.3125000   0.3750000), wk =   0.0058594
        k(   60) = (   0.0000000   0.3125000   0.4375000), wk =   0.0058594
        k(   61) = (   0.0000000   0.3125000  -0.5000000), wk =   0.0058594
        k(   62) = (   0.0000000   0.3125000  -0.4375000), wk =   0.0058594
        k(   63) = (   0.0000000   0.3125000  -0.3750000), wk =   0.0058594
        k(   64) = (   0.0000000   0.3125000  -0.3125000), wk =   0.0029297
        k(   65) = (   0.0000000   0.3750000   0.3750000), wk =   0.0014648
        k(   66) = (   0.0000000   0.3750000   0.4375000), wk =   0.0058594
        k(   67) = (   0.0000000   0.3750000  -0.5000000), wk =   0.0058594
        k(   68) = (   0.0000000   0.3750000  -0.4375000), wk =   0.0058594
        k(   69) = (   0.0000000   0.3750000  -0.3750000), wk =   0.0029297
        k(   70) = (   0.0000000   0.4375000   0.4375000), wk =   0.0014648
        k(   71) = (   0.0000000   0.4375000  -0.5000000), wk =   0.0058594
        k(   72) = (   0.0000000   0.4375000  -0.4375000), wk =   0.0029297
        k(   73) = (   0.0000000  -0.5000000  -0.5000000), wk =   0.0007324
        k(   74) = (   0.0625000   0.1250000   0.1875000), wk =   0.0058594
        k(   75) = (   0.0625000   0.1250000   0.2500000), wk =   0.0117188
        k(   76) = (   0.0625000   0.1250000   0.3125000), wk =   0.0117188
        k(   77) = (   0.0625000   0.1250000   0.3750000), wk =   0.0117188
        k(   78) = (   0.0625000   0.1250000   0.4375000), wk =   0.0117188
        k(   79) = (   0.0625000   0.1250000  -0.5000000), wk =   0.0117188
        k(   80) = (   0.0625000   0.1250000  -0.4375000), wk =   0.0058594
        k(   81) = (   0.0625000   0.1875000   0.2500000), wk =   0.0058594
        k(   82) = (   0.0625000   0.1875000   0.3125000), wk =   0.0117188
        k(   83) = (   0.0625000   0.1875000   0.3750000), wk =   0.0117188
        k(   84) = (   0.0625000   0.1875000   0.4375000), wk =   0.0117188
        k(   85) = (   0.0625000   0.1875000  -0.5000000), wk =   0.0117188
        k(   86) = (   0.0625000   0.1875000  -0.4375000), wk =   0.0117188
        k(   87) = (   0.0625000   0.1875000  -0.3750000), wk =   0.0117188
        k(   88) = (   0.0625000   0.1875000  -0.3125000), wk =   0.0117188
        k(   89) = (   0.0625000   0.1875000  -0.2500000), wk =   0.0117188
        k(   90) = (   0.0625000   0.1875000  -0.1875000), wk =   0.0117188
        k(   91) = (   0.0625000   0.1875000  -0.1250000), wk =   0.0058594
        k(   92) = (   0.0625000   0.2500000   0.3125000), wk =   0.0058594
        k(   93) = (   0.0625000   0.2500000   0.3750000), wk =   0.0117188
        k(   94) = (   0.0625000   0.2500000   0.4375000), wk =   0.0117188
        k(   95) = (   0.0625000   0.2500000  -0.5000000), wk =   0.0117188
        k(   96) = (   0.0625000   0.2500000  -0.4375000), wk =   0.0117188
        k(   97) = (   0.0625000   0.2500000  -0.3750000), wk =   0.0117188
        k(   98) = (   0.0625000   0.2500000  -0.3125000), wk =   0.0117188
        k(   99) = (   0.0625000   0.2500000  -0.2500000), wk =   0.0117188
        k(  100) = (   0.0625000   0.2500000  -0.1875000), wk =   0.0058594
        k(  101) = (   0.0625000   0.3125000   0.3750000), wk =   0.0058594
        k(  102) = (   0.0625000   0.3125000   0.4375000), wk =   0.0117188
        k(  103) = (   0.0625000   0.3125000  -0.5000000), wk =   0.0117188
        k(  104) = (   0.0625000   0.3125000  -0.4375000), wk =   0.0117188
        k(  105) = (   0.0625000   0.3125000  -0.3750000), wk =   0.0117188
        k(  106) = (   0.0625000   0.3125000  -0.3125000), wk =   0.0117188
        k(  107) = (   0.0625000   0.3125000  -0.2500000), wk =   0.0058594
        k(  108) = (   0.0625000   0.3750000   0.4375000), wk =   0.0058594
        k(  109) = (   0.0625000   0.3750000  -0.5000000), wk =   0.0117188
        k(  110) = (   0.0625000   0.3750000  -0.4375000), wk =   0.0117188
        k(  111) = (   0.0625000   0.3750000  -0.3750000), wk =   0.0117188
        k(  112) = (   0.0625000   0.3750000  -0.3125000), wk =   0.0058594
        k(  113) = (   0.0625000   0.4375000  -0.5000000), wk =   0.0058594
        k(  114) = (   0.0625000   0.4375000  -0.4375000), wk =   0.0117188
        k(  115) = (   0.0625000   0.4375000  -0.3750000), wk =   0.0058594
        k(  116) = (   0.0625000  -0.5000000  -0.4375000), wk =   0.0029297
        k(  117) = (   0.1250000   0.2500000   0.3750000), wk =   0.0058594
        k(  118) = (   0.1250000   0.2500000   0.4375000), wk =   0.0117188
        k(  119) = (   0.1250000   0.2500000  -0.5000000), wk =   0.0117188
        k(  120) = (   0.1250000   0.2500000  -0.4375000), wk =   0.0117188
        k(  121) = (   0.1250000   0.2500000  -0.3750000), wk =   0.0058594
        k(  122) = (   0.1250000   0.3125000   0.4375000), wk =   0.0058594
        k(  123) = (   0.1250000   0.3125000  -0.5000000), wk =   0.0117188
        k(  124) = (   0.1250000   0.3125000  -0.4375000), wk =   0.0117188
        k(  125) = (   0.1250000   0.3125000  -0.3750000), wk =   0.0117188
        k(  126) = (   0.1250000   0.3125000  -0.3125000), wk =   0.0117188
        k(  127) = (   0.1250000   0.3125000  -0.2500000), wk =   0.0117188
        k(  128) = (   0.1250000   0.3125000  -0.1875000), wk =   0.0058594
        k(  129) = (   0.1250000   0.3750000  -0.5000000), wk =   0.0058594
        k(  130) = (   0.1250000   0.3750000  -0.4375000), wk =   0.0117188
        k(  131) = (   0.1250000   0.3750000  -0.3750000), wk =   0.0117188
        k(  132) = (   0.1250000   0.3750000  -0.3125000), wk =   0.0117188
        k(  133) = (   0.1250000   0.3750000  -0.2500000), wk =   0.0058594
        k(  134) = (   0.1250000   0.4375000  -0.4375000), wk =   0.0058594
        k(  135) = (   0.1250000   0.4375000  -0.3750000), wk =   0.0117188
        k(  136) = (   0.1250000   0.4375000  -0.3125000), wk =   0.0058594
        k(  137) = (   0.1250000  -0.5000000  -0.3750000), wk =   0.0029297
        k(  138) = (   0.1875000   0.3750000  -0.4375000), wk =   0.0058594
        k(  139) = (   0.1875000   0.3750000  -0.3750000), wk =   0.0117188
        k(  140) = (   0.1875000   0.3750000  -0.3125000), wk =   0.0058594
        k(  141) = (   0.1875000   0.4375000  -0.3750000), wk =   0.0058594
        k(  142) = (   0.1875000   0.4375000  -0.3125000), wk =   0.0117188
        k(  143) = (   0.1875000   0.4375000  -0.2500000), wk =   0.0058594
        k(  144) = (   0.1875000  -0.5000000  -0.3125000), wk =   0.0029297
        k(  145) = (   0.2500000  -0.5000000  -0.2500000), wk =   0.0014648

     Dense  grid:    31283 G-vectors     FFT dimensions: (  45,  45,  45)

     Largest allocated arrays     est. size (Mb)     dimensions
        Kohn-Sham Wavefunctions         0.28 Mb     (     518,   36)
        NL pseudopotentials             0.27 Mb     (     259,   68)
        Each V/rho on FFT grid          0.09 Mb     (    6075)
        Each G-vector array             0.01 Mb     (    1958)
        G-vector shells                 0.00 Mb     (     301)
     Largest temporary arrays     est. size (Mb)     dimensions
        Auxiliary wavefunctions         1.14 Mb     (     518,  144)
        Each subspace H/S matrix        0.32 Mb     (     144,  144)
        Each <psi_i|beta_j> matrix      0.07 Mb     (      68,   2,   36)
        Arrays for rho mixing           0.74 Mb     (    6075,    8)

     Check: negative/imaginary core charge=   -0.000001    0.000000

     Initial potential from superposition of free atoms

     starting charge   27.99781, renormalised to   28.00000
     Starting wfc are   36 randomized atomic wfcs

     total cpu time spent up to now is        5.4 secs

     Self-consistent Calculation

     iteration #  1     ecut=    60.00 Ry     beta=0.70
     Davidson diagonalization with overlap
     ethr =  1.00E-02,  avg # of iterations =  3.4

     Threshold (ethr) on eigenvalues was too large:
     Diagonalizing with lowered threshold

     Davidson diagonalization with overlap
     ethr =  5.71E-05,  avg # of iterations =  3.4

     total cpu time spent up to now is       38.2 secs

     total energy              =    -325.84623929 Ry
     Harris-Foulkes estimate   =    -325.84816074 Ry
     estimated scf accuracy    <       0.01895824 Ry

     iteration #  2     ecut=    60.00 Ry     beta=0.70
     Davidson diagonalization with overlap
     ethr =  6.77E-05,  avg # of iterations =  1.0

     total cpu time spent up to now is       50.6 secs

     total energy              =    -325.84684404 Ry
     Harris-Foulkes estimate   =    -325.84695094 Ry
     estimated scf accuracy    <       0.00153153 Ry

     iteration #  3     ecut=    60.00 Ry     beta=0.70
     Davidson diagonalization with overlap
     ethr =  5.47E-06,  avg # of iterations =  2.3

     total cpu time spent up to now is       67.4 secs

     total energy              =    -325.84706661 Ry
     Harris-Foulkes estimate   =    -325.84710891 Ry
     estimated scf accuracy    <       0.00008696 Ry

     iteration #  4     ecut=    60.00 Ry     beta=0.70
     Davidson diagonalization with overlap
     ethr =  3.11E-07,  avg # of iterations =  2.0

     total cpu time spent up to now is       82.9 secs

     total energy              =    -325.84708816 Ry
     Harris-Foulkes estimate   =    -325.84708632 Ry
     estimated scf accuracy    <       0.00000296 Ry

     iteration #  5     ecut=    60.00 Ry     beta=0.70
     Davidson diagonalization with overlap
     ethr =  1.06E-08,  avg # of iterations =  2.0

     total cpu time spent up to now is       96.8 secs

     End of self-consistent calculation

          k = 0.0000 0.0000 0.0000 (  3839 PWs)   bands (ev):

   -15.1196 -15.1196 -15.1196 -15.1196 -15.0402 -15.0402 -15.0402 -15.0402
   -14.1932 -14.1932 -14.0252 -14.0252 -14.0252 -14.0252 -13.9878 -13.9878
   -13.9878 -13.9878 -13.8839 -13.8839  -3.1686  -3.1686   5.7268   5.7268
     6.5525   6.5525   7.2008   7.2008   7.2008   7.2008   8.7348   8.7348
     9.2047   9.2047   9.2047   9.2047

     occupation numbers 
     1.0000   1.0000   1.0000   1.0000   1.0000   1.0000   1.0000   1.0000
     1.0000   1.0000   1.0000   1.0000   1.0000   1.0000   1.0000   1.0000
     1.0000   1.0000   1.0000   1.0000   1.0000   1.0000   1.0000   1.0000
     1.0000   1.0000   0.0000   0.0000   0.0000   0.0000   0.0000   0.0000
     0.0000   0.0000   0.0000   0.0000

          k = 0.0442 0.0442-0.0442 (  3879 PWs)   bands (ev):

   -15.1202 -15.1202 -15.1192 -15.1192 -15.0416 -15.0416 -15.0399 -15.0399
   -14.1917 -14.1917 -14.0305 -14.0305 -14.0288 -14.0288 -13.9848 -13.9848
   -13.9838 -13.9838 -13.8853 -13.8853  -3.1339  -3.1339   5.3178   5.3178
     6.5988   6.5988   7.1260   7.1260   7.2623   7.2623   8.8919   8.8919
     9.2877   9.2877   9.3017   9.3017

     occupation numbers 
     1.0000   1.0000   1.0000   1.0000   1.0000   1.0000   1.0000   1.0000
     1.0000   1.0000   1.0000   1.0000   1.0000   1.0000   1.0000   1.0000
     1.0000   1.0000   1.0000   1.0000   1.0000   1.0000   1.0000   1.0000
     1.0000   1.0000   0.0000   0.0000   0.0000   0.0000   0.0000   0.0000
     0.0000   0.0000   0.0000   0.0000

          k = 0.0884 0.0884-0.0884 (  3888 PWs)   bands (ev):

   -15.1214 -15.1214 -15.1170 -15.1170 -15.0437 -15.0437 -15.0386 -15.0386
   -14.1867 -14.1867 -14.0415 -14.0415 -14.0360 -14.0360 -13.9773 -13.9773
   -13.9748 -13.9748 -13.8881 -13.8881  -3.0304  -3.0304   4.5547   4.5547
     6.4919   6.4919   6.9441   6.9441   7.3101   7.3101   9.2183   9.2183
     9.5389   9.5389   9.6432   9.6432

     occupation numbers 
     1.0000   1.0000   1.0000   1.0000   1.0000   1.0000   1.0000   1.0000
     1.0000   1.0000   1.0000   1.0000   1.0000   1.0000   1.0000   1.0000
     1.0000   1.0000   1.0000   1.0000   1.0000   1.0000   1.0000   1.0000
     1.0000   1.0000   1.0000   1.0000   0.0000   0.0000   0.0000   0.0000
     0.0000   0.0000   0.0000   0.0000

          k = 0.1326 0.1326-0.1326 (  3900 PWs)   bands (ev):

   -15.1230 -15.1230 -15.1138 -15.1138 -15.0471 -15.0471 -15.0364 -15.0364
   -14.1790 -14.1790 -14.0545 -14.0545 -14.0439 -14.0439 -13.9686 -13.9685
   -13.9651 -13.9651 -13.8927 -13.8927  -2.8612  -2.8612   3.7267   3.7267
     6.2963   6.2963   6.7258   6.7258   7.2321   7.2321   9.5047   9.5048
     9.8133   9.8133  10.3118  10.3118

     occupation numbers 
     1.0000   1.0000   1.0000   1.0000   1.0000   1.0000   1.0000   1.0000
     1.0000   1.0000   1.0000   1.0000   1.0000   1.0000   1.0000   1.0000
     1.0000   1.0000   1.0000   1.0000   1.0000   1.0000   1.0000   1.0000
     1.0000   1.0000   1.0000   1.0000   0.0000   0.0000   0.0000   0.0000
     0.0000   0.0000   0.0000   0.0000

          k = 0.1768 0.1768-0.1768 (  3912 PWs)   bands (ev):

   -15.1247 -15.1247 -15.1093 -15.1093 -15.0519 -15.0519 -15.0341 -15.0341
   -14.1689 -14.1689 -14.0680 -14.0680 -14.0513 -14.0513 -13.9604 -13.9604
   -13.9557 -13.9557 -13.8983 -13.8983  -2.6326  -2.6326   2.9167   2.9167
     6.0961   6.0961   6.5168   6.5168   7.0938   7.0938   9.7368   9.7368
    10.0359  10.0359  11.1204  11.1205

     occupation numbers 
     1.0000   1.0000   1.0000   1.0000   1.0000   1.0000   1.0000   1.0000
     1.0000   1.0000   1.0000   1.0000   1.0000   1.0000   1.0000   1.0000
     1.0000   1.0000   1.0000   1.0000   1.0000   1.0000   1.0000   1.0000
     1.0000   1.0000   1.0000   1.0000   0.0000   0.0000   0.0000   0.0000
     0.0000   0.0000   0.0000   0.0000

          k = 0.2210 0.2210-0.2210 (  3897 PWs)   bands (ev):

   -15.1264 -15.1264 -15.1034 -15.1034 -15.0571 -15.0571 -15.0317 -15.0317
   -14.1571 -14.1571 -14.0808 -14.0808 -14.0578 -14.0578 -13.9529 -13.9529
   -13.9472 -13.9472 -13.9045 -13.9045  -2.3576  -2.3576   2.1697   2.1697
     5.9241   5.9241   6.3407   6.3407   6.9550   6.9550   9.8871   9.8871
    10.1621  10.1621  11.9817  11.9817

     occupation numbers 
     1.0000   1.0000   1.0000   1.0000   1.0000   1.0000   1.0000   1.0000
     1.0000   1.0000   1.0000   1.0000   1.0000   1.0000   1.0000   1.0000
     1.0000   1.0000   1.0000   1.0000   1.0000   1.0000   1.0000   1.0000
     1.0000   1.0000   1.0000   1.0000   0.1250   0.1250   0.0000   0.0000
     0.0000   0.0000   0.0000   0.0000

          k = 0.2652 0.2652-0.2652 (  3903 PWs)   bands (ev):

   -15.1276 -15.1276 -15.0974 -15.0974 -15.0631 -15.0631 -15.0299 -15.0299
   -14.1448 -14.1448 -14.0936 -14.0936 -14.0625 -14.0625 -13.9475 -13.9475
   -13.9395 -13.9395 -13.9115 -13.9115  -2.0642  -2.0642   1.5303   1.5303
     5.7947   5.7947   6.2093   6.2093   6.8446   6.8446   9.9577   9.9577
    10.2055  10.2055  12.6390  12.6391

     occupation numbers 
     1.0000   1.0000   1.0000   1.0000   1.0000   1.0000   1.0000   1.0000
     1.0000   1.0000   1.0000   1.0000   1.0000   1.0000   1.0000   1.0000
     1.0000   1.0000   1.0000   1.0000   1.0000   1.0000   1.0000   1.0000
     1.0000   1.0000   1.0000   1.0000   1.0000   1.0000   0.0000   0.0000
     0.0000   0.0000   0.0000   0.0000

          k = 0.3094 0.3094-0.3094 (  3903 PWs)   bands (ev):

   -15.1282 -15.1282 -15.0921 -15.0921 -15.0684 -15.0684 -15.0287 -15.0287
   -14.1327 -14.1327 -14.1056 -14.1056 -14.0653 -14.0653 -13.9441 -13.9441
   -13.9326 -13.9326 -13.9183 -13.9183  -1.8126  -1.8126   1.0680   1.0680
     5.7150   5.7150   6.1286   6.1286   6.7749   6.7749   9.9800   9.9800
    10.2088  10.2088  12.6651  12.6651

     occupation numbers 
     1.0000   1.0000   1.0000   1.0000   1.0000   1.0000   1.0000   1.0000
     1.0000   1.0000   1.0000   1.0000   1.0000   1.0000   1.0000   1.0000
     1.0000   1.0000   1.0000   1.0000   1.0000   1.0000   1.0000   1.0000
     1.0000   1.0000   1.0000   1.0000   1.0000   1.0000   0.0000   0.0000
     0.0000   0.0000   0.0000   0.0000

          k =-0.3536-0.3536 0.3536 (  3906 PWs)   bands (ev):

   -15.1287 -15.1287 -15.0891 -15.0891 -15.0715 -15.0715 -15.0281 -15.0281
   -14.1242 -14.1242 -14.1139 -14.1139 -14.0667 -14.0667 -13.9426 -13.9426
   -13.9277 -13.9277 -13.9233 -13.9233  -1.7062  -1.7062   0.8909   0.8909
     5.6880   5.6880   6.1014   6.1014   6.7513   6.7513   9.9838   9.9838
    10.2060  10.2060  12.6402  12.6402

     occupation numbers 
     1.0000   1.0000   1.0000   1.0000   1.0000   1.0000   1.0000   1.0000
     1.0000   1.0000   1.0000   1.0000   1.0000   1.0000   1.0000   1.0000
     1.0000   1.0000   1.0000   1.0000   1.0000   1.0000   1.0000   1.0000
     1.0000   1.0000   1.0000   1.0000   1.0000   1.0000   0.0000   0.0000
     0.0000   0.0000   0.0000   0.0000

          k = 0.0884 0.0000 0.0000 (  3883 PWs)   bands (ev):

   -15.1201 -15.1201 -15.1192 -15.1192 -15.0415 -15.0415 -15.0401 -15.0401
   -14.1912 -14.1912 -14.0329 -14.0329 -14.0287 -14.0287 -13.9840 -13.9840
   -13.9824 -13.9824 -13.8857 -13.8857  -3.1222  -3.1222   5.2371   5.2371
     6.5314   6.5314   6.9456   6.9456   7.5193   7.5193   8.8098   8.8098
     9.3010   9.3010   9.4356   9.4356

     occupation numbers 
     1.0000   1.0000   1.0000   1.0000   1.0000   1.0000   1.0000   1.0000
     1.0000   1.0000   1.0000   1.0000   1.0000   1.0000   1.0000   1.0000
     1.0000   1.0000   1.0000   1.0000   1.0000   1.0000   1.0000   1.0000
     1.0000   1.0000   1.0000   1.0000   0.0000   0.0000   0.0000   0.0000
     0.0000   0.0000   0.0000   0.0000

          k = 0.1326 0.0442-0.0442 (  3896 PWs)   bands (ev):

   -15.1208 -15.1208 -15.1177 -15.1177 -15.0431 -15.0431 -15.0393 -15.0393
   -14.1872 -14.1872 -14.0420 -14.0420 -14.0336 -14.0336 -13.9789 -13.9789
   -13.9752 -13.9752 -13.8879 -13.8879  -3.0415  -3.0415   4.6715   4.6715
     6.3921   6.3921   6.7351   6.7351   7.7224   7.7224   8.8770   8.8770
     9.5871   9.5871   9.7372   9.7372

     occupation numbers 
     1.0000   1.0000   1.0000   1.0000   1.0000   1.0000   1.0000   1.0000
     1.0000   1.0000   1.0000   1.0000   1.0000   1.0000   1.0000   1.0000
     1.0000   1.0000   1.0000   1.0000   1.0000   1.0000   1.0000   1.0000
     1.0000   1.0000   1.0000   1.0000   0.0000   0.0000   0.0000   0.0000
     0.0000   0.0000   0.0000   0.0000

          k = 0.1768 0.0884-0.0884 (  3893 PWs)   bands (ev):

   -15.1223 -15.1223 -15.1149 -15.1149 -15.0459 -15.0459 -15.0371 -15.0371
   -14.1804 -14.1804 -14.0536 -14.0536 -14.0406 -14.0406 -13.9725 -13.9725
   -13.9652 -13.9652 -13.8914 -13.8914  -2.8937  -2.8937   3.9192   3.9192
     6.1874   6.1874   6.5168   6.5168   7.7183   7.7183   9.1201   9.1201
     9.9203   9.9203  10.2503  10.2503

     occupation numbers 
     1.0000   1.0000   1.0000   1.0000   1.0000   1.0000   1.0000   1.0000
     1.0000   1.0000   1.0000   1.0000   1.0000   1.0000   1.0000   1.0000
     1.0000   1.0000   1.0000   1.0000   1.0000   1.0000   1.0000   1.0000
     1.0000   1.0000   1.0000   1.0000   0.0000   0.0000   0.0000   0.0000
     0.0000   0.0000   0.0000   0.0000

          k = 0.2210 0.1326-0.1326 (  3920 PWs)   bands (ev):

   -15.1242 -15.1242 -15.1108 -15.1108 -15.0505 -15.0505 -15.0348 -15.0348
   -14.1712 -14.1712 -14.0662 -14.0662 -14.0482 -14.0482 -13.9661 -13.9661
   -13.9552 -13.9552 -13.8966 -13.8966  -2.6839  -2.6839   3.1326   3.1326
     5.9717   5.9717   6.2992   6.2992   7.6016   7.6016   9.4250   9.4250
    10.1753  10.1753  10.8885  10.8885

     occupation numbers 
     1.0000   1.0000   1.0000   1.0000   1.0000   1.0000   1.0000   1.0000
     1.0000   1.0000   1.0000   1.0000   1.0000   1.0000   1.0000   1.0000
     1.0000   1.0000   1.0000   1.0000   1.0000   1.0000   1.0000   1.0000
     1.0000   1.0000   1.0000   1.0000   0.0000   0.0000   0.0000   0.0000
     0.0000   0.0000   0.0000   0.0000

          k = 0.2652 0.1768-0.1768 (  3914 PWs)   bands (ev):

   -15.1258 -15.1258 -15.1054 -15.1054 -15.0556 -15.0556 -15.0325 -15.0324
   -14.1601 -14.1601 -14.0786 -14.0786 -14.0548 -14.0548 -13.9602 -13.9602
   -13.9459 -13.9459 -13.9020 -13.9020  -2.4223  -2.4223   2.3801   2.3801
     5.7771   5.7771   6.1130   6.1130   7.4584   7.4584   9.6788   9.6788
    10.3159  10.3159  11.5647  11.5647

     occupation numbers 
     1.0000   1.0000   1.0000   1.0000   1.0000   1.0000   1.0000   1.0000
     1.0000   1.0000   1.0000   1.0000   1.0000   1.0000   1.0000   1.0000
     1.0000   1.0000   1.0000   1.0000   1.0000   1.0000   1.0000   1.0000
     1.0000   1.0000   1.0000   1.0000   0.0000   0.0000   0.0000   0.0000
     0.0000   0.0000   0.0000   0.0000

          k = 0.3094 0.2210-0.2210 (  3910 PWs)   bands (ev):

   -15.1272 -15.1272 -15.0994 -15.0994 -15.0614 -15.0614 -15.0304 -15.0304
   -14.1481 -14.1481 -14.0904 -14.0904 -14.0602 -14.0602 -13.9554 -13.9554
   -13.9382 -13.9381 -13.9077 -13.9077  -2.1302  -2.1302   1.7104   1.7104
     5.6168   5.6168   5.9784   5.9784   7.3309   7.3309   9.8359   9.8359
    10.3485  10.3485  12.2289  12.2289

     occupation numbers 
     1.0000   1.0000   1.0000   1.0000   1.0000   1.0000   1.0000   1.0000
     1.0000   1.0000   1.0000   1.0000   1.0000   1.0000   1.0000   1.0000
     1.0000   1.0000   1.0000   1.0000   1.0000   1.0000   1.0000   1.0000
     1.0000   1.0000   1.0000   1.0000   0.0000   0.0000   0.0000   0.0000
     0.0000   0.0000   0.0000   0.0000

          k = 0.3536 0.2652-0.2652 (  3909 PWs)   bands (ev):

   -15.1281 -15.1281 -15.0936 -15.0936 -15.0671 -15.0671 -15.0289 -15.0289
   -14.1364 -14.1364 -14.1017 -14.1017 -14.0638 -14.0638 -13.9521 -13.9521
   -13.9322 -13.9322 -13.9128 -13.9128  -1.8544  -1.8544   1.1847   1.1847
     5.4984   5.4984   5.9041   5.9041   7.2379   7.2379   9.9205   9.9205
    10.3182  10.3182  12.6577  12.6577

     occupation numbers 
     1.0000   1.0000   1.0000   1.0000   1.0000   1.0000   1.0000   1.0000
     1.0000   1.0000   1.0000   1.0000   1.0000   1.0000   1.0000   1.0000
     1.0000   1.0000   1.0000   1.0000   1.0000   1.0000   1.0000   1.0000
     1.0000   1.0000   1.0000   1.0000   0.0000   0.0000   0.0000   0.0000
     0.0000   0.0000   0.0000   0.0000

          k =-0.3094-0.3977 0.3977 (  3918 PWs)   bands (ev):

   -15.1285 -15.1285 -15.0897 -15.0896 -15.0713 -15.0712 -15.0283 -15.0283
   -14.1269 -14.1269 -14.1109 -14.1109 -14.0655 -14.0655 -13.9507 -13.9507
   -13.9287 -13.9287 -13.9162 -13.9162  -1.6865  -1.6865   0.9020   0.9020
     5.4277   5.4277   5.8919   5.8919   7.1877   7.1877   9.9728   9.9728
    10.2697  10.2697  12.7518  12.7518

     occupation numbers 
     1.0000   1.0000   1.0000   1.0000   1.0000   1.0000   1.0000   1.0000
     1.0000   1.0000   1.0000   1.0000   1.0000   1.0000   1.0000   1.0000
     1.0000   1.0000   1.0000   1.0000   1.0000   1.0000   1.0000   1.0000
     1.0000   1.0000   1.0000   1.0000   0.0000   0.0000   0.0000   0.0000
     0.0000   0.0000   0.0000   0.0000

          k =-0.2652-0.3536 0.3536 (  3919 PWs)   bands (ev):

   -15.1286 -15.1286 -15.0905 -15.0905 -15.0704 -15.0703 -15.0284 -15.0284
   -14.1295 -14.1295 -14.1084 -14.1084 -14.0652 -14.0652 -13.9512 -13.9512
   -13.9294 -13.9294 -13.9155 -13.9155  -1.7235  -1.7235   0.9622   0.9622
     5.4096   5.4096   5.9399   5.9399   7.1835   7.1835  10.0071  10.0071
    10.2328  10.2328  12.7643  12.7643

     occupation numbers 
     1.0000   1.0000   1.0000   1.0000   1.0000   1.0000   1.0000   1.0000
     1.0000   1.0000   1.0000   1.0000   1.0000   1.0000   1.0000   1.0000
     1.0000   1.0000   1.0000   1.0000   1.0000   1.0000   1.0000   1.0000
     1.0000   1.0000   1.0000   1.0000   0.0000   0.0000   0.0000   0.0000
     0.0000   0.0000   0.0000   0.0000

          k =-0.2210-0.3094 0.3094 (  3913 PWs)   bands (ev):

   -15.1279 -15.1279 -15.0954 -15.0953 -15.0655 -15.0655 -15.0293 -15.0293
   -14.1402 -14.1402 -14.0982 -14.0982 -14.0626 -14.0626 -13.9536 -13.9536
   -13.9334 -13.9334 -13.9114 -13.9114  -1.9405  -1.9405   1.3399   1.3399
     5.4475   5.4475   6.0438   6.0438   7.2247   7.2247  10.0013  10.0013
    10.2230  10.2230  12.6500  12.6500

     occupation numbers 
     1.0000   1.0000   1.0000   1.0000   1.0000   1.0000   1.0000   1.0000
     1.0000   1.0000   1.0000   1.0000   1.0000   1.0000   1.0000   1.0000
     1.0000   1.0000   1.0000   1.0000   1.0000   1.0000   1.0000   1.0000
     1.0000   1.0000   1.0000   1.0000   0.0000   0.0000   0.0000   0.0000
     0.0000   0.0000   0.0000   0.0000

          k =-0.1768-0.2652 0.2652 (  3918 PWs)   bands (ev):

   -15.1269 -15.1269 -15.1014 -15.1014 -15.0596 -15.0596 -15.0310 -15.0310
   -14.1523 -14.1523 -14.0866 -14.0866 -14.0584 -14.0584 -13.9577 -13.9577
   -13.9398 -13.9398 -13.9060 -13.9060  -2.2294  -2.2294   1.9223   1.9223
     5.5434   5.5434   6.1970   6.1970   7.3067   7.3067   9.9257   9.9257
    10.2124  10.2124  12.0840  12.0840

     occupation numbers 
     1.0000   1.0000   1.0000   1.0000   1.0000   1.0000   1.0000   1.0000
     1.0000   1.0000   1.0000   1.0000   1.0000   1.0000   1.0000   1.0000
     1.0000   1.0000   1.0000   1.0000   1.0000   1.0000   1.0000   1.0000
     1.0000   1.0000   1.0000   1.0000   0.0000   0.0000   0.0000   0.0000
     0.0000   0.0000   0.0000   0.0000

          k =-0.1326-0.2210 0.2210 (  3918 PWs)   bands (ev):

   -15.1254 -15.1254 -15.1072 -15.1072 -15.0540 -15.0540 -15.0331 -15.0331
   -14.1640 -14.1640 -14.0746 -14.0746 -14.0525 -14.0525 -13.9631 -13.9631
   -13.9479 -13.9479 -13.9003 -13.9003  -2.5148  -2.5148   2.6241   2.6241
     5.6980   5.6980   6.3894   6.3894   7.4174   7.4174   9.7676   9.7676
    10.1176  10.1176  11.3584  11.3584

     occupation numbers 
     1.0000   1.0000   1.0000   1.0000   1.0000   1.0000   1.0000   1.0000
     1.0000   1.0000   1.0000   1.0000   1.0000   1.0000   1.0000   1.0000
     1.0000   1.0000   1.0000   1.0000   1.0000   1.0000   1.0000   1.0000
     1.0000   1.0000   1.0000   1.0000   0.0000   0.0000   0.0000   0.0000
     0.0000   0.0000   0.0000   0.0000

          k =-0.0884-0.1768 0.1768 (  3922 PWs)   bands (ev):

   -15.1238 -15.1238 -15.1122 -15.1122 -15.0492 -15.0492 -15.0355 -15.0355
   -14.1747 -14.1747 -14.0622 -14.0622 -14.0456 -14.0456 -13.9693 -13.9693
   -13.9575 -13.9575 -13.8949 -13.8949  -2.7607  -2.7607   3.3906   3.3906
     5.9096   5.9096   6.6035   6.6035   7.5287   7.5287   9.5344   9.5344
     9.8650   9.8650  10.7053  10.7053

     occupation numbers 
     1.0000   1.0000   1.0000   1.0000   1.0000   1.0000   1.0000   1.0000
     1.0000   1.0000   1.0000   1.0000   1.0000   1.0000   1.0000   1.0000
     1.0000   1.0000   1.0000   1.0000   1.0000   1.0000   1.0000   1.0000
     1.0000   1.0000   1.0000   1.0000   0.0000   0.0000   0.0000   0.0000
     0.0000   0.0000   0.0000   0.0000

          k =-0.0442-0.1326 0.1326 (  3902 PWs)   bands (ev):

   -15.1221 -15.1221 -15.1158 -15.1158 -15.0452 -15.0452 -15.0378 -15.0378
   -14.1830 -14.1830 -14.0496 -14.0496 -14.0383 -14.0383 -13.9757 -13.9757
   -13.9677 -13.9677 -13.8902 -13.8902  -2.9505  -2.9505   4.1681   4.1681
     6.1716   6.1716   6.8094   6.8094   7.5783   7.5783   9.2675   9.2675
     9.5209   9.5209  10.1394  10.1394

     occupation numbers 
     1.0000   1.0000   1.0000   1.0000   1.0000   1.0000   1.0000   1.0000
     1.0000   1.0000   1.0000   1.0000   1.0000   1.0000   1.0000   1.0000
     1.0000   1.0000   1.0000   1.0000   1.0000   1.0000   1.0000   1.0000
     1.0000   1.0000   1.0000   1.0000   0.0000   0.0000   0.0000   0.0000
     0.0000   0.0000   0.0000   0.0000

          k = 0.0000-0.0884 0.0884 (  3893 PWs)   bands (ev):

   -15.1207 -15.1207 -15.1181 -15.1181 -15.0428 -15.0428 -15.0393 -15.0393
   -14.1889 -14.1889 -14.0382 -14.0381 -14.0322 -14.0321 -13.9814 -13.9814
   -13.9775 -13.9775 -13.8870 -13.8870  -3.0761  -3.0761   4.8702   4.8702
     6.4529   6.4529   6.9717   6.9717   7.4719   7.4719   9.0257   9.0257
     9.3065   9.3065   9.6390   9.6390

     occupation numbers 
     1.0000   1.0000   1.0000   1.0000   1.0000   1.0000   1.0000   1.0000
     1.0000   1.0000   1.0000   1.0000   1.0000   1.0000   1.0000   1.0000
     1.0000   1.0000   1.0000   1.0000   1.0000   1.0000   1.0000   1.0000
     1.0000   1.0000   0.0000   0.0000   0.0000   0.0000   0.0000   0.0000
     0.0000   0.0000   0.0000   0.0000

          k = 0.1768 0.0000 0.0000 (  3903 PWs)   bands (ev):

   -15.1205 -15.1205 -15.1177 -15.1177 -15.0432 -15.0432 -15.0395 -15.0395
   -14.1845 -14.1845 -14.0482 -14.0482 -14.0352 -14.0352 -13.9746 -13.9746
   -13.9731 -13.9731 -13.8893 -13.8893  -2.9833  -2.9833   4.4224   4.4224
     6.2016   6.2016   6.4568   6.4568   8.1866   8.1866   8.5716   8.5716
     9.8883   9.8883   9.9917   9.9917

     occupation numbers 
     1.0000   1.0000   1.0000   1.0000   1.0000   1.0000   1.0000   1.0000
     1.0000   1.0000   1.0000   1.0000   1.0000   1.0000   1.0000   1.0000
     1.0000   1.0000   1.0000   1.0000   1.0000   1.0000   1.0000   1.0000
     1.0000   1.0000   1.0000   1.0000   0.0000   0.0000   0.0000   0.0000
     0.0000   0.0000   0.0000   0.0000

          k = 0.2210 0.0442-0.0442 (  3908 PWs)   bands (ev):

   -15.1215 -15.1215 -15.1157 -15.1157 -15.0454 -15.0454 -15.0381 -15.0381
   -14.1788 -14.1788 -14.0576 -14.0576 -14.0399 -14.0399 -13.9714 -13.9714
   -13.9648 -13.9648 -13.8917 -13.8917  -2.8575  -2.8575   3.8806   3.8806
     5.9820   5.9820   6.2152   6.2152   8.3333   8.3333   8.6005   8.6005
    10.2594  10.2594  10.3867  10.3867

     occupation numbers 
     1.0000   1.0000   1.0000   1.0000   1.0000   1.0000   1.0000   1.0000
     1.0000   1.0000   1.0000   1.0000   1.0000   1.0000   1.0000   1.0000
     1.0000   1.0000   1.0000   1.0000   1.0000   1.0000   1.0000   1.0000
     1.0000   1.0000   1.0000   1.0000   0.0000   0.0000   0.0000   0.0000
     0.0000   0.0000   0.0000   0.0000

          k = 0.2652 0.0884-0.0884 (  3934 PWs)   bands (ev):

   -15.1233 -15.1233 -15.1122 -15.1122 -15.0495 -15.0495 -15.0358 -15.0358
   -14.1706 -14.1706 -14.0686 -14.0686 -14.0458 -14.0458 -13.9690 -13.9690
   -13.9546 -13.9546 -13.8955 -13.8955  -2.6676  -2.6676   3.2061   3.2061
     5.7320   5.7320   5.9932   5.9932   8.2606   8.2606   8.8886   8.8886
    10.5554  10.5554  10.8104  10.8105

     occupation numbers 
     1.0000   1.0000   1.0000   1.0000   1.0000   1.0000   1.0000   1.0000
     1.0000   1.0000   1.0000   1.0000   1.0000   1.0000   1.0000   1.0000
     1.0000   1.0000   1.0000   1.0000   1.0000   1.0000   1.0000   1.0000
     1.0000   1.0000   1.0000   1.0000   0.0000   0.0000   0.0000   0.0000
     0.0000   0.0000   0.0000   0.0000

          k = 0.3094 0.1326-0.1326 (  3920 PWs)   bands (ev):

   -15.1249 -15.1249 -15.1072 -15.1072 -15.0542 -15.0542 -15.0332 -15.0332
   -14.1603 -14.1603 -14.0794 -14.0794 -14.0514 -14.0514 -13.9667 -13.9667
   -13.9448 -13.9448 -13.8993 -13.8993  -2.4214  -2.4214   2.5054   2.5054
     5.4772   5.4772   5.8161   5.8161   8.1262   8.1262   9.2606   9.2606
    10.7270  10.7270  11.1297  11.1298

     occupation numbers 
     1.0000   1.0000   1.0000   1.0000   1.0000   1.0000   1.0000   1.0000
     1.0000   1.0000   1.0000   1.0000   1.0000   1.0000   1.0000   1.0000
     1.0000   1.0000   1.0000   1.0000   1.0000   1.0000   1.0000   1.0000
     1.0000   1.0000   1.0000   1.0000   0.0000   0.0000   0.0000   0.0000
     0.0000   0.0000   0.0000   0.0000

          k = 0.3536 0.1768-0.1768 (  3924 PWs)   bands (ev):

   -15.1265 -15.1265 -15.1016 -15.1016 -15.0598 -15.0598 -15.0309 -15.0309
   -14.1494 -14.1494 -14.0896 -14.0896 -14.0565 -14.0565 -13.9652 -13.9652
   -13.9372 -13.9372 -13.9029 -13.9029  -2.1354  -2.1354   1.8452   1.8452
     5.2444   5.2444   5.7022   5.7022   7.9875   7.9875   9.5795   9.5795
    10.7653  10.7653  11.4869  11.4870

     occupation numbers 
     1.0000   1.0000   1.0000   1.0000   1.0000   1.0000   1.0000   1.0000
     1.0000   1.0000   1.0000   1.0000   1.0000   1.0000   1.0000   1.0000
     1.0000   1.0000   1.0000   1.0000   1.0000   1.0000   1.0000   1.0000
     1.0000   1.0000   1.0000   1.0000   0.0000   0.0000   0.0000   0.0000
     0.0000   0.0000   0.0000   0.0000

          k = 0.3977 0.2210-0.2210 (  3921 PWs)   bands (ev):

   -15.1277 -15.1277 -15.0957 -15.0956 -15.0657 -15.0657 -15.0290 -15.0290
   -14.1387 -14.1387 -14.0988 -14.0987 -14.0606 -14.0606 -13.9643 -13.9643
   -13.9320 -13.9319 -13.9052 -13.9052  -1.8451  -1.8451   1.2875   1.2875
     5.0543   5.0543   5.6538   5.6538   7.8737   7.8737   9.7778   9.7778
    10.7113  10.7113  12.0002  12.0002

     occupation numbers 
     1.0000   1.0000   1.0000   1.0000   1.0000   1.0000   1.0000   1.0000
     1.0000   1.0000   1.0000   1.0000   1.0000   1.0000   1.0000   1.0000
     1.0000   1.0000   1.0000   1.0000   1.0000   1.0000   1.0000   1.0000
     1.0000   1.0000   1.0000   1.0000   0.0000   0.0000   0.0000   0.0000
     0.0000   0.0000   0.0000   0.0000

          k =-0.2652-0.4419 0.4419 (  3936 PWs)   bands (ev):

   -15.1284 -15.1284 -15.0909 -15.0909 -15.0709 -15.0708 -15.0280 -15.0280
   -14.1303 -14.1303 -14.1061 -14.1061 -14.0630 -14.0630 -13.9644 -13.9644
   -13.9295 -13.9295 -13.9063 -13.9063  -1.6266  -1.6266   0.9223   0.9223
     4.9190   4.9190   5.6695   5.6695   7.7983   7.7983   9.8969   9.8969
    10.6139  10.6139  12.5629  12.5629

     occupation numbers 
     1.0000   1.0000   1.0000   1.0000   1.0000   1.0000   1.0000   1.0000
     1.0000   1.0000   1.0000   1.0000   1.0000   1.0000   1.0000   1.0000
     1.0000   1.0000   1.0000   1.0000   1.0000   1.0000   1.0000   1.0000
     1.0000   1.0000   1.0000   1.0000   0.0000   0.0000   0.0000   0.0000
     0.0000   0.0000   0.0000   0.0000

          k =-0.2210-0.3977 0.3977 (  3927 PWs)   bands (ev):

   -15.1286 -15.1286 -15.0894 -15.0893 -15.0723 -15.0722 -15.0276 -15.0276
   -14.1287 -14.1287 -14.1074 -14.1074 -14.0631 -14.0631 -13.9648 -13.9648
   -13.9285 -13.9285 -13.9065 -13.9065  -1.5912  -1.5912   0.8671   0.8671
     4.8462   4.8462   5.7460   5.7460   7.7663   7.7663   9.9935   9.9935
    10.5022  10.5022  12.8656  12.8656

     occupation numbers 
     1.0000   1.0000   1.0000   1.0000   1.0000   1.0000   1.0000   1.0000
     1.0000   1.0000   1.0000   1.0000   1.0000   1.0000   1.0000   1.0000
     1.0000   1.0000   1.0000   1.0000   1.0000   1.0000   1.0000   1.0000
     1.0000   1.0000   1.0000   1.0000   0.0000   0.0000   0.0000   0.0000
     0.0000   0.0000   0.0000   0.0000

          k =-0.1768-0.3536 0.3536 (  3927 PWs)   bands (ev):

   -15.1283 -15.1283 -15.0929 -15.0929 -15.0688 -15.0688 -15.0281 -15.0281
   -14.1357 -14.1357 -14.1015 -14.1015 -14.0611 -14.0611 -13.9659 -13.9658
   -13.9294 -13.9294 -13.9061 -13.9061  -1.7633  -1.7633   1.1464   1.1464
     4.8422   4.8422   5.8780   5.8780   7.7767   7.7767  10.0833  10.0833
    10.3853  10.3853  12.6121  12.6121

     occupation numbers 
     1.0000   1.0000   1.0000   1.0000   1.0000   1.0000   1.0000   1.0000
     1.0000   1.0000   1.0000   1.0000   1.0000   1.0000   1.0000   1.0000
     1.0000   1.0000   1.0000   1.0000   1.0000   1.0000   1.0000   1.0000
     1.0000   1.0000   1.0000   1.0000   0.0000   0.0000   0.0000   0.0000
     0.0000   0.0000   0.0000   0.0000

          k =-0.1326-0.3094 0.3094 (  3917 PWs)   bands (ev):

   -15.1274 -15.1274 -15.0984 -15.0984 -15.0632 -15.0631 -15.0293 -15.0293
   -14.1459 -14.1459 -14.0929 -14.0929 -14.0570 -14.0570 -13.9673 -13.9673
   -13.9325 -13.9325 -13.9044 -13.9044  -2.0415  -2.0415   1.6530   1.6530
     4.9137   4.9137   6.0570   6.0570   7.8220   7.8220  10.1057  10.1057
    10.2835  10.2835  11.9661  11.9661

     occupation numbers 
     1.0000   1.0000   1.0000   1.0000   1.0000   1.0000   1.0000   1.0000
     1.0000   1.0000   1.0000   1.0000   1.0000   1.0000   1.0000   1.0000
     1.0000   1.0000   1.0000   1.0000   1.0000   1.0000   1.0000   1.0000
     1.0000   1.0000   1.0000   1.0000   0.0000   0.0000   0.0000   0.0000
     0.0000   0.0000   0.0000   0.0000

          k =-0.0884-0.2652 0.2652 (  3913 PWs)   bands (ev):

   -15.1262 -15.1262 -15.1041 -15.1041 -15.0574 -15.0574 -15.0313 -15.0313
   -14.1570 -14.1569 -14.0830 -14.0830 -14.0519 -14.0519 -13.9693 -13.9693
   -13.9387 -13.9387 -13.9013 -13.9013  -2.3339  -2.3339   2.2805   2.2805
     5.0700   5.0700   6.2690   6.2690   7.8834   7.8834   9.9476   9.9476
    10.1971  10.1971  11.3609  11.3609

     occupation numbers 
     1.0000   1.0000   1.0000   1.0000   1.0000   1.0000   1.0000   1.0000
     1.0000   1.0000   1.0000   1.0000   1.0000   1.0000   1.0000   1.0000
     1.0000   1.0000   1.0000   1.0000   1.0000   1.0000   1.0000   1.0000
     1.0000   1.0000   1.0000   1.0000   0.0000   0.0000   0.0000   0.0000
     0.0000   0.0000   0.0000   0.0000

          k =-0.0442-0.2210 0.2210 (  3925 PWs)   bands (ev):

   -15.1246 -15.1246 -15.1093 -15.1093 -15.0525 -15.0525 -15.0338 -15.0338
   -14.1675 -14.1675 -14.0723 -14.0723 -14.0467 -14.0467 -13.9717 -13.9717
   -13.9475 -13.9475 -13.8976 -13.8976  -2.5949  -2.5949   2.9555   2.9555
     5.3251   5.3251   6.4908   6.4908   7.9173   7.9173   9.6970   9.6970
     9.9325   9.9326  10.9781  10.9781

     occupation numbers 
     1.0000   1.0000   1.0000   1.0000   1.0000   1.0000   1.0000   1.0000
     1.0000   1.0000   1.0000   1.0000   1.0000   1.0000   1.0000   1.0000
     1.0000   1.0000   1.0000   1.0000   1.0000   1.0000   1.0000   1.0000
     1.0000   1.0000   1.0000   1.0000   0.0000   0.0000   0.0000   0.0000
     0.0000   0.0000   0.0000   0.0000

          k = 0.0000-0.1768 0.1768 (  3905 PWs)   bands (ev):

   -15.1231 -15.1231 -15.1131 -15.1131 -15.0481 -15.0481 -15.0359 -15.0359
   -14.1764 -14.1764 -14.0606 -14.0606 -14.0418 -14.0418 -13.9738 -13.9738
   -13.9574 -13.9574 -13.8934 -13.8934  -2.8037  -2.8037   3.6098   3.6098
     5.6966   5.6966   6.6842   6.6842   7.8382   7.8382   9.4394   9.4394
     9.6297   9.6297  10.6376  10.6376

     occupation numbers 
     1.0000   1.0000   1.0000   1.0000   1.0000   1.0000   1.0000   1.0000
     1.0000   1.0000   1.0000   1.0000   1.0000   1.0000   1.0000   1.0000
     1.0000   1.0000   1.0000   1.0000   1.0000   1.0000   1.0000   1.0000
     1.0000   1.0000   1.0000   1.0000   0.0000   0.0000   0.0000   0.0000
     0.0000   0.0000   0.0000   0.0000

          k = 0.2652 0.0000 0.0000 (  3931 PWs)   bands (ev):

   -15.1211 -15.1211 -15.1157 -15.1157 -15.0458 -15.0458 -15.0384 -15.0384
   -14.1743 -14.1743 -14.0645 -14.0645 -14.0426 -14.0426 -13.9673 -13.9673
   -13.9627 -13.9627 -13.8932 -13.8932  -2.7532  -2.7532   3.5694   3.5694
     5.7902   5.7902   5.9616   5.9616   8.2452   8.2452   8.7337   8.7337
    10.6632  10.6632  10.6967  10.6967

     occupation numbers 
     1.0000   1.0000   1.0000   1.0000   1.0000   1.0000   1.0000   1.0000
     1.0000   1.0000   1.0000   1.0000   1.0000   1.0000   1.0000   1.0000
     1.0000   1.0000   1.0000   1.0000   1.0000   1.0000   1.0000   1.0000
     1.0000   1.0000   1.0000   1.0000   0.0000   0.0000   0.0000   0.0000
     0.0000   0.0000   0.0000   0.0000

          k = 0.3094 0.0442-0.0442 (  3938 PWs)   bands (ev):

   -15.1219 -15.1219 -15.1133 -15.1133 -15.0483 -15.0483 -15.0370 -15.0370
   -14.1671 -14.1671 -14.0731 -14.0731 -14.0463 -14.0463 -13.9679 -13.9679
   -13.9539 -13.9539 -13.8954 -13.8954  -2.5836  -2.5836   3.0658   3.0658
     5.5583   5.5583   5.7360   5.7360   8.2261   8.2261   8.8386   8.8386
    10.9933  10.9933  11.0448  11.0448

     occupation numbers 
     1.0000   1.0000   1.0000   1.0000   1.0000   1.0000   1.0000   1.0000
     1.0000   1.0000   1.0000   1.0000   1.0000   1.0000   1.0000   1.0000
     1.0000   1.0000   1.0000   1.0000   1.0000   1.0000   1.0000   1.0000
     1.0000   1.0000   1.0000   1.0000   0.0000   0.0000   0.0000   0.0000
     0.0000   0.0000   0.0000   0.0000

          k = 0.3536 0.0884-0.0884 (  3927 PWs)   bands (ev):

   -15.1235 -15.1235 -15.1091 -15.1091 -15.0524 -15.0524 -15.0345 -15.0345
   -14.1579 -14.1579 -14.0823 -14.0823 -14.0500 -14.0500 -13.9698 -13.9698
   -13.9442 -13.9442 -13.8976 -13.8976  -2.3545  -2.3545   2.4751   2.4751
     5.2671   5.2671   5.5568   5.5568   8.3145   8.3145   8.9855   8.9855
    11.0721  11.0721  11.2700  11.2700

     occupation numbers 
     1.0000   1.0000   1.0000   1.0000   1.0000   1.0000   1.0000   1.0000
     1.0000   1.0000   1.0000   1.0000   1.0000   1.0000   1.0000   1.0000
     1.0000   1.0000   1.0000   1.0000   1.0000   1.0000   1.0000   1.0000
     1.0000   1.0000   1.0000   1.0000   0.0000   0.0000   0.0000   0.0000
     0.0000   0.0000   0.0000   0.0000

          k = 0.3977 0.1326-0.1326 (  3922 PWs)   bands (ev):

   -15.1252 -15.1252 -15.1040 -15.1040 -15.0576 -15.0576 -15.0317 -15.0317
   -14.1481 -14.1481 -14.0907 -14.0907 -14.0537 -14.0537 -13.9724 -13.9724
   -13.9365 -13.9365 -13.8990 -13.8990  -2.0782  -2.0782   1.8740   1.8740
     4.9633   4.9633   5.4470   5.4470   8.2883   8.2883   9.3607   9.3607
    11.0768  11.0769  11.3526  11.3526

     occupation numbers 
     1.0000   1.0000   1.0000   1.0000   1.0000   1.0000   1.0000   1.0000
     1.0000   1.0000   1.0000   1.0000   1.0000   1.0000   1.0000   1.0000
     1.0000   1.0000   1.0000   1.0000   1.0000   1.0000   1.0000   1.0000
     1.0000   1.0000   1.0000   1.0000   0.0000   0.0000   0.0000   0.0000
     0.0000   0.0000   0.0000   0.0000

          k = 0.4419 0.1768-0.1768 (  3925 PWs)   bands (ev):

   -15.1266 -15.1266 -15.0985 -15.0985 -15.0634 -15.0634 -15.0294 -15.0294
   -14.1390 -14.1390 -14.0975 -14.0975 -14.0569 -14.0569 -13.9752 -13.9752
   -13.9316 -13.9316 -13.8992 -13.8992  -1.7814  -1.7814   1.3263   1.3263
     4.6972   4.6972   5.4048   5.4048   8.2142   8.2142   9.7717   9.7717
    11.2030  11.2030  11.3568  11.3568

     occupation numbers 
     1.0000   1.0000   1.0000   1.0000   1.0000   1.0000   1.0000   1.0000
     1.0000   1.0000   1.0000   1.0000   1.0000   1.0000   1.0000   1.0000
     1.0000   1.0000   1.0000   1.0000   1.0000   1.0000   1.0000   1.0000
     1.0000   1.0000   1.0000   1.0000   0.0000   0.0000   0.0000   0.0000
     0.0000   0.0000   0.0000   0.0000

          k =-0.2210-0.4861 0.4861 (  3935 PWs)   bands (ev):

   -15.1277 -15.1277 -15.0934 -15.0934 -15.0689 -15.0688 -15.0278 -15.0278
   -14.1324 -14.1324 -14.1019 -14.1019 -14.0590 -14.0590 -13.9779 -13.9779
   -13.9294 -13.9294 -13.8986 -13.8986  -1.5244  -1.5244   0.9140   0.9140
     4.4932   4.4932   5.4284   5.4284   8.1574   8.1574  10.0290  10.0290
    11.1560  11.1560  11.7585  11.7585

     occupation numbers 
     1.0000   1.0000   1.0000   1.0000   1.0000   1.0000   1.0000   1.0000
     1.0000   1.0000   1.0000   1.0000   1.0000   1.0000   1.0000   1.0000
     1.0000   1.0000   1.0000   1.0000   1.0000   1.0000   1.0000   1.0000
     1.0000   1.0000   1.0000   1.0000   0.0000   0.0000   0.0000   0.0000
     0.0000   0.0000   0.0000   0.0000

          k =-0.1768-0.4419 0.4419 (  3943 PWs)   bands (ev):

   -15.1284 -15.1284 -15.0900 -15.0900 -15.0726 -15.0725 -15.0269 -15.0269
   -14.1302 -14.1302 -14.1034 -14.1034 -14.0597 -14.0596 -13.9795 -13.9795
   -13.9285 -13.9285 -13.8982 -13.8982  -1.4192  -1.4192   0.7593   0.7593
     4.3643   4.3643   5.5147   5.5147   8.1360   8.1360  10.1646  10.1646
    11.0066  11.0066  12.3826  12.3826

     occupation numbers 
     1.0000   1.0000   1.0000   1.0000   1.0000   1.0000   1.0000   1.0000
     1.0000   1.0000   1.0000   1.0000   1.0000   1.0000   1.0000   1.0000
     1.0000   1.0000   1.0000   1.0000   1.0000   1.0000   1.0000   1.0000
     1.0000   1.0000   1.0000   1.0000   0.0000   0.0000   0.0000   0.0000
     0.0000   0.0000   0.0000   0.0000

          k =-0.1326-0.3977 0.3977 (  3931 PWs)   bands (ev):

   -15.1284 -15.1284 -15.0909 -15.0908 -15.0716 -15.0716 -15.0268 -15.0268
   -14.1330 -14.1330 -14.1017 -14.1017 -14.0578 -14.0578 -13.9799 -13.9799
   -13.9282 -13.9282 -13.8986 -13.8986  -1.5387  -1.5387   0.9366   0.9366
     4.3208   4.3208   5.6583   5.6583   8.1493   8.1493  10.2723  10.2723
    10.8267  10.8267  12.4875  12.4875

     occupation numbers 
     1.0000   1.0000   1.0000   1.0000   1.0000   1.0000   1.0000   1.0000
     1.0000   1.0000   1.0000   1.0000   1.0000   1.0000   1.0000   1.0000
     1.0000   1.0000   1.0000   1.0000   1.0000   1.0000   1.0000   1.0000
     1.0000   1.0000   1.0000   1.0000   0.0000   0.0000   0.0000   0.0000
     0.0000   0.0000   0.0000   0.0000

          k =-0.0884-0.3536 0.3536 (  3927 PWs)   bands (ev):

   -15.1279 -15.1279 -15.0951 -15.0951 -15.0673 -15.0673 -15.0276 -15.0276
   -14.1398 -14.1398 -14.0974 -14.0974 -14.0548 -14.0548 -13.9789 -13.9789
   -13.9290 -13.9290 -13.8999 -13.8999  -1.8007  -1.8007   1.3555   1.3555
     4.3753   4.3753   5.8497   5.8497   8.1835   8.1836  10.3732  10.3732
    10.6101  10.6101  11.8257  11.8257

     occupation numbers 
     1.0000   1.0000   1.0000   1.0000   1.0000   1.0000   1.0000   1.0000
     1.0000   1.0000   1.0000   1.0000   1.0000   1.0000   1.0000   1.0000
     1.0000   1.0000   1.0000   1.0000   1.0000   1.0000   1.0000   1.0000
     1.0000   1.0000   1.0000   1.0000   0.0000   0.0000   0.0000   0.0000
     0.0000   0.0000   0.0000   0.0000

          k =-0.0442-0.3094 0.3094 (  3924 PWs)   bands (ev):

   -15.1270 -15.1270 -15.1003 -15.1003 -15.0619 -15.0619 -15.0293 -15.0293
   -14.1489 -14.1489 -14.0908 -14.0908 -14.0514 -14.0514 -13.9768 -13.9768
   -13.9320 -13.9320 -13.9005 -13.9005  -2.0965  -2.0965   1.8873   1.8873
     4.5463   4.5463   6.0727   6.0727   8.2056   8.2056  10.2958  10.2958
    10.4361  10.4361  11.2199  11.2199

     occupation numbers 
     1.0000   1.0000   1.0000   1.0000   1.0000   1.0000   1.0000   1.0000
     1.0000   1.0000   1.0000   1.0000   1.0000   1.0000   1.0000   1.0000
     1.0000   1.0000   1.0000   1.0000   1.0000   1.0000   1.0000   1.0000
     1.0000   1.0000   1.0000   1.0000   0.0000   0.0000   0.0000   0.0000
     0.0000   0.0000   0.0000   0.0000

          k = 0.0000-0.2652 0.2652 (  3917 PWs)   bands (ev):

   -15.1258 -15.1258 -15.1052 -15.1052 -15.0566 -15.0566 -15.0314 -15.0314
   -14.1586 -14.1586 -14.0822 -14.0822 -14.0485 -14.0485 -13.9743 -13.9743
   -13.9384 -13.9384 -13.8996 -13.8996  -2.3697  -2.3697   2.4419   2.4419
     4.8576   4.8576   6.3004   6.3004   8.1467   8.1467   9.9907   9.9907
    10.1768  10.1768  11.0273  11.0273

     occupation numbers 
     1.0000   1.0000   1.0000   1.0000   1.0000   1.0000   1.0000   1.0000
     1.0000   1.0000   1.0000   1.0000   1.0000   1.0000   1.0000   1.0000
     1.0000   1.0000   1.0000   1.0000   1.0000   1.0000   1.0000   1.0000
     1.0000   1.0000   1.0000   1.0000   0.0000   0.0000   0.0000   0.0000
     0.0000   0.0000   0.0000   0.0000

          k = 0.3536 0.0000 0.0000 (  3928 PWs)   bands (ev):

   -15.1209 -15.1209 -15.1133 -15.1133 -15.0480 -15.0480 -15.0375 -15.0375
   -14.1610 -14.1610 -14.0795 -14.0795 -14.0485 -14.0485 -13.9679 -13.9679
   -13.9494 -13.9494 -13.8960 -13.8960  -2.4337  -2.4337   2.7223   2.7223
     5.4067   5.4067   5.5251   5.5251   7.9650   7.9650   8.8996   8.8996
    11.4576  11.4576  11.4942  11.4942

     occupation numbers 
     1.0000   1.0000   1.0000   1.0000   1.0000   1.0000   1.0000   1.0000
     1.0000   1.0000   1.0000   1.0000   1.0000   1.0000   1.0000   1.0000
     1.0000   1.0000   1.0000   1.0000   1.0000   1.0000   1.0000   1.0000
     1.0000   1.0000   1.0000   1.0000   0.0000   0.0000   0.0000   0.0000
     0.0000   0.0000   0.0000   0.0000

          k = 0.3977 0.0442-0.0442 (  3943 PWs)   bands (ev):

   -15.1216 -15.1216 -15.1111 -15.1111 -15.0505 -15.0505 -15.0365 -15.0365
   -14.1532 -14.1532 -14.0869 -14.0869 -14.0509 -14.0508 -13.9720 -13.9720
   -13.9419 -13.9419 -13.8972 -13.8972  -2.2224  -2.2224   2.2568   2.2568
     5.1840   5.1840   5.3369   5.3369   7.9866   7.9866   8.8671   8.8671
    11.6099  11.6100  11.8203  11.8203

     occupation numbers 
     1.0000   1.0000   1.0000   1.0000   1.0000   1.0000   1.0000   1.0000
     1.0000   1.0000   1.0000   1.0000   1.0000   1.0000   1.0000   1.0000
     1.0000   1.0000   1.0000   1.0000   1.0000   1.0000   1.0000   1.0000
     1.0000   1.0000   1.0000   1.0000   0.0000   0.0000   0.0000   0.0000
     0.0000   0.0000   0.0000   0.0000

          k = 0.4419 0.0884-0.0884 (  3940 PWs)   bands (ev):

   -15.1231 -15.1231 -15.1069 -15.1069 -15.0548 -15.0548 -15.0340 -15.0339
   -14.1447 -14.1447 -14.0936 -14.0936 -14.0525 -14.0525 -13.9778 -13.9778
   -13.9347 -13.9347 -13.8973 -13.8973  -1.9585  -1.9585   1.7447   1.7447
     4.8650   4.8650   5.2168   5.2168   8.1286   8.1286   9.0014   9.0014
    11.4858  11.4858  11.9837  11.9837

     occupation numbers 
     1.0000   1.0000   1.0000   1.0000   1.0000   1.0000   1.0000   1.0000
     1.0000   1.0000   1.0000   1.0000   1.0000   1.0000   1.0000   1.0000
     1.0000   1.0000   1.0000   1.0000   1.0000   1.0000   1.0000   1.0000
     1.0000   1.0000   1.0000   1.0000   0.0000   0.0000   0.0000   0.0000
     0.0000   0.0000   0.0000   0.0000

          k = 0.4861 0.1326-0.1326 (  3936 PWs)   bands (ev):

   -15.1248 -15.1248 -15.1020 -15.1020 -15.0601 -15.0601 -15.0311 -15.0311
   -14.1373 -14.1373 -14.0982 -14.0982 -14.0536 -14.0536 -13.9841 -13.9841
   -13.9300 -13.9300 -13.8961 -13.8961  -1.6616  -1.6616   1.2448   1.2448
     4.5341   4.5341   5.1694   5.1694   8.1716   8.1716   9.4554   9.4554
    11.3631  11.3631  11.9770  11.9771

     occupation numbers 
     1.0000   1.0000   1.0000   1.0000   1.0000   1.0000   1.0000   1.0000
     1.0000   1.0000   1.0000   1.0000   1.0000   1.0000   1.0000   1.0000
     1.0000   1.0000   1.0000   1.0000   1.0000   1.0000   1.0000   1.0000
     1.0000   1.0000   1.0000   1.0000   0.0000   0.0000   0.0000   0.0000
     0.0000   0.0000   0.0000   0.0000

          k =-0.1768-0.5303 0.5303 (  3931 PWs)   bands (ev):

   -15.1264 -15.1264 -15.0971 -15.0971 -15.0654 -15.0653 -15.0286 -15.0286
   -14.1327 -14.1327 -14.0999 -14.0999 -14.0544 -14.0543 -13.9896 -13.9896
   -13.9281 -13.9281 -13.8939 -13.8939  -1.3775  -1.3775   0.8254   0.8254
     4.2552   4.2552   5.1896   5.1896   8.1689   8.1689  10.0668  10.0668
    11.3461  11.3461  11.8594  11.8594

     occupation numbers 
     1.0000   1.0000   1.0000   1.0000   1.0000   1.0000   1.0000   1.0000
     1.0000   1.0000   1.0000   1.0000   1.0000   1.0000   1.0000   1.0000
     1.0000   1.0000   1.0000   1.0000   1.0000   1.0000   1.0000   1.0000
[...]

   -15.1267 -15.1267 -15.0958 -15.0957 -15.0672 -15.0672 -15.0276 -15.0276
   -14.1333 -14.1333 -14.0980 -14.0980 -14.0524 -14.0524 -13.9949 -13.9949
   -13.9287 -13.9287 -13.8915 -13.8915  -1.3024  -1.3024   0.7620   0.7620
     4.1412   4.1412   5.0166   5.0166   8.8137   8.8137   9.9155   9.9155
    10.8521  10.8521  12.3832  12.3833

     occupation numbers 
     1.0000   1.0000   1.0000   1.0000   1.0000   1.0000   1.0000   1.0000
     1.0000   1.0000   1.0000   1.0000   1.0000   1.0000   1.0000   1.0000
     1.0000   1.0000   1.0000   1.0000   1.0000   1.0000   1.0000   1.0000
     1.0000   1.0000   1.0000   1.0000   0.0000   0.0000   0.0000   0.0000
     0.0000   0.0000   0.0000   0.0000

          k =-0.1326-0.3977 0.5745 (  3932 PWs)   bands (ev):

   -15.1274 -15.1273 -15.0928 -15.0928 -15.0704 -15.0703 -15.0264 -15.0264
   -14.1322 -14.1322 -14.0970 -14.0970 -14.0524 -14.0524 -13.9983 -13.9983
   -13.9285 -13.9285 -13.8897 -13.8897  -1.1207  -1.1207   0.5285   0.5285
     4.0216   4.0216   4.9988   4.9988   8.8346   8.8346  10.0916  10.0916
    11.3548  11.3548  12.0665  12.0665

     occupation numbers 
     1.0000   1.0000   1.0000   1.0000   1.0000   1.0000   1.0000   1.0000
     1.0000   1.0000   1.0000   1.0000   1.0000   1.0000   1.0000   1.0000
     1.0000   1.0000   1.0000   1.0000   1.0000   1.0000   1.0000   1.0000
     1.0000   1.0000   1.0000   1.0000   0.0000   0.0000   0.0000   0.0000
     0.0000   0.0000   0.0000   0.0000

          k =-0.0884-0.3536 0.5303 (  3929 PWs)   bands (ev):

   -15.1276 -15.1276 -15.0922 -15.0922 -15.0710 -15.0710 -15.0261 -15.0261
   -14.1327 -14.1326 -14.0971 -14.0971 -14.0521 -14.0521 -13.9979 -13.9979
   -13.9285 -13.9285 -13.8899 -13.8899  -1.1753  -1.1753   0.5978   0.5978
     3.9892   3.9892   5.0672   5.0672   8.8782   8.8782  10.0857  10.0857
    11.4121  11.4121  12.0326  12.0326

     occupation numbers 
     1.0000   1.0000   1.0000   1.0000   1.0000   1.0000   1.0000   1.0000
     1.0000   1.0000   1.0000   1.0000   1.0000   1.0000   1.0000   1.0000
     1.0000   1.0000   1.0000   1.0000   1.0000   1.0000   1.0000   1.0000
     1.0000   1.0000   1.0000   1.0000   0.0000   0.0000   0.0000   0.0000
     0.0000   0.0000   0.0000   0.0000

          k =-0.0442-0.3094 0.4861 (  3932 PWs)   bands (ev):

   -15.1274 -15.1274 -15.0944 -15.0943 -15.0688 -15.0687 -15.0269 -15.0269
   -14.1347 -14.1347 -14.0978 -14.0978 -14.0518 -14.0518 -13.9935 -13.9935
   -13.9288 -13.9288 -13.8921 -13.8921  -1.4190  -1.4190   0.9170   0.9170
     4.0604   4.0604   5.2091   5.2091   8.9252   8.9252   9.9736   9.9736
    10.8549  10.8549  12.2389  12.2389

     occupation numbers 
     1.0000   1.0000   1.0000   1.0000   1.0000   1.0000   1.0000   1.0000
     1.0000   1.0000   1.0000   1.0000   1.0000   1.0000   1.0000   1.0000
     1.0000   1.0000   1.0000   1.0000   1.0000   1.0000   1.0000   1.0000
     1.0000   1.0000   1.0000   1.0000   0.0000   0.0000   0.0000   0.0000
     0.0000   0.0000   0.0000   0.0000

          k = 0.0000-0.2652 0.4419 (  3924 PWs)   bands (ev):

   -15.1268 -15.1268 -15.0979 -15.0979 -15.0648 -15.0647 -15.0282 -15.0282
   -14.1392 -14.1392 -14.0966 -14.0966 -14.0519 -14.0519 -13.9862 -13.9862
   -13.9298 -13.9298 -13.8954 -13.8954  -1.7171  -1.7171   1.3358   1.3358
     4.2542   4.2542   5.3992   5.3992   8.9154   8.9154   9.6304   9.6304
    10.6819  10.6819  12.0117  12.0117

     occupation numbers 
     1.0000   1.0000   1.0000   1.0000   1.0000   1.0000   1.0000   1.0000
     1.0000   1.0000   1.0000   1.0000   1.0000   1.0000   1.0000   1.0000
     1.0000   1.0000   1.0000   1.0000   1.0000   1.0000   1.0000   1.0000
     1.0000   1.0000   1.0000   1.0000   0.0000   0.0000   0.0000   0.0000
     0.0000   0.0000   0.0000   0.0000

          k =-0.1768-0.5303 0.7071 (  3944 PWs)   bands (ev):

   -15.1241 -15.1241 -15.1026 -15.1026 -15.0598 -15.0598 -15.0314 -15.0314
   -14.1340 -14.1340 -14.0997 -14.0996 -14.0503 -14.0503 -13.9942 -13.9942
   -13.9274 -13.9274 -13.8937 -13.8937  -1.4258  -1.4258   0.9548   0.9548
     4.4188   4.4188   4.8756   4.8756   8.5703   8.5703   8.9630   8.9630
    11.3645  11.3645  12.9608  12.9609

     occupation numbers 
     1.0000   1.0000   1.0000   1.0000   1.0000   1.0000   1.0000   1.0000
     1.0000   1.0000   1.0000   1.0000   1.0000   1.0000   1.0000   1.0000
     1.0000   1.0000   1.0000   1.0000   1.0000   1.0000   1.0000   1.0000
     1.0000   1.0000   1.0000   1.0000   0.0000   0.0000   0.0000   0.0000
     0.0000   0.0000   0.0000   0.0000

          k =-0.1326-0.4861 0.6629 (  3942 PWs)   bands (ev):

   -15.1252 -15.1252 -15.0993 -15.0993 -15.0636 -15.0635 -15.0292 -15.0292
   -14.1323 -14.1323 -14.0982 -14.0981 -14.0480 -14.0480 -14.0030 -14.0030
   -13.9269 -13.9269 -13.8902 -13.8902  -1.1220  -1.1220   0.5712   0.5712
     4.1914   4.1914   4.7536   4.7536   8.7416   8.7416   9.4270   9.4270
    11.1926  11.1926  12.9170  12.9170

     occupation numbers 
     1.0000   1.0000   1.0000   1.0000   1.0000   1.0000   1.0000   1.0000
     1.0000   1.0000   1.0000   1.0000   1.0000   1.0000   1.0000   1.0000
     1.0000   1.0000   1.0000   1.0000   1.0000   1.0000   1.0000   1.0000
     1.0000   1.0000   1.0000   1.0000   0.0000   0.0000   0.0000   0.0000
     0.0000   0.0000   0.0000   0.0000

          k =-0.0884-0.4419 0.6187 (  3940 PWs)   bands (ev):

   -15.1262 -15.1262 -15.0962 -15.0961 -15.0672 -15.0672 -15.0274 -15.0273
   -14.1325 -14.1325 -14.0955 -14.0954 -14.0462 -14.0462 -14.0092 -14.0091
   -13.9275 -13.9275 -13.8875 -13.8875  -0.8841  -0.8841   0.2959   0.2959
     3.9964   3.9965   4.7422   4.7422   8.8006   8.8006  10.1397  10.1397
    11.0945  11.0945  12.3479  12.3479

     occupation numbers 
     1.0000   1.0000   1.0000   1.0000   1.0000   1.0000   1.0000   1.0000
     1.0000   1.0000   1.0000   1.0000   1.0000   1.0000   1.0000   1.0000
     1.0000   1.0000   1.0000   1.0000   1.0000   1.0000   1.0000   1.0000
     1.0000   1.0000   1.0000   1.0000   0.0000   0.0000   0.0000   0.0000
     0.0000   0.0000   0.0000   0.0000

          k =-0.0442-0.3977 0.5745 (  3934 PWs)   bands (ev):

   -15.1269 -15.1269 -15.0938 -15.0937 -15.0698 -15.0697 -15.0262 -15.0262
   -14.1329 -14.1329 -14.0943 -14.0943 -14.0464 -14.0464 -14.0095 -14.0095
   -13.9282 -13.9281 -13.8867 -13.8867  -0.8861  -0.8861   0.3008   0.3008
     3.8856   3.8856   4.8296   4.8296   8.8769   8.8769  10.5983  10.5983
    11.3019  11.3019  11.6403  11.6403

     occupation numbers 
     1.0000   1.0000   1.0000   1.0000   1.0000   1.0000   1.0000   1.0000
     1.0000   1.0000   1.0000   1.0000   1.0000   1.0000   1.0000   1.0000
     1.0000   1.0000   1.0000   1.0000   1.0000   1.0000   1.0000   1.0000
     1.0000   1.0000   1.0000   1.0000   0.0000   0.0000   0.0000   0.0000
     0.0000   0.0000   0.0000   0.0000

          k = 0.0000-0.3536 0.5303 (  3935 PWs)   bands (ev):

   -15.1274 -15.1274 -15.0931 -15.0930 -15.0704 -15.0704 -15.0261 -15.0261
   -14.1335 -14.1335 -14.0957 -14.0957 -14.0488 -14.0488 -14.0035 -14.0035
   -13.9284 -13.9284 -13.8884 -13.8884  -1.1215  -1.1215   0.5696   0.5696
     3.8986   3.8986   4.9942   4.9942   8.9515   8.9515  10.4652  10.4652
    10.9334  10.9334  12.1089  12.1089

     occupation numbers 
     1.0000   1.0000   1.0000   1.0000   1.0000   1.0000   1.0000   1.0000
     1.0000   1.0000   1.0000   1.0000   1.0000   1.0000   1.0000   1.0000
     1.0000   1.0000   1.0000   1.0000   1.0000   1.0000   1.0000   1.0000
     1.0000   1.0000   1.0000   1.0000   0.0000   0.0000   0.0000   0.0000
     0.0000   0.0000   0.0000   0.0000

          k =-0.0884-0.5303 0.7071 (  3938 PWs)   bands (ev):

   -15.1233 -15.1233 -15.1026 -15.1026 -15.0598 -15.0597 -15.0314 -15.0314
   -14.1301 -14.1301 -14.1004 -14.1004 -14.0426 -14.0426 -14.0102 -14.0102
   -13.9235 -13.9234 -13.8910 -13.8910  -0.8996  -0.8996   0.3040   0.3040
     4.3375   4.3375   4.5941   4.5941   8.5353   8.5353   8.7898   8.7898
    12.0305  12.0305  13.2518  13.2518

     occupation numbers 
     1.0000   1.0000   1.0000   1.0000   1.0000   1.0000   1.0000   1.0000
     1.0000   1.0000   1.0000   1.0000   1.0000   1.0000   1.0000   1.0000
     1.0000   1.0000   1.0000   1.0000   1.0000   1.0000   1.0000   1.0000
     1.0000   1.0000   1.0000   1.0000   0.0000   0.0000   0.0000   0.0000
     0.0000   0.0000   0.0000   0.0000

          k =-0.0442-0.4861 0.6629 (  3942 PWs)   bands (ev):

   -15.1246 -15.1246 -15.0997 -15.0996 -15.0634 -15.0634 -15.0292 -15.0292
   -14.1314 -14.1314 -14.0966 -14.0966 -14.0390 -14.0389 -14.0180 -14.0179
   -13.9253 -13.9252 -13.8877 -13.8877  -0.6163  -0.6163   0.0045   0.0045
     4.1347   4.1347   4.5471   4.5471   8.6922   8.6922   9.3735   9.3735
    11.8489  11.8489  12.5663  12.5664

     occupation numbers 
     1.0000   1.0000   1.0000   1.0000   1.0000   1.0000   1.0000   1.0000
     1.0000   1.0000   1.0000   1.0000   1.0000   1.0000   1.0000   1.0000
     1.0000   1.0000   1.0000   1.0000   1.0000   1.0000   1.0000   1.0000
     1.0000   1.0000   1.0000   1.0000   0.0000   0.0000   0.0000   0.0000
     0.0000   0.0000   0.0000   0.0000

          k = 0.0000-0.4419 0.6187 (  3930 PWs)   bands (ev):

   -15.1258 -15.1258 -15.0965 -15.0965 -15.0668 -15.0668 -15.0273 -15.0273
   -14.1326 -14.1326 -14.0939 -14.0939 -14.0404 -14.0404 -14.0177 -14.0176
   -13.9270 -13.9270 -13.8859 -13.8859  -0.6184  -0.6184   0.0160   0.0160
     3.9475   3.9475   4.6467   4.6467   8.7818   8.7818  10.1777  10.1777
    11.6575  11.6575  11.7565  11.7565

     occupation numbers 
     1.0000   1.0000   1.0000   1.0000   1.0000   1.0000   1.0000   1.0000
     1.0000   1.0000   1.0000   1.0000   1.0000   1.0000   1.0000   1.0000
     1.0000   1.0000   1.0000   1.0000   1.0000   1.0000   1.0000   1.0000
     1.0000   1.0000   1.0000   1.0000   0.0000   0.0000   0.0000   0.0000
     0.0000   0.0000   0.0000   0.0000

          k =-0.7071 0.1768 0.0000 (  3940 PWs)   bands (ev):

   -15.1230 -15.1230 -15.1028 -15.1027 -15.0596 -15.0596 -15.0315 -15.0315
   -14.1294 -14.1294 -14.1001 -14.1001 -14.0333 -14.0333 -14.0227 -14.0226
   -13.9221 -13.9221 -13.8901 -13.8901  -0.3342  -0.3341  -0.3033  -0.3033
     4.3356   4.3356   4.4735   4.4735   8.5521   8.5521   8.6919   8.6919
    12.6708  12.6709  12.8328  12.8328

     occupation numbers 
     1.0000   1.0000   1.0000   1.0000   1.0000   1.0000   1.0000   1.0000
     1.0000   1.0000   1.0000   1.0000   1.0000   1.0000   1.0000   1.0000
     1.0000   1.0000   1.0000   1.0000   1.0000   1.0000   1.0000   1.0000
     1.0000   1.0000   1.0000   1.0000   0.0000   0.0000   0.0000   0.0000
     0.0000   0.0000   0.0000   0.0000

          k =-0.1768-0.4419 0.7071 (  3933 PWs)   bands (ev):

   -15.1263 -15.1263 -15.0970 -15.0969 -15.0661 -15.0661 -15.0278 -15.0278
   -14.1339 -14.1339 -14.0972 -14.0972 -14.0501 -14.0501 -13.9983 -13.9983
   -13.9286 -13.9286 -13.8904 -13.8904  -1.2921  -1.2921   0.7822   0.7822
     4.1149   4.1149   4.9095   4.9095   9.2635   9.2635   9.5423   9.5423
    10.6386  10.6386  12.6937  12.6937

     occupation numbers 
     1.0000   1.0000   1.0000   1.0000   1.0000   1.0000   1.0000   1.0000
     1.0000   1.0000   1.0000   1.0000   1.0000   1.0000   1.0000   1.0000
     1.0000   1.0000   1.0000   1.0000   1.0000   1.0000   1.0000   1.0000
     1.0000   1.0000   1.0000   1.0000   0.0000   0.0000   0.0000   0.0000
     0.0000   0.0000   0.0000   0.0000

          k =-0.1326-0.3977 0.6629 (  3936 PWs)   bands (ev):

   -15.1267 -15.1267 -15.0948 -15.0948 -15.0687 -15.0686 -15.0267 -15.0267
   -14.1332 -14.1332 -14.0949 -14.0949 -14.0479 -14.0479 -14.0062 -14.0062
   -13.9286 -13.9286 -13.8874 -13.8874  -1.0087  -1.0087   0.4437   0.4437
     3.9877   3.9877   4.7549   4.7549   9.3350   9.3350   9.9852   9.9853
    10.7483  10.7483  12.2351  12.2351

     occupation numbers 
     1.0000   1.0000   1.0000   1.0000   1.0000   1.0000   1.0000   1.0000
     1.0000   1.0000   1.0000   1.0000   1.0000   1.0000   1.0000   1.0000
     1.0000   1.0000   1.0000   1.0000   1.0000   1.0000   1.0000   1.0000
     1.0000   1.0000   1.0000   1.0000   0.0000   0.0000   0.0000   0.0000
     0.0000   0.0000   0.0000   0.0000

          k =-0.0884-0.3536 0.6187 (  3932 PWs)   bands (ev):

   -15.1269 -15.1269 -15.0940 -15.0939 -15.0696 -15.0696 -15.0262 -15.0262
   -14.1331 -14.1331 -14.0936 -14.0936 -14.0469 -14.0468 -14.0094 -14.0094
   -13.9286 -13.9286 -13.8862 -13.8862  -0.8708  -0.8708   0.2863   0.2863
     3.9472   3.9472   4.6985   4.6985   9.3401   9.3401  10.1048  10.1048
    11.2466  11.2466  11.5813  11.5813

     occupation numbers 
     1.0000   1.0000   1.0000   1.0000   1.0000   1.0000   1.0000   1.0000
     1.0000   1.0000   1.0000   1.0000   1.0000   1.0000   1.0000   1.0000
     1.0000   1.0000   1.0000   1.0000   1.0000   1.0000   1.0000   1.0000
     1.0000   1.0000   1.0000   1.0000   0.0000   0.0000   0.0000   0.0000
     0.0000   0.0000   0.0000   0.0000

          k =-0.0884-0.4419 0.7071 (  3941 PWs)   bands (ev):

   -15.1257 -15.1257 -15.0975 -15.0974 -15.0660 -15.0659 -15.0278 -15.0278
   -14.1327 -14.1327 -14.0948 -14.0948 -14.0436 -14.0435 -14.0129 -14.0129
   -13.9275 -13.9275 -13.8868 -13.8868  -0.8163  -0.8163   0.2341   0.2341
     4.0982   4.0982   4.5236   4.5236   9.3233   9.3233   9.5383   9.5383
    11.0163  11.0163  12.4015  12.4015

     occupation numbers 
     1.0000   1.0000   1.0000   1.0000   1.0000   1.0000   1.0000   1.0000
     1.0000   1.0000   1.0000   1.0000   1.0000   1.0000   1.0000   1.0000
     1.0000   1.0000   1.0000   1.0000   1.0000   1.0000   1.0000   1.0000
     1.0000   1.0000   1.0000   1.0000   0.0000   0.0000   0.0000   0.0000
     0.0000   0.0000   0.0000   0.0000

          k =-0.0442-0.3977 0.6629 (  3933 PWs)   bands (ev):

   -15.1261 -15.1261 -15.0958 -15.0958 -15.0679 -15.0678 -15.0267 -15.0267
   -14.1334 -14.1334 -14.0921 -14.0921 -14.0406 -14.0405 -14.0188 -14.0187
   -13.9282 -13.9282 -13.8847 -13.8847  -0.5968  -0.5968   0.0054   0.0054
     4.0163   4.0163   4.4444   4.4444   9.4649   9.4649  10.1730  10.1730
    10.9414  10.9414  11.5540  11.5540

     occupation numbers 
     1.0000   1.0000   1.0000   1.0000   1.0000   1.0000   1.0000   1.0000
     1.0000   1.0000   1.0000   1.0000   1.0000   1.0000   1.0000   1.0000
     1.0000   1.0000   1.0000   1.0000   1.0000   1.0000   1.0000   1.0000
     1.0000   1.0000   1.0000   1.0000   0.0000   0.0000   0.0000   0.0000
     0.0000   0.0000   0.0000   0.0000

          k =-0.0000-0.3536 0.6187 (  3928 PWs)   bands (ev):

   -15.1264 -15.1264 -15.0948 -15.0947 -15.0689 -15.0688 -15.0263 -15.0263
   -14.1335 -14.1335 -14.0921 -14.0921 -14.0429 -14.0428 -14.0156 -14.0156
   -13.9285 -13.9285 -13.8848 -13.8848  -0.7184  -0.7184   0.1350   0.1350
     3.9557   3.9557   4.5436   4.5437   9.5133   9.5133  10.3547  10.3547
    10.8287  10.8287  11.4619  11.4620

     occupation numbers 
     1.0000   1.0000   1.0000   1.0000   1.0000   1.0000   1.0000   1.0000
     1.0000   1.0000   1.0000   1.0000   1.0000   1.0000   1.0000   1.0000
     1.0000   1.0000   1.0000   1.0000   1.0000   1.0000   1.0000   1.0000
     1.0000   1.0000   1.0000   1.0000   0.0000   0.0000   0.0000   0.0000
     0.0000   0.0000   0.0000   0.0000

          k =-0.7071 0.2652 0.0000 (  3936 PWs)   bands (ev):

   -15.1253 -15.1253 -15.0979 -15.0979 -15.0656 -15.0655 -15.0278 -15.0278
   -14.1328 -14.1328 -14.0934 -14.0934 -14.0359 -14.0359 -14.0234 -14.0233
   -13.9269 -13.9269 -13.8853 -13.8853  -0.3232  -0.3232  -0.2822  -0.2821
     4.1598   4.1598   4.3240   4.3240   9.3224   9.3224   9.5191   9.5191
    11.6292  11.6292  11.7353  11.7353

     occupation numbers 
     1.0000   1.0000   1.0000   1.0000   1.0000   1.0000   1.0000   1.0000
     1.0000   1.0000   1.0000   1.0000   1.0000   1.0000   1.0000   1.0000
     1.0000   1.0000   1.0000   1.0000   1.0000   1.0000   1.0000   1.0000
     1.0000   1.0000   1.0000   1.0000   0.0000   0.0000   0.0000   0.0000
     0.0000   0.0000   0.0000   0.0000

          k =-0.7071 0.3536 0.0000 (  3972 PWs)   bands (ev):

   -15.1264 -15.1264 -15.0961 -15.0960 -15.0684 -15.0684 -15.0269 -15.0268
   -14.1341 -14.1341 -14.0911 -14.0910 -14.0373 -14.0372 -14.0242 -14.0241
   -13.9290 -13.9290 -13.8841 -13.8841  -0.3183  -0.3183  -0.2736  -0.2735
     4.0939   4.0939   4.2661   4.2661   9.9165   9.9165  10.2388  10.2388
    10.9192  10.9192  10.9404  10.9404

     occupation numbers 
     1.0000   1.0000   1.0000   1.0000   1.0000   1.0000   1.0000   1.0000
     1.0000   1.0000   1.0000   1.0000   1.0000   1.0000   1.0000   1.0000
     1.0000   1.0000   1.0000   1.0000   1.0000   1.0000   1.0000   1.0000
     1.0000   1.0000   1.0000   1.0000   0.0000   0.0000   0.0000   0.0000
     0.0000   0.0000   0.0000   0.0000

     the Fermi energy is     6.9539 ev

!    total energy              =    -325.84708865 Ry
     Harris-Foulkes estimate   =    -325.84708859 Ry
     estimated scf accuracy    <       0.00000011 Ry

     The total energy is the sum of the following terms:

     one-electron contribution =    -157.75522526 Ry
     hartree contribution      =      95.54146204 Ry
     xc contribution           =     -96.10352999 Ry
     ewald contribution        =    -167.52979538 Ry
     smearing contrib. (-TS)   =      -0.00000006 Ry

     convergence has been achieved in   5 iterations

     Writing output data file Sn.save
 
     init_run     :      4.39s CPU      4.66s WALL (       1 calls)
     electrons    :     88.23s CPU     91.39s WALL (       1 calls)

     Called by init_run:
     wfcinit      :      4.07s CPU      4.21s WALL (       1 calls)
     potinit      :      0.01s CPU      0.02s WALL (       1 calls)

     Called by electrons:
     c_bands      :     74.44s CPU     77.21s WALL (       6 calls)
     sum_band     :     13.48s CPU     13.80s WALL (       6 calls)
     v_of_rho     :      0.03s CPU      0.03s WALL (       6 calls)
     v_h          :      0.00s CPU      0.00s WALL (       6 calls)
     v_xc         :      0.03s CPU      0.03s WALL (       6 calls)
     newd         :      0.31s CPU      0.34s WALL (       6 calls)
     mix_rho      :      0.01s CPU      0.02s WALL (       6 calls)

     Called by c_bands:
     init_us_2    :      0.24s CPU      0.31s WALL (    1885 calls)
     cegterg      :     69.49s CPU     72.02s WALL (     870 calls)

     Called by sum_band:
     sum_band:bec :      1.93s CPU      1.93s WALL (     870 calls)
     addusdens    :      0.13s CPU      0.17s WALL (       6 calls)

     Called by *egterg:
     h_psi        :     56.29s CPU     57.87s WALL (    3074 calls)
     s_psi        :      2.10s CPU      2.12s WALL (    3074 calls)
     g_psi        :      0.17s CPU      0.17s WALL (    2059 calls)
     cdiaghg      :      6.91s CPU      6.99s WALL (    2784 calls)
     cegterg:over :      2.87s CPU      2.89s WALL (    2059 calls)
     cegterg:upda :      1.35s CPU      1.35s WALL (    2059 calls)
     cegterg:last :      0.69s CPU      0.69s WALL (     870 calls)

     Called by h_psi:
     h_psi:vloc   :     51.14s CPU     52.64s WALL (    3074 calls)
     h_psi:vnl    :      5.01s CPU      5.06s WALL (    3074 calls)
     add_vuspsi   :      2.45s CPU      2.47s WALL (    3074 calls)

     General routines
     calbec       :      3.38s CPU      3.44s WALL (    3944 calls)
     fft          :      0.06s CPU      0.07s WALL (     116 calls)
     fftw         :     57.47s CPU     59.12s WALL (  391384 calls)
     davcio       :      0.03s CPU      0.22s WALL (     145 calls)
 
     Parallel routines
     fft_scatter  :     35.44s CPU     36.59s WALL (  391500 calls)
 
     PWSCF        :  1m33.59s CPU     1m37.37s WALL

 
   This run was terminated on:  19:53:45  15Mar2020            

=------------------------------------------------------------------------------=
   JOB DONE.
=------------------------------------------------------------------------------=
