
     Program PWSCF v.5.4.0 starts on 21Feb2020 at  0:53:25 

     This program is part of the open-source Quantum ESPRESSO suite
     for quantum simulation of materials; please cite
         "P. Giannozzi et al., J. Phys.:Condens. Matter 21 395502 (2009);
          URL http://www.quantum-espresso.org", 
     in publications or presentations arising from this work. More details at
     http://www.quantum-espresso.org/quote

     Parallel version (MPI & OpenMP), running on      16 processor cores
     Number of MPI processes:                16
     Threads/MPI process:                     1
     R & G space division:  proc/nbgrp/npool/nimage =      16
     Waiting for input...
     Reading input from standard input
Warning: card &IONS ignored
Warning: card / ignored
Warning: card &CELL ignored
Warning: card / ignored

     Current dimensions of program PWSCF are:
     Max number of different atomic species (ntypx) = 10
     Max number of k-points (npk) =  40000
     Max angular momentum in pseudopotentials (lmaxx) =  3

     Subspace diagonalization in iterative solution of the eigenvalue problem:
     a serial algorithm will be used

 
     Parallelization info
     --------------------
     sticks:   dense  smooth     PW     G-vecs:    dense   smooth      PW
     Min         136     136     38                 4208     4208     635
     Max         138     138     40                 4210     4210     637
     Sum        2185    2185    625                67337    67337   10177
 

     Title: 
     Sn                                                                         


     bravais-lattice index     =            0
     lattice parameter (alat)  =       8.8993  a.u.
     unit-cell volume          =     498.3785 (a.u.)^3
     number of atoms/cell      =            2
     number of atomic types    =            1
     number of electrons       =        28.00
     number of Kohn-Sham states=           18
     kinetic-energy cutoff     =     100.0000  Ry
     charge density cutoff     =     400.0000  Ry
     convergence threshold     =      1.0E-06
     mixing beta               =       0.7000
     number of iterations used =            8  plain     mixing
     Exchange-correlation      = PBE ( 1  4  3  4 0 0)

     celldm(1)=   8.899346  celldm(2)=   0.000000  celldm(3)=   0.000000
     celldm(4)=   0.000000  celldm(5)=   0.000000  celldm(6)=   0.000000

     crystal axes: (cart. coord. in units of alat)
               a(1) = (   0.000000   0.707107   0.707107 )  
               a(2) = (   0.707107   0.000000   0.707107 )  
               a(3) = (   0.707107   0.707107   0.000000 )  

     reciprocal axes: (cart. coord. in units 2 pi/alat)
               b(1) = ( -0.707107  0.707107  0.707107 )  
               b(2) = (  0.707107 -0.707107  0.707107 )  
               b(3) = (  0.707107  0.707107 -0.707107 )  


     PseudoPot. # 1 for Sn read from file:
     ../PseudopotentialDatabase/Sn_ONCV_PBE-1.1.upf
     MD5 check sum: 7fc728ef37b8342e916bba54f6049344
     Pseudo is Norm-conserving, Zval = 14.0
     Generated using ONCVPSP code by D. R. Hamann
     Using radial grid of  602 points,  6 beta functions with: 
                l(1) =   0
                l(2) =   0
                l(3) =   1
                l(4) =   1
                l(5) =   2
                l(6) =   2

     atomic species   valence    mass     pseudopotential
        Sn            14.00   118.71000     Sn( 1.00)

     48 Sym. Ops., with inversion, found (24 have fractional translation)


                                    s                        frac. trans.

      isym =  1     identity                                     

 cryst.   s( 1) = (     1          0          0      )
                  (     0          1          0      )
                  (     0          0          1      )

 cart.    s( 1) = (  1.0000000  0.0000000  0.0000000 )
                  (  0.0000000  1.0000000  0.0000000 )
                  (  0.0000000  0.0000000  1.0000000 )


      isym =  2     180 deg rotation - cart. axis [0,0,1]        

 cryst.   s( 2) = (     0          1         -1      )
                  (     1          0         -1      )
                  (     0          0         -1      )

 cart.    s( 2) = ( -1.0000000  0.0000000  0.0000000 )
                  (  0.0000000 -1.0000000  0.0000000 )
                  (  0.0000000  0.0000000  1.0000000 )


      isym =  3     180 deg rotation - cart. axis [0,1,0]        

 cryst.   s( 3) = (     0         -1          1      )
                  (     0         -1          0      )
                  (     1         -1          0      )

 cart.    s( 3) = ( -1.0000000  0.0000000  0.0000000 )
                  (  0.0000000  1.0000000  0.0000000 )
                  (  0.0000000  0.0000000 -1.0000000 )


      isym =  4     180 deg rotation - cart. axis [1,0,0]        

 cryst.   s( 4) = (    -1          0          0      )
                  (    -1          0          1      )
                  (    -1          1          0      )

 cart.    s( 4) = (  1.0000000  0.0000000  0.0000000 )
                  (  0.0000000 -1.0000000  0.0000000 )
                  (  0.0000000  0.0000000 -1.0000000 )


      isym =  5     180 deg rotation - cart. axis [1,1,0]        

 cryst.   s( 5) = (    -1          0          1      )    f =( -0.2500000 )
                  (     0         -1          1      )       ( -0.2500000 )
                  (     0          0          1      )       ( -0.2500000 )

 cart.    s( 5) = (  0.0000000  1.0000000  0.0000000 )    f =( -0.3535534 )
                  (  1.0000000  0.0000000  0.0000000 )       ( -0.3535534 )
                  (  0.0000000  0.0000000 -1.0000000 )       ( -0.3535534 )


      isym =  6     180 deg rotation - cart. axis [1,-1,0]       

 cryst.   s( 6) = (     0         -1          0      )    f =( -0.2500000 )
                  (    -1          0          0      )       ( -0.2500000 )
                  (     0          0         -1      )       ( -0.2500000 )

 cart.    s( 6) = (  0.0000000 -1.0000000  0.0000000 )    f =( -0.3535534 )
                  ( -1.0000000  0.0000000  0.0000000 )       ( -0.3535534 )
                  (  0.0000000  0.0000000 -1.0000000 )       ( -0.3535534 )


      isym =  7      90 deg rotation - cart. axis [0,0,-1]       

 cryst.   s( 7) = (     0          1          0      )    f =( -0.2500000 )
                  (     0          1         -1      )       ( -0.2500000 )
                  (    -1          1          0      )       ( -0.2500000 )

 cart.    s( 7) = (  0.0000000  1.0000000  0.0000000 )    f =( -0.3535534 )
                  ( -1.0000000  0.0000000  0.0000000 )       ( -0.3535534 )
                  (  0.0000000  0.0000000  1.0000000 )       ( -0.3535534 )


      isym =  8      90 deg rotation - cart. axis [0,0,1]        

 cryst.   s( 8) = (     1          0         -1      )    f =( -0.2500000 )
                  (     1          0          0      )       ( -0.2500000 )
                  (     1         -1          0      )       ( -0.2500000 )

 cart.    s( 8) = (  0.0000000 -1.0000000  0.0000000 )    f =( -0.3535534 )
                  (  1.0000000  0.0000000  0.0000000 )       ( -0.3535534 )
                  (  0.0000000  0.0000000  1.0000000 )       ( -0.3535534 )


      isym =  9     180 deg rotation - cart. axis [1,0,1]        

 cryst.   s( 9) = (    -1          1          0      )    f =( -0.2500000 )
                  (     0          1          0      )       ( -0.2500000 )
                  (     0          1         -1      )       ( -0.2500000 )

 cart.    s( 9) = (  0.0000000  0.0000000  1.0000000 )    f =( -0.3535534 )
                  (  0.0000000 -1.0000000  0.0000000 )       ( -0.3535534 )
                  (  1.0000000  0.0000000  0.0000000 )       ( -0.3535534 )


      isym = 10     180 deg rotation - cart. axis [-1,0,1]       

 cryst.   s(10) = (     0          0         -1      )    f =( -0.2500000 )
                  (     0         -1          0      )       ( -0.2500000 )
                  (    -1          0          0      )       ( -0.2500000 )

 cart.    s(10) = (  0.0000000  0.0000000 -1.0000000 )    f =( -0.3535534 )
                  (  0.0000000 -1.0000000  0.0000000 )       ( -0.3535534 )
                  ( -1.0000000  0.0000000  0.0000000 )       ( -0.3535534 )


      isym = 11      90 deg rotation - cart. axis [0,1,0]        

 cryst.   s(11) = (     0          0          1      )    f =( -0.2500000 )
                  (    -1          0          1      )       ( -0.2500000 )
                  (     0         -1          1      )       ( -0.2500000 )

 cart.    s(11) = (  0.0000000  0.0000000  1.0000000 )    f =( -0.3535534 )
                  (  0.0000000  1.0000000  0.0000000 )       ( -0.3535534 )
                  ( -1.0000000  0.0000000  0.0000000 )       ( -0.3535534 )


      isym = 12      90 deg rotation - cart. axis [0,-1,0]       

 cryst.   s(12) = (     1         -1          0      )    f =( -0.2500000 )
                  (     1          0         -1      )       ( -0.2500000 )
                  (     1          0          0      )       ( -0.2500000 )

 cart.    s(12) = (  0.0000000  0.0000000 -1.0000000 )    f =( -0.3535534 )
                  (  0.0000000  1.0000000  0.0000000 )       ( -0.3535534 )
                  (  1.0000000  0.0000000  0.0000000 )       ( -0.3535534 )


      isym = 13     180 deg rotation - cart. axis [0,1,1]        

 cryst.   s(13) = (     1          0          0      )    f =( -0.2500000 )
                  (     1         -1          0      )       ( -0.2500000 )
                  (     1          0         -1      )       ( -0.2500000 )

 cart.    s(13) = ( -1.0000000  0.0000000  0.0000000 )    f =( -0.3535534 )
                  (  0.0000000  0.0000000  1.0000000 )       ( -0.3535534 )
                  (  0.0000000  1.0000000  0.0000000 )       ( -0.3535534 )


      isym = 14     180 deg rotation - cart. axis [0,1,-1]       

 cryst.   s(14) = (    -1          0          0      )    f =( -0.2500000 )
                  (     0          0         -1      )       ( -0.2500000 )
                  (     0         -1          0      )       ( -0.2500000 )

 cart.    s(14) = ( -1.0000000  0.0000000  0.0000000 )    f =( -0.3535534 )
                  (  0.0000000  0.0000000 -1.0000000 )       ( -0.3535534 )
                  (  0.0000000 -1.0000000  0.0000000 )       ( -0.3535534 )


      isym = 15      90 deg rotation - cart. axis [-1,0,0]       

 cryst.   s(15) = (     0         -1          1      )    f =( -0.2500000 )
                  (     0          0          1      )       ( -0.2500000 )
                  (    -1          0          1      )       ( -0.2500000 )

 cart.    s(15) = (  1.0000000  0.0000000  0.0000000 )    f =( -0.3535534 )
                  (  0.0000000  0.0000000  1.0000000 )       ( -0.3535534 )
                  (  0.0000000 -1.0000000  0.0000000 )       ( -0.3535534 )


      isym = 16      90 deg rotation - cart. axis [1,0,0]        

 cryst.   s(16) = (     0          1         -1      )    f =( -0.2500000 )
                  (    -1          1          0      )       ( -0.2500000 )
                  (     0          1          0      )       ( -0.2500000 )

 cart.    s(16) = (  1.0000000  0.0000000  0.0000000 )    f =( -0.3535534 )
                  (  0.0000000  0.0000000 -1.0000000 )       ( -0.3535534 )
                  (  0.0000000  1.0000000  0.0000000 )       ( -0.3535534 )


      isym = 17     120 deg rotation - cart. axis [-1,-1,-1]     

 cryst.   s(17) = (     0          0          1      )
                  (     1          0          0      )
                  (     0          1          0      )

 cart.    s(17) = (  0.0000000  1.0000000  0.0000000 )
                  (  0.0000000  0.0000000  1.0000000 )
                  (  1.0000000  0.0000000  0.0000000 )


      isym = 18     120 deg rotation - cart. axis [-1,1,1]       

 cryst.   s(18) = (     1         -1          0      )
                  (     0         -1          1      )
                  (     0         -1          0      )

 cart.    s(18) = (  0.0000000 -1.0000000  0.0000000 )
                  (  0.0000000  0.0000000  1.0000000 )
                  ( -1.0000000  0.0000000  0.0000000 )


      isym = 19     120 deg rotation - cart. axis [1,1,-1]       

 cryst.   s(19) = (    -1          1          0      )
                  (    -1          0          0      )
                  (    -1          0          1      )

 cart.    s(19) = (  0.0000000  1.0000000  0.0000000 )
                  (  0.0000000  0.0000000 -1.0000000 )
                  ( -1.0000000  0.0000000  0.0000000 )


      isym = 20     120 deg rotation - cart. axis [1,-1,1]       

 cryst.   s(20) = (     0          0         -1      )
                  (     0          1         -1      )
                  (     1          0         -1      )

 cart.    s(20) = (  0.0000000 -1.0000000  0.0000000 )
                  (  0.0000000  0.0000000 -1.0000000 )
                  (  1.0000000  0.0000000  0.0000000 )


      isym = 21     120 deg rotation - cart. axis [1,1,1]        

 cryst.   s(21) = (     0          1          0      )
                  (     0          0          1      )
                  (     1          0          0      )

 cart.    s(21) = (  0.0000000  0.0000000  1.0000000 )
                  (  1.0000000  0.0000000  0.0000000 )
                  (  0.0000000  1.0000000  0.0000000 )


      isym = 22     120 deg rotation - cart. axis [-1,1,-1]      

 cryst.   s(22) = (    -1          0          1      )
                  (    -1          1          0      )
                  (    -1          0          0      )

 cart.    s(22) = (  0.0000000  0.0000000  1.0000000 )
                  ( -1.0000000  0.0000000  0.0000000 )
                  (  0.0000000 -1.0000000  0.0000000 )


      isym = 23     120 deg rotation - cart. axis [1,-1,-1]      

 cryst.   s(23) = (     1          0         -1      )
                  (     0          0         -1      )
                  (     0          1         -1      )

 cart.    s(23) = (  0.0000000  0.0000000 -1.0000000 )
                  ( -1.0000000  0.0000000  0.0000000 )
                  (  0.0000000  1.0000000  0.0000000 )


      isym = 24     120 deg rotation - cart. axis [-1,-1,1]      

 cryst.   s(24) = (     0         -1          0      )
                  (     1         -1          0      )
                  (     0         -1          1      )

 cart.    s(24) = (  0.0000000  0.0000000 -1.0000000 )
                  (  1.0000000  0.0000000  0.0000000 )
                  (  0.0000000 -1.0000000  0.0000000 )


      isym = 25     inversion                                    

 cryst.   s(25) = (    -1          0          0      )    f =( -0.2500000 )
                  (     0         -1          0      )       ( -0.2500000 )
                  (     0          0         -1      )       ( -0.2500000 )

 cart.    s(25) = ( -1.0000000  0.0000000  0.0000000 )    f =( -0.3535534 )
                  (  0.0000000 -1.0000000  0.0000000 )       ( -0.3535534 )
                  (  0.0000000  0.0000000 -1.0000000 )       ( -0.3535534 )


      isym = 26     inv. 180 deg rotation - cart. axis [0,0,1]   

 cryst.   s(26) = (     0         -1          1      )    f =( -0.2500000 )
                  (    -1          0          1      )       ( -0.2500000 )
                  (     0          0          1      )       ( -0.2500000 )

 cart.    s(26) = (  1.0000000  0.0000000  0.0000000 )    f =( -0.3535534 )
                  (  0.0000000  1.0000000  0.0000000 )       ( -0.3535534 )
                  (  0.0000000  0.0000000 -1.0000000 )       ( -0.3535534 )


      isym = 27     inv. 180 deg rotation - cart. axis [0,1,0]   

 cryst.   s(27) = (     0          1         -1      )    f =( -0.2500000 )
                  (     0          1          0      )       ( -0.2500000 )
                  (    -1          1          0      )       ( -0.2500000 )

 cart.    s(27) = (  1.0000000  0.0000000  0.0000000 )    f =( -0.3535534 )
                  (  0.0000000 -1.0000000  0.0000000 )       ( -0.3535534 )
                  (  0.0000000  0.0000000  1.0000000 )       ( -0.3535534 )


      isym = 28     inv. 180 deg rotation - cart. axis [1,0,0]   

 cryst.   s(28) = (     1          0          0      )    f =( -0.2500000 )
                  (     1          0         -1      )       ( -0.2500000 )
                  (     1         -1          0      )       ( -0.2500000 )

 cart.    s(28) = ( -1.0000000  0.0000000  0.0000000 )    f =( -0.3535534 )
                  (  0.0000000  1.0000000  0.0000000 )       ( -0.3535534 )
                  (  0.0000000  0.0000000  1.0000000 )       ( -0.3535534 )


      isym = 29     inv. 180 deg rotation - cart. axis [1,1,0]   

 cryst.   s(29) = (     1          0         -1      )
                  (     0          1         -1      )
                  (     0          0         -1      )

 cart.    s(29) = (  0.0000000 -1.0000000  0.0000000 )
                  ( -1.0000000  0.0000000  0.0000000 )
                  (  0.0000000  0.0000000  1.0000000 )


      isym = 30     inv. 180 deg rotation - cart. axis [1,-1,0]  

 cryst.   s(30) = (     0          1          0      )
                  (     1          0          0      )
                  (     0          0          1      )

 cart.    s(30) = (  0.0000000  1.0000000  0.0000000 )
                  (  1.0000000  0.0000000  0.0000000 )
                  (  0.0000000  0.0000000  1.0000000 )


      isym = 31     inv.  90 deg rotation - cart. axis [0,0,-1]  

 cryst.   s(31) = (     0         -1          0      )
                  (     0         -1          1      )
                  (     1         -1          0      )

 cart.    s(31) = (  0.0000000 -1.0000000  0.0000000 )
                  (  1.0000000  0.0000000  0.0000000 )
                  (  0.0000000  0.0000000 -1.0000000 )


      isym = 32     inv.  90 deg rotation - cart. axis [0,0,1]   

 cryst.   s(32) = (    -1          0          1      )
                  (    -1          0          0      )
                  (    -1          1          0      )

 cart.    s(32) = (  0.0000000  1.0000000  0.0000000 )
                  ( -1.0000000  0.0000000  0.0000000 )
                  (  0.0000000  0.0000000 -1.0000000 )


      isym = 33     inv. 180 deg rotation - cart. axis [1,0,1]   

 cryst.   s(33) = (     1         -1          0      )
                  (     0         -1          0      )
                  (     0         -1          1      )

 cart.    s(33) = (  0.0000000  0.0000000 -1.0000000 )
                  (  0.0000000  1.0000000  0.0000000 )
                  ( -1.0000000  0.0000000  0.0000000 )


      isym = 34     inv. 180 deg rotation - cart. axis [-1,0,1]  

 cryst.   s(34) = (     0          0          1      )
                  (     0          1          0      )
                  (     1          0          0      )

 cart.    s(34) = (  0.0000000  0.0000000  1.0000000 )
                  (  0.0000000  1.0000000  0.0000000 )
                  (  1.0000000  0.0000000  0.0000000 )


      isym = 35     inv.  90 deg rotation - cart. axis [0,1,0]   

 cryst.   s(35) = (     0          0         -1      )
                  (     1          0         -1      )
                  (     0          1         -1      )

 cart.    s(35) = (  0.0000000  0.0000000 -1.0000000 )
                  (  0.0000000 -1.0000000  0.0000000 )
                  (  1.0000000  0.0000000  0.0000000 )


      isym = 36     inv.  90 deg rotation - cart. axis [0,-1,0]  

 cryst.   s(36) = (    -1          1          0      )
                  (    -1          0          1      )
                  (    -1          0          0      )

 cart.    s(36) = (  0.0000000  0.0000000  1.0000000 )
                  (  0.0000000 -1.0000000  0.0000000 )
                  ( -1.0000000  0.0000000  0.0000000 )


      isym = 37     inv. 180 deg rotation - cart. axis [0,1,1]   

 cryst.   s(37) = (    -1          0          0      )
                  (    -1          1          0      )
                  (    -1          0          1      )

 cart.    s(37) = (  1.0000000  0.0000000  0.0000000 )
                  (  0.0000000  0.0000000 -1.0000000 )
                  (  0.0000000 -1.0000000  0.0000000 )


      isym = 38     inv. 180 deg rotation - cart. axis [0,1,-1]  

 cryst.   s(38) = (     1          0          0      )
                  (     0          0          1      )
                  (     0          1          0      )

 cart.    s(38) = (  1.0000000  0.0000000  0.0000000 )
                  (  0.0000000  0.0000000  1.0000000 )
                  (  0.0000000  1.0000000  0.0000000 )


      isym = 39     inv.  90 deg rotation - cart. axis [-1,0,0]  

 cryst.   s(39) = (     0          1         -1      )
                  (     0          0         -1      )
                  (     1          0         -1      )

 cart.    s(39) = ( -1.0000000  0.0000000  0.0000000 )
                  (  0.0000000  0.0000000 -1.0000000 )
                  (  0.0000000  1.0000000  0.0000000 )


      isym = 40     inv.  90 deg rotation - cart. axis [1,0,0]   

 cryst.   s(40) = (     0         -1          1      )
                  (     1         -1          0      )
                  (     0         -1          0      )

 cart.    s(40) = ( -1.0000000  0.0000000  0.0000000 )
                  (  0.0000000  0.0000000  1.0000000 )
                  (  0.0000000 -1.0000000  0.0000000 )


      isym = 41     inv. 120 deg rotation - cart. axis [-1,-1,-1]

 cryst.   s(41) = (     0          0         -1      )    f =( -0.2500000 )
                  (    -1          0          0      )       ( -0.2500000 )
                  (     0         -1          0      )       ( -0.2500000 )

 cart.    s(41) = (  0.0000000 -1.0000000  0.0000000 )    f =( -0.3535534 )
                  (  0.0000000  0.0000000 -1.0000000 )       ( -0.3535534 )
                  ( -1.0000000  0.0000000  0.0000000 )       ( -0.3535534 )


      isym = 42     inv. 120 deg rotation - cart. axis [-1,1,1]  

 cryst.   s(42) = (    -1          1          0      )    f =( -0.2500000 )
                  (     0          1         -1      )       ( -0.2500000 )
                  (     0          1          0      )       ( -0.2500000 )

 cart.    s(42) = (  0.0000000  1.0000000  0.0000000 )    f =( -0.3535534 )
                  (  0.0000000  0.0000000 -1.0000000 )       ( -0.3535534 )
                  (  1.0000000  0.0000000  0.0000000 )       ( -0.3535534 )


      isym = 43     inv. 120 deg rotation - cart. axis [1,1,-1]  

 cryst.   s(43) = (     1         -1          0      )    f =( -0.2500000 )
                  (     1          0          0      )       ( -0.2500000 )
                  (     1          0         -1      )       ( -0.2500000 )

 cart.    s(43) = (  0.0000000 -1.0000000  0.0000000 )    f =( -0.3535534 )
                  (  0.0000000  0.0000000  1.0000000 )       ( -0.3535534 )
                  (  1.0000000  0.0000000  0.0000000 )       ( -0.3535534 )


      isym = 44     inv. 120 deg rotation - cart. axis [1,-1,1]  

 cryst.   s(44) = (     0          0          1      )    f =( -0.2500000 )
                  (     0         -1          1      )       ( -0.2500000 )
                  (    -1          0          1      )       ( -0.2500000 )

 cart.    s(44) = (  0.0000000  1.0000000  0.0000000 )    f =( -0.3535534 )
                  (  0.0000000  0.0000000  1.0000000 )       ( -0.3535534 )
                  ( -1.0000000  0.0000000  0.0000000 )       ( -0.3535534 )


      isym = 45     inv. 120 deg rotation - cart. axis [1,1,1]   

 cryst.   s(45) = (     0         -1          0      )    f =( -0.2500000 )
                  (     0          0         -1      )       ( -0.2500000 )
                  (    -1          0          0      )       ( -0.2500000 )

 cart.    s(45) = (  0.0000000  0.0000000 -1.0000000 )    f =( -0.3535534 )
                  ( -1.0000000  0.0000000  0.0000000 )       ( -0.3535534 )
                  (  0.0000000 -1.0000000  0.0000000 )       ( -0.3535534 )


      isym = 46     inv. 120 deg rotation - cart. axis [-1,1,-1] 

 cryst.   s(46) = (     1          0         -1      )    f =( -0.2500000 )
                  (     1         -1          0      )       ( -0.2500000 )
                  (     1          0          0      )       ( -0.2500000 )

 cart.    s(46) = (  0.0000000  0.0000000 -1.0000000 )    f =( -0.3535534 )
                  (  1.0000000  0.0000000  0.0000000 )       ( -0.3535534 )
                  (  0.0000000  1.0000000  0.0000000 )       ( -0.3535534 )


      isym = 47     inv. 120 deg rotation - cart. axis [1,-1,-1] 

 cryst.   s(47) = (    -1          0          1      )    f =( -0.2500000 )
                  (     0          0          1      )       ( -0.2500000 )
                  (     0         -1          1      )       ( -0.2500000 )

 cart.    s(47) = (  0.0000000  0.0000000  1.0000000 )    f =( -0.3535534 )
                  (  1.0000000  0.0000000  0.0000000 )       ( -0.3535534 )
                  (  0.0000000 -1.0000000  0.0000000 )       ( -0.3535534 )


      isym = 48     inv. 120 deg rotation - cart. axis [-1,-1,1] 

 cryst.   s(48) = (     0          1          0      )    f =( -0.2500000 )
                  (    -1          1          0      )       ( -0.2500000 )
                  (     0          1         -1      )       ( -0.2500000 )

 cart.    s(48) = (  0.0000000  0.0000000  1.0000000 )    f =( -0.3535534 )
                  ( -1.0000000  0.0000000  0.0000000 )       ( -0.3535534 )
                  (  0.0000000  1.0000000  0.0000000 )       ( -0.3535534 )


   Cartesian axes

     site n.     atom                  positions (alat units)
         1           Sn  tau(   1) = (   0.0000000   0.0000000   0.0000000  )
         2           Sn  tau(   2) = (   0.3535534   0.3535534   0.3535534  )

   Crystallographic axes

     site n.     atom                  positions (cryst. coord.)
         1           Sn  tau(   1) = (  0.0000000  0.0000000  0.0000000  )
         2           Sn  tau(   2) = (  0.2500000  0.2500000  0.2500000  )

     number of k points=   256  gaussian smearing, width (Ry)=  0.0100
                       cart. coord. in units 2pi/alat
        k(    1) = (   0.0000000   0.0000000   0.0000000), wk =   0.0002500
        k(    2) = (   0.0353553   0.0353553  -0.0353553), wk =   0.0020000
        k(    3) = (   0.0707107   0.0707107  -0.0707107), wk =   0.0020000
        k(    4) = (   0.1060660   0.1060660  -0.1060660), wk =   0.0020000
        k(    5) = (   0.1414214   0.1414214  -0.1414214), wk =   0.0020000
        k(    6) = (   0.1767767   0.1767767  -0.1767767), wk =   0.0020000
        k(    7) = (   0.2121320   0.2121320  -0.2121320), wk =   0.0020000
        k(    8) = (   0.2474874   0.2474874  -0.2474874), wk =   0.0020000
        k(    9) = (   0.2828427   0.2828427  -0.2828427), wk =   0.0020000
        k(   10) = (   0.3181981   0.3181981  -0.3181981), wk =   0.0020000
        k(   11) = (  -0.3535534  -0.3535534   0.3535534), wk =   0.0010000
        k(   12) = (   0.0707107   0.0000000   0.0000000), wk =   0.0015000
        k(   13) = (   0.1060660   0.0353553  -0.0353553), wk =   0.0060000
        k(   14) = (   0.1414214   0.0707107  -0.0707107), wk =   0.0060000
        k(   15) = (   0.1767767   0.1060660  -0.1060660), wk =   0.0060000
        k(   16) = (   0.2121320   0.1414214  -0.1414214), wk =   0.0060000
        k(   17) = (   0.2474874   0.1767767  -0.1767767), wk =   0.0060000
        k(   18) = (   0.2828427   0.2121320  -0.2121320), wk =   0.0060000
        k(   19) = (   0.3181981   0.2474874  -0.2474874), wk =   0.0060000
        k(   20) = (   0.3535534   0.2828427  -0.2828427), wk =   0.0060000
        k(   21) = (  -0.3181981  -0.3889087   0.3889087), wk =   0.0060000
        k(   22) = (  -0.2828427  -0.3535534   0.3535534), wk =   0.0060000
        k(   23) = (  -0.2474874  -0.3181981   0.3181981), wk =   0.0060000
        k(   24) = (  -0.2121320  -0.2828427   0.2828427), wk =   0.0060000
        k(   25) = (  -0.1767767  -0.2474874   0.2474874), wk =   0.0060000
        k(   26) = (  -0.1414214  -0.2121320   0.2121320), wk =   0.0060000
        k(   27) = (  -0.1060660  -0.1767767   0.1767767), wk =   0.0060000
        k(   28) = (  -0.0707107  -0.1414214   0.1414214), wk =   0.0060000
        k(   29) = (  -0.0353553  -0.1060660   0.1060660), wk =   0.0060000
        k(   30) = (  -0.0000000  -0.0707107   0.0707107), wk =   0.0030000
        k(   31) = (   0.1414214   0.0000000   0.0000000), wk =   0.0015000
        k(   32) = (   0.1767767   0.0353553  -0.0353553), wk =   0.0060000
        k(   33) = (   0.2121320   0.0707107  -0.0707107), wk =   0.0060000
        k(   34) = (   0.2474874   0.1060660  -0.1060660), wk =   0.0060000
        k(   35) = (   0.2828427   0.1414214  -0.1414214), wk =   0.0060000
        k(   36) = (   0.3181981   0.1767767  -0.1767767), wk =   0.0060000
        k(   37) = (   0.3535534   0.2121320  -0.2121320), wk =   0.0060000
        k(   38) = (   0.3889087   0.2474874  -0.2474874), wk =   0.0060000
        k(   39) = (  -0.2828427  -0.4242641   0.4242641), wk =   0.0060000
        k(   40) = (  -0.2474874  -0.3889087   0.3889087), wk =   0.0060000
        k(   41) = (  -0.2121320  -0.3535534   0.3535534), wk =   0.0060000
        k(   42) = (  -0.1767767  -0.3181981   0.3181981), wk =   0.0060000
        k(   43) = (  -0.1414214  -0.2828427   0.2828427), wk =   0.0060000
        k(   44) = (  -0.1060660  -0.2474874   0.2474874), wk =   0.0060000
        k(   45) = (  -0.0707107  -0.2121320   0.2121320), wk =   0.0060000
        k(   46) = (  -0.0353553  -0.1767767   0.1767767), wk =   0.0060000
        k(   47) = (   0.0000000  -0.1414214   0.1414214), wk =   0.0030000
        k(   48) = (   0.2121320   0.0000000   0.0000000), wk =   0.0015000
        k(   49) = (   0.2474874   0.0353553  -0.0353553), wk =   0.0060000
        k(   50) = (   0.2828427   0.0707107  -0.0707107), wk =   0.0060000
        k(   51) = (   0.3181981   0.1060660  -0.1060660), wk =   0.0060000
        k(   52) = (   0.3535534   0.1414214  -0.1414214), wk =   0.0060000
        k(   53) = (   0.3889087   0.1767767  -0.1767767), wk =   0.0060000
        k(   54) = (   0.4242641   0.2121320  -0.2121320), wk =   0.0060000
        k(   55) = (  -0.2474874  -0.4596194   0.4596194), wk =   0.0060000
        k(   56) = (  -0.2121320  -0.4242641   0.4242641), wk =   0.0060000
        k(   57) = (  -0.1767767  -0.3889087   0.3889087), wk =   0.0060000
        k(   58) = (  -0.1414214  -0.3535534   0.3535534), wk =   0.0060000
        k(   59) = (  -0.1060660  -0.3181981   0.3181981), wk =   0.0060000
        k(   60) = (  -0.0707107  -0.2828427   0.2828427), wk =   0.0060000
        k(   61) = (  -0.0353553  -0.2474874   0.2474874), wk =   0.0060000
        k(   62) = (  -0.0000000  -0.2121320   0.2121320), wk =   0.0030000
        k(   63) = (   0.2828427   0.0000000   0.0000000), wk =   0.0015000
        k(   64) = (   0.3181981   0.0353553  -0.0353553), wk =   0.0060000
        k(   65) = (   0.3535534   0.0707107  -0.0707107), wk =   0.0060000
        k(   66) = (   0.3889087   0.1060660  -0.1060660), wk =   0.0060000
        k(   67) = (   0.4242641   0.1414214  -0.1414214), wk =   0.0060000
        k(   68) = (   0.4596194   0.1767767  -0.1767767), wk =   0.0060000
        k(   69) = (  -0.2121320  -0.4949747   0.4949747), wk =   0.0060000
        k(   70) = (  -0.1767767  -0.4596194   0.4596194), wk =   0.0060000
        k(   71) = (  -0.1414214  -0.4242641   0.4242641), wk =   0.0060000
        k(   72) = (  -0.1060660  -0.3889087   0.3889087), wk =   0.0060000
        k(   73) = (  -0.0707107  -0.3535534   0.3535534), wk =   0.0060000
        k(   74) = (  -0.0353553  -0.3181981   0.3181981), wk =   0.0060000
        k(   75) = (   0.0000000  -0.2828427   0.2828427), wk =   0.0030000
        k(   76) = (   0.3535534   0.0000000   0.0000000), wk =   0.0015000
        k(   77) = (   0.3889087   0.0353553  -0.0353553), wk =   0.0060000
        k(   78) = (   0.4242641   0.0707107  -0.0707107), wk =   0.0060000
        k(   79) = (   0.4596194   0.1060660  -0.1060660), wk =   0.0060000
        k(   80) = (   0.4949747   0.1414214  -0.1414214), wk =   0.0060000
        k(   81) = (  -0.1767767  -0.5303301   0.5303301), wk =   0.0060000
        k(   82) = (  -0.1414214  -0.4949747   0.4949747), wk =   0.0060000
        k(   83) = (  -0.1060660  -0.4596194   0.4596194), wk =   0.0060000
        k(   84) = (  -0.0707107  -0.4242641   0.4242641), wk =   0.0060000
        k(   85) = (  -0.0353553  -0.3889087   0.3889087), wk =   0.0060000
        k(   86) = (   0.0000000  -0.3535534   0.3535534), wk =   0.0030000
        k(   87) = (   0.4242641   0.0000000   0.0000000), wk =   0.0015000
        k(   88) = (   0.4596194   0.0353553  -0.0353553), wk =   0.0060000
        k(   89) = (   0.4949747   0.0707107  -0.0707107), wk =   0.0060000
        k(   90) = (   0.5303301   0.1060660  -0.1060660), wk =   0.0060000
        k(   91) = (  -0.1414214  -0.5656854   0.5656854), wk =   0.0060000
        k(   92) = (  -0.1060660  -0.5303301   0.5303301), wk =   0.0060000
        k(   93) = (  -0.0707107  -0.4949747   0.4949747), wk =   0.0060000
        k(   94) = (  -0.0353553  -0.4596194   0.4596194), wk =   0.0060000
        k(   95) = (  -0.0000000  -0.4242641   0.4242641), wk =   0.0030000
        k(   96) = (   0.4949747   0.0000000   0.0000000), wk =   0.0015000
        k(   97) = (   0.5303301   0.0353553  -0.0353553), wk =   0.0060000
        k(   98) = (   0.5656854   0.0707107  -0.0707107), wk =   0.0060000
        k(   99) = (  -0.1060660  -0.6010408   0.6010408), wk =   0.0060000
        k(  100) = (  -0.0707107  -0.5656854   0.5656854), wk =   0.0060000
        k(  101) = (  -0.0353553  -0.5303301   0.5303301), wk =   0.0060000
        k(  102) = (   0.0000000  -0.4949747   0.4949747), wk =   0.0030000
        k(  103) = (   0.5656854   0.0000000   0.0000000), wk =   0.0015000
        k(  104) = (   0.6010408   0.0353553  -0.0353553), wk =   0.0060000
        k(  105) = (  -0.0707107  -0.6363961   0.6363961), wk =   0.0060000
        k(  106) = (  -0.0353553  -0.6010408   0.6010408), wk =   0.0060000
        k(  107) = (   0.0000000  -0.5656854   0.5656854), wk =   0.0030000
        k(  108) = (   0.6363961   0.0000000   0.0000000), wk =   0.0015000
        k(  109) = (  -0.0353553  -0.6717514   0.6717514), wk =   0.0060000
        k(  110) = (   0.0000000  -0.6363961   0.6363961), wk =   0.0030000
        k(  111) = (  -0.7071068   0.0000000   0.0000000), wk =   0.0007500
        k(  112) = (   0.1414214   0.0707107   0.0000000), wk =   0.0060000
        k(  113) = (   0.1767767   0.1060660  -0.0353553), wk =   0.0120000
        k(  114) = (   0.2121320   0.1414214  -0.0707107), wk =   0.0120000
        k(  115) = (   0.2474874   0.1767767  -0.1060660), wk =   0.0120000
        k(  116) = (   0.2828427   0.2121320  -0.1414214), wk =   0.0120000
        k(  117) = (   0.3181981   0.2474874  -0.1767767), wk =   0.0120000
        k(  118) = (   0.3535534   0.2828427  -0.2121320), wk =   0.0120000
        k(  119) = (  -0.3181981  -0.3889087   0.4596194), wk =   0.0120000
        k(  120) = (  -0.2828427  -0.3535534   0.4242641), wk =   0.0060000
        k(  121) = (   0.2121320   0.0707107  -0.0000000), wk =   0.0060000
        k(  122) = (   0.2474874   0.1060660  -0.0353553), wk =   0.0120000
        k(  123) = (   0.2828427   0.1414214  -0.0707107), wk =   0.0120000
        k(  124) = (   0.3181981   0.1767767  -0.1060660), wk =   0.0120000
        k(  125) = (   0.3535534   0.2121320  -0.1414214), wk =   0.0120000
        k(  126) = (   0.3889087   0.2474874  -0.1767767), wk =   0.0120000
        k(  127) = (  -0.2828427  -0.4242641   0.4949747), wk =   0.0120000
        k(  128) = (  -0.2474874  -0.3889087   0.4596194), wk =   0.0120000
        k(  129) = (  -0.2121320  -0.3535534   0.4242641), wk =   0.0120000
        k(  130) = (  -0.1767767  -0.3181981   0.3889087), wk =   0.0120000
        k(  131) = (  -0.1414214  -0.2828427   0.3535534), wk =   0.0120000
        k(  132) = (  -0.1060660  -0.2474874   0.3181981), wk =   0.0120000
        k(  133) = (  -0.0707107  -0.2121320   0.2828427), wk =   0.0120000
        k(  134) = (  -0.0353553  -0.1767767   0.2474874), wk =   0.0120000
        k(  135) = (   0.0000000  -0.1414214   0.2121320), wk =   0.0060000
        k(  136) = (   0.2828427   0.0707107   0.0000000), wk =   0.0060000
        k(  137) = (   0.3181981   0.1060660  -0.0353553), wk =   0.0120000
        k(  138) = (   0.3535534   0.1414214  -0.0707107), wk =   0.0120000
        k(  139) = (   0.3889087   0.1767767  -0.1060660), wk =   0.0120000
        k(  140) = (   0.4242641   0.2121320  -0.1414214), wk =   0.0120000
        k(  141) = (  -0.2474874  -0.4596194   0.5303301), wk =   0.0120000
        k(  142) = (  -0.2121320  -0.4242641   0.4949747), wk =   0.0120000
        k(  143) = (  -0.1767767  -0.3889087   0.4596194), wk =   0.0120000
        k(  144) = (  -0.1414214  -0.3535534   0.4242641), wk =   0.0120000
        k(  145) = (  -0.1060660  -0.3181981   0.3889087), wk =   0.0120000
        k(  146) = (  -0.0707107  -0.2828427   0.3535534), wk =   0.0120000
        k(  147) = (  -0.0353553  -0.2474874   0.3181981), wk =   0.0120000
        k(  148) = (  -0.0000000  -0.2121320   0.2828427), wk =   0.0060000
        k(  149) = (   0.3535534   0.0707107   0.0000000), wk =   0.0060000
        k(  150) = (   0.3889087   0.1060660  -0.0353553), wk =   0.0120000
        k(  151) = (   0.4242641   0.1414214  -0.0707107), wk =   0.0120000
        k(  152) = (   0.4596194   0.1767767  -0.1060660), wk =   0.0120000
        k(  153) = (  -0.2121320  -0.4949747   0.5656854), wk =   0.0120000
        k(  154) = (  -0.1767767  -0.4596194   0.5303301), wk =   0.0120000
        k(  155) = (  -0.1414214  -0.4242641   0.4949747), wk =   0.0120000
        k(  156) = (  -0.1060660  -0.3889087   0.4596194), wk =   0.0120000
        k(  157) = (  -0.0707107  -0.3535534   0.4242641), wk =   0.0120000
        k(  158) = (  -0.0353553  -0.3181981   0.3889087), wk =   0.0120000
        k(  159) = (   0.0000000  -0.2828427   0.3535534), wk =   0.0060000
        k(  160) = (   0.4242641   0.0707107   0.0000000), wk =   0.0060000
        k(  161) = (   0.4596194   0.1060660  -0.0353553), wk =   0.0120000
        k(  162) = (   0.4949747   0.1414214  -0.0707107), wk =   0.0120000
        k(  163) = (  -0.1767767  -0.5303301   0.6010408), wk =   0.0120000
        k(  164) = (  -0.1414214  -0.4949747   0.5656854), wk =   0.0120000
        k(  165) = (  -0.1060660  -0.4596194   0.5303301), wk =   0.0120000
        k(  166) = (  -0.0707107  -0.4242641   0.4949747), wk =   0.0120000
        k(  167) = (  -0.0353553  -0.3889087   0.4596194), wk =   0.0120000
        k(  168) = (  -0.0000000  -0.3535534   0.4242641), wk =   0.0060000
        k(  169) = (   0.4949747   0.0707107  -0.0000000), wk =   0.0060000
        k(  170) = (   0.5303301   0.1060660  -0.0353553), wk =   0.0120000
        k(  171) = (  -0.1414214  -0.5656854   0.6363961), wk =   0.0120000
        k(  172) = (  -0.1060660  -0.5303301   0.6010408), wk =   0.0120000
        k(  173) = (  -0.0707107  -0.4949747   0.5656854), wk =   0.0120000
        k(  174) = (  -0.0353553  -0.4596194   0.5303301), wk =   0.0120000
        k(  175) = (  -0.0000000  -0.4242641   0.4949747), wk =   0.0060000
        k(  176) = (   0.5656854   0.0707107   0.0000000), wk =   0.0060000
        k(  177) = (  -0.1060660  -0.6010408   0.6717514), wk =   0.0120000
        k(  178) = (  -0.0707107  -0.5656854   0.6363961), wk =   0.0120000
        k(  179) = (  -0.0353553  -0.5303301   0.6010408), wk =   0.0120000
        k(  180) = (   0.0000000  -0.4949747   0.5656854), wk =   0.0060000
        k(  181) = (  -0.0707107  -0.6363961   0.7071068), wk =   0.0060000
        k(  182) = (  -0.0353553  -0.6010408   0.6717514), wk =   0.0120000
        k(  183) = (   0.0000000  -0.5656854   0.6363961), wk =   0.0060000
        k(  184) = (  -0.7071068   0.0707107  -0.0000000), wk =   0.0030000
        k(  185) = (   0.2828427   0.1414214   0.0000000), wk =   0.0060000
        k(  186) = (   0.3181981   0.1767767  -0.0353553), wk =   0.0120000
        k(  187) = (   0.3535534   0.2121320  -0.0707107), wk =   0.0120000
        k(  188) = (   0.3889087   0.2474874  -0.1060660), wk =   0.0120000
        k(  189) = (  -0.2828427  -0.4242641   0.5656854), wk =   0.0120000
        k(  190) = (  -0.2474874  -0.3889087   0.5303301), wk =   0.0120000
        k(  191) = (  -0.2121320  -0.3535534   0.4949747), wk =   0.0060000
        k(  192) = (   0.3535534   0.1414214   0.0000000), wk =   0.0060000
        k(  193) = (   0.3889087   0.1767767  -0.0353553), wk =   0.0120000
        k(  194) = (   0.4242641   0.2121320  -0.0707107), wk =   0.0120000
        k(  195) = (  -0.2474874  -0.4596194   0.6010408), wk =   0.0120000
        k(  196) = (  -0.2121320  -0.4242641   0.5656854), wk =   0.0120000
        k(  197) = (  -0.1767767  -0.3889087   0.5303301), wk =   0.0120000
        k(  198) = (  -0.1414214  -0.3535534   0.4949747), wk =   0.0120000
        k(  199) = (  -0.1060660  -0.3181981   0.4596194), wk =   0.0120000
        k(  200) = (  -0.0707107  -0.2828427   0.4242641), wk =   0.0120000
        k(  201) = (  -0.0353553  -0.2474874   0.3889087), wk =   0.0120000
        k(  202) = (  -0.0000000  -0.2121320   0.3535534), wk =   0.0060000
        k(  203) = (   0.4242641   0.1414214  -0.0000000), wk =   0.0060000
        k(  204) = (   0.4596194   0.1767767  -0.0353553), wk =   0.0120000
        k(  205) = (  -0.2121320  -0.4949747   0.6363961), wk =   0.0120000
        k(  206) = (  -0.1767767  -0.4596194   0.6010408), wk =   0.0120000
        k(  207) = (  -0.1414214  -0.4242641   0.5656854), wk =   0.0120000
        k(  208) = (  -0.1060660  -0.3889087   0.5303301), wk =   0.0120000
        k(  209) = (  -0.0707107  -0.3535534   0.4949747), wk =   0.0120000
        k(  210) = (  -0.0353553  -0.3181981   0.4596194), wk =   0.0120000
        k(  211) = (   0.0000000  -0.2828427   0.4242641), wk =   0.0060000
        k(  212) = (   0.4949747   0.1414214   0.0000000), wk =   0.0060000
        k(  213) = (  -0.1767767  -0.5303301   0.6717514), wk =   0.0120000
        k(  214) = (  -0.1414214  -0.4949747   0.6363961), wk =   0.0120000
        k(  215) = (  -0.1060660  -0.4596194   0.6010408), wk =   0.0120000
        k(  216) = (  -0.0707107  -0.4242641   0.5656854), wk =   0.0120000
        k(  217) = (  -0.0353553  -0.3889087   0.5303301), wk =   0.0120000
        k(  218) = (  -0.0000000  -0.3535534   0.4949747), wk =   0.0060000
        k(  219) = (  -0.1414214  -0.5656854   0.7071068), wk =   0.0060000
        k(  220) = (  -0.1060660  -0.5303301   0.6717514), wk =   0.0120000
        k(  221) = (  -0.0707107  -0.4949747   0.6363961), wk =   0.0120000
        k(  222) = (  -0.0353553  -0.4596194   0.6010408), wk =   0.0120000
        k(  223) = (  -0.0000000  -0.4242641   0.5656854), wk =   0.0060000
        k(  224) = (  -0.0707107  -0.5656854   0.7071068), wk =   0.0060000
        k(  225) = (  -0.0353553  -0.5303301   0.6717514), wk =   0.0120000
        k(  226) = (   0.0000000  -0.4949747   0.6363961), wk =   0.0060000
        k(  227) = (  -0.7071068   0.1414214   0.0000000), wk =   0.0030000
        k(  228) = (   0.4242641   0.2121320  -0.0000000), wk =   0.0060000
        k(  229) = (  -0.2474874  -0.4596194   0.6717514), wk =   0.0120000
        k(  230) = (  -0.2121320  -0.4242641   0.6363961), wk =   0.0120000
        k(  231) = (  -0.1767767  -0.3889087   0.6010408), wk =   0.0120000
        k(  232) = (  -0.1414214  -0.3535534   0.5656854), wk =   0.0060000
        k(  233) = (  -0.2121320  -0.4949747   0.7071068), wk =   0.0060000
        k(  234) = (  -0.1767767  -0.4596194   0.6717514), wk =   0.0120000
        k(  235) = (  -0.1414214  -0.4242641   0.6363961), wk =   0.0120000
        k(  236) = (  -0.1060660  -0.3889087   0.6010408), wk =   0.0120000
        k(  237) = (  -0.0707107  -0.3535534   0.5656854), wk =   0.0120000
        k(  238) = (  -0.0353553  -0.3181981   0.5303301), wk =   0.0120000
        k(  239) = (   0.0000000  -0.2828427   0.4949747), wk =   0.0060000
        k(  240) = (  -0.1414214  -0.4949747   0.7071068), wk =   0.0060000
        k(  241) = (  -0.1060660  -0.4596194   0.6717514), wk =   0.0120000
        k(  242) = (  -0.0707107  -0.4242641   0.6363961), wk =   0.0120000
        k(  243) = (  -0.0353553  -0.3889087   0.6010408), wk =   0.0120000
        k(  244) = (   0.0000000  -0.3535534   0.5656854), wk =   0.0060000
        k(  245) = (  -0.0707107  -0.4949747   0.7071068), wk =   0.0060000
        k(  246) = (  -0.0353553  -0.4596194   0.6717514), wk =   0.0120000
        k(  247) = (  -0.0000000  -0.4242641   0.6363961), wk =   0.0060000
        k(  248) = (  -0.7071068   0.2121320   0.0000000), wk =   0.0030000
        k(  249) = (  -0.1414214  -0.4242641   0.7071068), wk =   0.0060000
        k(  250) = (  -0.1060660  -0.3889087   0.6717514), wk =   0.0120000
        k(  251) = (  -0.0707107  -0.3535534   0.6363961), wk =   0.0060000
        k(  252) = (  -0.0707107  -0.4242641   0.7071068), wk =   0.0060000
        k(  253) = (  -0.0353553  -0.3889087   0.6717514), wk =   0.0120000
        k(  254) = (   0.0000000  -0.3535534   0.6363961), wk =   0.0060000
        k(  255) = (  -0.7071068   0.2828427   0.0000000), wk =   0.0030000
        k(  256) = (  -0.7071068   0.3535534   0.0000000), wk =   0.0015000

                       cryst. coord.
        k(    1) = (   0.0000000   0.0000000   0.0000000), wk =   0.0002500
        k(    2) = (   0.0000000   0.0000000   0.0500000), wk =   0.0020000
        k(    3) = (   0.0000000   0.0000000   0.1000000), wk =   0.0020000
        k(    4) = (   0.0000000   0.0000000   0.1500000), wk =   0.0020000
        k(    5) = (   0.0000000   0.0000000   0.2000000), wk =   0.0020000
        k(    6) = (   0.0000000   0.0000000   0.2500000), wk =   0.0020000
        k(    7) = (   0.0000000   0.0000000   0.3000000), wk =   0.0020000
        k(    8) = (   0.0000000   0.0000000   0.3500000), wk =   0.0020000
        k(    9) = (   0.0000000   0.0000000   0.4000000), wk =   0.0020000
        k(   10) = (   0.0000000   0.0000000   0.4500000), wk =   0.0020000
        k(   11) = (   0.0000000   0.0000000  -0.5000000), wk =   0.0010000
        k(   12) = (   0.0000000   0.0500000   0.0500000), wk =   0.0015000
        k(   13) = (   0.0000000   0.0500000   0.1000000), wk =   0.0060000
        k(   14) = (   0.0000000   0.0500000   0.1500000), wk =   0.0060000
        k(   15) = (   0.0000000   0.0500000   0.2000000), wk =   0.0060000
        k(   16) = (   0.0000000   0.0500000   0.2500000), wk =   0.0060000
        k(   17) = (   0.0000000   0.0500000   0.3000000), wk =   0.0060000
        k(   18) = (   0.0000000   0.0500000   0.3500000), wk =   0.0060000
        k(   19) = (   0.0000000   0.0500000   0.4000000), wk =   0.0060000
        k(   20) = (   0.0000000   0.0500000   0.4500000), wk =   0.0060000
        k(   21) = (   0.0000000   0.0500000  -0.5000000), wk =   0.0060000
        k(   22) = (   0.0000000   0.0500000  -0.4500000), wk =   0.0060000
        k(   23) = (   0.0000000   0.0500000  -0.4000000), wk =   0.0060000
        k(   24) = (   0.0000000   0.0500000  -0.3500000), wk =   0.0060000
        k(   25) = (   0.0000000   0.0500000  -0.3000000), wk =   0.0060000
        k(   26) = (   0.0000000   0.0500000  -0.2500000), wk =   0.0060000
        k(   27) = (   0.0000000   0.0500000  -0.2000000), wk =   0.0060000
        k(   28) = (   0.0000000   0.0500000  -0.1500000), wk =   0.0060000
        k(   29) = (   0.0000000   0.0500000  -0.1000000), wk =   0.0060000
        k(   30) = (   0.0000000   0.0500000  -0.0500000), wk =   0.0030000
        k(   31) = (   0.0000000   0.1000000   0.1000000), wk =   0.0015000
        k(   32) = (   0.0000000   0.1000000   0.1500000), wk =   0.0060000
        k(   33) = (   0.0000000   0.1000000   0.2000000), wk =   0.0060000
        k(   34) = (   0.0000000   0.1000000   0.2500000), wk =   0.0060000
        k(   35) = (   0.0000000   0.1000000   0.3000000), wk =   0.0060000
        k(   36) = (   0.0000000   0.1000000   0.3500000), wk =   0.0060000
        k(   37) = (   0.0000000   0.1000000   0.4000000), wk =   0.0060000
        k(   38) = (   0.0000000   0.1000000   0.4500000), wk =   0.0060000
        k(   39) = (   0.0000000   0.1000000  -0.5000000), wk =   0.0060000
        k(   40) = (   0.0000000   0.1000000  -0.4500000), wk =   0.0060000
        k(   41) = (   0.0000000   0.1000000  -0.4000000), wk =   0.0060000
        k(   42) = (   0.0000000   0.1000000  -0.3500000), wk =   0.0060000
        k(   43) = (   0.0000000   0.1000000  -0.3000000), wk =   0.0060000
        k(   44) = (   0.0000000   0.1000000  -0.2500000), wk =   0.0060000
        k(   45) = (   0.0000000   0.1000000  -0.2000000), wk =   0.0060000
        k(   46) = (   0.0000000   0.1000000  -0.1500000), wk =   0.0060000
        k(   47) = (   0.0000000   0.1000000  -0.1000000), wk =   0.0030000
        k(   48) = (   0.0000000   0.1500000   0.1500000), wk =   0.0015000
        k(   49) = (   0.0000000   0.1500000   0.2000000), wk =   0.0060000
        k(   50) = (   0.0000000   0.1500000   0.2500000), wk =   0.0060000
        k(   51) = (   0.0000000   0.1500000   0.3000000), wk =   0.0060000
        k(   52) = (   0.0000000   0.1500000   0.3500000), wk =   0.0060000
        k(   53) = (   0.0000000   0.1500000   0.4000000), wk =   0.0060000
        k(   54) = (   0.0000000   0.1500000   0.4500000), wk =   0.0060000
        k(   55) = (   0.0000000   0.1500000  -0.5000000), wk =   0.0060000
        k(   56) = (   0.0000000   0.1500000  -0.4500000), wk =   0.0060000
        k(   57) = (   0.0000000   0.1500000  -0.4000000), wk =   0.0060000
        k(   58) = (   0.0000000   0.1500000  -0.3500000), wk =   0.0060000
        k(   59) = (   0.0000000   0.1500000  -0.3000000), wk =   0.0060000
        k(   60) = (   0.0000000   0.1500000  -0.2500000), wk =   0.0060000
        k(   61) = (   0.0000000   0.1500000  -0.2000000), wk =   0.0060000
        k(   62) = (   0.0000000   0.1500000  -0.1500000), wk =   0.0030000
        k(   63) = (   0.0000000   0.2000000   0.2000000), wk =   0.0015000
        k(   64) = (   0.0000000   0.2000000   0.2500000), wk =   0.0060000
        k(   65) = (   0.0000000   0.2000000   0.3000000), wk =   0.0060000
        k(   66) = (   0.0000000   0.2000000   0.3500000), wk =   0.0060000
        k(   67) = (   0.0000000   0.2000000   0.4000000), wk =   0.0060000
        k(   68) = (   0.0000000   0.2000000   0.4500000), wk =   0.0060000
        k(   69) = (   0.0000000   0.2000000  -0.5000000), wk =   0.0060000
        k(   70) = (   0.0000000   0.2000000  -0.4500000), wk =   0.0060000
        k(   71) = (   0.0000000   0.2000000  -0.4000000), wk =   0.0060000
        k(   72) = (   0.0000000   0.2000000  -0.3500000), wk =   0.0060000
        k(   73) = (   0.0000000   0.2000000  -0.3000000), wk =   0.0060000
        k(   74) = (   0.0000000   0.2000000  -0.2500000), wk =   0.0060000
        k(   75) = (   0.0000000   0.2000000  -0.2000000), wk =   0.0030000
        k(   76) = (   0.0000000   0.2500000   0.2500000), wk =   0.0015000
        k(   77) = (   0.0000000   0.2500000   0.3000000), wk =   0.0060000
        k(   78) = (   0.0000000   0.2500000   0.3500000), wk =   0.0060000
        k(   79) = (   0.0000000   0.2500000   0.4000000), wk =   0.0060000
        k(   80) = (   0.0000000   0.2500000   0.4500000), wk =   0.0060000
        k(   81) = (   0.0000000   0.2500000  -0.5000000), wk =   0.0060000
        k(   82) = (   0.0000000   0.2500000  -0.4500000), wk =   0.0060000
        k(   83) = (   0.0000000   0.2500000  -0.4000000), wk =   0.0060000
        k(   84) = (   0.0000000   0.2500000  -0.3500000), wk =   0.0060000
        k(   85) = (   0.0000000   0.2500000  -0.3000000), wk =   0.0060000
        k(   86) = (   0.0000000   0.2500000  -0.2500000), wk =   0.0030000
        k(   87) = (   0.0000000   0.3000000   0.3000000), wk =   0.0015000
        k(   88) = (   0.0000000   0.3000000   0.3500000), wk =   0.0060000
        k(   89) = (   0.0000000   0.3000000   0.4000000), wk =   0.0060000
        k(   90) = (   0.0000000   0.3000000   0.4500000), wk =   0.0060000
        k(   91) = (   0.0000000   0.3000000  -0.5000000), wk =   0.0060000
        k(   92) = (   0.0000000   0.3000000  -0.4500000), wk =   0.0060000
        k(   93) = (   0.0000000   0.3000000  -0.4000000), wk =   0.0060000
        k(   94) = (   0.0000000   0.3000000  -0.3500000), wk =   0.0060000
        k(   95) = (   0.0000000   0.3000000  -0.3000000), wk =   0.0030000
        k(   96) = (   0.0000000   0.3500000   0.3500000), wk =   0.0015000
        k(   97) = (   0.0000000   0.3500000   0.4000000), wk =   0.0060000
        k(   98) = (   0.0000000   0.3500000   0.4500000), wk =   0.0060000
        k(   99) = (   0.0000000   0.3500000  -0.5000000), wk =   0.0060000
        k(  100) = (   0.0000000   0.3500000  -0.4500000), wk =   0.0060000
        k(  101) = (   0.0000000   0.3500000  -0.4000000), wk =   0.0060000
        k(  102) = (   0.0000000   0.3500000  -0.3500000), wk =   0.0030000
        k(  103) = (   0.0000000   0.4000000   0.4000000), wk =   0.0015000
        k(  104) = (   0.0000000   0.4000000   0.4500000), wk =   0.0060000
        k(  105) = (   0.0000000   0.4000000  -0.5000000), wk =   0.0060000
        k(  106) = (   0.0000000   0.4000000  -0.4500000), wk =   0.0060000
        k(  107) = (   0.0000000   0.4000000  -0.4000000), wk =   0.0030000
        k(  108) = (   0.0000000   0.4500000   0.4500000), wk =   0.0015000
        k(  109) = (   0.0000000   0.4500000  -0.5000000), wk =   0.0060000
        k(  110) = (   0.0000000   0.4500000  -0.4500000), wk =   0.0030000
        k(  111) = (   0.0000000  -0.5000000  -0.5000000), wk =   0.0007500
        k(  112) = (   0.0500000   0.1000000   0.1500000), wk =   0.0060000
        k(  113) = (   0.0500000   0.1000000   0.2000000), wk =   0.0120000
        k(  114) = (   0.0500000   0.1000000   0.2500000), wk =   0.0120000
        k(  115) = (   0.0500000   0.1000000   0.3000000), wk =   0.0120000
        k(  116) = (   0.0500000   0.1000000   0.3500000), wk =   0.0120000
        k(  117) = (   0.0500000   0.1000000   0.4000000), wk =   0.0120000
        k(  118) = (   0.0500000   0.1000000   0.4500000), wk =   0.0120000
        k(  119) = (   0.0500000   0.1000000  -0.5000000), wk =   0.0120000
        k(  120) = (   0.0500000   0.1000000  -0.4500000), wk =   0.0060000
        k(  121) = (   0.0500000   0.1500000   0.2000000), wk =   0.0060000
        k(  122) = (   0.0500000   0.1500000   0.2500000), wk =   0.0120000
        k(  123) = (   0.0500000   0.1500000   0.3000000), wk =   0.0120000
        k(  124) = (   0.0500000   0.1500000   0.3500000), wk =   0.0120000
        k(  125) = (   0.0500000   0.1500000   0.4000000), wk =   0.0120000
        k(  126) = (   0.0500000   0.1500000   0.4500000), wk =   0.0120000
        k(  127) = (   0.0500000   0.1500000  -0.5000000), wk =   0.0120000
        k(  128) = (   0.0500000   0.1500000  -0.4500000), wk =   0.0120000
        k(  129) = (   0.0500000   0.1500000  -0.4000000), wk =   0.0120000
        k(  130) = (   0.0500000   0.1500000  -0.3500000), wk =   0.0120000
        k(  131) = (   0.0500000   0.1500000  -0.3000000), wk =   0.0120000
        k(  132) = (   0.0500000   0.1500000  -0.2500000), wk =   0.0120000
        k(  133) = (   0.0500000   0.1500000  -0.2000000), wk =   0.0120000
        k(  134) = (   0.0500000   0.1500000  -0.1500000), wk =   0.0120000
        k(  135) = (   0.0500000   0.1500000  -0.1000000), wk =   0.0060000
        k(  136) = (   0.0500000   0.2000000   0.2500000), wk =   0.0060000
        k(  137) = (   0.0500000   0.2000000   0.3000000), wk =   0.0120000
        k(  138) = (   0.0500000   0.2000000   0.3500000), wk =   0.0120000
        k(  139) = (   0.0500000   0.2000000   0.4000000), wk =   0.0120000
        k(  140) = (   0.0500000   0.2000000   0.4500000), wk =   0.0120000
        k(  141) = (   0.0500000   0.2000000  -0.5000000), wk =   0.0120000
        k(  142) = (   0.0500000   0.2000000  -0.4500000), wk =   0.0120000
        k(  143) = (   0.0500000   0.2000000  -0.4000000), wk =   0.0120000
        k(  144) = (   0.0500000   0.2000000  -0.3500000), wk =   0.0120000
        k(  145) = (   0.0500000   0.2000000  -0.3000000), wk =   0.0120000
        k(  146) = (   0.0500000   0.2000000  -0.2500000), wk =   0.0120000
        k(  147) = (   0.0500000   0.2000000  -0.2000000), wk =   0.0120000
        k(  148) = (   0.0500000   0.2000000  -0.1500000), wk =   0.0060000
        k(  149) = (   0.0500000   0.2500000   0.3000000), wk =   0.0060000
        k(  150) = (   0.0500000   0.2500000   0.3500000), wk =   0.0120000
        k(  151) = (   0.0500000   0.2500000   0.4000000), wk =   0.0120000
        k(  152) = (   0.0500000   0.2500000   0.4500000), wk =   0.0120000
        k(  153) = (   0.0500000   0.2500000  -0.5000000), wk =   0.0120000
        k(  154) = (   0.0500000   0.2500000  -0.4500000), wk =   0.0120000
        k(  155) = (   0.0500000   0.2500000  -0.4000000), wk =   0.0120000
        k(  156) = (   0.0500000   0.2500000  -0.3500000), wk =   0.0120000
        k(  157) = (   0.0500000   0.2500000  -0.3000000), wk =   0.0120000
        k(  158) = (   0.0500000   0.2500000  -0.2500000), wk =   0.0120000
        k(  159) = (   0.0500000   0.2500000  -0.2000000), wk =   0.0060000
        k(  160) = (   0.0500000   0.3000000   0.3500000), wk =   0.0060000
        k(  161) = (   0.0500000   0.3000000   0.4000000), wk =   0.0120000
        k(  162) = (   0.0500000   0.3000000   0.4500000), wk =   0.0120000
        k(  163) = (   0.0500000   0.3000000  -0.5000000), wk =   0.0120000
        k(  164) = (   0.0500000   0.3000000  -0.4500000), wk =   0.0120000
        k(  165) = (   0.0500000   0.3000000  -0.4000000), wk =   0.0120000
        k(  166) = (   0.0500000   0.3000000  -0.3500000), wk =   0.0120000
        k(  167) = (   0.0500000   0.3000000  -0.3000000), wk =   0.0120000
        k(  168) = (   0.0500000   0.3000000  -0.2500000), wk =   0.0060000
        k(  169) = (   0.0500000   0.3500000   0.4000000), wk =   0.0060000
        k(  170) = (   0.0500000   0.3500000   0.4500000), wk =   0.0120000
        k(  171) = (   0.0500000   0.3500000  -0.5000000), wk =   0.0120000
        k(  172) = (   0.0500000   0.3500000  -0.4500000), wk =   0.0120000
        k(  173) = (   0.0500000   0.3500000  -0.4000000), wk =   0.0120000
        k(  174) = (   0.0500000   0.3500000  -0.3500000), wk =   0.0120000
        k(  175) = (   0.0500000   0.3500000  -0.3000000), wk =   0.0060000
        k(  176) = (   0.0500000   0.4000000   0.4500000), wk =   0.0060000
        k(  177) = (   0.0500000   0.4000000  -0.5000000), wk =   0.0120000
        k(  178) = (   0.0500000   0.4000000  -0.4500000), wk =   0.0120000
        k(  179) = (   0.0500000   0.4000000  -0.4000000), wk =   0.0120000
        k(  180) = (   0.0500000   0.4000000  -0.3500000), wk =   0.0060000
        k(  181) = (   0.0500000   0.4500000  -0.5000000), wk =   0.0060000
        k(  182) = (   0.0500000   0.4500000  -0.4500000), wk =   0.0120000
        k(  183) = (   0.0500000   0.4500000  -0.4000000), wk =   0.0060000
        k(  184) = (   0.0500000  -0.5000000  -0.4500000), wk =   0.0030000
        k(  185) = (   0.1000000   0.2000000   0.3000000), wk =   0.0060000
        k(  186) = (   0.1000000   0.2000000   0.3500000), wk =   0.0120000
        k(  187) = (   0.1000000   0.2000000   0.4000000), wk =   0.0120000
        k(  188) = (   0.1000000   0.2000000   0.4500000), wk =   0.0120000
        k(  189) = (   0.1000000   0.2000000  -0.5000000), wk =   0.0120000
        k(  190) = (   0.1000000   0.2000000  -0.4500000), wk =   0.0120000
        k(  191) = (   0.1000000   0.2000000  -0.4000000), wk =   0.0060000
        k(  192) = (   0.1000000   0.2500000   0.3500000), wk =   0.0060000
        k(  193) = (   0.1000000   0.2500000   0.4000000), wk =   0.0120000
        k(  194) = (   0.1000000   0.2500000   0.4500000), wk =   0.0120000
        k(  195) = (   0.1000000   0.2500000  -0.5000000), wk =   0.0120000
        k(  196) = (   0.1000000   0.2500000  -0.4500000), wk =   0.0120000
        k(  197) = (   0.1000000   0.2500000  -0.4000000), wk =   0.0120000
        k(  198) = (   0.1000000   0.2500000  -0.3500000), wk =   0.0120000
        k(  199) = (   0.1000000   0.2500000  -0.3000000), wk =   0.0120000
        k(  200) = (   0.1000000   0.2500000  -0.2500000), wk =   0.0120000
        k(  201) = (   0.1000000   0.2500000  -0.2000000), wk =   0.0120000
        k(  202) = (   0.1000000   0.2500000  -0.1500000), wk =   0.0060000
        k(  203) = (   0.1000000   0.3000000   0.4000000), wk =   0.0060000
        k(  204) = (   0.1000000   0.3000000   0.4500000), wk =   0.0120000
        k(  205) = (   0.1000000   0.3000000  -0.5000000), wk =   0.0120000
        k(  206) = (   0.1000000   0.3000000  -0.4500000), wk =   0.0120000
        k(  207) = (   0.1000000   0.3000000  -0.4000000), wk =   0.0120000
        k(  208) = (   0.1000000   0.3000000  -0.3500000), wk =   0.0120000
        k(  209) = (   0.1000000   0.3000000  -0.3000000), wk =   0.0120000
        k(  210) = (   0.1000000   0.3000000  -0.2500000), wk =   0.0120000
        k(  211) = (   0.1000000   0.3000000  -0.2000000), wk =   0.0060000
        k(  212) = (   0.1000000   0.3500000   0.4500000), wk =   0.0060000
        k(  213) = (   0.1000000   0.3500000  -0.5000000), wk =   0.0120000
        k(  214) = (   0.1000000   0.3500000  -0.4500000), wk =   0.0120000
        k(  215) = (   0.1000000   0.3500000  -0.4000000), wk =   0.0120000
        k(  216) = (   0.1000000   0.3500000  -0.3500000), wk =   0.0120000
        k(  217) = (   0.1000000   0.3500000  -0.3000000), wk =   0.0120000
        k(  218) = (   0.1000000   0.3500000  -0.2500000), wk =   0.0060000
        k(  219) = (   0.1000000   0.4000000  -0.5000000), wk =   0.0060000
        k(  220) = (   0.1000000   0.4000000  -0.4500000), wk =   0.0120000
        k(  221) = (   0.1000000   0.4000000  -0.4000000), wk =   0.0120000
        k(  222) = (   0.1000000   0.4000000  -0.3500000), wk =   0.0120000
        k(  223) = (   0.1000000   0.4000000  -0.3000000), wk =   0.0060000
        k(  224) = (   0.1000000   0.4500000  -0.4500000), wk =   0.0060000
        k(  225) = (   0.1000000   0.4500000  -0.4000000), wk =   0.0120000
        k(  226) = (   0.1000000   0.4500000  -0.3500000), wk =   0.0060000
        k(  227) = (   0.1000000  -0.5000000  -0.4000000), wk =   0.0030000
        k(  228) = (   0.1500000   0.3000000   0.4500000), wk =   0.0060000
        k(  229) = (   0.1500000   0.3000000  -0.5000000), wk =   0.0120000
        k(  230) = (   0.1500000   0.3000000  -0.4500000), wk =   0.0120000
        k(  231) = (   0.1500000   0.3000000  -0.4000000), wk =   0.0120000
        k(  232) = (   0.1500000   0.3000000  -0.3500000), wk =   0.0060000
        k(  233) = (   0.1500000   0.3500000  -0.5000000), wk =   0.0060000
        k(  234) = (   0.1500000   0.3500000  -0.4500000), wk =   0.0120000
        k(  235) = (   0.1500000   0.3500000  -0.4000000), wk =   0.0120000
        k(  236) = (   0.1500000   0.3500000  -0.3500000), wk =   0.0120000
        k(  237) = (   0.1500000   0.3500000  -0.3000000), wk =   0.0120000
        k(  238) = (   0.1500000   0.3500000  -0.2500000), wk =   0.0120000
        k(  239) = (   0.1500000   0.3500000  -0.2000000), wk =   0.0060000
        k(  240) = (   0.1500000   0.4000000  -0.4500000), wk =   0.0060000
        k(  241) = (   0.1500000   0.4000000  -0.4000000), wk =   0.0120000
        k(  242) = (   0.1500000   0.4000000  -0.3500000), wk =   0.0120000
        k(  243) = (   0.1500000   0.4000000  -0.3000000), wk =   0.0120000
        k(  244) = (   0.1500000   0.4000000  -0.2500000), wk =   0.0060000
        k(  245) = (   0.1500000   0.4500000  -0.4000000), wk =   0.0060000
        k(  246) = (   0.1500000   0.4500000  -0.3500000), wk =   0.0120000
        k(  247) = (   0.1500000   0.4500000  -0.3000000), wk =   0.0060000
        k(  248) = (   0.1500000  -0.5000000  -0.3500000), wk =   0.0030000
        k(  249) = (   0.2000000   0.4000000  -0.4000000), wk =   0.0060000
        k(  250) = (   0.2000000   0.4000000  -0.3500000), wk =   0.0120000
        k(  251) = (   0.2000000   0.4000000  -0.3000000), wk =   0.0060000
        k(  252) = (   0.2000000   0.4500000  -0.3500000), wk =   0.0060000
        k(  253) = (   0.2000000   0.4500000  -0.3000000), wk =   0.0120000
        k(  254) = (   0.2000000   0.4500000  -0.2500000), wk =   0.0060000
        k(  255) = (   0.2000000  -0.5000000  -0.3000000), wk =   0.0030000
        k(  256) = (   0.2500000  -0.5000000  -0.2500000), wk =   0.0015000

     Dense  grid:    67337 G-vectors     FFT dimensions: (  60,  60,  60)

     Largest allocated arrays     est. size (Mb)     dimensions
        Kohn-Sham Wavefunctions         0.15 Mb     (     538,   18)
        NL pseudopotentials             0.30 Mb     (     538,   36)
        Each V/rho on FFT grid          0.22 Mb     (   14400)
        Each G-vector array             0.03 Mb     (    4210)
        G-vector shells                 0.00 Mb     (     508)
     Largest temporary arrays     est. size (Mb)     dimensions
        Auxiliary wavefunctions         0.59 Mb     (     538,   72)
        Each subspace H/S matrix        0.08 Mb     (      72,   72)
        Each <psi_i|beta_j> matrix      0.01 Mb     (      36,   18)
        Arrays for rho mixing           1.76 Mb     (   14400,    8)

     Initial potential from superposition of free atoms

     starting charge   27.82674, renormalised to   28.00000
     Starting wfc are random

     total cpu time spent up to now is        5.8 secs

     Self-consistent Calculation

     iteration #  1     ecut=   100.00 Ry     beta=0.70
     Davidson diagonalization with overlap
     ethr =  1.00E-02,  avg # of iterations =  7.0

     Threshold (ethr) on eigenvalues was too large:
     Diagonalizing with lowered threshold

     Davidson diagonalization with overlap
     ethr =  1.08E-04,  avg # of iterations =  2.0

     total cpu time spent up to now is       60.1 secs

     total energy              =    -241.29492872 Ry
     Harris-Foulkes estimate   =    -241.30567877 Ry
     estimated scf accuracy    <       0.02989056 Ry

     iteration #  2     ecut=   100.00 Ry     beta=0.70
     Davidson diagonalization with overlap
     ethr =  1.07E-04,  avg # of iterations =  2.0

     total cpu time spent up to now is       74.3 secs

     total energy              =    -241.29890587 Ry
     Harris-Foulkes estimate   =    -241.29892565 Ry
     estimated scf accuracy    <       0.00160824 Ry

     iteration #  3     ecut=   100.00 Ry     beta=0.70
     Davidson diagonalization with overlap
     ethr =  5.74E-06,  avg # of iterations =  2.8

     total cpu time spent up to now is       88.0 secs

     total energy              =    -241.29904745 Ry
     Harris-Foulkes estimate   =    -241.29901959 Ry
     estimated scf accuracy    <       0.00008944 Ry

     iteration #  4     ecut=   100.00 Ry     beta=0.70
     Davidson diagonalization with overlap
     ethr =  3.19E-07,  avg # of iterations =  2.0

     total cpu time spent up to now is      100.5 secs

     total energy              =    -241.29905226 Ry
     Harris-Foulkes estimate   =    -241.29905226 Ry
     estimated scf accuracy    <       0.00000128 Ry

     iteration #  5     ecut=   100.00 Ry     beta=0.70
     Davidson diagonalization with overlap
     ethr =  4.57E-09,  avg # of iterations =  2.2

     total cpu time spent up to now is      114.2 secs

     End of self-consistent calculation

          k = 0.0000 0.0000 0.0000 (  8393 PWs)   bands (ev):

   -13.2666 -13.2666 -13.2666 -13.2126 -13.2126 -12.9657 -12.9657 -12.9657
   -12.9613 -12.9613  -1.7706   7.1726   8.4246   8.4246   8.4246  10.4991
    10.4991  10.4991

     occupation numbers 
     1.0000   1.0000   1.0000   1.0000   1.0000   1.0000   1.0000   1.0000
     1.0000   1.0000   1.0000   1.0000   0.2465   0.2465   0.2465   0.0000
     0.0000   0.0000

          k = 0.0354 0.0354-0.0354 (  8414 PWs)   bands (ev):

   -13.2682 -13.2682 -13.2661 -13.2104 -13.2104 -12.9722 -12.9722 -12.9664
   -12.9552 -12.9552  -1.7482   6.8970   8.3772   8.3772   8.5644  10.5612
    10.5612  10.5797

     occupation numbers 
     1.0000   1.0000   1.0000   1.0000   1.0000   1.0000   1.0000   1.0000
     1.0000   1.0000   1.0000   1.0000   0.4236   0.4236   0.0162   0.0000
     0.0000   0.0000

          k = 0.0707 0.0707-0.0707 (  8420 PWs)   bands (ev):

   -13.2723 -13.2723 -13.2645 -13.2047 -13.2047 -12.9804 -12.9804 -12.9682
   -12.9480 -12.9480  -1.6814   6.3233   8.2534   8.2534   8.7246  10.7246
    10.7246  10.8514

     occupation numbers 
     1.0000   1.0000   1.0000   1.0000   1.0000   1.0000   1.0000   1.0000
     1.0000   1.0000   1.0000   1.0000   0.8630   0.8630   0.0001   0.0000
     0.0000   0.0000

          k = 0.1061 0.1061-0.1061 (  8396 PWs)   bands (ev):

   -13.2773 -13.2773 -13.2620 -13.1971 -13.1971 -12.9885 -12.9885 -12.9712
   -12.9416 -12.9416  -1.5713   5.6664   8.0896   8.0896   8.7420  10.9400
    10.9400  11.3141

     occupation numbers 
     1.0000   1.0000   1.0000   1.0000   1.0000   1.0000   1.0000   1.0000
     1.0000   1.0000   1.0000   1.0000   0.9974   0.9974   0.0000   0.0000
     0.0000   0.0000

          k = 0.1414 0.1414-0.1414 (  8399 PWs)   bands (ev):

   -13.2823 -13.2823 -13.2589 -13.1891 -13.1891 -12.9959 -12.9959 -12.9749
   -12.9360 -12.9360  -1.4202   4.9971   7.9162   7.9162   8.6620  11.1572
    11.1572  11.9022

     occupation numbers 
     1.0000   1.0000   1.0000   1.0000   1.0000   1.0000   1.0000   1.0000
     1.0000   1.0000   1.0000   1.0000   1.0000   1.0000   0.0008   0.0000
     0.0000   0.0000

          k = 0.1768 0.1768-0.1768 (  8405 PWs)   bands (ev):

   -13.2866 -13.2866 -13.2553 -13.1816 -13.1816 -13.0024 -13.0024 -12.9792
   -12.9314 -12.9314  -1.2319   4.3473   7.7522   7.7522   8.5467  11.3359
    11.3359  12.5605

     occupation numbers 
     1.0000   1.0000   1.0000   1.0000   1.0000   1.0000   1.0000   1.0000
     1.0000   1.0000   1.0000   1.0000   1.0000   1.0000   0.0253   0.0000
     0.0000   0.0000

          k = 0.2121 0.2121-0.2121 (  8411 PWs)   bands (ev):

   -13.2901 -13.2901 -13.2517 -13.1752 -13.1752 -13.0076 -13.0076 -12.9835
   -12.9279 -12.9279  -1.0136   3.7387   7.6088   7.6088   8.4309  11.4547
    11.4548  13.2557

     occupation numbers 
     1.0000   1.0000   1.0000   1.0000   1.0000   1.0000   1.0000   1.0000
     1.0000   1.0000   1.0000   1.0000   1.0000   1.0000   0.2261   0.0000
     0.0000   0.0000

          k = 0.2475 0.2475-0.2475 (  8423 PWs)   bands (ev):

   -13.2928 -13.2928 -13.2483 -13.1702 -13.1702 -13.0114 -13.0114 -12.9874
   -12.9253 -12.9253  -0.7781   3.1930   7.4927   7.4927   8.3316  11.5161
    11.5161  13.9078

     occupation numbers 
     1.0000   1.0000   1.0000   1.0000   1.0000   1.0000   1.0000   1.0000
     1.0000   1.0000   1.0000   1.0000   1.0000   1.0000   0.6105   0.0000
     0.0000   0.0000

          k = 0.2828 0.2828-0.2828 (  8438 PWs)   bands (ev):

   -13.2945 -13.2945 -13.2456 -13.1667 -13.1667 -13.0139 -13.0139 -12.9906
   -12.9235 -12.9235  -0.5497   2.7397   7.4076   7.4076   8.2570  11.5384
    11.5384  14.1216

     occupation numbers 
     1.0000   1.0000   1.0000   1.0000   1.0000   1.0000   1.0000   1.0000
     1.0000   1.0000   1.0000   1.0000   1.0000   1.0000   0.8546   0.0000
     0.0000   0.0000

          k = 0.3182 0.3182-0.3182 (  8433 PWs)   bands (ev):

   -13.2955 -13.2955 -13.2438 -13.1647 -13.1647 -13.0152 -13.0152 -12.9927
   -12.9225 -12.9225  -0.3714   2.4252   7.3558   7.3558   8.2110  11.5424
    11.5424  14.0925

     occupation numbers 
     1.0000   1.0000   1.0000   1.0000   1.0000   1.0000   1.0000   1.0000
     1.0000   1.0000   1.0000   1.0000   1.0000   1.0000   0.9375   0.0000
     0.0000   0.0000

          k =-0.3536-0.3536 0.3536 (  8424 PWs)   bands (ev):

   -13.2959 -13.2959 -13.2432 -13.1641 -13.1641 -13.0157 -13.0157 -12.9934
   -12.9222 -12.9222  -0.3013   2.3095   7.3384   7.3384   8.1955  11.5422
    11.5422  14.0749

     occupation numbers 
     1.0000   1.0000   1.0000   1.0000   1.0000   1.0000   1.0000   1.0000
     1.0000   1.0000   1.0000   1.0000   1.0000   1.0000   0.9550   0.0000
     0.0000   0.0000

          k = 0.0707 0.0000 0.0000 (  8428 PWs)   bands (ev):

   -13.2678 -13.2678 -13.2678 -13.2110 -13.2082 -12.9793 -12.9641 -12.9641
   -12.9628 -12.9514  -1.7407   6.8340   8.2873   8.2873   8.7516  10.4024
    10.6747  10.6747

     occupation numbers 
     1.0000   1.0000   1.0000   1.0000   1.0000   1.0000   1.0000   1.0000
     1.0000   1.0000   1.0000   1.0000   0.7706   0.7706   0.0000   0.0000
     0.0000   0.0000

          k = 0.1061 0.0354-0.0354 (  8430 PWs)   bands (ev):

   -13.2721 -13.2704 -13.2664 -13.2075 -13.2025 -12.9881 -12.9716 -12.9640
   -12.9555 -12.9457  -1.6887   6.4066   8.1368   8.1676   8.9759  10.3914
    10.8754  10.9146

     occupation numbers 
     1.0000   1.0000   1.0000   1.0000   1.0000   1.0000   1.0000   1.0000
     1.0000   1.0000   1.0000   1.0000   0.9894   0.9764   0.0000   0.0000
     0.0000   0.0000

          k = 0.1414 0.0707-0.0707 (  8418 PWs)   bands (ev):

   -13.2775 -13.2747 -13.2638 -13.2013 -13.1946 -12.9967 -12.9798 -12.9663
   -12.9483 -12.9395  -1.5929   5.8149   7.9611   8.0192   9.0568  10.5316
    11.1155  11.3041

     occupation numbers 
     1.0000   1.0000   1.0000   1.0000   1.0000   1.0000   1.0000   1.0000
     1.0000   1.0000   1.0000   1.0000   1.0000   0.9998   0.0000   0.0000
     0.0000   0.0000

          k = 0.1768 0.1061-0.1061 (  8404 PWs)   bands (ev):

   -13.2830 -13.2795 -13.2603 -13.1938 -13.1862 -13.0046 -12.9876 -12.9701
   -12.9419 -12.9338  -1.4551   5.1726   7.7860   7.8397   9.0117  10.7619
    11.3488  11.8024

     occupation numbers 
     1.0000   1.0000   1.0000   1.0000   1.0000   1.0000   1.0000   1.0000
     1.0000   1.0000   1.0000   1.0000   1.0000   1.0000   0.0000   0.0000
     0.0000   0.0000

          k = 0.2121 0.1414-0.1414 (  8398 PWs)   bands (ev):

   -13.2880 -13.2841 -13.2562 -13.1863 -13.1782 -13.0113 -12.9947 -12.9749
   -12.9364 -12.9288  -1.2786   4.5302   7.6272   7.6534   8.9080  11.0014
    11.5360  12.3621

     occupation numbers 
     1.0000   1.0000   1.0000   1.0000   1.0000   1.0000   1.0000   1.0000
     1.0000   1.0000   1.0000   1.0000   1.0000   1.0000   0.0000   0.0000
     0.0000   0.0000

          k = 0.2475 0.1768-0.1768 (  8406 PWs)   bands (ev):

   -13.2921 -13.2880 -13.2518 -13.1794 -13.1715 -13.0164 -13.0009 -12.9803
   -12.9319 -12.9248  -1.0692   3.9160   7.4786   7.4940   8.7909  11.1947
    11.6534  12.9546

     occupation numbers 
     1.0000   1.0000   1.0000   1.0000   1.0000   1.0000   1.0000   1.0000
     1.0000   1.0000   1.0000   1.0000   1.0000   1.0000   0.0000   0.0000
     0.0000   0.0000

          k = 0.2828 0.2121-0.2121 (  8422 PWs)   bands (ev):

   -13.2953 -13.2912 -13.2475 -13.1735 -13.1664 -13.0196 -13.0062 -12.9857
   -12.9282 -12.9218  -0.8374   3.3533   7.3263   7.3918   8.6831  11.3231
    11.7012  13.5475

     occupation numbers 
     1.0000   1.0000   1.0000   1.0000   1.0000   1.0000   1.0000   1.0000
     1.0000   1.0000   1.0000   1.0000   1.0000   1.0000   0.0004   0.0000
     0.0000   0.0000

          k = 0.3182 0.2475-0.2475 (  8432 PWs)   bands (ev):

   -13.2974 -13.2936 -13.2437 -13.1687 -13.1633 -13.0208 -13.0106 -12.9905
   -12.9253 -12.9199  -0.6028   2.8692   7.2026   7.3235   8.5960  11.3990
    11.6985  14.0072

     occupation numbers 
     1.0000   1.0000   1.0000   1.0000   1.0000   1.0000   1.0000   1.0000
     1.0000   1.0000   1.0000   1.0000   1.0000   1.0000   0.0068   0.0000
     0.0000   0.0000

          k = 0.3536 0.2828-0.2828 (  8428 PWs)   bands (ev):

   -13.2986 -13.2953 -13.2410 -13.1651 -13.1620 -13.0201 -13.0141 -12.9944
   -12.9232 -12.9190  -0.4012   2.5043   7.1113   7.2908   8.5351  11.4464
    11.6689  14.1451

     occupation numbers 
     1.0000   1.0000   1.0000   1.0000   1.0000   1.0000   1.0000   1.0000
     1.0000   1.0000   1.0000   1.0000   1.0000   1.0000   0.0333   0.0000
     0.0000   0.0000

          k =-0.3182-0.3889 0.3889 (  8407 PWs)   bands (ev):

   -13.2989 -13.2963 -13.2395 -13.1627 -13.1623 -13.0183 -13.0168 -12.9967
   -12.9217 -12.9190  -0.2886   2.3169   7.0545   7.2940   8.5033  11.4849
    11.6300  14.1594

     occupation numbers 
     1.0000   1.0000   1.0000   1.0000   1.0000   1.0000   1.0000   1.0000
     1.0000   1.0000   1.0000   1.0000   1.0000   1.0000   0.0663   0.0000
     0.0000   0.0000

          k =-0.2828-0.3536 0.3536 (  8426 PWs)   bands (ev):

   -13.2983 -13.2967 -13.2396 -13.1640 -13.1616 -13.0187 -13.0157 -12.9968
   -12.9209 -12.9200  -0.3126   2.3560   7.0340   7.3326   8.5018  11.5241
    11.5899  14.1673

     occupation numbers 
     1.0000   1.0000   1.0000   1.0000   1.0000   1.0000   1.0000   1.0000
     1.0000   1.0000   1.0000   1.0000   1.0000   1.0000   0.0683   0.0000
     0.0000   0.0000

          k =-0.2475-0.3182 0.3182 (  8428 PWs)   bands (ev):

   -13.2969 -13.2964 -13.2413 -13.1667 -13.1620 -13.0194 -13.0130 -12.9947
   -12.9218 -12.9208  -0.4619   2.6098   7.0507   7.4054   8.5304  11.5472
    11.5627  14.1576

     occupation numbers 
     1.0000   1.0000   1.0000   1.0000   1.0000   1.0000   1.0000   1.0000
     1.0000   1.0000   1.0000   1.0000   1.0000   1.0000   0.0371   0.0000
     0.0000   0.0000

          k =-0.2121-0.2828 0.2828 (  8434 PWs)   bands (ev):

   -13.2953 -13.2947 -13.2442 -13.1706 -13.1641 -13.0186 -13.0101 -12.9905
   -12.9246 -12.9216  -0.6798   3.0203   7.1049   7.5102   8.5876  11.4910
    11.5876  13.9425

     occupation numbers 
     1.0000   1.0000   1.0000   1.0000   1.0000   1.0000   1.0000   1.0000
     1.0000   1.0000   1.0000   1.0000   1.0000   1.0000   0.0087   0.0000
     0.0000   0.0000

          k =-0.1768-0.2475 0.2475 (  8417 PWs)   bands (ev):

   -13.2933 -13.2917 -13.2481 -13.1755 -13.1682 -13.0160 -13.0066 -12.9850
   -12.9282 -12.9233  -0.9165   3.5341   7.1966   7.6435   8.6697  11.4040
    11.5739  13.3849

     occupation numbers 
     1.0000   1.0000   1.0000   1.0000   1.0000   1.0000   1.0000   1.0000
     1.0000   1.0000   1.0000   1.0000   1.0000   1.0000   0.0006   0.0000
     0.0000   0.0000

          k =-0.1414-0.2121 0.2121 (  8408 PWs)   bands (ev):

   -13.2903 -13.2878 -13.2525 -13.1815 -13.1741 -13.0116 -13.0020 -12.9790
   -12.9328 -12.9261  -1.1424   4.1161   7.3250   7.7999   8.7693  11.2702
    11.4874  12.7666

     occupation numbers 
     1.0000   1.0000   1.0000   1.0000   1.0000   1.0000   1.0000   1.0000
     1.0000   1.0000   1.0000   1.0000   1.0000   1.0000   0.0000   0.0000
     0.0000   0.0000

          k =-0.1061-0.1768 0.1768 (  8399 PWs)   bands (ev):

   -13.2863 -13.2831 -13.2569 -13.1885 -13.1816 -13.0055 -12.9964 -12.9731
   -12.9383 -12.9299  -1.3417   4.7411   7.4884   7.9706   8.8711  11.0880
    11.3017  12.1908

     occupation numbers 
     1.0000   1.0000   1.0000   1.0000   1.0000   1.0000   1.0000   1.0000
     1.0000   1.0000   1.0000   1.0000   1.0000   1.0000   0.0000   0.0000
     0.0000   0.0000

[...]
    12.8243  13.2637

     occupation numbers 
     1.0000   1.0000   1.0000   1.0000   1.0000   1.0000   1.0000   1.0000
     1.0000   1.0000   1.0000   1.0000   1.0000   1.0000   0.0000   0.0000
     0.0000   0.0000

          k =-0.0000-0.3536 0.4950 (  8428 PWs)   bands (ev):

   -13.3228 -13.3096 -13.1950 -13.1365 -13.1096 -13.0839 -13.0515 -13.0228
   -12.9048 -12.8932   0.1329   2.1623   5.3558   6.6251  10.2120  11.9775
    12.4315  13.6330

     occupation numbers 
     1.0000   1.0000   1.0000   1.0000   1.0000   1.0000   1.0000   1.0000
     1.0000   1.0000   1.0000   1.0000   1.0000   1.0000   0.0000   0.0000
     0.0000   0.0000

          k =-0.1414-0.5657 0.7071 (  8402 PWs)   bands (ev):

   -13.3107 -13.3098 -13.2169 -13.1351 -13.1250 -13.0759 -13.0478 -12.9972
   -12.9056 -12.9052   0.1495   2.1482   5.9505   6.1906   9.7089  10.1008
    13.4959  14.7596

     occupation numbers 
     1.0000   1.0000   1.0000   1.0000   1.0000   1.0000   1.0000   1.0000
     1.0000   1.0000   1.0000   1.0000   1.0000   1.0000   0.0000   0.0000
     0.0000   0.0000

          k =-0.1061-0.5303 0.6718 (  8412 PWs)   bands (ev):

   -13.3163 -13.3115 -13.2023 -13.1399 -13.1162 -13.0707 -13.0578 -13.0119
   -12.9036 -12.8988   0.3982   1.8484   5.7530   6.1165   9.8729  10.4027
    13.3477  14.6961

     occupation numbers 
     1.0000   1.0000   1.0000   1.0000   1.0000   1.0000   1.0000   1.0000
     1.0000   1.0000   1.0000   1.0000   1.0000   1.0000   0.0000   0.0000
     0.0000   0.0000

          k =-0.0707-0.4950 0.6364 (  8415 PWs)   bands (ev):

   -13.3213 -13.3123 -13.1900 -13.1384 -13.1080 -13.0719 -13.0670 -13.0237
   -12.9024 -12.8934   0.6179   1.6040   5.5408   6.1277   9.9292  10.9653
    13.2066  14.2597

     occupation numbers 
     1.0000   1.0000   1.0000   1.0000   1.0000   1.0000   1.0000   1.0000
     1.0000   1.0000   1.0000   1.0000   1.0000   1.0000   0.0000   0.0000
     0.0000   0.0000

          k =-0.0354-0.4596 0.6010 (  8420 PWs)   bands (ev):

   -13.3246 -13.3124 -13.1845 -13.1282 -13.1034 -13.0807 -13.0739 -13.0286
   -12.9020 -12.8900   0.7006   1.5197   5.3749   6.1985   9.9921  11.6220
    13.0892  13.6307

     occupation numbers 
     1.0000   1.0000   1.0000   1.0000   1.0000   1.0000   1.0000   1.0000
     1.0000   1.0000   1.0000   1.0000   1.0000   1.0000   0.0000   0.0000
     0.0000   0.0000

          k =-0.0000-0.4243 0.5657 (  8427 PWs)   bands (ev):

   -13.3260 -13.3120 -13.1852 -13.1115 -13.1098 -13.0914 -13.0732 -13.0281
   -12.9024 -12.8889   0.5724   1.6617   5.2890   6.3173  10.0718  12.2460
    12.9813  13.0522

     occupation numbers 
     1.0000   1.0000   1.0000   1.0000   1.0000   1.0000   1.0000   1.0000
     1.0000   1.0000   1.0000   1.0000   1.0000   1.0000   0.0000   0.0000
     0.0000   0.0000

          k =-0.0707-0.5657 0.7071 (  8410 PWs)   bands (ev):

   -13.3131 -13.3126 -13.1999 -13.1585 -13.1059 -13.0668 -13.0539 -13.0138
   -12.9022 -12.9018   0.5994   1.6050   5.9000   6.0192   9.7175   9.9233
    14.0856  14.9662

     occupation numbers 
     1.0000   1.0000   1.0000   1.0000   1.0000   1.0000   1.0000   1.0000
     1.0000   1.0000   1.0000   1.0000   1.0000   1.0000   0.0000   0.0000
     0.0000   0.0000

          k =-0.0354-0.5303 0.6718 (  8418 PWs)   bands (ev):

   -13.3179 -13.3133 -13.1856 -13.1605 -13.0970 -13.0769 -13.0514 -13.0276
   -12.9012 -12.8966   0.8421   1.3522   5.7093   6.0018   9.8444  10.3279
    13.9320  14.4708

     occupation numbers 
     1.0000   1.0000   1.0000   1.0000   1.0000   1.0000   1.0000   1.0000
     1.0000   1.0000   1.0000   1.0000   1.0000   1.0000   0.0000   0.0000
     0.0000   0.0000

          k = 0.0000-0.4950 0.6364 (  8418 PWs)   bands (ev):

   -13.3221 -13.3132 -13.1815 -13.1487 -13.0936 -13.0822 -13.0619 -13.0313
   -12.9012 -12.8923   0.9007   1.3025   5.5072   6.0755   9.9082  10.9447
    13.7564  13.8058

     occupation numbers 
     1.0000   1.0000   1.0000   1.0000   1.0000   1.0000   1.0000   1.0000
     1.0000   1.0000   1.0000   1.0000   1.0000   1.0000   0.0000   0.0000
     0.0000   0.0000

          k =-0.7071 0.1414 0.0000 (  8414 PWs)   bands (ev):

   -13.3137 -13.3137 -13.1803 -13.1803 -13.0863 -13.0863 -13.0329 -13.0329
   -12.9008 -12.9008   1.0865   1.0865   5.9224   5.9224   9.7906   9.7906
    14.6417  14.6418

     occupation numbers 
     1.0000   1.0000   1.0000   1.0000   1.0000   1.0000   1.0000   1.0000
     1.0000   1.0000   1.0000   1.0000   1.0000   1.0000   0.0000   0.0000
     0.0000   0.0000

          k = 0.4243 0.2121-0.0000 (  8417 PWs)   bands (ev):

   -13.3073 -13.3041 -13.2277 -13.1587 -13.1245 -13.0771 -13.0168 -12.9932
   -12.9118 -12.9115  -0.5037   3.0627   5.9555   6.8576  10.4429  10.5328
    12.1588  13.3890

     occupation numbers 
     1.0000   1.0000   1.0000   1.0000   1.0000   1.0000   1.0000   1.0000
     1.0000   1.0000   1.0000   1.0000   1.0000   1.0000   0.0000   0.0000
     0.0000   0.0000

          k =-0.2475-0.4596 0.6718 (  8411 PWs)   bands (ev):

   -13.3133 -13.3067 -13.2157 -13.1512 -13.1176 -13.0826 -13.0257 -13.0057
   -12.9089 -12.9040  -0.2663   2.6903   5.7427   6.7134  10.4265  10.9265
    12.1122  13.6268

     occupation numbers 
     1.0000   1.0000   1.0000   1.0000   1.0000   1.0000   1.0000   1.0000
     1.0000   1.0000   1.0000   1.0000   1.0000   1.0000   0.0000   0.0000
     0.0000   0.0000

          k =-0.2121-0.4243 0.6364 (  8431 PWs)   bands (ev):

   -13.3182 -13.3084 -13.2052 -13.1434 -13.1141 -13.0846 -13.0361 -13.0152
   -12.9070 -12.8980  -0.0288   2.3461   5.5983   6.5913  10.3939  11.2334
    12.2768  13.7073

     occupation numbers 
     1.0000   1.0000   1.0000   1.0000   1.0000   1.0000   1.0000   1.0000
     1.0000   1.0000   1.0000   1.0000   1.0000   1.0000   0.0000   0.0000
     0.0000   0.0000

          k =-0.1768-0.3889 0.6010 (  8428 PWs)   bands (ev):

   -13.3214 -13.3093 -13.1980 -13.1366 -13.1140 -13.0836 -13.0459 -13.0207
   -12.9059 -12.8943   0.1659   2.0829   5.5155   6.5108  10.3725  11.3418
    12.7105  13.6023

     occupation numbers 
     1.0000   1.0000   1.0000   1.0000   1.0000   1.0000   1.0000   1.0000
     1.0000   1.0000   1.0000   1.0000   1.0000   1.0000   0.0000   0.0000
     0.0000   0.0000

          k =-0.1414-0.3536 0.5657 (  8420 PWs)   bands (ev):

   -13.3224 -13.3096 -13.1955 -13.1335 -13.1145 -13.0826 -13.0502 -13.0225
   -12.9055 -12.8931   0.2463   1.9789   5.4886   6.4828  10.3652  11.3589
    13.1752  13.2918

     occupation numbers 
     1.0000   1.0000   1.0000   1.0000   1.0000   1.0000   1.0000   1.0000
     1.0000   1.0000   1.0000   1.0000   1.0000   1.0000   0.0000   0.0000
     0.0000   0.0000

          k =-0.2121-0.4950 0.7071 (  8407 PWs)   bands (ev):

   -13.3124 -13.3087 -13.2166 -13.1433 -13.1046 -13.1005 -13.0320 -13.0010
   -12.9068 -12.9048  -0.1590   2.5603   5.7933   6.4768  10.4064  10.5962
    12.2783  14.0884

     occupation numbers 
     1.0000   1.0000   1.0000   1.0000   1.0000   1.0000   1.0000   1.0000
     1.0000   1.0000   1.0000   1.0000   1.0000   1.0000   0.0000   0.0000
     0.0000   0.0000

          k =-0.1768-0.4596 0.6718 (  8417 PWs)   bands (ev):

   -13.3176 -13.3110 -13.2034 -13.1353 -13.1061 -13.0978 -13.0422 -13.0139
   -12.9043 -12.8984   0.0843   2.2342   5.6176   6.3467  10.4987  10.9915
    12.1759  14.1831

     occupation numbers 
     1.0000   1.0000   1.0000   1.0000   1.0000   1.0000   1.0000   1.0000
     1.0000   1.0000   1.0000   1.0000   1.0000   1.0000   0.0000   0.0000
     0.0000   0.0000

          k =-0.1414-0.4243 0.6364 (  8432 PWs)   bands (ev):

   -13.3217 -13.3122 -13.1926 -13.1280 -13.1073 -13.0951 -13.0526 -13.0234
   -12.9027 -12.8936   0.3051   1.9578   5.4883   6.2669  10.5135  11.4278
    12.2372  13.9210

     occupation numbers 
     1.0000   1.0000   1.0000   1.0000   1.0000   1.0000   1.0000   1.0000
     1.0000   1.0000   1.0000   1.0000   1.0000   1.0000   0.0000   0.0000
     0.0000   0.0000

          k =-0.1061-0.3889 0.6010 (  8418 PWs)   bands (ev):

   -13.3239 -13.3128 -13.1866 -13.1241 -13.1030 -13.0975 -13.0596 -13.0282
   -12.9020 -12.8911   0.4332   1.8055   5.4083   6.2505  10.5428  11.5867
    12.6549  13.3817

     occupation numbers 
     1.0000   1.0000   1.0000   1.0000   1.0000   1.0000   1.0000   1.0000
     1.0000   1.0000   1.0000   1.0000   1.0000   1.0000   0.0000   0.0000
     0.0000   0.0000

          k =-0.0707-0.3536 0.5657 (  8419 PWs)   bands (ev):

   -13.3240 -13.3126 -13.1868 -13.1258 -13.1017 -13.0972 -13.0593 -13.0282
   -12.9021 -12.8912   0.3911   1.8557   5.3843   6.2980  10.5843  11.5760
    12.7214  13.3112

     occupation numbers 
     1.0000   1.0000   1.0000   1.0000   1.0000   1.0000   1.0000   1.0000
     1.0000   1.0000   1.0000   1.0000   1.0000   1.0000   0.0000   0.0000
     0.0000   0.0000

          k =-0.0354-0.3182 0.5303 (  8419 PWs)   bands (ev):

   -13.3219 -13.3117 -13.1926 -13.1334 -13.1034 -13.0950 -13.0502 -13.0244
   -12.9030 -12.8937   0.2092   2.0753   5.4259   6.4015  10.6241  11.4645
    12.2312  13.8230

     occupation numbers 
     1.0000   1.0000   1.0000   1.0000   1.0000   1.0000   1.0000   1.0000
     1.0000   1.0000   1.0000   1.0000   1.0000   1.0000   0.0000   0.0000
     0.0000   0.0000

          k = 0.0000-0.2828 0.4950 (  8410 PWs)   bands (ev):

   -13.3181 -13.3099 -13.2029 -13.1427 -13.1087 -13.0904 -13.0371 -13.0170
   -12.9049 -12.8985  -0.0267   2.3726   5.5432   6.5472  10.6210  11.1602
    12.0550  13.9235

     occupation numbers 
     1.0000   1.0000   1.0000   1.0000   1.0000   1.0000   1.0000   1.0000
     1.0000   1.0000   1.0000   1.0000   1.0000   1.0000   0.0000   0.0000
     0.0000   0.0000

          k =-0.1414-0.4950 0.7071 (  8424 PWs)   bands (ev):

   -13.3160 -13.3128 -13.2027 -13.1260 -13.1238 -13.0841 -13.0496 -13.0124
   -12.9022 -12.8998   0.2272   2.0625   5.7052   6.1614  10.3362  10.5590
    12.6628  14.5188

     occupation numbers 
     1.0000   1.0000   1.0000   1.0000   1.0000   1.0000   1.0000   1.0000
     1.0000   1.0000   1.0000   1.0000   1.0000   1.0000   0.0000   0.0000
     0.0000   0.0000

          k =-0.1061-0.4596 0.6718 (  8421 PWs)   bands (ev):

   -13.3203 -13.3146 -13.1887 -13.1274 -13.1174 -13.0797 -13.0602 -13.0255
   -12.9001 -12.8947   0.4669   1.7840   5.5637   6.0581  10.4642  11.0145
    12.5278  14.1532

     occupation numbers 
     1.0000   1.0000   1.0000   1.0000   1.0000   1.0000   1.0000   1.0000
     1.0000   1.0000   1.0000   1.0000   1.0000   1.0000   0.0000   0.0000
     0.0000   0.0000

          k =-0.0707-0.4243 0.6364 (  8421 PWs)   bands (ev):

   -13.3236 -13.3152 -13.1794 -13.1258 -13.1101 -13.0819 -13.0686 -13.0334
   -12.8994 -12.8911   0.6388   1.5956   5.4373   6.0446  10.5158  11.6091
    12.4573  13.5132

     occupation numbers 
     1.0000   1.0000   1.0000   1.0000   1.0000   1.0000   1.0000   1.0000
     1.0000   1.0000   1.0000   1.0000   1.0000   1.0000   0.0000   0.0000
     0.0000   0.0000

          k =-0.0354-0.3889 0.6010 (  8421 PWs)   bands (ev):

   -13.3250 -13.3149 -13.1779 -13.1183 -13.1099 -13.0870 -13.0717 -13.0344
   -12.8995 -12.8897   0.6270   1.6108   5.3564   6.1090  10.5798  11.9859
    12.6064  12.9130

     occupation numbers 
     1.0000   1.0000   1.0000   1.0000   1.0000   1.0000   1.0000   1.0000
     1.0000   1.0000   1.0000   1.0000   1.0000   1.0000   0.0000   0.0000
     0.0000   0.0000

          k = 0.0000-0.3536 0.5657 (  8410 PWs)   bands (ev):

   -13.3244 -13.3138 -13.1830 -13.1216 -13.1063 -13.0931 -13.0644 -13.0308
   -12.9006 -12.8907   0.4458   1.8107   5.3473   6.2337  10.6390  11.8756
    12.3154  13.3272

     occupation numbers 
     1.0000   1.0000   1.0000   1.0000   1.0000   1.0000   1.0000   1.0000
     1.0000   1.0000   1.0000   1.0000   1.0000   1.0000   0.0000   0.0000
     0.0000   0.0000

          k =-0.0707-0.4950 0.7071 (  8413 PWs)   bands (ev):

   -13.3178 -13.3160 -13.1861 -13.1462 -13.1072 -13.0684 -13.0638 -13.0272
   -12.8986 -12.8970   0.6492   1.5738   5.6956   5.9234  10.3241  10.4562
    13.1963  14.3247

     occupation numbers 
     1.0000   1.0000   1.0000   1.0000   1.0000   1.0000   1.0000   1.0000
     1.0000   1.0000   1.0000   1.0000   1.0000   1.0000   0.0000   0.0000
     0.0000   0.0000

          k =-0.0354-0.4596 0.6718 (  8424 PWs)   bands (ev):

   -13.3214 -13.3168 -13.1732 -13.1465 -13.0993 -13.0789 -13.0626 -13.0387
   -12.8976 -12.8931   0.8618   1.3562   5.5657   5.8809  10.4367  10.9946
    13.0557  13.6435

     occupation numbers 
     1.0000   1.0000   1.0000   1.0000   1.0000   1.0000   1.0000   1.0000
     1.0000   1.0000   1.0000   1.0000   1.0000   1.0000   0.0000   0.0000
     0.0000   0.0000

          k =-0.0000-0.4243 0.6364 (  8415 PWs)   bands (ev):

   -13.3241 -13.3163 -13.1720 -13.1342 -13.0999 -13.0815 -13.0724 -13.0392
   -12.8981 -12.8903   0.8403   1.3853   5.4255   5.9633  10.5079  11.6482
    12.9443  12.9449

     occupation numbers 
     1.0000   1.0000   1.0000   1.0000   1.0000   1.0000   1.0000   1.0000
     1.0000   1.0000   1.0000   1.0000   1.0000   1.0000   0.0000   0.0000
     0.0000   0.0000

          k =-0.7071 0.2121 0.0000 (  8422 PWs)   bands (ev):

   -13.3177 -13.3177 -13.1671 -13.1671 -13.0879 -13.0879 -13.0446 -13.0446
   -12.8967 -12.8967   1.1004   1.1004   5.7678   5.7678  10.3676  10.3676
    13.7846  13.7846

     occupation numbers 
     1.0000   1.0000   1.0000   1.0000   1.0000   1.0000   1.0000   1.0000
     1.0000   1.0000   1.0000   1.0000   1.0000   1.0000   0.0000   0.0000
     0.0000   0.0000

          k =-0.1414-0.4243 0.7071 (  8408 PWs)   bands (ev):

   -13.3209 -13.3143 -13.1895 -13.1263 -13.1126 -13.0905 -13.0543 -13.0259
   -12.9004 -12.8945   0.3282   1.9475   5.4925   6.1744  10.9311  11.0793
    12.0777  14.0190

     occupation numbers 
     1.0000   1.0000   1.0000   1.0000   1.0000   1.0000   1.0000   1.0000
     1.0000   1.0000   1.0000   1.0000   1.0000   1.0000   0.0000   0.0000
     0.0000   0.0000

          k =-0.1061-0.3889 0.6718 (  8420 PWs)   bands (ev):

   -13.3234 -13.3159 -13.1787 -13.1201 -13.1147 -13.0857 -13.0656 -13.0343
   -12.8987 -12.8915   0.5462   1.7023   5.4238   6.0540  10.9694  11.4848
    12.1759  13.4096

     occupation numbers 
     1.0000   1.0000   1.0000   1.0000   1.0000   1.0000   1.0000   1.0000
     1.0000   1.0000   1.0000   1.0000   1.0000   1.0000   0.0000   0.0000
     0.0000   0.0000

          k =-0.0707-0.3536 0.6364 (  8430 PWs)   bands (ev):

   -13.3243 -13.3164 -13.1745 -13.1215 -13.1099 -13.0862 -13.0696 -13.0374
   -12.8981 -12.8903   0.6470   1.5921   5.4026   6.0107  10.9729  11.6044
    12.5472  12.8672

     occupation numbers 
     1.0000   1.0000   1.0000   1.0000   1.0000   1.0000   1.0000   1.0000
     1.0000   1.0000   1.0000   1.0000   1.0000   1.0000   0.0000   0.0000
     0.0000   0.0000

          k =-0.0707-0.4243 0.7071 (  8429 PWs)   bands (ev):

   -13.3217 -13.3181 -13.1733 -13.1343 -13.1087 -13.0722 -13.0720 -13.0387
   -12.8964 -12.8929   0.7102   1.5261   5.5288   5.8724  11.0447  11.0451
    12.3963  13.5178

     occupation numbers 
     1.0000   1.0000   1.0000   1.0000   1.0000   1.0000   1.0000   1.0000
     1.0000   1.0000   1.0000   1.0000   1.0000   1.0000   0.0000   0.0000
     0.0000   0.0000

          k =-0.0354-0.3889 0.6718 (  8426 PWs)   bands (ev):

   -13.3233 -13.3190 -13.1639 -13.1363 -13.1019 -13.0820 -13.0691 -13.0461
   -12.8953 -12.8912   0.8743   1.3584   5.4885   5.8067  11.0907  11.6228
    12.3500  12.8258

     occupation numbers 
     1.0000   1.0000   1.0000   1.0000   1.0000   1.0000   1.0000   1.0000
     1.0000   1.0000   1.0000   1.0000   1.0000   1.0000   0.0000   0.0000
     0.0000   0.0000

          k = 0.0000-0.3536 0.6364 (  8426 PWs)   bands (ev):

   -13.3240 -13.3182 -13.1676 -13.1284 -13.1068 -13.0781 -13.0754 -13.0429
   -12.8962 -12.8906   0.7758   1.4620   5.4333   5.8867  11.1204  11.7713
    12.2548  12.7599

     occupation numbers 
     1.0000   1.0000   1.0000   1.0000   1.0000   1.0000   1.0000   1.0000
     1.0000   1.0000   1.0000   1.0000   1.0000   1.0000   0.0000   0.0000
     0.0000   0.0000

          k =-0.7071 0.2828 0.0000 (  8434 PWs)   bands (ev):

   -13.3207 -13.3207 -13.1547 -13.1547 -13.0905 -13.0905 -13.0544 -13.0544
   -12.8937 -12.8937   1.1118   1.1118   5.6554   5.6554  11.0467  11.0467
    12.9216  12.9216

     occupation numbers 
     1.0000   1.0000   1.0000   1.0000   1.0000   1.0000   1.0000   1.0000
     1.0000   1.0000   1.0000   1.0000   1.0000   1.0000   0.0000   0.0000
     0.0000   0.0000

          k =-0.7071 0.3536 0.0000 (  8400 PWs)   bands (ev):

   -13.3218 -13.3218 -13.1491 -13.1491 -13.0923 -13.0923 -13.0582 -13.0582
   -12.8926 -12.8926   1.1162   1.1162   5.6149   5.6149  11.5492  11.5492
    12.3560  12.3560

     occupation numbers 
     1.0000   1.0000   1.0000   1.0000   1.0000   1.0000   1.0000   1.0000
     1.0000   1.0000   1.0000   1.0000   1.0000   1.0000   0.0000   0.0000
     0.0000   0.0000

     the Fermi energy is     8.3586 ev

!    total energy              =    -241.29905258 Ry
     Harris-Foulkes estimate   =    -241.29905256 Ry
     estimated scf accuracy    <       0.00000005 Ry

     The total energy is the sum of the following terms:

     one-electron contribution =    -109.45016450 Ry
     hartree contribution      =      65.34062632 Ry
     xc contribution           =     -29.40807924 Ry
     ewald contribution        =    -167.78134157 Ry
     smearing contrib. (-TS)   =      -0.00009358 Ry

     convergence has been achieved in   5 iterations

     Writing output data file Sn.save
 
     init_run     :      4.90s CPU      5.55s WALL (       1 calls)
     electrons    :    101.59s CPU    108.43s WALL (       1 calls)

     Called by init_run:
     wfcinit      :      4.65s CPU      5.17s WALL (       1 calls)
     potinit      :      0.03s CPU      0.04s WALL (       1 calls)

     Called by electrons:
     c_bands      :     89.44s CPU     95.85s WALL (       6 calls)
     sum_band     :     12.02s CPU     12.39s WALL (       6 calls)
     v_of_rho     :      0.10s CPU      0.11s WALL (       6 calls)
     v_h          :      0.00s CPU      0.01s WALL (       6 calls)
     v_xc         :      0.10s CPU      0.10s WALL (       6 calls)
     mix_rho      :      0.01s CPU      0.01s WALL (       6 calls)

     Called by c_bands:
     init_us_2    :      1.03s CPU      1.22s WALL (    3328 calls)
     cegterg      :     82.61s CPU     88.67s WALL (    1536 calls)

     Called by sum_band:

     Called by *egterg:
     h_psi        :     71.31s CPU     76.79s WALL (    6402 calls)
     g_psi        :      0.26s CPU      0.26s WALL (    4610 calls)
     cdiaghg      :      7.78s CPU      7.87s WALL (    5890 calls)
     cegterg:over :      2.85s CPU      2.93s WALL (    4610 calls)
     cegterg:upda :      1.19s CPU      1.20s WALL (    4610 calls)
     cegterg:last :      0.70s CPU      0.70s WALL (    1998 calls)

     Called by h_psi:
     h_psi:vloc   :     67.98s CPU     73.25s WALL (    6402 calls)
     h_psi:vnl    :      3.13s CPU      3.31s WALL (    6402 calls)
     add_vuspsi   :      1.04s CPU      1.09s WALL (    6402 calls)

     General routines
     calbec       :      2.02s CPU      2.15s WALL (    6402 calls)
     fft          :      0.08s CPU      0.09s WALL (      67 calls)
     fftw         :     73.07s CPU     78.31s WALL (  207670 calls)
     davcio       :      0.03s CPU      0.19s WALL (     256 calls)
 
     Parallel routines
     fft_scatter  :     38.86s CPU     41.46s WALL (  207737 calls)
 
     PWSCF        :  1m46.88s CPU     1m54.80s WALL

 
   This run was terminated on:   0:55:19  21Feb2020            

=------------------------------------------------------------------------------=
   JOB DONE.
=------------------------------------------------------------------------------=
