
     Program PWSCF v.5.4.0 starts on 21Feb2020 at  0:53:42 

     This program is part of the open-source Quantum ESPRESSO suite
     for quantum simulation of materials; please cite
         "P. Giannozzi et al., J. Phys.:Condens. Matter 21 395502 (2009);
          URL http://www.quantum-espresso.org", 
     in publications or presentations arising from this work. More details at
     http://www.quantum-espresso.org/quote

     Parallel version (MPI & OpenMP), running on      16 processor cores
     Number of MPI processes:                16
     Threads/MPI process:                     1
     R & G space division:  proc/nbgrp/npool/nimage =      16
     Waiting for input...
     Reading input from standard input
Warning: card &IONS ignored
Warning: card / ignored
Warning: card &CELL ignored
Warning: card / ignored

     Current dimensions of program PWSCF are:
     Max number of different atomic species (ntypx) = 10
     Max number of k-points (npk) =  40000
     Max angular momentum in pseudopotentials (lmaxx) =  3

     Subspace diagonalization in iterative solution of the eigenvalue problem:
     a serial algorithm will be used

 
     Parallelization info
     --------------------
     sticks:   dense  smooth     PW     G-vecs:    dense   smooth      PW
     Min          80      80     23                 1931     1931     312
     Max          81      81     24                 1936     1936     316
     Sum        1285    1285    379                30923    30923    5029
 

     Title: 
     Sn                                                                         


     bravais-lattice index     =            0
     lattice parameter (alat)  =       8.8993  a.u.
     unit-cell volume          =     498.3785 (a.u.)^3
     number of atoms/cell      =            2
     number of atomic types    =            1
     number of electrons       =        28.00
     number of Kohn-Sham states=           18
     kinetic-energy cutoff     =      60.0000  Ry
     charge density cutoff     =     240.0000  Ry
     convergence threshold     =      1.0E-06
     mixing beta               =       0.7000
     number of iterations used =            8  plain     mixing
     Exchange-correlation      = PBE ( 1  4  3  4 0 0)

     celldm(1)=   8.899346  celldm(2)=   0.000000  celldm(3)=   0.000000
     celldm(4)=   0.000000  celldm(5)=   0.000000  celldm(6)=   0.000000

     crystal axes: (cart. coord. in units of alat)
               a(1) = (   0.000000   0.707107   0.707107 )  
               a(2) = (   0.707107   0.000000   0.707107 )  
               a(3) = (   0.707107   0.707107   0.000000 )  

     reciprocal axes: (cart. coord. in units 2 pi/alat)
               b(1) = ( -0.707107  0.707107  0.707107 )  
               b(2) = (  0.707107 -0.707107  0.707107 )  
               b(3) = (  0.707107  0.707107 -0.707107 )  


     PseudoPot. # 1 for Sn read from file:
     ../PseudopotentialDatabase/Sn_ONCV_PBE-1.2.upf
     MD5 check sum: 6680f7ee4d83b53e0fcd4167fcb72813
     Pseudo is Norm-conserving, Zval = 14.0
     Generated using ONCVPSP code by D. R. Hamann
     Using radial grid of  602 points,  6 beta functions with: 
                l(1) =   0
                l(2) =   0
                l(3) =   1
                l(4) =   1
                l(5) =   2
                l(6) =   2

     atomic species   valence    mass     pseudopotential
        Sn            14.00   118.71000     Sn( 1.00)

     24 Sym. Ops. (no inversion) found
          (note: 24 additional sym.ops. were found but ignored
           their fractional translations are incommensurate with FFT grid)

                                    s                        frac. trans.

      isym =  1     identity                                     

 cryst.   s( 1) = (     1          0          0      )
                  (     0          1          0      )
                  (     0          0          1      )

 cart.    s( 1) = (  1.0000000  0.0000000  0.0000000 )
                  (  0.0000000  1.0000000  0.0000000 )
                  (  0.0000000  0.0000000  1.0000000 )


      isym =  2     180 deg rotation - cart. axis [0,0,1]        

 cryst.   s( 2) = (     0          1         -1      )
                  (     1          0         -1      )
                  (     0          0         -1      )

 cart.    s( 2) = ( -1.0000000  0.0000000  0.0000000 )
                  (  0.0000000 -1.0000000  0.0000000 )
                  (  0.0000000  0.0000000  1.0000000 )


      isym =  3     180 deg rotation - cart. axis [0,1,0]        

 cryst.   s( 3) = (     0         -1          1      )
                  (     0         -1          0      )
                  (     1         -1          0      )

 cart.    s( 3) = ( -1.0000000  0.0000000  0.0000000 )
                  (  0.0000000  1.0000000  0.0000000 )
                  (  0.0000000  0.0000000 -1.0000000 )


      isym =  4     180 deg rotation - cart. axis [1,0,0]        

 cryst.   s( 4) = (    -1          0          0      )
                  (    -1          0          1      )
                  (    -1          1          0      )

 cart.    s( 4) = (  1.0000000  0.0000000  0.0000000 )
                  (  0.0000000 -1.0000000  0.0000000 )
                  (  0.0000000  0.0000000 -1.0000000 )


      isym =  5     120 deg rotation - cart. axis [-1,-1,-1]     

 cryst.   s( 5) = (     0          0          1      )
                  (     1          0          0      )
                  (     0          1          0      )

 cart.    s( 5) = (  0.0000000  1.0000000  0.0000000 )
                  (  0.0000000  0.0000000  1.0000000 )
                  (  1.0000000  0.0000000  0.0000000 )


      isym =  6     120 deg rotation - cart. axis [-1,1,1]       

 cryst.   s( 6) = (     1         -1          0      )
                  (     0         -1          1      )
                  (     0         -1          0      )

 cart.    s( 6) = (  0.0000000 -1.0000000  0.0000000 )
                  (  0.0000000  0.0000000  1.0000000 )
                  ( -1.0000000  0.0000000  0.0000000 )


      isym =  7     120 deg rotation - cart. axis [1,1,-1]       

 cryst.   s( 7) = (    -1          1          0      )
                  (    -1          0          0      )
                  (    -1          0          1      )

 cart.    s( 7) = (  0.0000000  1.0000000  0.0000000 )
                  (  0.0000000  0.0000000 -1.0000000 )
                  ( -1.0000000  0.0000000  0.0000000 )


      isym =  8     120 deg rotation - cart. axis [1,-1,1]       

 cryst.   s( 8) = (     0          0         -1      )
                  (     0          1         -1      )
                  (     1          0         -1      )

 cart.    s( 8) = (  0.0000000 -1.0000000  0.0000000 )
                  (  0.0000000  0.0000000 -1.0000000 )
                  (  1.0000000  0.0000000  0.0000000 )


      isym =  9     120 deg rotation - cart. axis [1,1,1]        

 cryst.   s( 9) = (     0          1          0      )
                  (     0          0          1      )
                  (     1          0          0      )

 cart.    s( 9) = (  0.0000000  0.0000000  1.0000000 )
                  (  1.0000000  0.0000000  0.0000000 )
                  (  0.0000000  1.0000000  0.0000000 )


      isym = 10     120 deg rotation - cart. axis [-1,1,-1]      

 cryst.   s(10) = (    -1          0          1      )
                  (    -1          1          0      )
                  (    -1          0          0      )

 cart.    s(10) = (  0.0000000  0.0000000  1.0000000 )
                  ( -1.0000000  0.0000000  0.0000000 )
                  (  0.0000000 -1.0000000  0.0000000 )


      isym = 11     120 deg rotation - cart. axis [1,-1,-1]      

 cryst.   s(11) = (     1          0         -1      )
                  (     0          0         -1      )
                  (     0          1         -1      )

 cart.    s(11) = (  0.0000000  0.0000000 -1.0000000 )
                  ( -1.0000000  0.0000000  0.0000000 )
                  (  0.0000000  1.0000000  0.0000000 )


      isym = 12     120 deg rotation - cart. axis [-1,-1,1]      

 cryst.   s(12) = (     0         -1          0      )
                  (     1         -1          0      )
                  (     0         -1          1      )

 cart.    s(12) = (  0.0000000  0.0000000 -1.0000000 )
                  (  1.0000000  0.0000000  0.0000000 )
                  (  0.0000000 -1.0000000  0.0000000 )


      isym = 13     inv. 180 deg rotation - cart. axis [1,1,0]   

 cryst.   s(13) = (     1          0         -1      )
                  (     0          1         -1      )
                  (     0          0         -1      )

 cart.    s(13) = (  0.0000000 -1.0000000  0.0000000 )
                  ( -1.0000000  0.0000000  0.0000000 )
                  (  0.0000000  0.0000000  1.0000000 )


      isym = 14     inv. 180 deg rotation - cart. axis [1,-1,0]  

 cryst.   s(14) = (     0          1          0      )
                  (     1          0          0      )
                  (     0          0          1      )

 cart.    s(14) = (  0.0000000  1.0000000  0.0000000 )
                  (  1.0000000  0.0000000  0.0000000 )
                  (  0.0000000  0.0000000  1.0000000 )


      isym = 15     inv.  90 deg rotation - cart. axis [0,0,-1]  

 cryst.   s(15) = (     0         -1          0      )
                  (     0         -1          1      )
                  (     1         -1          0      )

 cart.    s(15) = (  0.0000000 -1.0000000  0.0000000 )
                  (  1.0000000  0.0000000  0.0000000 )
                  (  0.0000000  0.0000000 -1.0000000 )


      isym = 16     inv.  90 deg rotation - cart. axis [0,0,1]   

 cryst.   s(16) = (    -1          0          1      )
                  (    -1          0          0      )
                  (    -1          1          0      )

 cart.    s(16) = (  0.0000000  1.0000000  0.0000000 )
                  ( -1.0000000  0.0000000  0.0000000 )
                  (  0.0000000  0.0000000 -1.0000000 )


      isym = 17     inv. 180 deg rotation - cart. axis [1,0,1]   

 cryst.   s(17) = (     1         -1          0      )
                  (     0         -1          0      )
                  (     0         -1          1      )

 cart.    s(17) = (  0.0000000  0.0000000 -1.0000000 )
                  (  0.0000000  1.0000000  0.0000000 )
                  ( -1.0000000  0.0000000  0.0000000 )


      isym = 18     inv. 180 deg rotation - cart. axis [-1,0,1]  

 cryst.   s(18) = (     0          0          1      )
                  (     0          1          0      )
                  (     1          0          0      )

 cart.    s(18) = (  0.0000000  0.0000000  1.0000000 )
                  (  0.0000000  1.0000000  0.0000000 )
                  (  1.0000000  0.0000000  0.0000000 )


      isym = 19     inv.  90 deg rotation - cart. axis [0,1,0]   

 cryst.   s(19) = (     0          0         -1      )
                  (     1          0         -1      )
                  (     0          1         -1      )

 cart.    s(19) = (  0.0000000  0.0000000 -1.0000000 )
                  (  0.0000000 -1.0000000  0.0000000 )
                  (  1.0000000  0.0000000  0.0000000 )


      isym = 20     inv.  90 deg rotation - cart. axis [0,-1,0]  

 cryst.   s(20) = (    -1          1          0      )
                  (    -1          0          1      )
                  (    -1          0          0      )

 cart.    s(20) = (  0.0000000  0.0000000  1.0000000 )
                  (  0.0000000 -1.0000000  0.0000000 )
                  ( -1.0000000  0.0000000  0.0000000 )


      isym = 21     inv. 180 deg rotation - cart. axis [0,1,1]   

 cryst.   s(21) = (    -1          0          0      )
                  (    -1          1          0      )
                  (    -1          0          1      )

 cart.    s(21) = (  1.0000000  0.0000000  0.0000000 )
                  (  0.0000000  0.0000000 -1.0000000 )
                  (  0.0000000 -1.0000000  0.0000000 )


      isym = 22     inv. 180 deg rotation - cart. axis [0,1,-1]  

 cryst.   s(22) = (     1          0          0      )
                  (     0          0          1      )
                  (     0          1          0      )

 cart.    s(22) = (  1.0000000  0.0000000  0.0000000 )
                  (  0.0000000  0.0000000  1.0000000 )
                  (  0.0000000  1.0000000  0.0000000 )


      isym = 23     inv.  90 deg rotation - cart. axis [-1,0,0]  

 cryst.   s(23) = (     0          1         -1      )
                  (     0          0         -1      )
                  (     1          0         -1      )

 cart.    s(23) = ( -1.0000000  0.0000000  0.0000000 )
                  (  0.0000000  0.0000000 -1.0000000 )
                  (  0.0000000  1.0000000  0.0000000 )


      isym = 24     inv.  90 deg rotation - cart. axis [1,0,0]   

 cryst.   s(24) = (     0         -1          1      )
                  (     1         -1          0      )
                  (     0         -1          0      )

 cart.    s(24) = ( -1.0000000  0.0000000  0.0000000 )
                  (  0.0000000  0.0000000  1.0000000 )
                  (  0.0000000 -1.0000000  0.0000000 )


   Cartesian axes

     site n.     atom                  positions (alat units)
         1           Sn  tau(   1) = (   0.0000000   0.0000000   0.0000000  )
         2           Sn  tau(   2) = (   0.3535534   0.3535534   0.3535534  )

   Crystallographic axes

     site n.     atom                  positions (cryst. coord.)
         1           Sn  tau(   1) = (  0.0000000  0.0000000  0.0000000  )
         2           Sn  tau(   2) = (  0.2500000  0.2500000  0.2500000  )

     number of k points=   256  gaussian smearing, width (Ry)=  0.0100
                       cart. coord. in units 2pi/alat
        k(    1) = (   0.0000000   0.0000000   0.0000000), wk =   0.0002500
        k(    2) = (   0.0353553   0.0353553  -0.0353553), wk =   0.0020000
        k(    3) = (   0.0707107   0.0707107  -0.0707107), wk =   0.0020000
        k(    4) = (   0.1060660   0.1060660  -0.1060660), wk =   0.0020000
        k(    5) = (   0.1414214   0.1414214  -0.1414214), wk =   0.0020000
        k(    6) = (   0.1767767   0.1767767  -0.1767767), wk =   0.0020000
        k(    7) = (   0.2121320   0.2121320  -0.2121320), wk =   0.0020000
        k(    8) = (   0.2474874   0.2474874  -0.2474874), wk =   0.0020000
        k(    9) = (   0.2828427   0.2828427  -0.2828427), wk =   0.0020000
        k(   10) = (   0.3181981   0.3181981  -0.3181981), wk =   0.0020000
        k(   11) = (  -0.3535534  -0.3535534   0.3535534), wk =   0.0010000
        k(   12) = (   0.0707107   0.0000000   0.0000000), wk =   0.0015000
        k(   13) = (   0.1060660   0.0353553  -0.0353553), wk =   0.0060000
        k(   14) = (   0.1414214   0.0707107  -0.0707107), wk =   0.0060000
        k(   15) = (   0.1767767   0.1060660  -0.1060660), wk =   0.0060000
        k(   16) = (   0.2121320   0.1414214  -0.1414214), wk =   0.0060000
        k(   17) = (   0.2474874   0.1767767  -0.1767767), wk =   0.0060000
        k(   18) = (   0.2828427   0.2121320  -0.2121320), wk =   0.0060000
        k(   19) = (   0.3181981   0.2474874  -0.2474874), wk =   0.0060000
        k(   20) = (   0.3535534   0.2828427  -0.2828427), wk =   0.0060000
        k(   21) = (  -0.3181981  -0.3889087   0.3889087), wk =   0.0060000
        k(   22) = (  -0.2828427  -0.3535534   0.3535534), wk =   0.0060000
        k(   23) = (  -0.2474874  -0.3181981   0.3181981), wk =   0.0060000
        k(   24) = (  -0.2121320  -0.2828427   0.2828427), wk =   0.0060000
        k(   25) = (  -0.1767767  -0.2474874   0.2474874), wk =   0.0060000
        k(   26) = (  -0.1414214  -0.2121320   0.2121320), wk =   0.0060000
        k(   27) = (  -0.1060660  -0.1767767   0.1767767), wk =   0.0060000
        k(   28) = (  -0.0707107  -0.1414214   0.1414214), wk =   0.0060000
        k(   29) = (  -0.0353553  -0.1060660   0.1060660), wk =   0.0060000
        k(   30) = (  -0.0000000  -0.0707107   0.0707107), wk =   0.0030000
        k(   31) = (   0.1414214   0.0000000   0.0000000), wk =   0.0015000
        k(   32) = (   0.1767767   0.0353553  -0.0353553), wk =   0.0060000
        k(   33) = (   0.2121320   0.0707107  -0.0707107), wk =   0.0060000
        k(   34) = (   0.2474874   0.1060660  -0.1060660), wk =   0.0060000
        k(   35) = (   0.2828427   0.1414214  -0.1414214), wk =   0.0060000
        k(   36) = (   0.3181981   0.1767767  -0.1767767), wk =   0.0060000
        k(   37) = (   0.3535534   0.2121320  -0.2121320), wk =   0.0060000
        k(   38) = (   0.3889087   0.2474874  -0.2474874), wk =   0.0060000
        k(   39) = (  -0.2828427  -0.4242641   0.4242641), wk =   0.0060000
        k(   40) = (  -0.2474874  -0.3889087   0.3889087), wk =   0.0060000
        k(   41) = (  -0.2121320  -0.3535534   0.3535534), wk =   0.0060000
        k(   42) = (  -0.1767767  -0.3181981   0.3181981), wk =   0.0060000
        k(   43) = (  -0.1414214  -0.2828427   0.2828427), wk =   0.0060000
        k(   44) = (  -0.1060660  -0.2474874   0.2474874), wk =   0.0060000
        k(   45) = (  -0.0707107  -0.2121320   0.2121320), wk =   0.0060000
        k(   46) = (  -0.0353553  -0.1767767   0.1767767), wk =   0.0060000
        k(   47) = (   0.0000000  -0.1414214   0.1414214), wk =   0.0030000
        k(   48) = (   0.2121320   0.0000000   0.0000000), wk =   0.0015000
        k(   49) = (   0.2474874   0.0353553  -0.0353553), wk =   0.0060000
        k(   50) = (   0.2828427   0.0707107  -0.0707107), wk =   0.0060000
        k(   51) = (   0.3181981   0.1060660  -0.1060660), wk =   0.0060000
        k(   52) = (   0.3535534   0.1414214  -0.1414214), wk =   0.0060000
        k(   53) = (   0.3889087   0.1767767  -0.1767767), wk =   0.0060000
        k(   54) = (   0.4242641   0.2121320  -0.2121320), wk =   0.0060000
        k(   55) = (  -0.2474874  -0.4596194   0.4596194), wk =   0.0060000
        k(   56) = (  -0.2121320  -0.4242641   0.4242641), wk =   0.0060000
        k(   57) = (  -0.1767767  -0.3889087   0.3889087), wk =   0.0060000
        k(   58) = (  -0.1414214  -0.3535534   0.3535534), wk =   0.0060000
        k(   59) = (  -0.1060660  -0.3181981   0.3181981), wk =   0.0060000
        k(   60) = (  -0.0707107  -0.2828427   0.2828427), wk =   0.0060000
        k(   61) = (  -0.0353553  -0.2474874   0.2474874), wk =   0.0060000
        k(   62) = (  -0.0000000  -0.2121320   0.2121320), wk =   0.0030000
        k(   63) = (   0.2828427   0.0000000   0.0000000), wk =   0.0015000
        k(   64) = (   0.3181981   0.0353553  -0.0353553), wk =   0.0060000
        k(   65) = (   0.3535534   0.0707107  -0.0707107), wk =   0.0060000
        k(   66) = (   0.3889087   0.1060660  -0.1060660), wk =   0.0060000
        k(   67) = (   0.4242641   0.1414214  -0.1414214), wk =   0.0060000
        k(   68) = (   0.4596194   0.1767767  -0.1767767), wk =   0.0060000
        k(   69) = (  -0.2121320  -0.4949747   0.4949747), wk =   0.0060000
        k(   70) = (  -0.1767767  -0.4596194   0.4596194), wk =   0.0060000
        k(   71) = (  -0.1414214  -0.4242641   0.4242641), wk =   0.0060000
        k(   72) = (  -0.1060660  -0.3889087   0.3889087), wk =   0.0060000
        k(   73) = (  -0.0707107  -0.3535534   0.3535534), wk =   0.0060000
        k(   74) = (  -0.0353553  -0.3181981   0.3181981), wk =   0.0060000
        k(   75) = (   0.0000000  -0.2828427   0.2828427), wk =   0.0030000
        k(   76) = (   0.3535534   0.0000000   0.0000000), wk =   0.0015000
        k(   77) = (   0.3889087   0.0353553  -0.0353553), wk =   0.0060000
        k(   78) = (   0.4242641   0.0707107  -0.0707107), wk =   0.0060000
        k(   79) = (   0.4596194   0.1060660  -0.1060660), wk =   0.0060000
        k(   80) = (   0.4949747   0.1414214  -0.1414214), wk =   0.0060000
        k(   81) = (  -0.1767767  -0.5303301   0.5303301), wk =   0.0060000
        k(   82) = (  -0.1414214  -0.4949747   0.4949747), wk =   0.0060000
        k(   83) = (  -0.1060660  -0.4596194   0.4596194), wk =   0.0060000
        k(   84) = (  -0.0707107  -0.4242641   0.4242641), wk =   0.0060000
        k(   85) = (  -0.0353553  -0.3889087   0.3889087), wk =   0.0060000
        k(   86) = (   0.0000000  -0.3535534   0.3535534), wk =   0.0030000
        k(   87) = (   0.4242641   0.0000000   0.0000000), wk =   0.0015000
        k(   88) = (   0.4596194   0.0353553  -0.0353553), wk =   0.0060000
        k(   89) = (   0.4949747   0.0707107  -0.0707107), wk =   0.0060000
        k(   90) = (   0.5303301   0.1060660  -0.1060660), wk =   0.0060000
        k(   91) = (  -0.1414214  -0.5656854   0.5656854), wk =   0.0060000
        k(   92) = (  -0.1060660  -0.5303301   0.5303301), wk =   0.0060000
        k(   93) = (  -0.0707107  -0.4949747   0.4949747), wk =   0.0060000
        k(   94) = (  -0.0353553  -0.4596194   0.4596194), wk =   0.0060000
        k(   95) = (  -0.0000000  -0.4242641   0.4242641), wk =   0.0030000
        k(   96) = (   0.4949747   0.0000000   0.0000000), wk =   0.0015000
        k(   97) = (   0.5303301   0.0353553  -0.0353553), wk =   0.0060000
        k(   98) = (   0.5656854   0.0707107  -0.0707107), wk =   0.0060000
        k(   99) = (  -0.1060660  -0.6010408   0.6010408), wk =   0.0060000
        k(  100) = (  -0.0707107  -0.5656854   0.5656854), wk =   0.0060000
        k(  101) = (  -0.0353553  -0.5303301   0.5303301), wk =   0.0060000
        k(  102) = (   0.0000000  -0.4949747   0.4949747), wk =   0.0030000
        k(  103) = (   0.5656854   0.0000000   0.0000000), wk =   0.0015000
        k(  104) = (   0.6010408   0.0353553  -0.0353553), wk =   0.0060000
        k(  105) = (  -0.0707107  -0.6363961   0.6363961), wk =   0.0060000
        k(  106) = (  -0.0353553  -0.6010408   0.6010408), wk =   0.0060000
        k(  107) = (   0.0000000  -0.5656854   0.5656854), wk =   0.0030000
        k(  108) = (   0.6363961   0.0000000   0.0000000), wk =   0.0015000
        k(  109) = (  -0.0353553  -0.6717514   0.6717514), wk =   0.0060000
        k(  110) = (   0.0000000  -0.6363961   0.6363961), wk =   0.0030000
        k(  111) = (  -0.7071068   0.0000000   0.0000000), wk =   0.0007500
        k(  112) = (   0.1414214   0.0707107   0.0000000), wk =   0.0060000
        k(  113) = (   0.1767767   0.1060660  -0.0353553), wk =   0.0120000
        k(  114) = (   0.2121320   0.1414214  -0.0707107), wk =   0.0120000
        k(  115) = (   0.2474874   0.1767767  -0.1060660), wk =   0.0120000
        k(  116) = (   0.2828427   0.2121320  -0.1414214), wk =   0.0120000
        k(  117) = (   0.3181981   0.2474874  -0.1767767), wk =   0.0120000
        k(  118) = (   0.3535534   0.2828427  -0.2121320), wk =   0.0120000
        k(  119) = (  -0.3181981  -0.3889087   0.4596194), wk =   0.0120000
        k(  120) = (  -0.2828427  -0.3535534   0.4242641), wk =   0.0060000
        k(  121) = (   0.2121320   0.0707107  -0.0000000), wk =   0.0060000
        k(  122) = (   0.2474874   0.1060660  -0.0353553), wk =   0.0120000
        k(  123) = (   0.2828427   0.1414214  -0.0707107), wk =   0.0120000
        k(  124) = (   0.3181981   0.1767767  -0.1060660), wk =   0.0120000
        k(  125) = (   0.3535534   0.2121320  -0.1414214), wk =   0.0120000
        k(  126) = (   0.3889087   0.2474874  -0.1767767), wk =   0.0120000
        k(  127) = (  -0.2828427  -0.4242641   0.4949747), wk =   0.0120000
        k(  128) = (  -0.2474874  -0.3889087   0.4596194), wk =   0.0120000
        k(  129) = (  -0.2121320  -0.3535534   0.4242641), wk =   0.0120000
        k(  130) = (  -0.1767767  -0.3181981   0.3889087), wk =   0.0120000
        k(  131) = (  -0.1414214  -0.2828427   0.3535534), wk =   0.0120000
        k(  132) = (  -0.1060660  -0.2474874   0.3181981), wk =   0.0120000
        k(  133) = (  -0.0707107  -0.2121320   0.2828427), wk =   0.0120000
        k(  134) = (  -0.0353553  -0.1767767   0.2474874), wk =   0.0120000
        k(  135) = (   0.0000000  -0.1414214   0.2121320), wk =   0.0060000
        k(  136) = (   0.2828427   0.0707107   0.0000000), wk =   0.0060000
        k(  137) = (   0.3181981   0.1060660  -0.0353553), wk =   0.0120000
        k(  138) = (   0.3535534   0.1414214  -0.0707107), wk =   0.0120000
        k(  139) = (   0.3889087   0.1767767  -0.1060660), wk =   0.0120000
        k(  140) = (   0.4242641   0.2121320  -0.1414214), wk =   0.0120000
        k(  141) = (  -0.2474874  -0.4596194   0.5303301), wk =   0.0120000
        k(  142) = (  -0.2121320  -0.4242641   0.4949747), wk =   0.0120000
        k(  143) = (  -0.1767767  -0.3889087   0.4596194), wk =   0.0120000
        k(  144) = (  -0.1414214  -0.3535534   0.4242641), wk =   0.0120000
        k(  145) = (  -0.1060660  -0.3181981   0.3889087), wk =   0.0120000
        k(  146) = (  -0.0707107  -0.2828427   0.3535534), wk =   0.0120000
        k(  147) = (  -0.0353553  -0.2474874   0.3181981), wk =   0.0120000
        k(  148) = (  -0.0000000  -0.2121320   0.2828427), wk =   0.0060000
        k(  149) = (   0.3535534   0.0707107   0.0000000), wk =   0.0060000
        k(  150) = (   0.3889087   0.1060660  -0.0353553), wk =   0.0120000
        k(  151) = (   0.4242641   0.1414214  -0.0707107), wk =   0.0120000
        k(  152) = (   0.4596194   0.1767767  -0.1060660), wk =   0.0120000
        k(  153) = (  -0.2121320  -0.4949747   0.5656854), wk =   0.0120000
        k(  154) = (  -0.1767767  -0.4596194   0.5303301), wk =   0.0120000
        k(  155) = (  -0.1414214  -0.4242641   0.4949747), wk =   0.0120000
        k(  156) = (  -0.1060660  -0.3889087   0.4596194), wk =   0.0120000
        k(  157) = (  -0.0707107  -0.3535534   0.4242641), wk =   0.0120000
        k(  158) = (  -0.0353553  -0.3181981   0.3889087), wk =   0.0120000
        k(  159) = (   0.0000000  -0.2828427   0.3535534), wk =   0.0060000
        k(  160) = (   0.4242641   0.0707107   0.0000000), wk =   0.0060000
        k(  161) = (   0.4596194   0.1060660  -0.0353553), wk =   0.0120000
        k(  162) = (   0.4949747   0.1414214  -0.0707107), wk =   0.0120000
        k(  163) = (  -0.1767767  -0.5303301   0.6010408), wk =   0.0120000
        k(  164) = (  -0.1414214  -0.4949747   0.5656854), wk =   0.0120000
        k(  165) = (  -0.1060660  -0.4596194   0.5303301), wk =   0.0120000
        k(  166) = (  -0.0707107  -0.4242641   0.4949747), wk =   0.0120000
        k(  167) = (  -0.0353553  -0.3889087   0.4596194), wk =   0.0120000
        k(  168) = (  -0.0000000  -0.3535534   0.4242641), wk =   0.0060000
        k(  169) = (   0.4949747   0.0707107  -0.0000000), wk =   0.0060000
        k(  170) = (   0.5303301   0.1060660  -0.0353553), wk =   0.0120000
        k(  171) = (  -0.1414214  -0.5656854   0.6363961), wk =   0.0120000
        k(  172) = (  -0.1060660  -0.5303301   0.6010408), wk =   0.0120000
        k(  173) = (  -0.0707107  -0.4949747   0.5656854), wk =   0.0120000
        k(  174) = (  -0.0353553  -0.4596194   0.5303301), wk =   0.0120000
        k(  175) = (  -0.0000000  -0.4242641   0.4949747), wk =   0.0060000
        k(  176) = (   0.5656854   0.0707107   0.0000000), wk =   0.0060000
        k(  177) = (  -0.1060660  -0.6010408   0.6717514), wk =   0.0120000
        k(  178) = (  -0.0707107  -0.5656854   0.6363961), wk =   0.0120000
        k(  179) = (  -0.0353553  -0.5303301   0.6010408), wk =   0.0120000
        k(  180) = (   0.0000000  -0.4949747   0.5656854), wk =   0.0060000
        k(  181) = (  -0.0707107  -0.6363961   0.7071068), wk =   0.0060000
        k(  182) = (  -0.0353553  -0.6010408   0.6717514), wk =   0.0120000
        k(  183) = (   0.0000000  -0.5656854   0.6363961), wk =   0.0060000
        k(  184) = (  -0.7071068   0.0707107  -0.0000000), wk =   0.0030000
        k(  185) = (   0.2828427   0.1414214   0.0000000), wk =   0.0060000
        k(  186) = (   0.3181981   0.1767767  -0.0353553), wk =   0.0120000
        k(  187) = (   0.3535534   0.2121320  -0.0707107), wk =   0.0120000
        k(  188) = (   0.3889087   0.2474874  -0.1060660), wk =   0.0120000
        k(  189) = (  -0.2828427  -0.4242641   0.5656854), wk =   0.0120000
        k(  190) = (  -0.2474874  -0.3889087   0.5303301), wk =   0.0120000
        k(  191) = (  -0.2121320  -0.3535534   0.4949747), wk =   0.0060000
        k(  192) = (   0.3535534   0.1414214   0.0000000), wk =   0.0060000
        k(  193) = (   0.3889087   0.1767767  -0.0353553), wk =   0.0120000
        k(  194) = (   0.4242641   0.2121320  -0.0707107), wk =   0.0120000
        k(  195) = (  -0.2474874  -0.4596194   0.6010408), wk =   0.0120000
        k(  196) = (  -0.2121320  -0.4242641   0.5656854), wk =   0.0120000
        k(  197) = (  -0.1767767  -0.3889087   0.5303301), wk =   0.0120000
        k(  198) = (  -0.1414214  -0.3535534   0.4949747), wk =   0.0120000
        k(  199) = (  -0.1060660  -0.3181981   0.4596194), wk =   0.0120000
        k(  200) = (  -0.0707107  -0.2828427   0.4242641), wk =   0.0120000
        k(  201) = (  -0.0353553  -0.2474874   0.3889087), wk =   0.0120000
        k(  202) = (  -0.0000000  -0.2121320   0.3535534), wk =   0.0060000
        k(  203) = (   0.4242641   0.1414214  -0.0000000), wk =   0.0060000
        k(  204) = (   0.4596194   0.1767767  -0.0353553), wk =   0.0120000
        k(  205) = (  -0.2121320  -0.4949747   0.6363961), wk =   0.0120000
        k(  206) = (  -0.1767767  -0.4596194   0.6010408), wk =   0.0120000
        k(  207) = (  -0.1414214  -0.4242641   0.5656854), wk =   0.0120000
        k(  208) = (  -0.1060660  -0.3889087   0.5303301), wk =   0.0120000
        k(  209) = (  -0.0707107  -0.3535534   0.4949747), wk =   0.0120000
        k(  210) = (  -0.0353553  -0.3181981   0.4596194), wk =   0.0120000
        k(  211) = (   0.0000000  -0.2828427   0.4242641), wk =   0.0060000
        k(  212) = (   0.4949747   0.1414214   0.0000000), wk =   0.0060000
        k(  213) = (  -0.1767767  -0.5303301   0.6717514), wk =   0.0120000
        k(  214) = (  -0.1414214  -0.4949747   0.6363961), wk =   0.0120000
        k(  215) = (  -0.1060660  -0.4596194   0.6010408), wk =   0.0120000
        k(  216) = (  -0.0707107  -0.4242641   0.5656854), wk =   0.0120000
        k(  217) = (  -0.0353553  -0.3889087   0.5303301), wk =   0.0120000
        k(  218) = (  -0.0000000  -0.3535534   0.4949747), wk =   0.0060000
        k(  219) = (  -0.1414214  -0.5656854   0.7071068), wk =   0.0060000
        k(  220) = (  -0.1060660  -0.5303301   0.6717514), wk =   0.0120000
        k(  221) = (  -0.0707107  -0.4949747   0.6363961), wk =   0.0120000
        k(  222) = (  -0.0353553  -0.4596194   0.6010408), wk =   0.0120000
        k(  223) = (  -0.0000000  -0.4242641   0.5656854), wk =   0.0060000
        k(  224) = (  -0.0707107  -0.5656854   0.7071068), wk =   0.0060000
        k(  225) = (  -0.0353553  -0.5303301   0.6717514), wk =   0.0120000
        k(  226) = (   0.0000000  -0.4949747   0.6363961), wk =   0.0060000
        k(  227) = (  -0.7071068   0.1414214   0.0000000), wk =   0.0030000
        k(  228) = (   0.4242641   0.2121320  -0.0000000), wk =   0.0060000
        k(  229) = (  -0.2474874  -0.4596194   0.6717514), wk =   0.0120000
        k(  230) = (  -0.2121320  -0.4242641   0.6363961), wk =   0.0120000
        k(  231) = (  -0.1767767  -0.3889087   0.6010408), wk =   0.0120000
        k(  232) = (  -0.1414214  -0.3535534   0.5656854), wk =   0.0060000
        k(  233) = (  -0.2121320  -0.4949747   0.7071068), wk =   0.0060000
        k(  234) = (  -0.1767767  -0.4596194   0.6717514), wk =   0.0120000
        k(  235) = (  -0.1414214  -0.4242641   0.6363961), wk =   0.0120000
        k(  236) = (  -0.1060660  -0.3889087   0.6010408), wk =   0.0120000
        k(  237) = (  -0.0707107  -0.3535534   0.5656854), wk =   0.0120000
        k(  238) = (  -0.0353553  -0.3181981   0.5303301), wk =   0.0120000
        k(  239) = (   0.0000000  -0.2828427   0.4949747), wk =   0.0060000
        k(  240) = (  -0.1414214  -0.4949747   0.7071068), wk =   0.0060000
        k(  241) = (  -0.1060660  -0.4596194   0.6717514), wk =   0.0120000
        k(  242) = (  -0.0707107  -0.4242641   0.6363961), wk =   0.0120000
        k(  243) = (  -0.0353553  -0.3889087   0.6010408), wk =   0.0120000
        k(  244) = (   0.0000000  -0.3535534   0.5656854), wk =   0.0060000
        k(  245) = (  -0.0707107  -0.4949747   0.7071068), wk =   0.0060000
        k(  246) = (  -0.0353553  -0.4596194   0.6717514), wk =   0.0120000
        k(  247) = (  -0.0000000  -0.4242641   0.6363961), wk =   0.0060000
        k(  248) = (  -0.7071068   0.2121320   0.0000000), wk =   0.0030000
        k(  249) = (  -0.1414214  -0.4242641   0.7071068), wk =   0.0060000
        k(  250) = (  -0.1060660  -0.3889087   0.6717514), wk =   0.0120000
        k(  251) = (  -0.0707107  -0.3535534   0.6363961), wk =   0.0060000
        k(  252) = (  -0.0707107  -0.4242641   0.7071068), wk =   0.0060000
        k(  253) = (  -0.0353553  -0.3889087   0.6717514), wk =   0.0120000
        k(  254) = (   0.0000000  -0.3535534   0.6363961), wk =   0.0060000
        k(  255) = (  -0.7071068   0.2828427   0.0000000), wk =   0.0030000
        k(  256) = (  -0.7071068   0.3535534   0.0000000), wk =   0.0015000

                       cryst. coord.
        k(    1) = (   0.0000000   0.0000000   0.0000000), wk =   0.0002500
        k(    2) = (   0.0000000   0.0000000   0.0500000), wk =   0.0020000
        k(    3) = (   0.0000000   0.0000000   0.1000000), wk =   0.0020000
        k(    4) = (   0.0000000   0.0000000   0.1500000), wk =   0.0020000
        k(    5) = (   0.0000000   0.0000000   0.2000000), wk =   0.0020000
        k(    6) = (   0.0000000   0.0000000   0.2500000), wk =   0.0020000
        k(    7) = (   0.0000000   0.0000000   0.3000000), wk =   0.0020000
        k(    8) = (   0.0000000   0.0000000   0.3500000), wk =   0.0020000
        k(    9) = (   0.0000000   0.0000000   0.4000000), wk =   0.0020000
        k(   10) = (   0.0000000   0.0000000   0.4500000), wk =   0.0020000
        k(   11) = (   0.0000000   0.0000000  -0.5000000), wk =   0.0010000
        k(   12) = (   0.0000000   0.0500000   0.0500000), wk =   0.0015000
        k(   13) = (   0.0000000   0.0500000   0.1000000), wk =   0.0060000
        k(   14) = (   0.0000000   0.0500000   0.1500000), wk =   0.0060000
        k(   15) = (   0.0000000   0.0500000   0.2000000), wk =   0.0060000
        k(   16) = (   0.0000000   0.0500000   0.2500000), wk =   0.0060000
        k(   17) = (   0.0000000   0.0500000   0.3000000), wk =   0.0060000
        k(   18) = (   0.0000000   0.0500000   0.3500000), wk =   0.0060000
        k(   19) = (   0.0000000   0.0500000   0.4000000), wk =   0.0060000
        k(   20) = (   0.0000000   0.0500000   0.4500000), wk =   0.0060000
        k(   21) = (   0.0000000   0.0500000  -0.5000000), wk =   0.0060000
        k(   22) = (   0.0000000   0.0500000  -0.4500000), wk =   0.0060000
        k(   23) = (   0.0000000   0.0500000  -0.4000000), wk =   0.0060000
        k(   24) = (   0.0000000   0.0500000  -0.3500000), wk =   0.0060000
        k(   25) = (   0.0000000   0.0500000  -0.3000000), wk =   0.0060000
        k(   26) = (   0.0000000   0.0500000  -0.2500000), wk =   0.0060000
        k(   27) = (   0.0000000   0.0500000  -0.2000000), wk =   0.0060000
        k(   28) = (   0.0000000   0.0500000  -0.1500000), wk =   0.0060000
        k(   29) = (   0.0000000   0.0500000  -0.1000000), wk =   0.0060000
        k(   30) = (   0.0000000   0.0500000  -0.0500000), wk =   0.0030000
        k(   31) = (   0.0000000   0.1000000   0.1000000), wk =   0.0015000
        k(   32) = (   0.0000000   0.1000000   0.1500000), wk =   0.0060000
        k(   33) = (   0.0000000   0.1000000   0.2000000), wk =   0.0060000
        k(   34) = (   0.0000000   0.1000000   0.2500000), wk =   0.0060000
        k(   35) = (   0.0000000   0.1000000   0.3000000), wk =   0.0060000
        k(   36) = (   0.0000000   0.1000000   0.3500000), wk =   0.0060000
        k(   37) = (   0.0000000   0.1000000   0.4000000), wk =   0.0060000
        k(   38) = (   0.0000000   0.1000000   0.4500000), wk =   0.0060000
        k(   39) = (   0.0000000   0.1000000  -0.5000000), wk =   0.0060000
        k(   40) = (   0.0000000   0.1000000  -0.4500000), wk =   0.0060000
        k(   41) = (   0.0000000   0.1000000  -0.4000000), wk =   0.0060000
        k(   42) = (   0.0000000   0.1000000  -0.3500000), wk =   0.0060000
        k(   43) = (   0.0000000   0.1000000  -0.3000000), wk =   0.0060000
        k(   44) = (   0.0000000   0.1000000  -0.2500000), wk =   0.0060000
        k(   45) = (   0.0000000   0.1000000  -0.2000000), wk =   0.0060000
        k(   46) = (   0.0000000   0.1000000  -0.1500000), wk =   0.0060000
        k(   47) = (   0.0000000   0.1000000  -0.1000000), wk =   0.0030000
        k(   48) = (   0.0000000   0.1500000   0.1500000), wk =   0.0015000
        k(   49) = (   0.0000000   0.1500000   0.2000000), wk =   0.0060000
        k(   50) = (   0.0000000   0.1500000   0.2500000), wk =   0.0060000
        k(   51) = (   0.0000000   0.1500000   0.3000000), wk =   0.0060000
        k(   52) = (   0.0000000   0.1500000   0.3500000), wk =   0.0060000
        k(   53) = (   0.0000000   0.1500000   0.4000000), wk =   0.0060000
        k(   54) = (   0.0000000   0.1500000   0.4500000), wk =   0.0060000
        k(   55) = (   0.0000000   0.1500000  -0.5000000), wk =   0.0060000
        k(   56) = (   0.0000000   0.1500000  -0.4500000), wk =   0.0060000
        k(   57) = (   0.0000000   0.1500000  -0.4000000), wk =   0.0060000
        k(   58) = (   0.0000000   0.1500000  -0.3500000), wk =   0.0060000
        k(   59) = (   0.0000000   0.1500000  -0.3000000), wk =   0.0060000
        k(   60) = (   0.0000000   0.1500000  -0.2500000), wk =   0.0060000
        k(   61) = (   0.0000000   0.1500000  -0.2000000), wk =   0.0060000
        k(   62) = (   0.0000000   0.1500000  -0.1500000), wk =   0.0030000
        k(   63) = (   0.0000000   0.2000000   0.2000000), wk =   0.0015000
        k(   64) = (   0.0000000   0.2000000   0.2500000), wk =   0.0060000
        k(   65) = (   0.0000000   0.2000000   0.3000000), wk =   0.0060000
        k(   66) = (   0.0000000   0.2000000   0.3500000), wk =   0.0060000
        k(   67) = (   0.0000000   0.2000000   0.4000000), wk =   0.0060000
        k(   68) = (   0.0000000   0.2000000   0.4500000), wk =   0.0060000
        k(   69) = (   0.0000000   0.2000000  -0.5000000), wk =   0.0060000
        k(   70) = (   0.0000000   0.2000000  -0.4500000), wk =   0.0060000
        k(   71) = (   0.0000000   0.2000000  -0.4000000), wk =   0.0060000
        k(   72) = (   0.0000000   0.2000000  -0.3500000), wk =   0.0060000
        k(   73) = (   0.0000000   0.2000000  -0.3000000), wk =   0.0060000
        k(   74) = (   0.0000000   0.2000000  -0.2500000), wk =   0.0060000
        k(   75) = (   0.0000000   0.2000000  -0.2000000), wk =   0.0030000
        k(   76) = (   0.0000000   0.2500000   0.2500000), wk =   0.0015000
        k(   77) = (   0.0000000   0.2500000   0.3000000), wk =   0.0060000
        k(   78) = (   0.0000000   0.2500000   0.3500000), wk =   0.0060000
        k(   79) = (   0.0000000   0.2500000   0.4000000), wk =   0.0060000
        k(   80) = (   0.0000000   0.2500000   0.4500000), wk =   0.0060000
        k(   81) = (   0.0000000   0.2500000  -0.5000000), wk =   0.0060000
        k(   82) = (   0.0000000   0.2500000  -0.4500000), wk =   0.0060000
        k(   83) = (   0.0000000   0.2500000  -0.4000000), wk =   0.0060000
        k(   84) = (   0.0000000   0.2500000  -0.3500000), wk =   0.0060000
        k(   85) = (   0.0000000   0.2500000  -0.3000000), wk =   0.0060000
        k(   86) = (   0.0000000   0.2500000  -0.2500000), wk =   0.0030000
        k(   87) = (   0.0000000   0.3000000   0.3000000), wk =   0.0015000
        k(   88) = (   0.0000000   0.3000000   0.3500000), wk =   0.0060000
        k(   89) = (   0.0000000   0.3000000   0.4000000), wk =   0.0060000
        k(   90) = (   0.0000000   0.3000000   0.4500000), wk =   0.0060000
        k(   91) = (   0.0000000   0.3000000  -0.5000000), wk =   0.0060000
        k(   92) = (   0.0000000   0.3000000  -0.4500000), wk =   0.0060000
        k(   93) = (   0.0000000   0.3000000  -0.4000000), wk =   0.0060000
        k(   94) = (   0.0000000   0.3000000  -0.3500000), wk =   0.0060000
        k(   95) = (   0.0000000   0.3000000  -0.3000000), wk =   0.0030000
        k(   96) = (   0.0000000   0.3500000   0.3500000), wk =   0.0015000
        k(   97) = (   0.0000000   0.3500000   0.4000000), wk =   0.0060000
        k(   98) = (   0.0000000   0.3500000   0.4500000), wk =   0.0060000
        k(   99) = (   0.0000000   0.3500000  -0.5000000), wk =   0.0060000
        k(  100) = (   0.0000000   0.3500000  -0.4500000), wk =   0.0060000
        k(  101) = (   0.0000000   0.3500000  -0.4000000), wk =   0.0060000
        k(  102) = (   0.0000000   0.3500000  -0.3500000), wk =   0.0030000
        k(  103) = (   0.0000000   0.4000000   0.4000000), wk =   0.0015000
        k(  104) = (   0.0000000   0.4000000   0.4500000), wk =   0.0060000
        k(  105) = (   0.0000000   0.4000000  -0.5000000), wk =   0.0060000
        k(  106) = (   0.0000000   0.4000000  -0.4500000), wk =   0.0060000
        k(  107) = (   0.0000000   0.4000000  -0.4000000), wk =   0.0030000
        k(  108) = (   0.0000000   0.4500000   0.4500000), wk =   0.0015000
        k(  109) = (   0.0000000   0.4500000  -0.5000000), wk =   0.0060000
        k(  110) = (   0.0000000   0.4500000  -0.4500000), wk =   0.0030000
        k(  111) = (   0.0000000  -0.5000000  -0.5000000), wk =   0.0007500
        k(  112) = (   0.0500000   0.1000000   0.1500000), wk =   0.0060000
        k(  113) = (   0.0500000   0.1000000   0.2000000), wk =   0.0120000
        k(  114) = (   0.0500000   0.1000000   0.2500000), wk =   0.0120000
        k(  115) = (   0.0500000   0.1000000   0.3000000), wk =   0.0120000
        k(  116) = (   0.0500000   0.1000000   0.3500000), wk =   0.0120000
        k(  117) = (   0.0500000   0.1000000   0.4000000), wk =   0.0120000
        k(  118) = (   0.0500000   0.1000000   0.4500000), wk =   0.0120000
        k(  119) = (   0.0500000   0.1000000  -0.5000000), wk =   0.0120000
        k(  120) = (   0.0500000   0.1000000  -0.4500000), wk =   0.0060000
        k(  121) = (   0.0500000   0.1500000   0.2000000), wk =   0.0060000
        k(  122) = (   0.0500000   0.1500000   0.2500000), wk =   0.0120000
        k(  123) = (   0.0500000   0.1500000   0.3000000), wk =   0.0120000
        k(  124) = (   0.0500000   0.1500000   0.3500000), wk =   0.0120000
        k(  125) = (   0.0500000   0.1500000   0.4000000), wk =   0.0120000
        k(  126) = (   0.0500000   0.1500000   0.4500000), wk =   0.0120000
        k(  127) = (   0.0500000   0.1500000  -0.5000000), wk =   0.0120000
        k(  128) = (   0.0500000   0.1500000  -0.4500000), wk =   0.0120000
        k(  129) = (   0.0500000   0.1500000  -0.4000000), wk =   0.0120000
        k(  130) = (   0.0500000   0.1500000  -0.3500000), wk =   0.0120000
        k(  131) = (   0.0500000   0.1500000  -0.3000000), wk =   0.0120000
        k(  132) = (   0.0500000   0.1500000  -0.2500000), wk =   0.0120000
        k(  133) = (   0.0500000   0.1500000  -0.2000000), wk =   0.0120000
        k(  134) = (   0.0500000   0.1500000  -0.1500000), wk =   0.0120000
        k(  135) = (   0.0500000   0.1500000  -0.1000000), wk =   0.0060000
        k(  136) = (   0.0500000   0.2000000   0.2500000), wk =   0.0060000
        k(  137) = (   0.0500000   0.2000000   0.3000000), wk =   0.0120000
        k(  138) = (   0.0500000   0.2000000   0.3500000), wk =   0.0120000
        k(  139) = (   0.0500000   0.2000000   0.4000000), wk =   0.0120000
        k(  140) = (   0.0500000   0.2000000   0.4500000), wk =   0.0120000
        k(  141) = (   0.0500000   0.2000000  -0.5000000), wk =   0.0120000
        k(  142) = (   0.0500000   0.2000000  -0.4500000), wk =   0.0120000
        k(  143) = (   0.0500000   0.2000000  -0.4000000), wk =   0.0120000
        k(  144) = (   0.0500000   0.2000000  -0.3500000), wk =   0.0120000
        k(  145) = (   0.0500000   0.2000000  -0.3000000), wk =   0.0120000
        k(  146) = (   0.0500000   0.2000000  -0.2500000), wk =   0.0120000
        k(  147) = (   0.0500000   0.2000000  -0.2000000), wk =   0.0120000
        k(  148) = (   0.0500000   0.2000000  -0.1500000), wk =   0.0060000
        k(  149) = (   0.0500000   0.2500000   0.3000000), wk =   0.0060000
        k(  150) = (   0.0500000   0.2500000   0.3500000), wk =   0.0120000
        k(  151) = (   0.0500000   0.2500000   0.4000000), wk =   0.0120000
        k(  152) = (   0.0500000   0.2500000   0.4500000), wk =   0.0120000
        k(  153) = (   0.0500000   0.2500000  -0.5000000), wk =   0.0120000
        k(  154) = (   0.0500000   0.2500000  -0.4500000), wk =   0.0120000
        k(  155) = (   0.0500000   0.2500000  -0.4000000), wk =   0.0120000
        k(  156) = (   0.0500000   0.2500000  -0.3500000), wk =   0.0120000
        k(  157) = (   0.0500000   0.2500000  -0.3000000), wk =   0.0120000
        k(  158) = (   0.0500000   0.2500000  -0.2500000), wk =   0.0120000
        k(  159) = (   0.0500000   0.2500000  -0.2000000), wk =   0.0060000
        k(  160) = (   0.0500000   0.3000000   0.3500000), wk =   0.0060000
        k(  161) = (   0.0500000   0.3000000   0.4000000), wk =   0.0120000
        k(  162) = (   0.0500000   0.3000000   0.4500000), wk =   0.0120000
        k(  163) = (   0.0500000   0.3000000  -0.5000000), wk =   0.0120000
        k(  164) = (   0.0500000   0.3000000  -0.4500000), wk =   0.0120000
        k(  165) = (   0.0500000   0.3000000  -0.4000000), wk =   0.0120000
        k(  166) = (   0.0500000   0.3000000  -0.3500000), wk =   0.0120000
        k(  167) = (   0.0500000   0.3000000  -0.3000000), wk =   0.0120000
        k(  168) = (   0.0500000   0.3000000  -0.2500000), wk =   0.0060000
        k(  169) = (   0.0500000   0.3500000   0.4000000), wk =   0.0060000
        k(  170) = (   0.0500000   0.3500000   0.4500000), wk =   0.0120000
        k(  171) = (   0.0500000   0.3500000  -0.5000000), wk =   0.0120000
        k(  172) = (   0.0500000   0.3500000  -0.4500000), wk =   0.0120000
        k(  173) = (   0.0500000   0.3500000  -0.4000000), wk =   0.0120000
        k(  174) = (   0.0500000   0.3500000  -0.3500000), wk =   0.0120000
        k(  175) = (   0.0500000   0.3500000  -0.3000000), wk =   0.0060000
        k(  176) = (   0.0500000   0.4000000   0.4500000), wk =   0.0060000
        k(  177) = (   0.0500000   0.4000000  -0.5000000), wk =   0.0120000
        k(  178) = (   0.0500000   0.4000000  -0.4500000), wk =   0.0120000
        k(  179) = (   0.0500000   0.4000000  -0.4000000), wk =   0.0120000
        k(  180) = (   0.0500000   0.4000000  -0.3500000), wk =   0.0060000
        k(  181) = (   0.0500000   0.4500000  -0.5000000), wk =   0.0060000
        k(  182) = (   0.0500000   0.4500000  -0.4500000), wk =   0.0120000
        k(  183) = (   0.0500000   0.4500000  -0.4000000), wk =   0.0060000
        k(  184) = (   0.0500000  -0.5000000  -0.4500000), wk =   0.0030000
        k(  185) = (   0.1000000   0.2000000   0.3000000), wk =   0.0060000
        k(  186) = (   0.1000000   0.2000000   0.3500000), wk =   0.0120000
        k(  187) = (   0.1000000   0.2000000   0.4000000), wk =   0.0120000
        k(  188) = (   0.1000000   0.2000000   0.4500000), wk =   0.0120000
        k(  189) = (   0.1000000   0.2000000  -0.5000000), wk =   0.0120000
        k(  190) = (   0.1000000   0.2000000  -0.4500000), wk =   0.0120000
        k(  191) = (   0.1000000   0.2000000  -0.4000000), wk =   0.0060000
        k(  192) = (   0.1000000   0.2500000   0.3500000), wk =   0.0060000
        k(  193) = (   0.1000000   0.2500000   0.4000000), wk =   0.0120000
        k(  194) = (   0.1000000   0.2500000   0.4500000), wk =   0.0120000
        k(  195) = (   0.1000000   0.2500000  -0.5000000), wk =   0.0120000
        k(  196) = (   0.1000000   0.2500000  -0.4500000), wk =   0.0120000
        k(  197) = (   0.1000000   0.2500000  -0.4000000), wk =   0.0120000
        k(  198) = (   0.1000000   0.2500000  -0.3500000), wk =   0.0120000
        k(  199) = (   0.1000000   0.2500000  -0.3000000), wk =   0.0120000
        k(  200) = (   0.1000000   0.2500000  -0.2500000), wk =   0.0120000
        k(  201) = (   0.1000000   0.2500000  -0.2000000), wk =   0.0120000
        k(  202) = (   0.1000000   0.2500000  -0.1500000), wk =   0.0060000
        k(  203) = (   0.1000000   0.3000000   0.4000000), wk =   0.0060000
        k(  204) = (   0.1000000   0.3000000   0.4500000), wk =   0.0120000
        k(  205) = (   0.1000000   0.3000000  -0.5000000), wk =   0.0120000
        k(  206) = (   0.1000000   0.3000000  -0.4500000), wk =   0.0120000
        k(  207) = (   0.1000000   0.3000000  -0.4000000), wk =   0.0120000
        k(  208) = (   0.1000000   0.3000000  -0.3500000), wk =   0.0120000
        k(  209) = (   0.1000000   0.3000000  -0.3000000), wk =   0.0120000
        k(  210) = (   0.1000000   0.3000000  -0.2500000), wk =   0.0120000
        k(  211) = (   0.1000000   0.3000000  -0.2000000), wk =   0.0060000
        k(  212) = (   0.1000000   0.3500000   0.4500000), wk =   0.0060000
        k(  213) = (   0.1000000   0.3500000  -0.5000000), wk =   0.0120000
        k(  214) = (   0.1000000   0.3500000  -0.4500000), wk =   0.0120000
        k(  215) = (   0.1000000   0.3500000  -0.4000000), wk =   0.0120000
        k(  216) = (   0.1000000   0.3500000  -0.3500000), wk =   0.0120000
        k(  217) = (   0.1000000   0.3500000  -0.3000000), wk =   0.0120000
        k(  218) = (   0.1000000   0.3500000  -0.2500000), wk =   0.0060000
        k(  219) = (   0.1000000   0.4000000  -0.5000000), wk =   0.0060000
        k(  220) = (   0.1000000   0.4000000  -0.4500000), wk =   0.0120000
        k(  221) = (   0.1000000   0.4000000  -0.4000000), wk =   0.0120000
        k(  222) = (   0.1000000   0.4000000  -0.3500000), wk =   0.0120000
        k(  223) = (   0.1000000   0.4000000  -0.3000000), wk =   0.0060000
        k(  224) = (   0.1000000   0.4500000  -0.4500000), wk =   0.0060000
        k(  225) = (   0.1000000   0.4500000  -0.4000000), wk =   0.0120000
        k(  226) = (   0.1000000   0.4500000  -0.3500000), wk =   0.0060000
        k(  227) = (   0.1000000  -0.5000000  -0.4000000), wk =   0.0030000
        k(  228) = (   0.1500000   0.3000000   0.4500000), wk =   0.0060000
        k(  229) = (   0.1500000   0.3000000  -0.5000000), wk =   0.0120000
        k(  230) = (   0.1500000   0.3000000  -0.4500000), wk =   0.0120000
        k(  231) = (   0.1500000   0.3000000  -0.4000000), wk =   0.0120000
        k(  232) = (   0.1500000   0.3000000  -0.3500000), wk =   0.0060000
        k(  233) = (   0.1500000   0.3500000  -0.5000000), wk =   0.0060000
        k(  234) = (   0.1500000   0.3500000  -0.4500000), wk =   0.0120000
        k(  235) = (   0.1500000   0.3500000  -0.4000000), wk =   0.0120000
        k(  236) = (   0.1500000   0.3500000  -0.3500000), wk =   0.0120000
        k(  237) = (   0.1500000   0.3500000  -0.3000000), wk =   0.0120000
        k(  238) = (   0.1500000   0.3500000  -0.2500000), wk =   0.0120000
        k(  239) = (   0.1500000   0.3500000  -0.2000000), wk =   0.0060000
        k(  240) = (   0.1500000   0.4000000  -0.4500000), wk =   0.0060000
        k(  241) = (   0.1500000   0.4000000  -0.4000000), wk =   0.0120000
        k(  242) = (   0.1500000   0.4000000  -0.3500000), wk =   0.0120000
        k(  243) = (   0.1500000   0.4000000  -0.3000000), wk =   0.0120000
        k(  244) = (   0.1500000   0.4000000  -0.2500000), wk =   0.0060000
        k(  245) = (   0.1500000   0.4500000  -0.4000000), wk =   0.0060000
        k(  246) = (   0.1500000   0.4500000  -0.3500000), wk =   0.0120000
        k(  247) = (   0.1500000   0.4500000  -0.3000000), wk =   0.0060000
        k(  248) = (   0.1500000  -0.5000000  -0.3500000), wk =   0.0030000
        k(  249) = (   0.2000000   0.4000000  -0.4000000), wk =   0.0060000
        k(  250) = (   0.2000000   0.4000000  -0.3500000), wk =   0.0120000
        k(  251) = (   0.2000000   0.4000000  -0.3000000), wk =   0.0060000
        k(  252) = (   0.2000000   0.4500000  -0.3500000), wk =   0.0060000
        k(  253) = (   0.2000000   0.4500000  -0.3000000), wk =   0.0120000
        k(  254) = (   0.2000000   0.4500000  -0.2500000), wk =   0.0060000
        k(  255) = (   0.2000000  -0.5000000  -0.3000000), wk =   0.0030000
        k(  256) = (   0.2500000  -0.5000000  -0.2500000), wk =   0.0015000

     Dense  grid:    30923 G-vectors     FFT dimensions: (  45,  45,  45)

     Largest allocated arrays     est. size (Mb)     dimensions
        Kohn-Sham Wavefunctions         0.07 Mb     (     255,   18)
        NL pseudopotentials             0.14 Mb     (     255,   36)
        Each V/rho on FFT grid          0.09 Mb     (    6075)
        Each G-vector array             0.01 Mb     (    1932)
        G-vector shells                 0.00 Mb     (     295)
     Largest temporary arrays     est. size (Mb)     dimensions
        Auxiliary wavefunctions         0.28 Mb     (     255,   72)
        Each subspace H/S matrix        0.08 Mb     (      72,   72)
        Each <psi_i|beta_j> matrix      0.01 Mb     (      36,   18)
        Arrays for rho mixing           0.74 Mb     (    6075,    8)

     Initial potential from superposition of free atoms

     starting charge   27.82674, renormalised to   28.00000
     Starting wfc are random

     total cpu time spent up to now is        1.4 secs

     Self-consistent Calculation

     iteration #  1     ecut=    60.00 Ry     beta=0.70
     Davidson diagonalization with overlap
     ethr =  1.00E-02,  avg # of iterations =  7.1

     Threshold (ethr) on eigenvalues was too large:
     Diagonalizing with lowered threshold

     Davidson diagonalization with overlap
     ethr =  1.07E-04,  avg # of iterations =  1.9

     total cpu time spent up to now is       15.4 secs

     total energy              =    -241.29483030 Ry
     Harris-Foulkes estimate   =    -241.30560021 Ry
     estimated scf accuracy    <       0.02982796 Ry

     iteration #  2     ecut=    60.00 Ry     beta=0.70
     Davidson diagonalization with overlap
     ethr =  1.07E-04,  avg # of iterations =  2.0

     total cpu time spent up to now is       19.4 secs

     total energy              =    -241.29876230 Ry
     Harris-Foulkes estimate   =    -241.29878619 Ry
     estimated scf accuracy    <       0.00160634 Ry

     iteration #  3     ecut=    60.00 Ry     beta=0.70
     Davidson diagonalization with overlap
     ethr =  5.74E-06,  avg # of iterations =  2.8

     total cpu time spent up to now is       23.2 secs

     total energy              =    -241.29890228 Ry
     Harris-Foulkes estimate   =    -241.29887541 Ry
     estimated scf accuracy    <       0.00008931 Ry

     iteration #  4     ecut=    60.00 Ry     beta=0.70
     Davidson diagonalization with overlap
     ethr =  3.19E-07,  avg # of iterations =  1.9

     total cpu time spent up to now is       26.6 secs

     total energy              =    -241.29890686 Ry
     Harris-Foulkes estimate   =    -241.29890689 Ry
     estimated scf accuracy    <       0.00000126 Ry

     iteration #  5     ecut=    60.00 Ry     beta=0.70
     Davidson diagonalization with overlap
     ethr =  4.51E-09,  avg # of iterations =  2.3

     total cpu time spent up to now is       30.4 secs

     End of self-consistent calculation

          k = 0.0000 0.0000 0.0000 (  3839 PWs)   bands (ev):

   -13.2668 -13.2668 -13.2668 -13.2129 -13.2129 -12.9660 -12.9660 -12.9660
   -12.9616 -12.9616  -1.7702   7.1733   8.4245   8.4245   8.4245  10.4991
    10.4991  10.4991

     occupation numbers 
     1.0000   1.0000   1.0000   1.0000   1.0000   1.0000   1.0000   1.0000
     1.0000   1.0000   1.0000   1.0000   0.2469   0.2469   0.2469   0.0000
     0.0000   0.0000

          k = 0.0354 0.0354-0.0354 (  3849 PWs)   bands (ev):

   -13.2685 -13.2685 -13.2663 -13.2107 -13.2107 -12.9724 -12.9724 -12.9666
   -12.9555 -12.9555  -1.7478   6.8975   8.3771   8.3771   8.5645  10.5611
    10.5611  10.5796

     occupation numbers 
     1.0000   1.0000   1.0000   1.0000   1.0000   1.0000   1.0000   1.0000
     1.0000   1.0000   1.0000   1.0000   0.4240   0.4240   0.0162   0.0000
     0.0000   0.0000

          k = 0.0707 0.0707-0.0707 (  3876 PWs)   bands (ev):

   -13.2725 -13.2725 -13.2647 -13.2049 -13.2049 -12.9807 -12.9807 -12.9685
   -12.9483 -12.9483  -1.6810   6.3237   8.2533   8.2533   8.7248  10.7245
    10.7245  10.8513

     occupation numbers 
     1.0000   1.0000   1.0000   1.0000   1.0000   1.0000   1.0000   1.0000
     1.0000   1.0000   1.0000   1.0000   0.8633   0.8633   0.0001   0.0000
     0.0000   0.0000

          k = 0.1061 0.1061-0.1061 (  3876 PWs)   bands (ev):

   -13.2776 -13.2776 -13.2623 -13.1974 -13.1974 -12.9888 -12.9888 -12.9714
   -12.9418 -12.9418  -1.5710   5.6668   8.0896   8.0896   8.7422  10.9400
    10.9400  11.3141

     occupation numbers 
     1.0000   1.0000   1.0000   1.0000   1.0000   1.0000   1.0000   1.0000
     1.0000   1.0000   1.0000   1.0000   0.9974   0.9974   0.0000   0.0000
     0.0000   0.0000

          k = 0.1414 0.1414-0.1414 (  3897 PWs)   bands (ev):

   -13.2825 -13.2825 -13.2591 -13.1893 -13.1893 -12.9962 -12.9962 -12.9752
   -12.9362 -12.9362  -1.4198   4.9975   7.9161   7.9161   8.6623  11.1572
    11.1572  11.9023

     occupation numbers 
     1.0000   1.0000   1.0000   1.0000   1.0000   1.0000   1.0000   1.0000
     1.0000   1.0000   1.0000   1.0000   1.0000   1.0000   0.0008   0.0000
     0.0000   0.0000

          k = 0.1768 0.1768-0.1768 (  3903 PWs)   bands (ev):

   -13.2869 -13.2869 -13.2556 -13.1818 -13.1818 -13.0026 -13.0026 -12.9794
   -12.9317 -12.9317  -1.2315   4.3476   7.7521   7.7521   8.5470  11.3359
    11.3359  12.5606

     occupation numbers 
     1.0000   1.0000   1.0000   1.0000   1.0000   1.0000   1.0000   1.0000
     1.0000   1.0000   1.0000   1.0000   1.0000   1.0000   0.0252   0.0000
     0.0000   0.0000

          k = 0.2121 0.2121-0.2121 (  3891 PWs)   bands (ev):

   -13.2904 -13.2904 -13.2519 -13.1754 -13.1754 -13.0078 -13.0078 -12.9837
   -12.9281 -12.9281  -1.0132   3.7390   7.6088   7.6088   8.4312  11.4547
    11.4547  13.2557

     occupation numbers 
     1.0000   1.0000   1.0000   1.0000   1.0000   1.0000   1.0000   1.0000
     1.0000   1.0000   1.0000   1.0000   1.0000   1.0000   0.2255   0.0000
     0.0000   0.0000

          k = 0.2475 0.2475-0.2475 (  3891 PWs)   bands (ev):

   -13.2930 -13.2930 -13.2486 -13.1704 -13.1704 -13.0116 -13.0116 -12.9877
   -12.9255 -12.9255  -0.7777   3.1933   7.4927   7.4927   8.3319  11.5160
    11.5160  13.9079

     occupation numbers 
     1.0000   1.0000   1.0000   1.0000   1.0000   1.0000   1.0000   1.0000
     1.0000   1.0000   1.0000   1.0000   1.0000   1.0000   0.6098   0.0000
     0.0000   0.0000

          k = 0.2828 0.2828-0.2828 (  3882 PWs)   bands (ev):

   -13.2948 -13.2948 -13.2458 -13.1670 -13.1670 -13.0141 -13.0141 -12.9909
   -12.9238 -12.9238  -0.5493   2.7400   7.4076   7.4076   8.2572  11.5384
    11.5384  14.1216

     occupation numbers 
     1.0000   1.0000   1.0000   1.0000   1.0000   1.0000   1.0000   1.0000
     1.0000   1.0000   1.0000   1.0000   1.0000   1.0000   0.8541   0.0000
     0.0000   0.0000

          k = 0.3182 0.3182-0.3182 (  3876 PWs)   bands (ev):

   -13.2958 -13.2958 -13.2441 -13.1650 -13.1650 -13.0155 -13.0155 -12.9930
   -12.9228 -12.9228  -0.3710   2.4255   7.3558   7.3558   8.2113  11.5424
    11.5424  14.0926

     occupation numbers 
     1.0000   1.0000   1.0000   1.0000   1.0000   1.0000   1.0000   1.0000
     1.0000   1.0000   1.0000   1.0000   1.0000   1.0000   0.9373   0.0000
     0.0000   0.0000

          k =-0.3536-0.3536 0.3536 (  3852 PWs)   bands (ev):

   -13.2961 -13.2961 -13.2434 -13.1643 -13.1643 -13.0159 -13.0159 -12.9937
   -12.9225 -12.9225  -0.3009   2.3098   7.3384   7.3384   8.1958  11.5421
    11.5421  14.0750

     occupation numbers 
     1.0000   1.0000   1.0000   1.0000   1.0000   1.0000   1.0000   1.0000
     1.0000   1.0000   1.0000   1.0000   1.0000   1.0000   0.9548   0.0000
     0.0000   0.0000

          k = 0.0707 0.0000 0.0000 (  3851 PWs)   bands (ev):

   -13.2681 -13.2680 -13.2680 -13.2113 -13.2085 -12.9796 -12.9643 -12.9643
   -12.9631 -12.9516  -1.7403   6.8346   8.2873   8.2873   8.7517  10.4023
    10.6747  10.6747

     occupation numbers 
     1.0000   1.0000   1.0000   1.0000   1.0000   1.0000   1.0000   1.0000
     1.0000   1.0000   1.0000   1.0000   0.7710   0.7710   0.0000   0.0000
     0.0000   0.0000

          k = 0.1061 0.0354-0.0354 (  3881 PWs)   bands (ev):

   -13.2723 -13.2706 -13.2666 -13.2078 -13.2027 -12.9884 -12.9719 -12.9642
   -12.9558 -12.9459  -1.6883   6.4071   8.1368   8.1676   8.9760  10.3914
    10.8754  10.9146

     occupation numbers 
     1.0000   1.0000   1.0000   1.0000   1.0000   1.0000   1.0000   1.0000
     1.0000   1.0000   1.0000   1.0000   0.9895   0.9765   0.0000   0.0000
     0.0000   0.0000

          k = 0.1414 0.0707-0.0707 (  3875 PWs)   bands (ev):

   -13.2777 -13.2749 -13.2640 -13.2015 -13.1949 -12.9970 -12.9801 -12.9665
   -12.9485 -12.9398  -1.5925   5.8153   7.9611   8.0192   9.0570  10.5315
    11.1155  11.3041

     occupation numbers 
     1.0000   1.0000   1.0000   1.0000   1.0000   1.0000   1.0000   1.0000
     1.0000   1.0000   1.0000   1.0000   1.0000   0.9998   0.0000   0.0000
     0.0000   0.0000

          k = 0.1768 0.1061-0.1061 (  3881 PWs)   bands (ev):

   -13.2832 -13.2798 -13.2606 -13.1941 -13.1865 -13.0049 -12.9878 -12.9703
   -12.9421 -12.9340  -1.4547   5.1730   7.7860   7.8397   9.0119  10.7619
    11.3487  11.8024

     occupation numbers 
     1.0000   1.0000   1.0000   1.0000   1.0000   1.0000   1.0000   1.0000
     1.0000   1.0000   1.0000   1.0000   1.0000   1.0000   0.0000   0.0000
     0.0000   0.0000

          k = 0.2121 0.1414-0.1414 (  3906 PWs)   bands (ev):

   -13.2882 -13.2843 -13.2564 -13.1866 -13.1785 -13.0116 -12.9949 -12.9752
   -12.9367 -12.9291  -1.2783   4.5305   7.6272   7.6534   8.9082  11.0014
    11.5360  12.3622

     occupation numbers 
     1.0000   1.0000   1.0000   1.0000   1.0000   1.0000   1.0000   1.0000
     1.0000   1.0000   1.0000   1.0000   1.0000   1.0000   0.0000   0.0000
     0.0000   0.0000

          k = 0.2475 0.1768-0.1768 (  3894 PWs)   bands (ev):

   -13.2924 -13.2882 -13.2520 -13.1796 -13.1717 -13.0167 -13.0012 -12.9805
   -12.9321 -12.9250  -1.0689   3.9164   7.4787   7.4939   8.7911  11.1947
    11.6534  12.9547

     occupation numbers 
     1.0000   1.0000   1.0000   1.0000   1.0000   1.0000   1.0000   1.0000
     1.0000   1.0000   1.0000   1.0000   1.0000   1.0000   0.0000   0.0000
     0.0000   0.0000

          k = 0.2828 0.2121-0.2121 (  3891 PWs)   bands (ev):

   -13.2955 -13.2914 -13.2477 -13.1737 -13.1667 -13.0198 -13.0065 -12.9859
   -12.9285 -12.9221  -0.8370   3.3536   7.3264   7.3917   8.6833  11.3231
    11.7012  13.5475

     occupation numbers 
     1.0000   1.0000   1.0000   1.0000   1.0000   1.0000   1.0000   1.0000
     1.0000   1.0000   1.0000   1.0000   1.0000   1.0000   0.0004   0.0000
     0.0000   0.0000

          k = 0.3182 0.2475-0.2475 (  3892 PWs)   bands (ev):

   -13.2976 -13.2938 -13.2440 -13.1689 -13.1635 -13.0210 -13.0108 -12.9908
   -12.9256 -12.9201  -0.6024   2.8695   7.2027   7.3235   8.5962  11.3990
    11.6985  14.0073

     occupation numbers 
     1.0000   1.0000   1.0000   1.0000   1.0000   1.0000   1.0000   1.0000
     1.0000   1.0000   1.0000   1.0000   1.0000   1.0000   0.0068   0.0000
     0.0000   0.0000

          k = 0.3536 0.2828-0.2828 (  3898 PWs)   bands (ev):

   -13.2988 -13.2955 -13.2412 -13.1654 -13.1622 -13.0204 -13.0143 -12.9946
   -12.9234 -12.9192  -0.4008   2.5045   7.1113   7.2908   8.5353  11.4463
    11.6689  14.1452

     occupation numbers 
     1.0000   1.0000   1.0000   1.0000   1.0000   1.0000   1.0000   1.0000
     1.0000   1.0000   1.0000   1.0000   1.0000   1.0000   0.0332   0.0000
     0.0000   0.0000

          k =-0.3182-0.3889 0.3889 (  3889 PWs)   bands (ev):

   -13.2991 -13.2965 -13.2398 -13.1630 -13.1626 -13.0185 -13.0171 -12.9969
   -12.9219 -12.9193  -0.2882   2.3172   7.0546   7.2940   8.5035  11.4849
    11.6300  14.1594

     occupation numbers 
     1.0000   1.0000   1.0000   1.0000   1.0000   1.0000   1.0000   1.0000
     1.0000   1.0000   1.0000   1.0000   1.0000   1.0000   0.0661   0.0000
     0.0000   0.0000

          k =-0.2828-0.3536 0.3536 (  3892 PWs)   bands (ev):

   -13.2985 -13.2969 -13.2399 -13.1642 -13.1618 -13.0189 -13.0160 -12.9971
   -12.9211 -12.9202  -0.3122   2.3563   7.0340   7.3326   8.5020  11.5241
    11.5899  14.1673

     occupation numbers 
     1.0000   1.0000   1.0000   1.0000   1.0000   1.0000   1.0000   1.0000
     1.0000   1.0000   1.0000   1.0000   1.0000   1.0000   0.0681   0.0000
     0.0000   0.0000

          k =-0.2475-0.3182 0.3182 (  3897 PWs)   bands (ev):

   -13.2972 -13.2966 -13.2415 -13.1670 -13.1622 -13.0196 -13.0133 -12.9949
   -12.9221 -12.9210  -0.4615   2.6101   7.0507   7.4054   8.5306  11.5471
    11.5626  14.1576

     occupation numbers 
     1.0000   1.0000   1.0000   1.0000   1.0000   1.0000   1.0000   1.0000
     1.0000   1.0000   1.0000   1.0000   1.0000   1.0000   0.0369   0.0000
     0.0000   0.0000

          k =-0.2121-0.2828 0.2828 (  3889 PWs)   bands (ev):

   -13.2955 -13.2950 -13.2445 -13.1708 -13.1643 -13.0188 -13.0104 -12.9907
   -12.9248 -12.9218  -0.6794   3.0206   7.1049   7.5102   8.5878  11.4910
    11.5876  13.9425

     occupation numbers 
     1.0000   1.0000   1.0000   1.0000   1.0000   1.0000   1.0000   1.0000
     1.0000   1.0000   1.0000   1.0000   1.0000   1.0000   0.0086   0.0000
     0.0000   0.0000

          k =-0.1768-0.2475 0.2475 (  3895 PWs)   bands (ev):

   -13.2935 -13.2919 -13.2484 -13.1758 -13.1684 -13.0163 -13.0068 -12.9852
   -12.9285 -12.9235  -0.9161   3.5345   7.1966   7.6435   8.6700  11.4040
    11.5739  13.3850

     occupation numbers 
     1.0000   1.0000   1.0000   1.0000   1.0000   1.0000   1.0000   1.0000
     1.0000   1.0000   1.0000   1.0000   1.0000   1.0000   0.0006   0.0000
     0.0000   0.0000

          k =-0.1414-0.2121 0.2121 (  3899 PWs)   bands (ev):

   -13.2905 -13.2880 -13.2527 -13.1818 -13.1744 -13.0119 -13.0023 -12.9792
   -12.9330 -12.9263  -1.1421   4.1165   7.3250   7.7998   8.7696  11.2701
    11.4874  12.7667

     occupation numbers 
     1.0000   1.0000   1.0000   1.0000   1.0000   1.0000   1.0000   1.0000
     1.0000   1.0000   1.0000   1.0000   1.0000   1.0000   0.0000   0.0000
     0.0000   0.0000

          k =-0.1061-0.1768 0.1768 (  3887 PWs)   bands (ev):

   -13.2866 -13.2834 -13.2571 -13.1887 -13.1818 -13.0058 -12.9966 -12.9733
   -12.9385 -12.9302  -1.3413   4.7415   7.4884   7.9705   8.8713  11.0880
    11.3016  12.1909

     occupation numbers 
     1.0000   1.0000   1.0000   1.0000   1.0000   1.0000   1.0000   1.0000
     1.0000   1.0000   1.0000   1.0000   1.0000   1.0000   0.0000   0.0000
     0.0000   0.0000

          k =-0.0707-0.1414 0.1414 (  3878 PWs)   bands (ev):

   -13.2818 -13.2782 -13.2611 -13.1961 -13.1902 -12.9984 -12.9901 -12.9680
   -12.9449 -12.9351  -1.5053   5.3851   7.6836   8.1410   8.9438  10.8799
    11.0314  11.6812

     occupation numbers 
     1.0000   1.0000   1.0000   1.0000   1.0000   1.0000   1.0000   1.0000
     1.0000   1.0000   1.0000   1.0000   1.0000   0.9882   0.0000   0.0000
     0.0000   0.0000

          k =-0.0354-0.1061 0.1061 (  3876 PWs)   bands (ev):

   -13.2766 -13.2731 -13.2643 -13.2031 -13.1987 -12.9900 -12.9829 -12.9637
   -12.9518 -12.9411  -1.6293   6.0131   7.9063   8.2876   8.9297  10.6889
    10.7590  11.2371

     occupation numbers 
     1.0000   1.0000   1.0000   1.0000   1.0000   1.0000   1.0000   1.0000
     1.0000   1.0000   1.0000   1.0000   1.0000   0.7699   0.0000   0.0000
     0.0000   0.0000

          k =-0.0000-0.0707 0.0707 (  3877 PWs)   bands (ev):

   -13.2717 -13.2693 -13.2662 -13.2085 -13.2060 -12.9813 -12.9759 -12.9627
   -12.9570 -12.9479  -1.7106   6.5620   8.1506   8.3766   8.7732  10.5680
    10.5941  10.8584

     occupation numbers 
     1.0000   1.0000   1.0000   1.0000   1.0000   1.0000   1.0000   1.0000
     1.0000   1.0000   1.0000   1.0000   0.9847   0.4260   0.0000   0.0000
     0.0000   0.0000

          k = 0.1414 0.0000 0.0000 (  3871 PWs)   bands (ev):

   -13.2715 -13.2715 -13.2704 -13.2066 -13.1969 -12.9984 -12.9676 -12.9597
   -12.9597 -12.9437  -1.6509   6.2061   7.9709   7.9709   9.3318  10.1682
    11.1054  11.1054

     occupation numbers 
     1.0000   1.0000   1.0000   1.0000   1.0000   1.0000   1.0000   1.0000
     1.0000   1.0000   1.0000   1.0000   1.0000   1.0000   0.0000   0.0000
     0.0000   0.0000

          k = 0.1768 0.0354-0.0354 (  3885 PWs)   bands (ev):

   -13.2770 -13.2746 -13.2680 -13.2020 -13.1888 -13.0083 -12.9741 -12.9589
   -12.9534 -12.9395  -1.5695   5.7753   7.7881   7.7931   9.5369  10.1291
    11.3704  11.4281

     occupation numbers 
     1.0000   1.0000   1.0000   1.0000   1.0000   1.0000   1.0000   1.0000
     1.0000   1.0000   1.0000   1.0000   1.0000   1.0000   0.0000   0.0000
     0.0000   0.0000

          k = 0.2121 0.0707-0.0707 (  3889 PWs)   bands (ev):

   -13.2833 -13.2789 -13.2637 -13.1954 -13.1800 -13.0175 -12.9821 -12.9620
   -12.9465 -12.9338  -1.4455   5.2253   7.5946   7.6113   9.5622  10.2786
    11.6273  11.8393

     occupation numbers 
     1.0000   1.0000   1.0000   1.0000   1.0000   1.0000   1.0000   1.0000
     1.0000   1.0000   1.0000   1.0000   1.0000   1.0000   0.0000   0.0000
     0.0000   0.0000

          k = 0.2475 0.1061-0.1061 (  3907 PWs)   bands (ev):

   -13.2894 -13.2834 -13.2584 -13.1880 -13.1715 -13.0253 -12.9899 -12.9675
   -12.9401 -12.9279  -1.2815   4.6327   7.3799   7.4547   9.4801  10.5433
    11.8362  12.2487

     occupation numbers 
     1.0000   1.0000   1.0000   1.0000   1.0000   1.0000   1.0000   1.0000
     1.0000   1.0000   1.0000   1.0000   1.0000   1.0000   0.0000   0.0000
     0.0000   0.0000

          k = 0.2828 0.1414-0.1414 (  3890 PWs)   bands (ev):

   -13.2948 -13.2875 -13.2523 -13.1807 -13.1642 -13.0312 -12.9972 -12.9743
   -12.9347 -12.9225  -1.0822   4.0419   7.1699   7.3267   9.3633  10.8248
    11.9685  12.6206

     occupation numbers 
     1.0000   1.0000   1.0000   1.0000   1.0000   1.0000   1.0000   1.0000
     1.0000   1.0000   1.0000   1.0000   1.0000   1.0000   0.0000   0.0000
     0.0000   0.0000

          k = 0.3182 0.1768-0.1768 (  3896 PWs)   bands (ev):

   -13.2992 -13.2910 -13.2460 -13.1740 -13.1589 -13.0347 -13.0040 -12.9818
   -12.9300 -12.9181  -0.8560   3.4830   6.9798   7.2324   9.2455  11.0541
    12.0186  13.0011

     occupation numbers 
     1.0000   1.0000   1.0000   1.0000   1.0000   1.0000   1.0000   1.0000
     1.0000   1.0000   1.0000   1.0000   1.0000   1.0000   0.0000   0.0000
     0.0000   0.0000

          k = 0.3536 0.2121-0.2121 (  3898 PWs)   bands (ev):

   -13.3025 -13.2939 -13.2401 -13.1680 -13.1559 -13.0354 -13.0101 -12.9892
   -12.9261 -12.9149  -0.6187   2.9843   6.8183   7.1747   9.1429  11.2073
    12.0042  13.4353

     occupation numbers 
     1.0000   1.0000   1.0000   1.0000   1.0000   1.0000   1.0000   1.0000
     1.0000   1.0000   1.0000   1.0000   1.0000   1.0000   0.0000   0.0000
     0.0000   0.0000

          k = 0.3889 0.2475-0.2475 (  3895 PWs)   bands (ev):

   -13.3047 -13.2962 -13.2352 -13.1630 -13.1554 -13.0334 -13.0156 -12.9959
   -12.9229 -12.9129  -0.3999   2.5830   6.6905   7.1547   9.0636  11.3044
    11.9512  13.8795

     occupation numbers 
     1.0000   1.0000   1.0000   1.0000   1.0000   1.0000   1.0000   1.0000
     1.0000   1.0000   1.0000   1.0000   1.0000   1.0000   0.0000   0.0000
     0.0000   0.0000

          k =-0.2828-0.4243 0.4243 (  3915 PWs)   bands (ev):

   -13.3056 -13.2978 -13.2318 -13.1590 -13.1568 -13.0289 -13.0204 -13.0013
   -12.9204 -12.9123  -0.2499   2.3340   6.5997   7.1727   9.0117  11.3769
    11.8809  14.1960

     occupation numbers 
     1.0000   1.0000   1.0000   1.0000   1.0000   1.0000   1.0000   1.0000
     1.0000   1.0000   1.0000   1.0000   1.0000   1.0000   0.0000   0.0000
     0.0000   0.0000

          k =-0.2475-0.3889 0.3889 (  3905 PWs)   bands (ev):

   -13.3054 -13.2988 -13.2305 -13.1598 -13.1562 -13.0243 -13.0227 -13.0048
   -12.9187 -12.9130  -0.2265   2.2969   6.5483   7.2277   8.9891  11.4455
    11.8047  14.3126

     occupation numbers 
     1.0000   1.0000   1.0000   1.0000   1.0000   1.0000   1.0000   1.0000
     1.0000   1.0000   1.0000   1.0000   1.0000   1.0000   0.0000   0.0000
     0.0000   0.0000

          k =-0.2121-0.3536 0.3536 (  3908 PWs)   bands (ev):

   -13.3039 -13.2991 -13.2316 -13.1638 -13.1551 -13.0268 -13.0161 -13.0053
   -12.9178 -12.9151  -0.3410   2.4833   6.5385   7.3177   8.9957  11.5166
    11.7239  14.2355

     occupation numbers 
     1.0000   1.0000   1.0000   1.0000   1.0000   1.0000   1.0000   1.0000
     1.0000   1.0000   1.0000   1.0000   1.0000   1.0000   0.0000   0.0000
     0.0000   0.0000

          k =-0.1768-0.3182 0.3182 (  3904 PWs)   bands (ev):

   -13.3013 -13.2985 -13.2348 -13.1684 -13.1560 -13.0274 -13.0122 -13.0005
   -12.9187 -12.9179  -0.5442   2.8421   6.5723   7.4395   9.0295  11.5814
    11.6308  13.8682

     occupation numbers 
     1.0000   1.0000   1.0000   1.0000   1.0000   1.0000   1.0000   1.0000
     1.0000   1.0000   1.0000   1.0000   1.0000   1.0000   0.0000   0.0000
     0.0000   0.0000

          k =-0.1414-0.2828 0.2828 (  3903 PWs)   bands (ev):

   -13.2977 -13.2970 -13.2397 -13.1736 -13.1593 -13.0258 -13.0097 -12.9919
   -12.9235 -12.9190  -0.7796   3.3126   6.6523   7.5884   9.0859  11.5107
    11.6119  13.3321

     occupation numbers 
     1.0000   1.0000   1.0000   1.0000   1.0000   1.0000   1.0000   1.0000
     1.0000   1.0000   1.0000   1.0000   1.0000   1.0000   0.0000   0.0000
     0.0000   0.0000

          k =-0.1061-0.2475 0.2475 (  3903 PWs)   bands (ev):

   -13.2946 -13.2930 -13.2456 -13.1794 -13.1650 -13.0219 -13.0064 -12.9824
   -12.9296 -12.9212  -1.0114   3.8516   6.7815   7.7569   9.1554  11.3511
    11.5536  12.8272

     occupation numbers 
     1.0000   1.0000   1.0000   1.0000   1.0000   1.0000   1.0000   1.0000
     1.0000   1.0000   1.0000   1.0000   1.0000   1.0000   0.0000   0.0000
     0.0000   0.0000

          k =-0.0707-0.2121 0.2121 (  3910 PWs)   bands (ev):

   -13.2911 -13.2876 -13.2518 -13.1857 -13.1725 -13.0158 -13.0019 -12.9732
   -12.9368 -12.9245  -1.2205   4.4270   6.9649   7.9337   9.2180  11.1542
    11.3554  12.4284

     occupation numbers 
     1.0000   1.0000   1.0000   1.0000   1.0000   1.0000   1.0000   1.0000
     1.0000   1.0000   1.0000   1.0000   1.0000   1.0000   0.0000   0.0000
     0.0000   0.0000

          k =-0.0354-0.1768 0.1768 (  3888 PWs)   bands (ev):

   -13.2866 -13.2818 -13.2575 -13.1922 -13.1813 -13.0081 -12.9961 -12.9650
   -12.9450 -12.9290  -1.3966   5.0073   7.2096   8.1004   9.2351  10.9465
    11.0725  12.0803

     occupation numbers 
     1.0000   1.0000   1.0000   1.0000   1.0000   1.0000   1.0000   1.0000
     1.0000   1.0000   1.0000   1.0000   1.0000   0.9964   0.0000   0.0000
     0.0000   0.0000

          k = 0.0000-0.1414 0.1414 (  3885 PWs)   bands (ev):

   -13.2816 -13.2764 -13.2620 -13.1984 -13.1904 -12.9993 -12.9895 -12.9588
   -12.9531 -12.9346  -1.5339   5.5532   7.5243   8.2295   9.1471  10.7740
    10.8462  11.6865

     occupation numbers 
     1.0000   1.0000   1.0000   1.0000   1.0000   1.0000   1.0000   1.0000
     1.0000   1.0000   1.0000   1.0000   1.0000   0.9103   0.0000   0.0000
     0.0000   0.0000

          k = 0.2121 0.0000 0.0000 (  3895 PWs)   bands (ev):

   -13.2766 -13.2766 -13.2715 -13.1988 -13.1804 -13.0199 -12.9749 -12.9525
   -12.9525 -12.9398  -1.5024   5.5239   7.6012   7.6012   9.8802   9.8888
    11.6632  11.6633

     occupation numbers 
     1.0000   1.0000   1.0000   1.0000   1.0000   1.0000   1.0000   1.0000
     1.0000   1.0000   1.0000   1.0000   1.0000   1.0000   0.0000   0.0000
     0.0000   0.0000

          k = 0.2475 0.0354-0.0354 (  3901 PWs)   bands (ev):

   -13.2823 -13.2801 -13.2682 -13.1932 -13.1709 -13.0308 -12.9811 -12.9526
   -12.9471 -12.9361  -1.3922   5.1115   7.4024   7.4221   9.8376  10.0432
    11.9525  11.9931

     occupation numbers 
     1.0000   1.0000   1.0000   1.0000   1.0000   1.0000   1.0000   1.0000
     1.0000   1.0000   1.0000   1.0000   1.0000   1.0000   0.0000   0.0000
     0.0000   0.0000

          k = 0.2828 0.0707-0.0707 (  3909 PWs)   bands (ev):

   -13.2892 -13.2842 -13.2621 -13.1862 -13.1616 -13.0404 -12.9888 -12.9584
   -12.9409 -12.9292  -1.2410   4.6113   7.1705   7.2645   9.8451  10.1943
    12.1968  12.2762

     occupation numbers 
     1.0000   1.0000   1.0000   1.0000   1.0000   1.0000   1.0000   1.0000
     1.0000   1.0000   1.0000   1.0000   1.0000   1.0000   0.0000   0.0000
     0.0000   0.0000

          k = 0.3182 0.1061-0.1061 (  3909 PWs)   bands (ev):

   -13.2959 -13.2882 -13.2545 -13.1788 -13.1535 -13.0479 -12.9967 -12.9666
   -12.9350 -12.9221  -1.0526   4.0781   6.9255   7.1371   9.7786  10.4705
    12.3613  12.4370

     occupation numbers 
     1.0000   1.0000   1.0000   1.0000   1.0000   1.0000   1.0000   1.0000
     1.0000   1.0000   1.0000   1.0000   1.0000   1.0000   0.0000   0.0000
     0.0000   0.0000

          k = 0.3536 0.1414-0.1414 (  3905 PWs)   bands (ev):

   -13.3017 -13.2919 -13.2461 -13.1714 -13.1475 -13.0527 -13.0045 -12.9760
   -12.9297 -12.9158  -0.8338   3.5500   6.6925   7.0450   9.6771  10.7935
    12.4319  12.5737

     occupation numbers 
     1.0000   1.0000   1.0000   1.0000   1.0000   1.0000   1.0000   1.0000
     1.0000   1.0000   1.0000   1.0000   1.0000   1.0000   0.0000   0.0000
     0.0000   0.0000

          k = 0.3889 0.1768-0.1768 (  3909 PWs)   bands (ev):

   -13.3065 -13.2950 -13.2377 -13.1645 -13.1441 -13.0543 -13.0120 -12.9857
   -12.9252 -12.9107  -0.5971   3.0587   6.4870   6.9911   9.5771  11.0680
    12.4215  12.8139

     occupation numbers 
     1.0000   1.0000   1.0000   1.0000   1.0000   1.0000   1.0000   1.0000
     1.0000   1.0000   1.0000   1.0000   1.0000   1.0000   0.0000   0.0000
     0.0000   0.0000

          k = 0.4243 0.2121-0.2121 (  3906 PWs)   bands (ev):

   -13.3101 -13.2976 -13.2301 -13.1582 -13.1438 -13.0524 -13.0191 -12.9949
   -12.9213 -12.9071  -0.3662   2.6398   6.3173   6.9769   9.4944  11.2495
    12.3575  13.2079

     occupation numbers 
     1.0000   1.0000   1.0000   1.0000   1.0000   1.0000   1.0000   1.0000
     1.0000   1.0000   1.0000   1.0000   1.0000   1.0000   0.0000   0.0000
     0.0000   0.0000

          k =-0.2475-0.4596 0.4596 (  3915 PWs)   bands (ev):

   -13.3121 -13.2996 -13.2241 -13.1528 -13.1463 -13.0473 -13.0256 -13.0027
   -12.9183 -12.9051  -0.1849   2.3443   6.1885   7.0023   9.4365  11.3626
    12.2652  13.7023

     occupation numbers 
     1.0000   1.0000   1.0000   1.0000   1.0000   1.0000   1.0000   1.0000
     1.0000   1.0000   1.0000   1.0000   1.0000   1.0000   0.0000   0.0000
     0.0000   0.0000

          k =-0.2121-0.4243 0.4243 (  3919 PWs)   bands (ev):

   -13.3127 -13.3010 -13.2205 -13.1510 -13.1486 -13.0393 -13.0311 -13.0086
   -12.9160 -12.9048  -0.1152   2.2375   6.1042   7.0664   9.4059  11.4496
    12.1596  14.1475

     occupation numbers 
     1.0000   1.0000   1.0000   1.0000   1.0000   1.0000   1.0000   1.0000
     1.0000   1.0000   1.0000   1.0000   1.0000   1.0000   0.0000   0.0000
     0.0000   0.0000

[...]
    12.8243  13.2637

     occupation numbers 
     1.0000   1.0000   1.0000   1.0000   1.0000   1.0000   1.0000   1.0000
     1.0000   1.0000   1.0000   1.0000   1.0000   1.0000   0.0000   0.0000
     0.0000   0.0000

          k =-0.0000-0.3536 0.4950 (  3916 PWs)   bands (ev):

   -13.3230 -13.3099 -13.1952 -13.1368 -13.1099 -13.0841 -13.0518 -13.0231
   -12.9051 -12.8934   0.1333   2.1626   5.3558   6.6251  10.2122  11.9775
    12.4315  13.6330

     occupation numbers 
     1.0000   1.0000   1.0000   1.0000   1.0000   1.0000   1.0000   1.0000
     1.0000   1.0000   1.0000   1.0000   1.0000   1.0000   0.0000   0.0000
     0.0000   0.0000

          k =-0.1414-0.5657 0.7071 (  3940 PWs)   bands (ev):

   -13.3110 -13.3101 -13.2171 -13.1354 -13.1252 -13.0761 -13.0481 -12.9975
   -12.9059 -12.9055   0.1499   2.1486   5.9505   6.1905   9.7090  10.1009
    13.4959  14.7595

     occupation numbers 
     1.0000   1.0000   1.0000   1.0000   1.0000   1.0000   1.0000   1.0000
     1.0000   1.0000   1.0000   1.0000   1.0000   1.0000   0.0000   0.0000
     0.0000   0.0000

          k =-0.1061-0.5303 0.6718 (  3920 PWs)   bands (ev):

   -13.3165 -13.3117 -13.2025 -13.1401 -13.1164 -13.0709 -13.0580 -13.0121
   -12.9039 -12.8991   0.3985   1.8488   5.7530   6.1165   9.8729  10.4028
    13.3478  14.6962

     occupation numbers 
     1.0000   1.0000   1.0000   1.0000   1.0000   1.0000   1.0000   1.0000
     1.0000   1.0000   1.0000   1.0000   1.0000   1.0000   0.0000   0.0000
     0.0000   0.0000

          k =-0.0707-0.4950 0.6364 (  3923 PWs)   bands (ev):

   -13.3215 -13.3125 -13.1903 -13.1387 -13.1083 -13.0721 -13.0673 -13.0239
   -12.9027 -12.8937   0.6183   1.6044   5.5408   6.1277   9.9293  10.9654
    13.2067  14.2596

     occupation numbers 
     1.0000   1.0000   1.0000   1.0000   1.0000   1.0000   1.0000   1.0000
     1.0000   1.0000   1.0000   1.0000   1.0000   1.0000   0.0000   0.0000
     0.0000   0.0000

          k =-0.0354-0.4596 0.6010 (  3908 PWs)   bands (ev):

   -13.3249 -13.3127 -13.1847 -13.1284 -13.1036 -13.0810 -13.0742 -13.0289
   -12.9023 -12.8902   0.7010   1.5201   5.3749   6.1985   9.9921  11.6221
    13.0892  13.6307

     occupation numbers 
     1.0000   1.0000   1.0000   1.0000   1.0000   1.0000   1.0000   1.0000
     1.0000   1.0000   1.0000   1.0000   1.0000   1.0000   0.0000   0.0000
     0.0000   0.0000

          k =-0.0000-0.4243 0.5657 (  3920 PWs)   bands (ev):

   -13.3262 -13.3122 -13.1854 -13.1118 -13.1101 -13.0917 -13.0735 -13.0284
   -12.9027 -12.8891   0.5728   1.6621   5.2889   6.3173  10.0719  12.2460
    12.9814  13.0521

     occupation numbers 
     1.0000   1.0000   1.0000   1.0000   1.0000   1.0000   1.0000   1.0000
     1.0000   1.0000   1.0000   1.0000   1.0000   1.0000   0.0000   0.0000
     0.0000   0.0000

          k =-0.0707-0.5657 0.7071 (  3919 PWs)   bands (ev):

   -13.3133 -13.3128 -13.2001 -13.1588 -13.1062 -13.0670 -13.0541 -13.0140
   -12.9024 -12.9020   0.5998   1.6053   5.8999   6.0192   9.7175   9.9233
    14.0856  14.9661

     occupation numbers 
     1.0000   1.0000   1.0000   1.0000   1.0000   1.0000   1.0000   1.0000
     1.0000   1.0000   1.0000   1.0000   1.0000   1.0000   0.0000   0.0000
     0.0000   0.0000

          k =-0.0354-0.5303 0.6718 (  3917 PWs)   bands (ev):

   -13.3182 -13.3135 -13.1859 -13.1607 -13.0973 -13.0771 -13.0516 -13.0278
   -12.9015 -12.8968   0.8425   1.3526   5.7093   6.0018   9.8445  10.3279
    13.9321  14.4707

     occupation numbers 
     1.0000   1.0000   1.0000   1.0000   1.0000   1.0000   1.0000   1.0000
     1.0000   1.0000   1.0000   1.0000   1.0000   1.0000   0.0000   0.0000
     0.0000   0.0000

          k = 0.0000-0.4950 0.6364 (  3914 PWs)   bands (ev):

   -13.3224 -13.3134 -13.1817 -13.1489 -13.0939 -13.0824 -13.0622 -13.0315
   -12.9015 -12.8926   0.9011   1.3029   5.5072   6.0755   9.9083  10.9448
    13.7564  13.8058

     occupation numbers 
     1.0000   1.0000   1.0000   1.0000   1.0000   1.0000   1.0000   1.0000
     1.0000   1.0000   1.0000   1.0000   1.0000   1.0000   0.0000   0.0000
     0.0000   0.0000

          k =-0.7071 0.1414 0.0000 (  3914 PWs)   bands (ev):

   -13.3139 -13.3139 -13.1805 -13.1805 -13.0866 -13.0865 -13.0332 -13.0332
   -12.9010 -12.9010   1.0869   1.0869   5.9224   5.9224   9.7907   9.7907
    14.6417  14.6417

     occupation numbers 
     1.0000   1.0000   1.0000   1.0000   1.0000   1.0000   1.0000   1.0000
     1.0000   1.0000   1.0000   1.0000   1.0000   1.0000   0.0000   0.0000
     0.0000   0.0000

          k = 0.4243 0.2121-0.0000 (  3905 PWs)   bands (ev):

   -13.3075 -13.3043 -13.2279 -13.1589 -13.1248 -13.0773 -13.0171 -12.9934
   -12.9121 -12.9117  -0.5033   3.0631   5.9555   6.8576  10.4431  10.5328
    12.1588  13.3890

     occupation numbers 
     1.0000   1.0000   1.0000   1.0000   1.0000   1.0000   1.0000   1.0000
     1.0000   1.0000   1.0000   1.0000   1.0000   1.0000   0.0000   0.0000
     0.0000   0.0000

          k =-0.2475-0.4596 0.6718 (  3914 PWs)   bands (ev):

   -13.3136 -13.3069 -13.2159 -13.1514 -13.1178 -13.0829 -13.0259 -13.0060
   -12.9092 -12.9042  -0.2659   2.6907   5.7427   6.7134  10.4266  10.9265
    12.1122  13.6268

     occupation numbers 
     1.0000   1.0000   1.0000   1.0000   1.0000   1.0000   1.0000   1.0000
     1.0000   1.0000   1.0000   1.0000   1.0000   1.0000   0.0000   0.0000
     0.0000   0.0000

          k =-0.2121-0.4243 0.6364 (  3912 PWs)   bands (ev):

   -13.3185 -13.3086 -13.2054 -13.1437 -13.1144 -13.0848 -13.0364 -13.0155
   -12.9073 -12.8983  -0.0284   2.3465   5.5983   6.5912  10.3941  11.2334
    12.2768  13.7073

     occupation numbers 
     1.0000   1.0000   1.0000   1.0000   1.0000   1.0000   1.0000   1.0000
     1.0000   1.0000   1.0000   1.0000   1.0000   1.0000   0.0000   0.0000
     0.0000   0.0000

          k =-0.1768-0.3889 0.6010 (  3914 PWs)   bands (ev):

   -13.3216 -13.3095 -13.1983 -13.1368 -13.1142 -13.0838 -13.0462 -13.0209
   -12.9061 -12.8946   0.1663   2.0832   5.5155   6.5108  10.3727  11.3418
    12.7105  13.6023

     occupation numbers 
     1.0000   1.0000   1.0000   1.0000   1.0000   1.0000   1.0000   1.0000
     1.0000   1.0000   1.0000   1.0000   1.0000   1.0000   0.0000   0.0000
     0.0000   0.0000

          k =-0.1414-0.3536 0.5657 (  3916 PWs)   bands (ev):

   -13.3227 -13.3099 -13.1958 -13.1338 -13.1148 -13.0828 -13.0504 -13.0227
   -12.9057 -12.8933   0.2467   1.9793   5.4886   6.4828  10.3653  11.3589
    13.1752  13.2918

     occupation numbers 
     1.0000   1.0000   1.0000   1.0000   1.0000   1.0000   1.0000   1.0000
     1.0000   1.0000   1.0000   1.0000   1.0000   1.0000   0.0000   0.0000
     0.0000   0.0000

          k =-0.2121-0.4950 0.7071 (  3918 PWs)   bands (ev):

   -13.3126 -13.3089 -13.2168 -13.1436 -13.1048 -13.1008 -13.0323 -13.0013
   -12.9071 -12.9051  -0.1586   2.5607   5.7933   6.4768  10.4065  10.5964
    12.2782  14.0884

     occupation numbers 
     1.0000   1.0000   1.0000   1.0000   1.0000   1.0000   1.0000   1.0000
     1.0000   1.0000   1.0000   1.0000   1.0000   1.0000   0.0000   0.0000
     0.0000   0.0000

          k =-0.1768-0.4596 0.6718 (  3922 PWs)   bands (ev):

   -13.3179 -13.3112 -13.2036 -13.1355 -13.1063 -13.0981 -13.0424 -13.0141
   -12.9045 -12.8986   0.0847   2.2346   5.6176   6.3467  10.4988  10.9915
    12.1759  14.1831

     occupation numbers 
     1.0000   1.0000   1.0000   1.0000   1.0000   1.0000   1.0000   1.0000
     1.0000   1.0000   1.0000   1.0000   1.0000   1.0000   0.0000   0.0000
     0.0000   0.0000

          k =-0.1414-0.4243 0.6364 (  3922 PWs)   bands (ev):

   -13.3220 -13.3125 -13.1928 -13.1282 -13.1076 -13.0953 -13.0528 -13.0236
   -12.9030 -12.8938   0.3055   1.9582   5.4883   6.2669  10.5136  11.4279
    12.2372  13.9210

     occupation numbers 
     1.0000   1.0000   1.0000   1.0000   1.0000   1.0000   1.0000   1.0000
     1.0000   1.0000   1.0000   1.0000   1.0000   1.0000   0.0000   0.0000
     0.0000   0.0000

          k =-0.1061-0.3889 0.6010 (  3918 PWs)   bands (ev):

   -13.3242 -13.3130 -13.1869 -13.1244 -13.1032 -13.0977 -13.0599 -13.0284
   -12.9022 -12.8914   0.4336   1.8059   5.4083   6.2505  10.5429  11.5867
    12.6549  13.3817

     occupation numbers 
     1.0000   1.0000   1.0000   1.0000   1.0000   1.0000   1.0000   1.0000
     1.0000   1.0000   1.0000   1.0000   1.0000   1.0000   0.0000   0.0000
     0.0000   0.0000

          k =-0.0707-0.3536 0.5657 (  3919 PWs)   bands (ev):

   -13.3242 -13.3129 -13.1870 -13.1261 -13.1019 -13.0975 -13.0596 -13.0285
   -12.9023 -12.8914   0.3915   1.8561   5.3842   6.2980  10.5844  11.5761
    12.7214  13.3112

     occupation numbers 
     1.0000   1.0000   1.0000   1.0000   1.0000   1.0000   1.0000   1.0000
     1.0000   1.0000   1.0000   1.0000   1.0000   1.0000   0.0000   0.0000
     0.0000   0.0000

          k =-0.0354-0.3182 0.5303 (  3917 PWs)   bands (ev):

   -13.3222 -13.3120 -13.1929 -13.1337 -13.1036 -13.0953 -13.0504 -13.0246
   -12.9032 -12.8940   0.2096   2.0757   5.4259   6.4015  10.6243  11.4645
    12.2312  13.8230

     occupation numbers 
     1.0000   1.0000   1.0000   1.0000   1.0000   1.0000   1.0000   1.0000
     1.0000   1.0000   1.0000   1.0000   1.0000   1.0000   0.0000   0.0000
     0.0000   0.0000

          k = 0.0000-0.2828 0.4950 (  3921 PWs)   bands (ev):

   -13.3183 -13.3102 -13.2032 -13.1430 -13.1090 -13.0906 -13.0373 -13.0173
   -12.9052 -12.8987  -0.0263   2.3730   5.5432   6.5471  10.6211  11.1602
    12.0550  13.9235

     occupation numbers 
     1.0000   1.0000   1.0000   1.0000   1.0000   1.0000   1.0000   1.0000
     1.0000   1.0000   1.0000   1.0000   1.0000   1.0000   0.0000   0.0000
     0.0000   0.0000

          k =-0.1414-0.4950 0.7071 (  3933 PWs)   bands (ev):

   -13.3162 -13.3131 -13.2030 -13.1262 -13.1240 -13.0843 -13.0498 -13.0127
   -12.9024 -12.9000   0.2276   2.0629   5.7052   6.1614  10.3363  10.5591
    12.6628  14.5187

     occupation numbers 
     1.0000   1.0000   1.0000   1.0000   1.0000   1.0000   1.0000   1.0000
     1.0000   1.0000   1.0000   1.0000   1.0000   1.0000   0.0000   0.0000
     0.0000   0.0000

          k =-0.1061-0.4596 0.6718 (  3919 PWs)   bands (ev):

   -13.3205 -13.3149 -13.1889 -13.1277 -13.1176 -13.0800 -13.0604 -13.0257
   -12.9004 -12.8950   0.4673   1.7844   5.5637   6.0581  10.4642  11.0145
    12.5278  14.1533

     occupation numbers 
     1.0000   1.0000   1.0000   1.0000   1.0000   1.0000   1.0000   1.0000
     1.0000   1.0000   1.0000   1.0000   1.0000   1.0000   0.0000   0.0000
     0.0000   0.0000

          k =-0.0707-0.4243 0.6364 (  3916 PWs)   bands (ev):

   -13.3238 -13.3154 -13.1796 -13.1260 -13.1103 -13.0822 -13.0688 -13.0336
   -12.8996 -12.8913   0.6392   1.5960   5.4373   6.0446  10.5158  11.6091
    12.4573  13.5133

     occupation numbers 
     1.0000   1.0000   1.0000   1.0000   1.0000   1.0000   1.0000   1.0000
     1.0000   1.0000   1.0000   1.0000   1.0000   1.0000   0.0000   0.0000
     0.0000   0.0000

          k =-0.0354-0.3889 0.6010 (  3917 PWs)   bands (ev):

   -13.3253 -13.3152 -13.1781 -13.1185 -13.1102 -13.0872 -13.0720 -13.0347
   -12.8998 -12.8900   0.6274   1.6112   5.3564   6.1090  10.5798  11.9860
    12.6065  12.9130

     occupation numbers 
     1.0000   1.0000   1.0000   1.0000   1.0000   1.0000   1.0000   1.0000
     1.0000   1.0000   1.0000   1.0000   1.0000   1.0000   0.0000   0.0000
     0.0000   0.0000

          k = 0.0000-0.3536 0.5657 (  3912 PWs)   bands (ev):

   -13.3246 -13.3141 -13.1832 -13.1219 -13.1066 -13.0934 -13.0646 -13.0310
   -12.9009 -12.8909   0.4462   1.8111   5.3473   6.2337  10.6391  11.8756
    12.3154  13.3272

     occupation numbers 
     1.0000   1.0000   1.0000   1.0000   1.0000   1.0000   1.0000   1.0000
     1.0000   1.0000   1.0000   1.0000   1.0000   1.0000   0.0000   0.0000
     0.0000   0.0000

          k =-0.0707-0.4950 0.7071 (  3920 PWs)   bands (ev):

   -13.3180 -13.3162 -13.1864 -13.1464 -13.1075 -13.0687 -13.0641 -13.0274
   -12.8988 -12.8973   0.6496   1.5742   5.6956   5.9233  10.3242  10.4563
    13.1963  14.3247

     occupation numbers 
     1.0000   1.0000   1.0000   1.0000   1.0000   1.0000   1.0000   1.0000
     1.0000   1.0000   1.0000   1.0000   1.0000   1.0000   0.0000   0.0000
     0.0000   0.0000

          k =-0.0354-0.4596 0.6718 (  3924 PWs)   bands (ev):

   -13.3217 -13.3171 -13.1734 -13.1467 -13.0995 -13.0792 -13.0629 -13.0389
   -12.8979 -12.8933   0.8622   1.3566   5.5657   5.8809  10.4368  10.9947
    13.0557  13.6435

     occupation numbers 
     1.0000   1.0000   1.0000   1.0000   1.0000   1.0000   1.0000   1.0000
     1.0000   1.0000   1.0000   1.0000   1.0000   1.0000   0.0000   0.0000
     0.0000   0.0000

          k =-0.0000-0.4243 0.6364 (  3908 PWs)   bands (ev):

   -13.3244 -13.3166 -13.1723 -13.1345 -13.1002 -13.0817 -13.0727 -13.0394
   -12.8983 -12.8906   0.8407   1.3857   5.4255   5.9632  10.5079  11.6483
    12.9443  12.9449

     occupation numbers 
     1.0000   1.0000   1.0000   1.0000   1.0000   1.0000   1.0000   1.0000
     1.0000   1.0000   1.0000   1.0000   1.0000   1.0000   0.0000   0.0000
     0.0000   0.0000

          k =-0.7071 0.2121 0.0000 (  3924 PWs)   bands (ev):

   -13.3180 -13.3180 -13.1674 -13.1673 -13.0882 -13.0880 -13.0449 -13.0448
   -12.8969 -12.8969   1.1008   1.1008   5.7678   5.7678  10.3677  10.3677
    13.7846  13.7846

     occupation numbers 
     1.0000   1.0000   1.0000   1.0000   1.0000   1.0000   1.0000   1.0000
     1.0000   1.0000   1.0000   1.0000   1.0000   1.0000   0.0000   0.0000
     0.0000   0.0000

          k =-0.1414-0.4243 0.7071 (  3899 PWs)   bands (ev):

   -13.3211 -13.3145 -13.1897 -13.1265 -13.1128 -13.0907 -13.0545 -13.0261
   -12.9007 -12.8948   0.3286   1.9478   5.4925   6.1743  10.9313  11.0794
    12.0777  14.0190

     occupation numbers 
     1.0000   1.0000   1.0000   1.0000   1.0000   1.0000   1.0000   1.0000
     1.0000   1.0000   1.0000   1.0000   1.0000   1.0000   0.0000   0.0000
     0.0000   0.0000

          k =-0.1061-0.3889 0.6718 (  3921 PWs)   bands (ev):

   -13.3236 -13.3161 -13.1790 -13.1204 -13.1149 -13.0860 -13.0658 -13.0345
   -12.8989 -12.8917   0.5466   1.7027   5.4238   6.0540  10.9695  11.4848
    12.1759  13.4097

     occupation numbers 
     1.0000   1.0000   1.0000   1.0000   1.0000   1.0000   1.0000   1.0000
     1.0000   1.0000   1.0000   1.0000   1.0000   1.0000   0.0000   0.0000
     0.0000   0.0000

          k =-0.0707-0.3536 0.6364 (  3914 PWs)   bands (ev):

   -13.3246 -13.3166 -13.1748 -13.1218 -13.1101 -13.0864 -13.0699 -13.0377
   -12.8984 -12.8906   0.6474   1.5924   5.4026   6.0107  10.9730  11.6044
    12.5473  12.8672

     occupation numbers 
     1.0000   1.0000   1.0000   1.0000   1.0000   1.0000   1.0000   1.0000
     1.0000   1.0000   1.0000   1.0000   1.0000   1.0000   0.0000   0.0000
     0.0000   0.0000

          k =-0.0707-0.4243 0.7071 (  3922 PWs)   bands (ev):

   -13.3220 -13.3183 -13.1735 -13.1345 -13.1089 -13.0724 -13.0723 -13.0389
   -12.8966 -12.8932   0.7106   1.5265   5.5288   5.8724  11.0448  11.0452
    12.3963  13.5178

     occupation numbers 
     1.0000   1.0000   1.0000   1.0000   1.0000   1.0000   1.0000   1.0000
     1.0000   1.0000   1.0000   1.0000   1.0000   1.0000   0.0000   0.0000
     0.0000   0.0000

          k =-0.0354-0.3889 0.6718 (  3911 PWs)   bands (ev):

   -13.3235 -13.3193 -13.1641 -13.1365 -13.1021 -13.0823 -13.0694 -13.0463
   -12.8956 -12.8914   0.8747   1.3588   5.4885   5.8067  11.0908  11.6229
    12.3500  12.8258

     occupation numbers 
     1.0000   1.0000   1.0000   1.0000   1.0000   1.0000   1.0000   1.0000
     1.0000   1.0000   1.0000   1.0000   1.0000   1.0000   0.0000   0.0000
     0.0000   0.0000

          k = 0.0000-0.3536 0.6364 (  3915 PWs)   bands (ev):

   -13.3242 -13.3184 -13.1678 -13.1287 -13.1071 -13.0783 -13.0757 -13.0431
   -12.8965 -12.8908   0.7762   1.4623   5.4333   5.8867  11.1205  11.7714
    12.2548  12.7599

     occupation numbers 
     1.0000   1.0000   1.0000   1.0000   1.0000   1.0000   1.0000   1.0000
     1.0000   1.0000   1.0000   1.0000   1.0000   1.0000   0.0000   0.0000
     0.0000   0.0000

          k =-0.7071 0.2828 0.0000 (  3920 PWs)   bands (ev):

   -13.3209 -13.3209 -13.1550 -13.1549 -13.0908 -13.0907 -13.0547 -13.0546
   -12.8939 -12.8939   1.1122   1.1122   5.6554   5.6554  11.0467  11.0468
    12.9216  12.9216

     occupation numbers 
     1.0000   1.0000   1.0000   1.0000   1.0000   1.0000   1.0000   1.0000
     1.0000   1.0000   1.0000   1.0000   1.0000   1.0000   0.0000   0.0000
     0.0000   0.0000

          k =-0.7071 0.3536 0.0000 (  3884 PWs)   bands (ev):

   -13.3220 -13.3220 -13.1494 -13.1493 -13.0926 -13.0925 -13.0585 -13.0584
   -12.8928 -12.8928   1.1166   1.1166   5.6149   5.6149  11.5493  11.5493
    12.3560  12.3560

     occupation numbers 
     1.0000   1.0000   1.0000   1.0000   1.0000   1.0000   1.0000   1.0000
     1.0000   1.0000   1.0000   1.0000   1.0000   1.0000   0.0000   0.0000
     0.0000   0.0000

     the Fermi energy is     8.3587 ev

!    total energy              =    -241.29890719 Ry
     Harris-Foulkes estimate   =    -241.29890717 Ry
     estimated scf accuracy    <       0.00000005 Ry

     The total energy is the sum of the following terms:

     one-electron contribution =    -109.44969172 Ry
     hartree contribution      =      65.34032393 Ry
     xc contribution           =     -29.40810428 Ry
     ewald contribution        =    -167.78134162 Ry
     smearing contrib. (-TS)   =      -0.00009350 Ry

     convergence has been achieved in   5 iterations

     Writing output data file Sn.save
 
     init_run     :      1.25s CPU      1.39s WALL (       1 calls)
     electrons    :     27.73s CPU     29.01s WALL (       1 calls)

     Called by init_run:
     wfcinit      :      1.11s CPU      1.17s WALL (       1 calls)
     potinit      :      0.01s CPU      0.01s WALL (       1 calls)

     Called by electrons:
     c_bands      :     24.80s CPU     25.92s WALL (       6 calls)
     sum_band     :      2.90s CPU      3.00s WALL (       6 calls)
     v_of_rho     :      0.02s CPU      0.02s WALL (       6 calls)
     v_h          :      0.00s CPU      0.00s WALL (       6 calls)
     v_xc         :      0.02s CPU      0.02s WALL (       6 calls)
     mix_rho      :      0.00s CPU      0.00s WALL (       6 calls)

     Called by c_bands:
     init_us_2    :      0.25s CPU      0.27s WALL (    3328 calls)
     cegterg      :     23.43s CPU     24.39s WALL (    1536 calls)

     Called by sum_band:

     Called by *egterg:
     h_psi        :     17.86s CPU     18.69s WALL (    6372 calls)
     g_psi        :      0.10s CPU      0.10s WALL (    4580 calls)
     cdiaghg      :      3.70s CPU      3.77s WALL (    5860 calls)
     cegterg:over :      1.05s CPU      1.09s WALL (    4580 calls)
     cegterg:upda :      0.34s CPU      0.35s WALL (    4580 calls)
     cegterg:last :      0.17s CPU      0.18s WALL (    1889 calls)

     Called by h_psi:
     h_psi:vloc   :     16.69s CPU     17.47s WALL (    6372 calls)
     h_psi:vnl    :      1.11s CPU      1.15s WALL (    6372 calls)
     add_vuspsi   :      0.34s CPU      0.36s WALL (    6372 calls)

     General routines
     calbec       :      0.74s CPU      0.77s WALL (    6372 calls)
     fft          :      0.03s CPU      0.03s WALL (      67 calls)
     fftw         :     17.68s CPU     18.48s WALL (  206388 calls)
     davcio       :      0.01s CPU      0.10s WALL (     256 calls)
 
     Parallel routines
     fft_scatter  :      7.41s CPU      7.78s WALL (  206455 calls)
 
     PWSCF        :    29.20s CPU        30.80s WALL

 
   This run was terminated on:   0:54:13  21Feb2020            

=------------------------------------------------------------------------------=
   JOB DONE.
=------------------------------------------------------------------------------=
