
     Program PWSCF v.5.4.0 starts on 18Feb2020 at 14: 5:36 

     This program is part of the open-source Quantum ESPRESSO suite
     for quantum simulation of materials; please cite
         "P. Giannozzi et al., J. Phys.:Condens. Matter 21 395502 (2009);
          URL http://www.quantum-espresso.org", 
     in publications or presentations arising from this work. More details at
     http://www.quantum-espresso.org/quote

     Parallel version (MPI & OpenMP), running on      16 processor cores
     Number of MPI processes:                16
     Threads/MPI process:                     1
     R & G space division:  proc/nbgrp/npool/nimage =      16
     Reading input from run.in
Warning: card &IONS ignored
Warning: card / ignored
Warning: card &CELL ignored
Warning: card / ignored

     Current dimensions of program PWSCF are:
     Max number of different atomic species (ntypx) = 10
     Max number of k-points (npk) =  40000
     Max angular momentum in pseudopotentials (lmaxx) =  3

     Subspace diagonalization in iterative solution of the eigenvalue problem:
     a serial algorithm will be used

 
     Parallelization info
     --------------------
     sticks:   dense  smooth     PW     G-vecs:    dense   smooth      PW
     Min         138     138     39                 4302     4302     650
     Max         139     139     40                 4306     4306     652
     Sum        2221    2221    637                68873    68873   10417
 


     bravais-lattice index     =            0
     lattice parameter (alat)  =       8.9528  a.u.
     unit-cell volume          =     507.4123 (a.u.)^3
     number of atoms/cell      =            2
     number of atomic types    =            1
     number of electrons       =        28.00
     number of Kohn-Sham states=           36
     kinetic-energy cutoff     =     100.0000  Ry
     charge density cutoff     =     400.0000  Ry
     convergence threshold     =      1.0E-06
     mixing beta               =       0.7000
     number of iterations used =            8  plain     mixing
     Exchange-correlation      = PBE ( 1  4  3  4 0 0)
     Non magnetic calculation with spin-orbit


     celldm(1)=   8.952796  celldm(2)=   0.000000  celldm(3)=   0.000000
     celldm(4)=   0.000000  celldm(5)=   0.000000  celldm(6)=   0.000000

     crystal axes: (cart. coord. in units of alat)
               a(1) = (   0.000000   0.707107   0.707107 )  
               a(2) = (   0.707107   0.000000   0.707107 )  
               a(3) = (   0.707107   0.707107   0.000000 )  

     reciprocal axes: (cart. coord. in units 2 pi/alat)
               b(1) = ( -0.707107  0.707107  0.707107 )  
               b(2) = (  0.707107 -0.707107  0.707107 )  
               b(3) = (  0.707107  0.707107 -0.707107 )  


     PseudoPot. # 1 for Sn read from file:
     ../PseudopotentialDatabase/Sn_ONCV_PBE_FR-1.1.upf
     MD5 check sum: 6dd2180f739ea5ae1610ead5e1628a0e
     Pseudo is Norm-conserving, Zval = 14.0
     Generated using ONCVPSP code by D. R. Hamann
     Using radial grid of  602 points, 10 beta functions with: 
                l(1) =   0
                l(2) =   0
                l(3) =   1
                l(4) =   1
                l(5) =   1
                l(6) =   1
                l(7) =   2
                l(8) =   2
                l(9) =   2
               l(10) =   2

     atomic species   valence    mass     pseudopotential
        Sn            14.00   118.71000     Sn( 1.00)

     48 Sym. Ops., with inversion, found (24 have fractional translation)



   Cartesian axes

     site n.     atom                  positions (alat units)
         1           Sn  tau(   1) = (   0.0000000   0.0000000   0.0000000  )
         2           Sn  tau(   2) = (   0.3535534   0.3535534   0.3535534  )

     number of k points=   120  gaussian smearing, width (Ry)=  0.0100

     Number of k-points >= 100: set verbosity='high' to print them.

     Dense  grid:    68873 G-vectors     FFT dimensions: (  60,  60,  60)

     Largest allocated arrays     est. size (Mb)     dimensions
        Kohn-Sham Wavefunctions         0.60 Mb     (    1086,   36)
        NL pseudopotentials             0.56 Mb     (     543,   68)
        Each V/rho on FFT grid          0.22 Mb     (   14400)
        Each G-vector array             0.03 Mb     (    4303)
        G-vector shells                 0.00 Mb     (     527)
     Largest temporary arrays     est. size (Mb)     dimensions
        Auxiliary wavefunctions         2.39 Mb     (    1086,  144)
        Each subspace H/S matrix        0.32 Mb     (     144,  144)
        Each <psi_i|beta_j> matrix      0.07 Mb     (      68,   2,   36)
        Arrays for rho mixing           1.76 Mb     (   14400,    8)

     Initial potential from superposition of free atoms

     starting charge   27.82601, renormalised to   28.00000
     Starting wfc are random

     total cpu time spent up to now is       11.0 secs

     Self-consistent Calculation

     iteration #  1     ecut=   100.00 Ry     beta=0.70
     Davidson diagonalization with overlap
     ethr =  1.00E-02,  avg # of iterations =  7.1

     Threshold (ethr) on eigenvalues was too large:
     Diagonalizing with lowered threshold

     Davidson diagonalization with overlap
     ethr =  1.18E-04,  avg # of iterations =  2.4

     total cpu time spent up to now is      124.6 secs

     total energy              =    -241.37498800 Ry
     Harris-Foulkes estimate   =    -241.38666234 Ry
     estimated scf accuracy    <       0.03180226 Ry

     iteration #  2     ecut=   100.00 Ry     beta=0.70
     Davidson diagonalization with overlap
     ethr =  1.14E-04,  avg # of iterations =  2.1

     total cpu time spent up to now is      159.4 secs

     total energy              =    -241.38041157 Ry
     Harris-Foulkes estimate   =    -241.38063824 Ry
     estimated scf accuracy    <       0.00218344 Ry

     iteration #  3     ecut=   100.00 Ry     beta=0.70
     Davidson diagonalization with overlap
     ethr =  7.80E-06,  avg # of iterations =  3.2

     total cpu time spent up to now is      193.8 secs

     total energy              =    -241.38070030 Ry
     Harris-Foulkes estimate   =    -241.38064924 Ry
     estimated scf accuracy    <       0.00016267 Ry

     iteration #  4     ecut=   100.00 Ry     beta=0.70
     Davidson diagonalization with overlap
     ethr =  5.81E-07,  avg # of iterations =  2.0

     total cpu time spent up to now is      222.4 secs

     total energy              =    -241.38071107 Ry
     Harris-Foulkes estimate   =    -241.38071122 Ry
     estimated scf accuracy    <       0.00000163 Ry

     iteration #  5     ecut=   100.00 Ry     beta=0.70
     Davidson diagonalization with overlap
     ethr =  5.83E-09,  avg # of iterations =  4.0

     total cpu time spent up to now is      264.2 secs

     End of self-consistent calculation

     Number of k-points >= 100: set verbosity='high' to print the bands.

     the Fermi energy is     8.0331 ev

!    total energy              =    -241.38071266 Ry
     Harris-Foulkes estimate   =    -241.38071269 Ry
     estimated scf accuracy    <       0.00000025 Ry

     The total energy is the sum of the following terms:

     one-electron contribution =    -111.19561942 Ry
     hartree contribution      =      65.98918874 Ry
     xc contribution           =     -29.39453423 Ry
     ewald contribution        =    -166.77966192 Ry
     smearing contrib. (-TS)   =      -0.00008583 Ry

     convergence has been achieved in   5 iterations

     Writing output data file pwscf.save
 
     init_run     :      9.22s CPU     10.58s WALL (       1 calls)
     electrons    :    235.12s CPU    253.24s WALL (       1 calls)

     Called by init_run:
     wfcinit      :      8.65s CPU      9.61s WALL (       1 calls)
     potinit      :      0.04s CPU      0.08s WALL (       1 calls)

     Called by electrons:
     c_bands      :    210.72s CPU    226.70s WALL (       6 calls)
     sum_band     :     24.27s CPU     26.35s WALL (       6 calls)
     v_of_rho     :      0.09s CPU      0.11s WALL (       6 calls)
     mix_rho      :      0.03s CPU      0.06s WALL (       6 calls)

     Called by c_bands:
     init_us_2    :      0.81s CPU      0.98s WALL (    1560 calls)
     cegterg      :    196.24s CPU    211.94s WALL (     720 calls)

     Called by sum_band:

     Called by *egterg:
     h_psi        :    161.97s CPU    176.12s WALL (    3334 calls)
     g_psi        :      0.49s CPU      0.49s WALL (    2494 calls)
     cdiaghg      :     12.69s CPU     12.97s WALL (    3094 calls)

     Called by h_psi:
     add_vuspsi   :      6.92s CPU      6.98s WALL (    3334 calls)

     General routines
     calbec       :      7.43s CPU      7.64s WALL (    3334 calls)
     fft          :      0.18s CPU      0.45s WALL (     103 calls)
     fftw         :    157.29s CPU    172.02s WALL (  411296 calls)
     davcio       :      0.05s CPU      0.58s WALL (     120 calls)
 
     Parallel routines
     fft_scatter  :     76.58s CPU     83.52s WALL (  411399 calls)
 
     PWSCF        :  4m 4.77s CPU     4m25.74s WALL

 
   This run was terminated on:  14:10: 2  18Feb2020            

=------------------------------------------------------------------------------=
   JOB DONE.
=------------------------------------------------------------------------------=
