
     Program PWSCF v.5.4.0 starts on 21Feb2020 at  0:51:56 

     This program is part of the open-source Quantum ESPRESSO suite
     for quantum simulation of materials; please cite
         "P. Giannozzi et al., J. Phys.:Condens. Matter 21 395502 (2009);
          URL http://www.quantum-espresso.org", 
     in publications or presentations arising from this work. More details at
     http://www.quantum-espresso.org/quote

     Parallel version (MPI & OpenMP), running on      16 processor cores
     Number of MPI processes:                16
     Threads/MPI process:                     1
     R & G space division:  proc/nbgrp/npool/nimage =      16
     Waiting for input...
     Reading input from standard input
Warning: card &IONS ignored
Warning: card / ignored
Warning: card &CELL ignored
Warning: card / ignored

     Current dimensions of program PWSCF are:
     Max number of different atomic species (ntypx) = 10
     Max number of k-points (npk) =  40000
     Max angular momentum in pseudopotentials (lmaxx) =  3

     Subspace diagonalization in iterative solution of the eigenvalue problem:
     a serial algorithm will be used

 
     Parallelization info
     --------------------
     sticks:   dense  smooth     PW     G-vecs:    dense   smooth      PW
     Min          80      80     23                 1931     1931     312
     Max          81      81     24                 1936     1936     316
     Sum        1285    1285    379                30923    30923    5029
 

     Title: 
     Sn                                                                         


     bravais-lattice index     =            0
     lattice parameter (alat)  =       8.8993  a.u.
     unit-cell volume          =     498.3785 (a.u.)^3
     number of atoms/cell      =            2
     number of atomic types    =            1
     number of electrons       =        28.00
     number of Kohn-Sham states=           18
     kinetic-energy cutoff     =      60.0000  Ry
     charge density cutoff     =     240.0000  Ry
     convergence threshold     =      1.0E-06
     mixing beta               =       0.7000
     number of iterations used =            8  plain     mixing
     Exchange-correlation      = PBE ( 1  4  3  4 0 0)

     celldm(1)=   8.899346  celldm(2)=   0.000000  celldm(3)=   0.000000
     celldm(4)=   0.000000  celldm(5)=   0.000000  celldm(6)=   0.000000

     crystal axes: (cart. coord. in units of alat)
               a(1) = (   0.000000   0.707107   0.707107 )  
               a(2) = (   0.707107   0.000000   0.707107 )  
               a(3) = (   0.707107   0.707107   0.000000 )  

     reciprocal axes: (cart. coord. in units 2 pi/alat)
               b(1) = ( -0.707107  0.707107  0.707107 )  
               b(2) = (  0.707107 -0.707107  0.707107 )  
               b(3) = (  0.707107  0.707107 -0.707107 )  


     PseudoPot. # 1 for Sn read from file:
     ../PseudopotentialDatabase/Sn_ONCV_PBE_FR-1.1.upf
     MD5 check sum: 6dd2180f739ea5ae1610ead5e1628a0e
     Pseudo is Norm-conserving, Zval = 14.0
     Generated using ONCVPSP code by D. R. Hamann
     Using radial grid of  602 points,  6 beta functions with: 
                l(1) =   0
                l(2) =   0
                l(3) =   1
                l(4) =   1
                l(5) =   2
                l(6) =   2

     atomic species   valence    mass     pseudopotential
        Sn            14.00   118.71000     Sn( 1.00)

     24 Sym. Ops. (no inversion) found
          (note: 24 additional sym.ops. were found but ignored
           their fractional translations are incommensurate with FFT grid)

                                    s                        frac. trans.

      isym =  1     identity                                     

 cryst.   s( 1) = (     1          0          0      )
                  (     0          1          0      )
                  (     0          0          1      )

 cart.    s( 1) = (  1.0000000  0.0000000  0.0000000 )
                  (  0.0000000  1.0000000  0.0000000 )
                  (  0.0000000  0.0000000  1.0000000 )


      isym =  2     180 deg rotation - cart. axis [0,0,1]        

 cryst.   s( 2) = (     0          1         -1      )
                  (     1          0         -1      )
                  (     0          0         -1      )

 cart.    s( 2) = ( -1.0000000  0.0000000  0.0000000 )
                  (  0.0000000 -1.0000000  0.0000000 )
                  (  0.0000000  0.0000000  1.0000000 )


      isym =  3     180 deg rotation - cart. axis [0,1,0]        

 cryst.   s( 3) = (     0         -1          1      )
                  (     0         -1          0      )
                  (     1         -1          0      )

 cart.    s( 3) = ( -1.0000000  0.0000000  0.0000000 )
                  (  0.0000000  1.0000000  0.0000000 )
                  (  0.0000000  0.0000000 -1.0000000 )


      isym =  4     180 deg rotation - cart. axis [1,0,0]        

 cryst.   s( 4) = (    -1          0          0      )
                  (    -1          0          1      )
                  (    -1          1          0      )

 cart.    s( 4) = (  1.0000000  0.0000000  0.0000000 )
                  (  0.0000000 -1.0000000  0.0000000 )
                  (  0.0000000  0.0000000 -1.0000000 )


      isym =  5     120 deg rotation - cart. axis [-1,-1,-1]     

 cryst.   s( 5) = (     0          0          1      )
                  (     1          0          0      )
                  (     0          1          0      )

 cart.    s( 5) = (  0.0000000  1.0000000  0.0000000 )
                  (  0.0000000  0.0000000  1.0000000 )
                  (  1.0000000  0.0000000  0.0000000 )


      isym =  6     120 deg rotation - cart. axis [-1,1,1]       

 cryst.   s( 6) = (     1         -1          0      )
                  (     0         -1          1      )
                  (     0         -1          0      )

 cart.    s( 6) = (  0.0000000 -1.0000000  0.0000000 )
                  (  0.0000000  0.0000000  1.0000000 )
                  ( -1.0000000  0.0000000  0.0000000 )


      isym =  7     120 deg rotation - cart. axis [1,1,-1]       

 cryst.   s( 7) = (    -1          1          0      )
                  (    -1          0          0      )
                  (    -1          0          1      )

 cart.    s( 7) = (  0.0000000  1.0000000  0.0000000 )
                  (  0.0000000  0.0000000 -1.0000000 )
                  ( -1.0000000  0.0000000  0.0000000 )


      isym =  8     120 deg rotation - cart. axis [1,-1,1]       

 cryst.   s( 8) = (     0          0         -1      )
                  (     0          1         -1      )
                  (     1          0         -1      )

 cart.    s( 8) = (  0.0000000 -1.0000000  0.0000000 )
                  (  0.0000000  0.0000000 -1.0000000 )
                  (  1.0000000  0.0000000  0.0000000 )


      isym =  9     120 deg rotation - cart. axis [1,1,1]        

 cryst.   s( 9) = (     0          1          0      )
                  (     0          0          1      )
                  (     1          0          0      )

 cart.    s( 9) = (  0.0000000  0.0000000  1.0000000 )
                  (  1.0000000  0.0000000  0.0000000 )
                  (  0.0000000  1.0000000  0.0000000 )


      isym = 10     120 deg rotation - cart. axis [-1,1,-1]      

 cryst.   s(10) = (    -1          0          1      )
                  (    -1          1          0      )
                  (    -1          0          0      )

 cart.    s(10) = (  0.0000000  0.0000000  1.0000000 )
                  ( -1.0000000  0.0000000  0.0000000 )
                  (  0.0000000 -1.0000000  0.0000000 )


      isym = 11     120 deg rotation - cart. axis [1,-1,-1]      

 cryst.   s(11) = (     1          0         -1      )
                  (     0          0         -1      )
                  (     0          1         -1      )

 cart.    s(11) = (  0.0000000  0.0000000 -1.0000000 )
                  ( -1.0000000  0.0000000  0.0000000 )
                  (  0.0000000  1.0000000  0.0000000 )


      isym = 12     120 deg rotation - cart. axis [-1,-1,1]      

 cryst.   s(12) = (     0         -1          0      )
                  (     1         -1          0      )
                  (     0         -1          1      )

 cart.    s(12) = (  0.0000000  0.0000000 -1.0000000 )
                  (  1.0000000  0.0000000  0.0000000 )
                  (  0.0000000 -1.0000000  0.0000000 )


      isym = 13     inv. 180 deg rotation - cart. axis [1,1,0]   

 cryst.   s(13) = (     1          0         -1      )
                  (     0          1         -1      )
                  (     0          0         -1      )

 cart.    s(13) = (  0.0000000 -1.0000000  0.0000000 )
                  ( -1.0000000  0.0000000  0.0000000 )
                  (  0.0000000  0.0000000  1.0000000 )


      isym = 14     inv. 180 deg rotation - cart. axis [1,-1,0]  

 cryst.   s(14) = (     0          1          0      )
                  (     1          0          0      )
                  (     0          0          1      )

 cart.    s(14) = (  0.0000000  1.0000000  0.0000000 )
                  (  1.0000000  0.0000000  0.0000000 )
                  (  0.0000000  0.0000000  1.0000000 )


      isym = 15     inv.  90 deg rotation - cart. axis [0,0,-1]  

 cryst.   s(15) = (     0         -1          0      )
                  (     0         -1          1      )
                  (     1         -1          0      )

 cart.    s(15) = (  0.0000000 -1.0000000  0.0000000 )
                  (  1.0000000  0.0000000  0.0000000 )
                  (  0.0000000  0.0000000 -1.0000000 )


      isym = 16     inv.  90 deg rotation - cart. axis [0,0,1]   

 cryst.   s(16) = (    -1          0          1      )
                  (    -1          0          0      )
                  (    -1          1          0      )

 cart.    s(16) = (  0.0000000  1.0000000  0.0000000 )
                  ( -1.0000000  0.0000000  0.0000000 )
                  (  0.0000000  0.0000000 -1.0000000 )


      isym = 17     inv. 180 deg rotation - cart. axis [1,0,1]   

 cryst.   s(17) = (     1         -1          0      )
                  (     0         -1          0      )
                  (     0         -1          1      )

 cart.    s(17) = (  0.0000000  0.0000000 -1.0000000 )
                  (  0.0000000  1.0000000  0.0000000 )
                  ( -1.0000000  0.0000000  0.0000000 )


      isym = 18     inv. 180 deg rotation - cart. axis [-1,0,1]  

 cryst.   s(18) = (     0          0          1      )
                  (     0          1          0      )
                  (     1          0          0      )

 cart.    s(18) = (  0.0000000  0.0000000  1.0000000 )
                  (  0.0000000  1.0000000  0.0000000 )
                  (  1.0000000  0.0000000  0.0000000 )


      isym = 19     inv.  90 deg rotation - cart. axis [0,1,0]   

 cryst.   s(19) = (     0          0         -1      )
                  (     1          0         -1      )
                  (     0          1         -1      )

 cart.    s(19) = (  0.0000000  0.0000000 -1.0000000 )
                  (  0.0000000 -1.0000000  0.0000000 )
                  (  1.0000000  0.0000000  0.0000000 )


      isym = 20     inv.  90 deg rotation - cart. axis [0,-1,0]  

 cryst.   s(20) = (    -1          1          0      )
                  (    -1          0          1      )
                  (    -1          0          0      )

 cart.    s(20) = (  0.0000000  0.0000000  1.0000000 )
                  (  0.0000000 -1.0000000  0.0000000 )
                  ( -1.0000000  0.0000000  0.0000000 )


      isym = 21     inv. 180 deg rotation - cart. axis [0,1,1]   

 cryst.   s(21) = (    -1          0          0      )
                  (    -1          1          0      )
                  (    -1          0          1      )

 cart.    s(21) = (  1.0000000  0.0000000  0.0000000 )
                  (  0.0000000  0.0000000 -1.0000000 )
                  (  0.0000000 -1.0000000  0.0000000 )


      isym = 22     inv. 180 deg rotation - cart. axis [0,1,-1]  

 cryst.   s(22) = (     1          0          0      )
                  (     0          0          1      )
                  (     0          1          0      )

 cart.    s(22) = (  1.0000000  0.0000000  0.0000000 )
                  (  0.0000000  0.0000000  1.0000000 )
                  (  0.0000000  1.0000000  0.0000000 )


      isym = 23     inv.  90 deg rotation - cart. axis [-1,0,0]  

 cryst.   s(23) = (     0          1         -1      )
                  (     0          0         -1      )
                  (     1          0         -1      )

 cart.    s(23) = ( -1.0000000  0.0000000  0.0000000 )
                  (  0.0000000  0.0000000 -1.0000000 )
                  (  0.0000000  1.0000000  0.0000000 )


      isym = 24     inv.  90 deg rotation - cart. axis [1,0,0]   

 cryst.   s(24) = (     0         -1          1      )
                  (     1         -1          0      )
                  (     0         -1          0      )

 cart.    s(24) = ( -1.0000000  0.0000000  0.0000000 )
                  (  0.0000000  0.0000000  1.0000000 )
                  (  0.0000000 -1.0000000  0.0000000 )


   Cartesian axes

     site n.     atom                  positions (alat units)
         1           Sn  tau(   1) = (   0.0000000   0.0000000   0.0000000  )
         2           Sn  tau(   2) = (   0.3535534   0.3535534   0.3535534  )

   Crystallographic axes

     site n.     atom                  positions (cryst. coord.)
         1           Sn  tau(   1) = (  0.0000000  0.0000000  0.0000000  )
         2           Sn  tau(   2) = (  0.2500000  0.2500000  0.2500000  )

     number of k points=   120  gaussian smearing, width (Ry)=  0.0100
                       cart. coord. in units 2pi/alat
        k(    1) = (   0.0000000   0.0000000   0.0000000), wk =   0.0005926
        k(    2) = (   0.0471405   0.0471405  -0.0471405), wk =   0.0047407
        k(    3) = (   0.0942809   0.0942809  -0.0942809), wk =   0.0047407
        k(    4) = (   0.1414214   0.1414214  -0.1414214), wk =   0.0047407
        k(    5) = (   0.1885618   0.1885618  -0.1885618), wk =   0.0047407
        k(    6) = (   0.2357023   0.2357023  -0.2357023), wk =   0.0047407
        k(    7) = (   0.2828427   0.2828427  -0.2828427), wk =   0.0047407
        k(    8) = (   0.3299832   0.3299832  -0.3299832), wk =   0.0047407
        k(    9) = (   0.0942809   0.0000000   0.0000000), wk =   0.0035556
        k(   10) = (   0.1414214   0.0471405  -0.0471405), wk =   0.0142222
        k(   11) = (   0.1885618   0.0942809  -0.0942809), wk =   0.0142222
        k(   12) = (   0.2357023   0.1414214  -0.1414214), wk =   0.0142222
        k(   13) = (   0.2828427   0.1885618  -0.1885618), wk =   0.0142222
        k(   14) = (   0.3299832   0.2357023  -0.2357023), wk =   0.0142222
        k(   15) = (   0.3771236   0.2828427  -0.2828427), wk =   0.0142222
        k(   16) = (  -0.2828427  -0.3771236   0.3771236), wk =   0.0142222
        k(   17) = (  -0.2357023  -0.3299832   0.3299832), wk =   0.0142222
        k(   18) = (  -0.1885618  -0.2828427   0.2828427), wk =   0.0142222
        k(   19) = (  -0.1414214  -0.2357023   0.2357023), wk =   0.0142222
        k(   20) = (  -0.0942809  -0.1885618   0.1885618), wk =   0.0142222
        k(   21) = (  -0.0471405  -0.1414214   0.1414214), wk =   0.0142222
        k(   22) = (   0.0000000  -0.0942809   0.0942809), wk =   0.0071111
        k(   23) = (   0.1885618   0.0000000   0.0000000), wk =   0.0035556
        k(   24) = (   0.2357023   0.0471405  -0.0471405), wk =   0.0142222
        k(   25) = (   0.2828427   0.0942809  -0.0942809), wk =   0.0142222
        k(   26) = (   0.3299832   0.1414214  -0.1414214), wk =   0.0142222
        k(   27) = (   0.3771236   0.1885618  -0.1885618), wk =   0.0142222
        k(   28) = (   0.4242641   0.2357023  -0.2357023), wk =   0.0142222
        k(   29) = (  -0.2357023  -0.4242641   0.4242641), wk =   0.0142222
        k(   30) = (  -0.1885618  -0.3771236   0.3771236), wk =   0.0142222
        k(   31) = (  -0.1414214  -0.3299832   0.3299832), wk =   0.0142222
        k(   32) = (  -0.0942809  -0.2828427   0.2828427), wk =   0.0142222
        k(   33) = (  -0.0471405  -0.2357023   0.2357023), wk =   0.0142222
        k(   34) = (   0.0000000  -0.1885618   0.1885618), wk =   0.0071111
        k(   35) = (   0.2828427   0.0000000   0.0000000), wk =   0.0035556
        k(   36) = (   0.3299832   0.0471405  -0.0471405), wk =   0.0142222
        k(   37) = (   0.3771236   0.0942809  -0.0942809), wk =   0.0142222
        k(   38) = (   0.4242641   0.1414214  -0.1414214), wk =   0.0142222
        k(   39) = (   0.4714045   0.1885618  -0.1885618), wk =   0.0142222
        k(   40) = (  -0.1885618  -0.4714045   0.4714045), wk =   0.0142222
        k(   41) = (  -0.1414214  -0.4242641   0.4242641), wk =   0.0142222
        k(   42) = (  -0.0942809  -0.3771236   0.3771236), wk =   0.0142222
        k(   43) = (  -0.0471405  -0.3299832   0.3299832), wk =   0.0142222
        k(   44) = (   0.0000000  -0.2828427   0.2828427), wk =   0.0071111
        k(   45) = (   0.3771236   0.0000000   0.0000000), wk =   0.0035556
        k(   46) = (   0.4242641   0.0471405  -0.0471405), wk =   0.0142222
        k(   47) = (   0.4714045   0.0942809  -0.0942809), wk =   0.0142222
        k(   48) = (   0.5185450   0.1414214  -0.1414214), wk =   0.0142222
        k(   49) = (  -0.1414214  -0.5185450   0.5185450), wk =   0.0142222
        k(   50) = (  -0.0942809  -0.4714045   0.4714045), wk =   0.0142222
        k(   51) = (  -0.0471405  -0.4242641   0.4242641), wk =   0.0142222
        k(   52) = (  -0.0000000  -0.3771236   0.3771236), wk =   0.0071111
        k(   53) = (   0.4714045   0.0000000   0.0000000), wk =   0.0035556
        k(   54) = (   0.5185450   0.0471405  -0.0471405), wk =   0.0142222
        k(   55) = (   0.5656854   0.0942809  -0.0942809), wk =   0.0142222
        k(   56) = (  -0.0942809  -0.5656854   0.5656854), wk =   0.0142222
        k(   57) = (  -0.0471405  -0.5185450   0.5185450), wk =   0.0142222
        k(   58) = (  -0.0000000  -0.4714045   0.4714045), wk =   0.0071111
        k(   59) = (   0.5656854   0.0000000   0.0000000), wk =   0.0035556
        k(   60) = (   0.6128259   0.0471405  -0.0471405), wk =   0.0142222
        k(   61) = (  -0.0471405  -0.6128259   0.6128259), wk =   0.0142222
        k(   62) = (   0.0000000  -0.5656854   0.5656854), wk =   0.0071111
        k(   63) = (   0.6599663   0.0000000   0.0000000), wk =   0.0035556
        k(   64) = (   0.0000000  -0.6599663   0.6599663), wk =   0.0071111
        k(   65) = (   0.1885618   0.0942809  -0.0000000), wk =   0.0142222
        k(   66) = (   0.2357023   0.1414214  -0.0471405), wk =   0.0284444
        k(   67) = (   0.2828427   0.1885618  -0.0942809), wk =   0.0284444
        k(   68) = (   0.3299832   0.2357023  -0.1414214), wk =   0.0284444
        k(   69) = (   0.3771236   0.2828427  -0.1885618), wk =   0.0284444
        k(   70) = (  -0.2828427  -0.3771236   0.4714045), wk =   0.0284444
        k(   71) = (   0.2828427   0.0942809   0.0000000), wk =   0.0142222
        k(   72) = (   0.3299832   0.1414214  -0.0471405), wk =   0.0284444
        k(   73) = (   0.3771236   0.1885618  -0.0942809), wk =   0.0284444
        k(   74) = (   0.4242641   0.2357023  -0.1414214), wk =   0.0284444
        k(   75) = (  -0.2357023  -0.4242641   0.5185450), wk =   0.0284444
        k(   76) = (  -0.1885618  -0.3771236   0.4714045), wk =   0.0284444
        k(   77) = (  -0.1414214  -0.3299832   0.4242641), wk =   0.0284444
        k(   78) = (  -0.0942809  -0.2828427   0.3771236), wk =   0.0284444
        k(   79) = (  -0.0471405  -0.2357023   0.3299832), wk =   0.0284444
        k(   80) = (   0.0000000  -0.1885618   0.2828427), wk =   0.0142222
        k(   81) = (   0.3771236   0.0942809   0.0000000), wk =   0.0142222
        k(   82) = (   0.4242641   0.1414214  -0.0471405), wk =   0.0284444
        k(   83) = (   0.4714045   0.1885618  -0.0942809), wk =   0.0284444
        k(   84) = (  -0.1885618  -0.4714045   0.5656854), wk =   0.0284444
        k(   85) = (  -0.1414214  -0.4242641   0.5185450), wk =   0.0284444
        k(   86) = (  -0.0942809  -0.3771236   0.4714045), wk =   0.0284444
        k(   87) = (  -0.0471405  -0.3299832   0.4242641), wk =   0.0284444
        k(   88) = (   0.0000000  -0.2828427   0.3771236), wk =   0.0142222
        k(   89) = (   0.4714045   0.0942809  -0.0000000), wk =   0.0142222
        k(   90) = (   0.5185450   0.1414214  -0.0471405), wk =   0.0284444
        k(   91) = (  -0.1414214  -0.5185450   0.6128259), wk =   0.0284444
        k(   92) = (  -0.0942809  -0.4714045   0.5656854), wk =   0.0284444
        k(   93) = (  -0.0471405  -0.4242641   0.5185450), wk =   0.0284444
        k(   94) = (  -0.0000000  -0.3771236   0.4714045), wk =   0.0142222
        k(   95) = (   0.5656854   0.0942809   0.0000000), wk =   0.0142222
        k(   96) = (  -0.0942809  -0.5656854   0.6599663), wk =   0.0284444
        k(   97) = (  -0.0471405  -0.5185450   0.6128259), wk =   0.0284444
        k(   98) = (   0.0000000  -0.4714045   0.5656854), wk =   0.0142222
        k(   99) = (  -0.0471405  -0.6128259   0.7071068), wk =   0.0142222
        k(  100) = (   0.0000000  -0.5656854   0.6599663), wk =   0.0142222
        k(  101) = (   0.3771236   0.1885618  -0.0000000), wk =   0.0142222
        k(  102) = (   0.4242641   0.2357023  -0.0471405), wk =   0.0284444
        k(  103) = (  -0.2357023  -0.4242641   0.6128259), wk =   0.0284444
        k(  104) = (  -0.1885618  -0.3771236   0.5656854), wk =   0.0284444
        k(  105) = (   0.4714045   0.1885618  -0.0000000), wk =   0.0142222
        k(  106) = (  -0.1885618  -0.4714045   0.6599663), wk =   0.0284444
        k(  107) = (  -0.1414214  -0.4242641   0.6128259), wk =   0.0284444
        k(  108) = (  -0.0942809  -0.3771236   0.5656854), wk =   0.0284444
        k(  109) = (  -0.0471405  -0.3299832   0.5185450), wk =   0.0284444
        k(  110) = (   0.0000000  -0.2828427   0.4714045), wk =   0.0142222
        k(  111) = (  -0.1414214  -0.5185450   0.7071068), wk =   0.0142222
        k(  112) = (  -0.0942809  -0.4714045   0.6599663), wk =   0.0284444
        k(  113) = (  -0.0471405  -0.4242641   0.6128259), wk =   0.0284444
        k(  114) = (   0.0000000  -0.3771236   0.5656854), wk =   0.0142222
        k(  115) = (  -0.0471405  -0.5185450   0.7071068), wk =   0.0142222
        k(  116) = (   0.0000000  -0.4714045   0.6599663), wk =   0.0142222
        k(  117) = (  -0.1414214  -0.4242641   0.7071068), wk =   0.0142222
        k(  118) = (  -0.0942809  -0.3771236   0.6599663), wk =   0.0284444
        k(  119) = (  -0.0471405  -0.4242641   0.7071068), wk =   0.0142222
        k(  120) = (  -0.0000000  -0.3771236   0.6599663), wk =   0.0142222

                       cryst. coord.
        k(    1) = (   0.0000000   0.0000000   0.0000000), wk =   0.0005926
        k(    2) = (   0.0000000   0.0000000   0.0666667), wk =   0.0047407
        k(    3) = (   0.0000000   0.0000000   0.1333333), wk =   0.0047407
        k(    4) = (   0.0000000   0.0000000   0.2000000), wk =   0.0047407
        k(    5) = (   0.0000000   0.0000000   0.2666667), wk =   0.0047407
        k(    6) = (   0.0000000   0.0000000   0.3333333), wk =   0.0047407
        k(    7) = (   0.0000000   0.0000000   0.4000000), wk =   0.0047407
        k(    8) = (   0.0000000   0.0000000   0.4666667), wk =   0.0047407
        k(    9) = (   0.0000000   0.0666667   0.0666667), wk =   0.0035556
        k(   10) = (   0.0000000   0.0666667   0.1333333), wk =   0.0142222
        k(   11) = (   0.0000000   0.0666667   0.2000000), wk =   0.0142222
        k(   12) = (   0.0000000   0.0666667   0.2666667), wk =   0.0142222
        k(   13) = (   0.0000000   0.0666667   0.3333333), wk =   0.0142222
        k(   14) = (   0.0000000   0.0666667   0.4000000), wk =   0.0142222
        k(   15) = (   0.0000000   0.0666667   0.4666667), wk =   0.0142222
        k(   16) = (   0.0000000   0.0666667  -0.4666667), wk =   0.0142222
        k(   17) = (   0.0000000   0.0666667  -0.4000000), wk =   0.0142222
        k(   18) = (   0.0000000   0.0666667  -0.3333333), wk =   0.0142222
        k(   19) = (   0.0000000   0.0666667  -0.2666667), wk =   0.0142222
        k(   20) = (   0.0000000   0.0666667  -0.2000000), wk =   0.0142222
        k(   21) = (   0.0000000   0.0666667  -0.1333333), wk =   0.0142222
        k(   22) = (   0.0000000   0.0666667  -0.0666667), wk =   0.0071111
        k(   23) = (   0.0000000   0.1333333   0.1333333), wk =   0.0035556
        k(   24) = (   0.0000000   0.1333333   0.2000000), wk =   0.0142222
        k(   25) = (   0.0000000   0.1333333   0.2666667), wk =   0.0142222
        k(   26) = (   0.0000000   0.1333333   0.3333333), wk =   0.0142222
        k(   27) = (   0.0000000   0.1333333   0.4000000), wk =   0.0142222
        k(   28) = (   0.0000000   0.1333333   0.4666667), wk =   0.0142222
        k(   29) = (   0.0000000   0.1333333  -0.4666667), wk =   0.0142222
        k(   30) = (   0.0000000   0.1333333  -0.4000000), wk =   0.0142222
        k(   31) = (   0.0000000   0.1333333  -0.3333333), wk =   0.0142222
        k(   32) = (   0.0000000   0.1333333  -0.2666667), wk =   0.0142222
        k(   33) = (   0.0000000   0.1333333  -0.2000000), wk =   0.0142222
        k(   34) = (   0.0000000   0.1333333  -0.1333333), wk =   0.0071111
        k(   35) = (   0.0000000   0.2000000   0.2000000), wk =   0.0035556
        k(   36) = (   0.0000000   0.2000000   0.2666667), wk =   0.0142222
        k(   37) = (   0.0000000   0.2000000   0.3333333), wk =   0.0142222
        k(   38) = (   0.0000000   0.2000000   0.4000000), wk =   0.0142222
        k(   39) = (   0.0000000   0.2000000   0.4666667), wk =   0.0142222
        k(   40) = (   0.0000000   0.2000000  -0.4666667), wk =   0.0142222
        k(   41) = (   0.0000000   0.2000000  -0.4000000), wk =   0.0142222
        k(   42) = (   0.0000000   0.2000000  -0.3333333), wk =   0.0142222
        k(   43) = (   0.0000000   0.2000000  -0.2666667), wk =   0.0142222
        k(   44) = (   0.0000000   0.2000000  -0.2000000), wk =   0.0071111
        k(   45) = (   0.0000000   0.2666667   0.2666667), wk =   0.0035556
        k(   46) = (   0.0000000   0.2666667   0.3333333), wk =   0.0142222
        k(   47) = (   0.0000000   0.2666667   0.4000000), wk =   0.0142222
        k(   48) = (   0.0000000   0.2666667   0.4666667), wk =   0.0142222
        k(   49) = (   0.0000000   0.2666667  -0.4666667), wk =   0.0142222
        k(   50) = (   0.0000000   0.2666667  -0.4000000), wk =   0.0142222
        k(   51) = (   0.0000000   0.2666667  -0.3333333), wk =   0.0142222
        k(   52) = (   0.0000000   0.2666667  -0.2666667), wk =   0.0071111
        k(   53) = (   0.0000000   0.3333333   0.3333333), wk =   0.0035556
        k(   54) = (   0.0000000   0.3333333   0.4000000), wk =   0.0142222
        k(   55) = (   0.0000000   0.3333333   0.4666667), wk =   0.0142222
        k(   56) = (   0.0000000   0.3333333  -0.4666667), wk =   0.0142222
        k(   57) = (   0.0000000   0.3333333  -0.4000000), wk =   0.0142222
        k(   58) = (   0.0000000   0.3333333  -0.3333333), wk =   0.0071111
        k(   59) = (   0.0000000   0.4000000   0.4000000), wk =   0.0035556
        k(   60) = (   0.0000000   0.4000000   0.4666667), wk =   0.0142222
        k(   61) = (   0.0000000   0.4000000  -0.4666667), wk =   0.0142222
        k(   62) = (   0.0000000   0.4000000  -0.4000000), wk =   0.0071111
        k(   63) = (   0.0000000   0.4666667   0.4666667), wk =   0.0035556
        k(   64) = (   0.0000000   0.4666667  -0.4666667), wk =   0.0071111
        k(   65) = (   0.0666667   0.1333333   0.2000000), wk =   0.0142222
        k(   66) = (   0.0666667   0.1333333   0.2666667), wk =   0.0284444
        k(   67) = (   0.0666667   0.1333333   0.3333333), wk =   0.0284444
        k(   68) = (   0.0666667   0.1333333   0.4000000), wk =   0.0284444
        k(   69) = (   0.0666667   0.1333333   0.4666667), wk =   0.0284444
        k(   70) = (   0.0666667   0.1333333  -0.4666667), wk =   0.0284444
        k(   71) = (   0.0666667   0.2000000   0.2666667), wk =   0.0142222
        k(   72) = (   0.0666667   0.2000000   0.3333333), wk =   0.0284444
        k(   73) = (   0.0666667   0.2000000   0.4000000), wk =   0.0284444
        k(   74) = (   0.0666667   0.2000000   0.4666667), wk =   0.0284444
        k(   75) = (   0.0666667   0.2000000  -0.4666667), wk =   0.0284444
        k(   76) = (   0.0666667   0.2000000  -0.4000000), wk =   0.0284444
        k(   77) = (   0.0666667   0.2000000  -0.3333333), wk =   0.0284444
        k(   78) = (   0.0666667   0.2000000  -0.2666667), wk =   0.0284444
        k(   79) = (   0.0666667   0.2000000  -0.2000000), wk =   0.0284444
        k(   80) = (   0.0666667   0.2000000  -0.1333333), wk =   0.0142222
        k(   81) = (   0.0666667   0.2666667   0.3333333), wk =   0.0142222
        k(   82) = (   0.0666667   0.2666667   0.4000000), wk =   0.0284444
        k(   83) = (   0.0666667   0.2666667   0.4666667), wk =   0.0284444
        k(   84) = (   0.0666667   0.2666667  -0.4666667), wk =   0.0284444
        k(   85) = (   0.0666667   0.2666667  -0.4000000), wk =   0.0284444
        k(   86) = (   0.0666667   0.2666667  -0.3333333), wk =   0.0284444
        k(   87) = (   0.0666667   0.2666667  -0.2666667), wk =   0.0284444
        k(   88) = (   0.0666667   0.2666667  -0.2000000), wk =   0.0142222
        k(   89) = (   0.0666667   0.3333333   0.4000000), wk =   0.0142222
        k(   90) = (   0.0666667   0.3333333   0.4666667), wk =   0.0284444
        k(   91) = (   0.0666667   0.3333333  -0.4666667), wk =   0.0284444
        k(   92) = (   0.0666667   0.3333333  -0.4000000), wk =   0.0284444
        k(   93) = (   0.0666667   0.3333333  -0.3333333), wk =   0.0284444
        k(   94) = (   0.0666667   0.3333333  -0.2666667), wk =   0.0142222
        k(   95) = (   0.0666667   0.4000000   0.4666667), wk =   0.0142222
        k(   96) = (   0.0666667   0.4000000  -0.4666667), wk =   0.0284444
        k(   97) = (   0.0666667   0.4000000  -0.4000000), wk =   0.0284444
        k(   98) = (   0.0666667   0.4000000  -0.3333333), wk =   0.0142222
        k(   99) = (   0.0666667   0.4666667  -0.4666667), wk =   0.0142222
        k(  100) = (   0.0666667   0.4666667  -0.4000000), wk =   0.0142222
        k(  101) = (   0.1333333   0.2666667   0.4000000), wk =   0.0142222
        k(  102) = (   0.1333333   0.2666667   0.4666667), wk =   0.0284444
        k(  103) = (   0.1333333   0.2666667  -0.4666667), wk =   0.0284444
        k(  104) = (   0.1333333   0.2666667  -0.4000000), wk =   0.0284444
        k(  105) = (   0.1333333   0.3333333   0.4666667), wk =   0.0142222
        k(  106) = (   0.1333333   0.3333333  -0.4666667), wk =   0.0284444
        k(  107) = (   0.1333333   0.3333333  -0.4000000), wk =   0.0284444
        k(  108) = (   0.1333333   0.3333333  -0.3333333), wk =   0.0284444
        k(  109) = (   0.1333333   0.3333333  -0.2666667), wk =   0.0284444
        k(  110) = (   0.1333333   0.3333333  -0.2000000), wk =   0.0142222
        k(  111) = (   0.1333333   0.4000000  -0.4666667), wk =   0.0142222
        k(  112) = (   0.1333333   0.4000000  -0.4000000), wk =   0.0284444
        k(  113) = (   0.1333333   0.4000000  -0.3333333), wk =   0.0284444
        k(  114) = (   0.1333333   0.4000000  -0.2666667), wk =   0.0142222
        k(  115) = (   0.1333333   0.4666667  -0.4000000), wk =   0.0142222
        k(  116) = (   0.1333333   0.4666667  -0.3333333), wk =   0.0142222
        k(  117) = (   0.2000000   0.4000000  -0.4000000), wk =   0.0142222
        k(  118) = (   0.2000000   0.4000000  -0.3333333), wk =   0.0284444
        k(  119) = (   0.2000000   0.4666667  -0.3333333), wk =   0.0142222
        k(  120) = (   0.2000000   0.4666667  -0.2666667), wk =   0.0142222

     Dense  grid:    30923 G-vectors     FFT dimensions: (  45,  45,  45)

     Largest allocated arrays     est. size (Mb)     dimensions
        Kohn-Sham Wavefunctions         0.07 Mb     (     256,   18)
        NL pseudopotentials             0.14 Mb     (     256,   36)
        Each V/rho on FFT grid          0.09 Mb     (    6075)
        Each G-vector array             0.01 Mb     (    1932)
        G-vector shells                 0.00 Mb     (     295)
     Largest temporary arrays     est. size (Mb)     dimensions
        Auxiliary wavefunctions         0.28 Mb     (     256,   72)
        Each subspace H/S matrix        0.08 Mb     (      72,   72)
        Each <psi_i|beta_j> matrix      0.01 Mb     (      36,   18)
        Arrays for rho mixing           0.74 Mb     (    6075,    8)

     Initial potential from superposition of free atoms

     starting charge   27.82601, renormalised to   28.00000
     Starting wfc are random

     total cpu time spent up to now is        2.6 secs

     Self-consistent Calculation

     iteration #  1     ecut=    60.00 Ry     beta=0.70
     Davidson diagonalization with overlap
     ethr =  1.00E-02,  avg # of iterations =  6.9

     total cpu time spent up to now is       22.0 secs

     total energy              =    -233.13986461 Ry
     Harris-Foulkes estimate   =    -234.57578071 Ry
     estimated scf accuracy    <       2.29182272 Ry

     iteration #  2     ecut=    60.00 Ry     beta=0.70
     Davidson diagonalization with overlap
     ethr =  8.19E-03,  avg # of iterations =  2.0

     total cpu time spent up to now is       29.5 secs

     total energy              =    -233.44496947 Ry
     Harris-Foulkes estimate   =    -233.46928525 Ry
     estimated scf accuracy    <       0.06238306 Ry

     iteration #  3     ecut=    60.00 Ry     beta=0.70
     Davidson diagonalization with overlap
     ethr =  2.23E-04,  avg # of iterations =  2.2

     total cpu time spent up to now is       36.4 secs

     total energy              =    -233.44792216 Ry
     Harris-Foulkes estimate   =    -233.44877923 Ry
     estimated scf accuracy    <       0.00283361 Ry

     iteration #  4     ecut=    60.00 Ry     beta=0.70
     Davidson diagonalization with overlap
     ethr =  1.01E-05,  avg # of iterations =  2.1

     total cpu time spent up to now is       42.8 secs

     total energy              =    -233.44807257 Ry
     Harris-Foulkes estimate   =    -233.44807019 Ry
     estimated scf accuracy    <       0.00002865 Ry

     iteration #  5     ecut=    60.00 Ry     beta=0.70
     Davidson diagonalization with overlap
     ethr =  1.02E-07,  avg # of iterations =  2.7

     total cpu time spent up to now is       50.0 secs

     End of self-consistent calculation

          k = 0.0000 0.0000 0.0000 (  3839 PWs)   bands (ev):

   -12.3721 -12.3721 -12.3721 -12.3204 -12.3204 -12.1081 -12.1081 -12.1081
   -12.0983 -12.0983  -2.3994   5.2270   8.6191   8.6191   8.6191  10.8769
    10.8769  10.8769

     occupation numbers 
     1.0000   1.0000   1.0000   1.0000   1.0000   1.0000   1.0000   1.0000
     1.0000   1.0000   1.0000   1.0000   0.0007   0.0007   0.0007   0.0000
     0.0000   0.0000

          k = 0.0471 0.0471-0.0471 (  3861 PWs)   bands (ev):

   -12.3744 -12.3744 -12.3713 -12.3172 -12.3172 -12.1138 -12.1138 -12.1092
   -12.0931 -12.0931  -2.3617   5.0396   8.5391   8.5391   8.5889  10.9708
    10.9799  10.9799

     occupation numbers 
     1.0000   1.0000   1.0000   1.0000   1.0000   1.0000   1.0000   1.0000
     1.0000   1.0000   1.0000   1.0000   0.0095   0.0095   0.0021   0.0000
     0.0000   0.0000

          k = 0.0943 0.0943-0.0943 (  3882 PWs)   bands (ev):

   -12.3797 -12.3797 -12.3691 -12.3094 -12.3094 -12.1226 -12.1226 -12.1122
   -12.0860 -12.0860  -2.2497   4.5535   8.3440   8.3440   8.4689  11.2336
    11.2336  11.3052

     occupation numbers 
     1.0000   1.0000   1.0000   1.0000   1.0000   1.0000   1.0000   1.0000
     1.0000   1.0000   1.0000   1.0000   0.3749   0.3749   0.0530   0.0000
     0.0000   0.0000

          k = 0.1414 0.1414-0.1414 (  3897 PWs)   bands (ev):

   -12.3855 -12.3855 -12.3658 -12.3000 -12.3000 -12.1309 -12.1309 -12.1167
   -12.0798 -12.0798  -2.0679   3.9092   8.1106   8.1106   8.2727  11.5339
    11.5339  11.8876

     occupation numbers 
     1.0000   1.0000   1.0000   1.0000   1.0000   1.0000   1.0000   1.0000
     1.0000   1.0000   1.0000   1.0000   0.9825   0.9825   0.6637   0.0000
     0.0000   0.0000

          k = 0.1886 0.1886-0.1886 (  3897 PWs)   bands (ev):

   -12.3905 -12.3905 -12.3618 -12.2914 -12.2914 -12.1377 -12.1377 -12.1220
   -12.0752 -12.0752  -1.8262   3.2190   7.8902   7.8902   8.0638  11.7952
    11.7953  12.6486

     occupation numbers 
     1.0000   1.0000   1.0000   1.0000   1.0000   1.0000   1.0000   1.0000
     1.0000   1.0000   1.0000   1.0000   1.0000   1.0000   0.9953   0.0000
     0.0000   0.0000

          k = 0.2357 0.2357-0.2357 (  3897 PWs)   bands (ev):

   -12.3941 -12.3941 -12.3579 -12.2847 -12.2847 -12.1424 -12.1424 -12.1272
   -12.0720 -12.0720  -1.5449   2.5642   7.7101   7.7101   7.8870  11.9731
    11.9731  13.5164

     occupation numbers 
     1.0000   1.0000   1.0000   1.0000   1.0000   1.0000   1.0000   1.0000
     1.0000   1.0000   1.0000   1.0000   1.0000   1.0000   1.0000   0.0000
     0.0000   0.0000

          k = 0.2828 0.2828-0.2828 (  3882 PWs)   bands (ev):

   -12.3963 -12.3963 -12.3548 -12.2803 -12.2803 -12.1452 -12.1452 -12.1313
   -12.0701 -12.0701  -1.2672   2.0226   7.5844   7.5844   7.7627  12.0682
    12.0682  14.3208

     occupation numbers 
     1.0000   1.0000   1.0000   1.0000   1.0000   1.0000   1.0000   1.0000
     1.0000   1.0000   1.0000   1.0000   1.0000   1.0000   1.0000   0.0000
     0.0000   0.0000

          k = 0.3300 0.3300-0.3300 (  3879 PWs)   bands (ev):

   -12.3974 -12.3974 -12.3530 -12.2782 -12.2782 -12.1464 -12.1464 -12.1336
   -12.0693 -12.0693  -1.0776   1.6970   7.5201   7.5201   7.6992  12.1056
    12.1057  14.5150

     occupation numbers 
     1.0000   1.0000   1.0000   1.0000   1.0000   1.0000   1.0000   1.0000
     1.0000   1.0000   1.0000   1.0000   1.0000   1.0000   1.0000   0.0000
     0.0000   0.0000

          k = 0.0943 0.0000 0.0000 (  3863 PWs)   bands (ev):

   -12.3740 -12.3740 -12.3737 -12.3179 -12.3141 -12.1232 -12.1055 -12.1055
   -12.1007 -12.0891  -2.3490   4.9844   8.4003   8.4003   8.8362  10.6847
    11.1587  11.1587

     occupation numbers 
     1.0000   1.0000   1.0000   1.0000   1.0000   1.0000   1.0000   1.0000
     1.0000   1.0000   1.0000   1.0000   0.1830   0.1830   0.0000   0.0000
     0.0000   0.0000

          k = 0.1414 0.0471-0.0471 (  3879 PWs)   bands (ev):

   -12.3795 -12.3775 -12.3715 -12.3129 -12.3061 -12.1337 -12.1121 -12.1055
   -12.0945 -12.0834  -2.2614   4.6145   8.1657   8.1771   8.9458  10.6618
    11.4607  11.4906

     occupation numbers 
     1.0000   1.0000   1.0000   1.0000   1.0000   1.0000   1.0000   1.0000
     1.0000   1.0000   1.0000   1.0000   0.9375   0.9216   0.0000   0.0000
     0.0000   0.0000

          k = 0.1886 0.0943-0.0943 (  3887 PWs)   bands (ev):

   -12.3862 -12.3828 -12.3675 -12.3048 -12.2962 -12.1432 -12.1210 -12.1093
   -12.0871 -12.0772  -2.1022   4.0429   7.8677   7.9389   8.8928  10.9006
    11.7879  11.9588

     occupation numbers 
     1.0000   1.0000   1.0000   1.0000   1.0000   1.0000   1.0000   1.0000
     1.0000   1.0000   1.0000   1.0000   1.0000   1.0000   0.0000   0.0000
     0.0000   0.0000

          k = 0.2357 0.1414-0.1414 (  3911 PWs)   bands (ev):

   -12.3923 -12.3880 -12.3624 -12.2961 -12.2869 -12.1508 -12.1290 -12.1155
   -12.0808 -12.0717  -1.8790   3.3851   7.5659   7.7280   8.7488  11.2629
    12.0597  12.5339

     occupation numbers 
     1.0000   1.0000   1.0000   1.0000   1.0000   1.0000   1.0000   1.0000
     1.0000   1.0000   1.0000   1.0000   1.0000   1.0000   0.0000   0.0000
     0.0000   0.0000

          k = 0.2828 0.1886-0.1886 (  3891 PWs)   bands (ev):

   -12.3971 -12.3923 -12.3569 -12.2882 -12.2797 -12.1553 -12.1359 -12.1228
   -12.0759 -12.0676  -1.6074   2.7292   7.3047   7.5667   8.5868  11.5920
    12.2282  13.2088

     occupation numbers 
     1.0000   1.0000   1.0000   1.0000   1.0000   1.0000   1.0000   1.0000
     1.0000   1.0000   1.0000   1.0000   1.0000   1.0000   0.0022   0.0000
     0.0000   0.0000

          k = 0.3300 0.2357-0.2357 (  3896 PWs)   bands (ev):

   -12.4002 -12.3955 -12.3519 -12.2820 -12.2756 -12.1563 -12.1417 -12.1298
   -12.0722 -12.0651  -1.3210   2.1517   7.1046   7.4661   8.4484  11.8157
    12.2912  13.9351

     occupation numbers 
     1.0000   1.0000   1.0000   1.0000   1.0000   1.0000   1.0000   1.0000
     1.0000   1.0000   1.0000   1.0000   1.0000   1.0000   0.0802   0.0000
     0.0000   0.0000

          k = 0.3771 0.2828-0.2828 (  3897 PWs)   bands (ev):

   -12.4017 -12.3976 -12.3484 -12.2774 -12.2747 -12.1539 -12.1464 -12.1356
   -12.0694 -12.0642  -1.0889   1.7462   6.9738   7.4315   8.3537  11.9511
    12.2779  14.4401

     occupation numbers 
     1.0000   1.0000   1.0000   1.0000   1.0000   1.0000   1.0000   1.0000
     1.0000   1.0000   1.0000   1.0000   1.0000   1.0000   0.3373   0.0000
     0.0000   0.0000

          k =-0.2828-0.3771 0.3771 (  3891 PWs)   bands (ev):

   -12.4017 -12.3986 -12.3472 -12.2763 -12.2747 -12.1501 -12.1492 -12.1389
   -12.0675 -12.0650  -1.0179   1.6312   6.9166   7.4636   8.3118  12.0359
    12.2168  14.5470

     occupation numbers 
     1.0000   1.0000   1.0000   1.0000   1.0000   1.0000   1.0000   1.0000
     1.0000   1.0000   1.0000   1.0000   1.0000   1.0000   0.5062   0.0000
     0.0000   0.0000

          k =-0.2357-0.3300 0.3300 (  3894 PWs)   bands (ev):

   -12.4002 -12.3986 -12.3485 -12.2797 -12.2743 -12.1522 -12.1449 -12.1373
   -12.0672 -12.0667  -1.1545   1.8561   6.9357   7.5603   8.3252  12.0831
    12.1177  14.3620

     occupation numbers 
     1.0000   1.0000   1.0000   1.0000   1.0000   1.0000   1.0000   1.0000
     1.0000   1.0000   1.0000   1.0000   1.0000   1.0000   0.4508   0.0000
     0.0000   0.0000

          k =-0.1886-0.2828 0.2828 (  3903 PWs)   bands (ev):

   -12.3973 -12.3973 -12.3522 -12.2846 -12.2767 -12.1519 -12.1426 -12.1300
   -12.0710 -12.0671  -1.4156   2.3318   7.0332   7.7157   8.3908  11.9700
    12.0672  13.7093

     occupation numbers 
     1.0000   1.0000   1.0000   1.0000   1.0000   1.0000   1.0000   1.0000
     1.0000   1.0000   1.0000   1.0000   1.0000   1.0000   0.2104   0.0000
     0.0000   0.0000

          k =-0.1414-0.2357 0.2357 (  3899 PWs)   bands (ev):

   -12.3945 -12.3929 -12.3573 -12.2910 -12.2824 -12.1486 -12.1392 -12.1211
   -12.0762 -12.0690  -1.7025   2.9438   7.2108   7.9190   8.4976  11.7569
    11.9197  12.9730

     occupation numbers 
     1.0000   1.0000   1.0000   1.0000   1.0000   1.0000   1.0000   1.0000
     1.0000   1.0000   1.0000   1.0000   1.0000   1.0000   0.0277   0.0000
     0.0000   0.0000

          k =-0.0943-0.1886 0.1886 (  3892 PWs)   bands (ev):

   -12.3902 -12.3874 -12.3628 -12.2987 -12.2910 -12.1423 -12.1337 -12.1124
   -12.0829 -12.0727  -1.9604   3.6073   7.4680   8.1505   8.6201  11.4836
    11.5821  12.3870

     occupation numbers 
     1.0000   1.0000   1.0000   1.0000   1.0000   1.0000   1.0000   1.0000
     1.0000   1.0000   1.0000   1.0000   1.0000   0.9547   0.0007   0.0000
     0.0000   0.0000

          k =-0.0471-0.1414 0.1414 (  3882 PWs)   bands (ev):

   -12.3847 -12.3811 -12.3677 -12.3070 -12.3010 -12.1338 -12.1267 -12.1051
   -12.0907 -12.0781  -2.1633   4.2449   7.7985   8.3740   8.7070  11.1880
    11.2004  11.9029

     occupation numbers 
     1.0000   1.0000   1.0000   1.0000   1.0000   1.0000   1.0000   1.0000
     1.0000   1.0000   1.0000   1.0000   1.0000   0.2642   0.0000   0.0000
     0.0000   0.0000

          k = 0.0000-0.0943 0.0943 (  3879 PWs)   bands (ev):

   -12.3788 -12.3759 -12.3709 -12.3141 -12.3107 -12.1240 -12.1188 -12.1029
   -12.0961 -12.0850  -2.2990   4.7618   8.1795   8.5272   8.6922  10.9624
    11.0001  11.4228

     occupation numbers 
     1.0000   1.0000   1.0000   1.0000   1.0000   1.0000   1.0000   1.0000
     1.0000   1.0000   1.0000   1.0000   0.9179   0.0131   0.0000   0.0000
     0.0000   0.0000

          k = 0.1886 0.0000 0.0000 (  3887 PWs)   bands (ev):

   -12.3790 -12.3790 -12.3756 -12.3106 -12.2978 -12.1469 -12.1077 -12.0985
   -12.0985 -12.0824  -2.1982   4.3986   7.9418   7.9418   9.3194  10.2960
    11.8031  11.8032

     occupation numbers 
     1.0000   1.0000   1.0000   1.0000   1.0000   1.0000   1.0000   1.0000
     1.0000   1.0000   1.0000   1.0000   0.9999   0.9999   0.0000   0.0000
     0.0000   0.0000

          k = 0.2357 0.0471-0.0471 (  3899 PWs)   bands (ev):

   -12.3857 -12.3831 -12.3718 -12.3041 -12.2873 -12.1592 -12.1158 -12.0985
   -12.0913 -12.0782  -2.0622   3.9601   7.6510   7.7009   9.4689  10.2698
    12.1693  12.2136

     occupation numbers 
     1.0000   1.0000   1.0000   1.0000   1.0000   1.0000   1.0000   1.0000
     1.0000   1.0000   1.0000   1.0000   1.0000   1.0000   0.0000   0.0000
     0.0000   0.0000

          k = 0.2828 0.0943-0.0943 (  3914 PWs)   bands (ev):

   -12.3934 -12.3880 -12.3648 -12.2956 -12.2770 -12.1693 -12.1250 -12.1052
   -12.0838 -12.0712  -1.8590   3.3935   7.3005   7.4932   9.4305  10.5544
    12.4776  12.6335

     occupation numbers 
     1.0000   1.0000   1.0000   1.0000   1.0000   1.0000   1.0000   1.0000
     1.0000   1.0000   1.0000   1.0000   1.0000   1.0000   0.0000   0.0000
     0.0000   0.0000

          k = 0.3300 0.1414-0.1414 (  3901 PWs)   bands (ev):

   -12.4003 -12.3925 -12.3563 -12.2871 -12.2689 -12.1758 -12.1339 -12.1150
   -12.0774 -12.0644  -1.6006   2.7855   6.9619   7.3398   9.3009  10.9906
    12.6700  13.0023

     occupation numbers 
     1.0000   1.0000   1.0000   1.0000   1.0000   1.0000   1.0000   1.0000
     1.0000   1.0000   1.0000   1.0000   1.0000   1.0000   0.0000   0.0000
     0.0000   0.0000

          k = 0.3771 0.1886-0.1886 (  3903 PWs)   bands (ev):

   -12.4056 -12.3962 -12.3477 -12.2792 -12.2646 -12.1777 -12.1423 -12.1255
   -12.0721 -12.0593  -1.3124   2.2121   6.6805   7.2516   9.1593  11.4034
    12.7327  13.3994

     occupation numbers 
     1.0000   1.0000   1.0000   1.0000   1.0000   1.0000   1.0000   1.0000
     1.0000   1.0000   1.0000   1.0000   1.0000   1.0000   0.0000   0.0000
     0.0000   0.0000

          k = 0.4243 0.2357-0.2357 (  3915 PWs)   bands (ev):

   -12.4089 -12.3990 -12.3404 -12.2725 -12.2646 -12.1745 -12.1499 -12.1351
   -12.0679 -12.0562  -1.0491   1.7591   6.4753   7.2334   9.0434  11.6932
    12.6924  13.8901

     occupation numbers 
     1.0000   1.0000   1.0000   1.0000   1.0000   1.0000   1.0000   1.0000
     1.0000   1.0000   1.0000   1.0000   1.0000   1.0000   0.0000   0.0000
     0.0000   0.0000

          k =-0.2357-0.4243 0.4243 (  3907 PWs)   bands (ev):

   -12.4101 -12.4008 -12.3359 -12.2682 -12.2675 -12.1669 -12.1566 -12.1422
   -12.0647 -12.0556  -0.9120   1.5448   6.3551   7.2855   8.9693  11.8759
    12.5842  14.2951

     occupation numbers 
     1.0000   1.0000   1.0000   1.0000   1.0000   1.0000   1.0000   1.0000
     1.0000   1.0000   1.0000   1.0000   1.0000   1.0000   0.0000   0.0000
     0.0000   0.0000

          k =-0.1886-0.3771 0.3771 (  3913 PWs)   bands (ev):

   -12.4090 -12.4016 -12.3355 -12.2739 -12.2647 -12.1614 -12.1561 -12.1462
   -12.0628 -12.0576  -0.9876   1.6615   6.3259   7.4042   8.9410  11.9998
    12.4268  14.2241

     occupation numbers 
     1.0000   1.0000   1.0000   1.0000   1.0000   1.0000   1.0000   1.0000
     1.0000   1.0000   1.0000   1.0000   1.0000   1.0000   0.0000   0.0000
     0.0000   0.0000

          k =-0.1414-0.3300 0.3300 (  3904 PWs)   bands (ev):

   -12.4058 -12.4010 -12.3393 -12.2805 -12.2656 -12.1630 -12.1480 -12.1421
   -12.0624 -12.0621  -1.2245   2.0534   6.3945   7.5814   8.9528  12.0621
    12.2186  13.6589

     occupation numbers 
     1.0000   1.0000   1.0000   1.0000   1.0000   1.0000   1.0000   1.0000
     1.0000   1.0000   1.0000   1.0000   1.0000   1.0000   0.0000   0.0000
     0.0000   0.0000

          k =-0.0943-0.2828 0.2828 (  3893 PWs)   bands (ev):

   -12.4006 -12.3990 -12.3464 -12.2872 -12.2707 -12.1605 -12.1456 -12.1285
   -12.0692 -12.0636  -1.5126   2.5952   6.5696   7.8024   8.9856  11.9535
    11.9679  13.0841

     occupation numbers 
     1.0000   1.0000   1.0000   1.0000   1.0000   1.0000   1.0000   1.0000
     1.0000   1.0000   1.0000   1.0000   1.0000   1.0000   0.0000   0.0000
     0.0000   0.0000

          k =-0.0471-0.2357 0.2357 (  3898 PWs)   bands (ev):

   -12.3954 -12.3939 -12.3548 -12.2942 -12.2795 -12.1539 -12.1411 -12.1152
   -12.0783 -12.0667  -1.7836   3.1906   6.8609   8.0415   8.9971  11.6390
    11.6487  12.7373

     occupation numbers 
     1.0000   1.0000   1.0000   1.0000   1.0000   1.0000   1.0000   1.0000
     1.0000   1.0000   1.0000   1.0000   1.0000   0.9976   0.0000   0.0000
     0.0000   0.0000

          k = 0.0000-0.1886 0.1886 (  3897 PWs)   bands (ev):

   -12.3904 -12.3867 -12.3626 -12.3012 -12.2903 -12.1446 -12.1345 -12.1044
   -12.0884 -12.0715  -2.0056   3.7646   7.2744   8.2542   8.9183  11.3082
    11.3656  12.4086

     occupation numbers 
     1.0000   1.0000   1.0000   1.0000   1.0000   1.0000   1.0000   1.0000
     1.0000   1.0000   1.0000   1.0000   1.0000   0.7306   0.0000   0.0000
     0.0000   0.0000

          k = 0.2828 0.0000 0.0000 (  3903 PWs)   bands (ev):

   -12.3861 -12.3861 -12.3745 -12.2988 -12.2757 -12.1747 -12.1191 -12.0885
   -12.0885 -12.0822  -1.9489   3.6643   7.4571   7.4571   9.7911   9.9156
    12.5881  12.5882

     occupation numbers 
     1.0000   1.0000   1.0000   1.0000   1.0000   1.0000   1.0000   1.0000
     1.0000   1.0000   1.0000   1.0000   1.0000   1.0000   0.0000   0.0000
     0.0000   0.0000

          k = 0.3300 0.0471-0.0471 (  3918 PWs)   bands (ev):

   -12.3927 -12.3902 -12.3687 -12.2908 -12.2638 -12.1879 -12.1273 -12.0941
   -12.0822 -12.0749  -1.7665   3.2166   7.1657   7.2466   9.8327   9.9872
    12.9465  12.9593

     occupation numbers 
     1.0000   1.0000   1.0000   1.0000   1.0000   1.0000   1.0000   1.0000
     1.0000   1.0000   1.0000   1.0000   1.0000   1.0000   0.0000   0.0000
     0.0000   0.0000

          k = 0.3771 0.0943-0.0943 (  3918 PWs)   bands (ev):

   -12.4009 -12.3945 -12.3584 -12.2818 -12.2539 -12.1977 -12.1369 -12.1063
   -12.0757 -12.0650  -1.5238   2.6928   6.7993   7.0915   9.7470  10.3715
    13.0999  13.2111

     occupation numbers 
     1.0000   1.0000   1.0000   1.0000   1.0000   1.0000   1.0000   1.0000
     1.0000   1.0000   1.0000   1.0000   1.0000   1.0000   0.0000   0.0000
     0.0000   0.0000

          k = 0.4243 0.1414-0.1414 (  3917 PWs)   bands (ev):

   -12.4083 -12.3982 -12.3465 -12.2728 -12.2481 -12.2023 -12.1467 -12.1200
   -12.0700 -12.0567  -1.2397   2.1623   6.4460   7.0037   9.6269  10.9075
    13.1636  13.3097

     occupation numbers 
     1.0000   1.0000   1.0000   1.0000   1.0000   1.0000   1.0000   1.0000
     1.0000   1.0000   1.0000   1.0000   1.0000   1.0000   0.0000   0.0000
     0.0000   0.0000

          k = 0.4714 0.1886-0.1886 (  3916 PWs)   bands (ev):

   -12.4138 -12.4012 -12.3352 -12.2645 -12.2479 -12.2007 -12.1564 -12.1329
   -12.0652 -12.0508  -0.9557   1.7001   6.1598   6.9884   9.5182  11.4344
    13.2712  13.3368

     occupation numbers 
     1.0000   1.0000   1.0000   1.0000   1.0000   1.0000   1.0000   1.0000
     1.0000   1.0000   1.0000   1.0000   1.0000   1.0000   0.0000   0.0000
     0.0000   0.0000

          k =-0.1886-0.4714 0.4714 (  3920 PWs)   bands (ev):

   -12.4169 -12.4034 -12.3267 -12.2574 -12.2528 -12.1934 -12.1652 -12.1428
   -12.0616 -12.0477  -0.7610   1.4150   5.9659   7.0460   9.4415  11.8158
    13.1341  13.6837

     occupation numbers 
     1.0000   1.0000   1.0000   1.0000   1.0000   1.0000   1.0000   1.0000
     1.0000   1.0000   1.0000   1.0000   1.0000   1.0000   0.0000   0.0000
     0.0000   0.0000

          k =-0.1414-0.4243 0.4243 (  3911 PWs)   bands (ev):

   -12.4172 -12.4045 -12.3230 -12.2615 -12.2528 -12.1814 -12.1721 -12.1482
   -12.0593 -12.0479  -0.7720   1.4308   5.8790   7.1728   9.3999  12.0477
    12.9249  13.8844

     occupation numbers 
     1.0000   1.0000   1.0000   1.0000   1.0000   1.0000   1.0000   1.0000
     1.0000   1.0000   1.0000   1.0000   1.0000   1.0000   0.0000   0.0000
     0.0000   0.0000

          k =-0.0943-0.3771 0.3771 (  3911 PWs)   bands (ev):

   -12.4147 -12.4044 -12.3251 -12.2716 -12.2526 -12.1748 -12.1666 -12.1487
   -12.0586 -12.0516  -0.9797   1.7355   5.9116   7.3593   9.3806  12.1910
    12.6509  13.4931

     occupation numbers 
     1.0000   1.0000   1.0000   1.0000   1.0000   1.0000   1.0000   1.0000
     1.0000   1.0000   1.0000   1.0000   1.0000   1.0000   0.0000   0.0000
     0.0000   0.0000

          k =-0.0471-0.3300 0.3300 (  3909 PWs)   bands (ev):

   -12.4094 -12.4028 -12.3327 -12.2807 -12.2580 -12.1719 -12.1543 -12.1419
   -12.0595 -12.0586  -1.2654   2.1957   6.0780   7.5889   9.3498  12.1861
    12.3180  12.9888

     occupation numbers 
     1.0000   1.0000   1.0000   1.0000   1.0000   1.0000   1.0000   1.0000
     1.0000   1.0000   1.0000   1.0000   1.0000   1.0000   0.0000   0.0000
     0.0000   0.0000

          k = 0.0000-0.2828 0.2828 (  3911 PWs)   bands (ev):

   -12.4021 -12.3998 -12.3437 -12.2881 -12.2677 -12.1644 -12.1477 -12.1276
   -12.0682 -12.0622  -1.5462   2.7037   6.3924   7.8323   9.2446  11.8971
    11.9593  12.8307

     occupation numbers 
     1.0000   1.0000   1.0000   1.0000   1.0000   1.0000   1.0000   1.0000
     1.0000   1.0000   1.0000   1.0000   1.0000   1.0000   0.0000   0.0000
     0.0000   0.0000

          k = 0.3771 0.0000 0.0000 (  3920 PWs)   bands (ev):

   -12.3937 -12.3937 -12.3687 -12.2830 -12.2499 -12.2048 -12.1344 -12.0885
   -12.0775 -12.0775  -1.6041   2.8815   7.0297   7.0297   9.6207  10.0371
    13.4157  13.4157

     occupation numbers 
     1.0000   1.0000   1.0000   1.0000   1.0000   1.0000   1.0000   1.0000
     1.0000   1.0000   1.0000   1.0000   1.0000   1.0000   0.0000   0.0000
     0.0000   0.0000

          k = 0.4243 0.0471-0.0471 (  3920 PWs)   bands (ev):

   -12.3997 -12.3974 -12.3605 -12.2736 -12.2375 -12.2183 -12.1437 -12.0994
   -12.0719 -12.0681  -1.3783   2.4490   6.7622   6.8667   9.6516  10.0790
    13.6080  13.7610

     occupation numbers 
     1.0000   1.0000   1.0000   1.0000   1.0000   1.0000   1.0000   1.0000
     1.0000   1.0000   1.0000   1.0000   1.0000   1.0000   0.0000   0.0000
     0.0000   0.0000

          k = 0.4714 0.0943-0.0943 (  3922 PWs)   bands (ev):

   -12.4077 -12.4008 -12.3473 -12.2639 -12.2307 -12.2250 -12.1541 -12.1149
   -12.0667 -12.0578  -1.1025   1.9813   6.4025   6.7710   9.7095  10.3770
    13.5107  13.9347

     occupation numbers 
     1.0000   1.0000   1.0000   1.0000   1.0000   1.0000   1.0000   1.0000
     1.0000   1.0000   1.0000   1.0000   1.0000   1.0000   0.0000   0.0000
     0.0000   0.0000

          k = 0.5185 0.1414-0.1414 (  3918 PWs)   bands (ev):

   -12.4150 -12.4036 -12.3329 -12.2543 -12.2334 -12.2214 -12.1648 -12.1308
   -12.0622 -12.0494  -0.8071   1.5403   6.0547   6.7490   9.6628  10.9760
    13.4052  13.9301

     occupation numbers 
     1.0000   1.0000   1.0000   1.0000   1.0000   1.0000   1.0000   1.0000
     1.0000   1.0000   1.0000   1.0000   1.0000   1.0000   0.0000   0.0000
     0.0000   0.0000

          k =-0.1414-0.5185 0.5185 (  3925 PWs)   bands (ev):

   -12.4201 -12.4057 -12.3211 -12.2457 -12.2344 -12.2192 -12.1751 -12.1434
   -12.0588 -12.0438  -0.5657   1.2169   5.7854   6.8017   9.6196  11.6466
    13.3923  13.7816

     occupation numbers 
     1.0000   1.0000   1.0000   1.0000   1.0000   1.0000   1.0000   1.0000
     1.0000   1.0000   1.0000   1.0000   1.0000   1.0000   0.0000   0.0000
     0.0000   0.0000

          k =-0.0943-0.4714 0.4714 (  3923 PWs)   bands (ev):

   -12.4223 -12.4068 -12.3147 -12.2420 -12.2397 -12.2099 -12.1833 -12.1501
   -12.0567 -12.0417  -0.5151   1.1537   5.6310   6.9257   9.6011  12.1955
    13.4581  13.5230

     occupation numbers 
     1.0000   1.0000   1.0000   1.0000   1.0000   1.0000   1.0000   1.0000
     1.0000   1.0000   1.0000   1.0000   1.0000   1.0000   0.0000   0.0000
     0.0000   0.0000

          k =-0.0471-0.4243 0.4243 (  3922 PWs)   bands (ev):

   -12.4212 -12.4068 -12.3147 -12.2563 -12.2394 -12.1921 -12.1860 -12.1516
   -12.0560 -12.0436  -0.6964   1.3873   5.6158   7.1117   9.5894  12.5174
    13.1726  13.2659

     occupation numbers 
     1.0000   1.0000   1.0000   1.0000   1.0000   1.0000   1.0000   1.0000
     1.0000   1.0000   1.0000   1.0000   1.0000   1.0000   0.0000   0.0000
     0.0000   0.0000

          k =-0.0000-0.3771 0.3771 (  3905 PWs)   bands (ev):

   -12.4167 -12.4055 -12.3210 -12.2705 -12.2465 -12.1814 -12.1714 -12.1493
   -12.0569 -12.0494  -0.9794   1.7738   5.7600   7.3426   9.5332  12.5616
    12.7530  12.9030

     occupation numbers 
     1.0000   1.0000   1.0000   1.0000   1.0000   1.0000   1.0000   1.0000
     1.0000   1.0000   1.0000   1.0000   1.0000   1.0000   0.0000   0.0000
     0.0000   0.0000

          k = 0.4714 0.0000 0.0000 (  3944 PWs)   bands (ev):

   -12.4005 -12.4005 -12.3576 -12.2639 -12.2358 -12.2222 -12.1529 -12.1009
   -12.0674 -12.0674  -1.1684   2.0964   6.6925   6.6925   9.4372   9.9982
    14.2246  14.2247

     occupation numbers 
     1.0000   1.0000   1.0000   1.0000   1.0000   1.0000   1.0000   1.0000
     1.0000   1.0000   1.0000   1.0000   1.0000   1.0000   0.0000   0.0000
     0.0000   0.0000

          k = 0.5185 0.0471-0.0471 (  3926 PWs)   bands (ev):

   -12.4057 -12.4034 -12.3469 -12.2535 -12.2488 -12.2099 -12.1634 -12.1131
   -12.0630 -12.0603  -0.9033   1.6902   6.4631   6.5842   9.5145   9.9885
    14.2623  14.5122

     occupation numbers 
     1.0000   1.0000   1.0000   1.0000   1.0000   1.0000   1.0000   1.0000
     1.0000   1.0000   1.0000   1.0000   1.0000   1.0000   0.0000   0.0000
     0.0000   0.0000

          k = 0.5657 0.0943-0.0943 (  3931 PWs)   bands (ev):

   -12.4128 -12.4057 -12.3316 -12.2561 -12.2430 -12.2025 -12.1746 -12.1300
   -12.0594 -12.0515  -0.6038   1.2829   6.1293   6.5497   9.6002  10.3353
    14.0638  14.5782

     occupation numbers 
     1.0000   1.0000   1.0000   1.0000   1.0000   1.0000   1.0000   1.0000
     1.0000   1.0000   1.0000   1.0000   1.0000   1.0000   0.0000   0.0000
     0.0000   0.0000

          k =-0.0943-0.5657 0.5657 (  3916 PWs)   bands (ev):

   -12.4194 -12.4074 -12.3172 -12.2545 -12.2332 -12.2035 -12.1858 -12.1448
   -12.0567 -12.0442  -0.3266   0.9460   5.8111   6.5910   9.6031  11.0116
    13.8576  14.4375

     occupation numbers 
     1.0000   1.0000   1.0000   1.0000   1.0000   1.0000   1.0000   1.0000
     1.0000   1.0000   1.0000   1.0000   1.0000   1.0000   0.0000   0.0000
     0.0000   0.0000

          k =-0.0471-0.5185 0.5185 (  3913 PWs)   bands (ev):

   -12.4235 -12.4082 -12.3098 -12.2411 -12.2263 -12.2159 -12.1946 -12.1522
   -12.0551 -12.0399  -0.2296   0.8382   5.5895   6.7054   9.6163  11.7930
    13.6293  14.1293

     occupation numbers 
     1.0000   1.0000   1.0000   1.0000   1.0000   1.0000   1.0000   1.0000
     1.0000   1.0000   1.0000   1.0000   1.0000   1.0000   0.0000   0.0000
     0.0000   0.0000

          k =-0.0000-0.4714 0.4714 (  3893 PWs)   bands (ev):

   -12.4242 -12.4080 -12.3096 -12.2361 -12.2286 -12.2182 -12.1945 -12.1532
   -12.0549 -12.0396  -0.4101   1.0476   5.5137   6.8844   9.6327  12.4702
    13.3069  13.6909

     occupation numbers 
     1.0000   1.0000   1.0000   1.0000   1.0000   1.0000   1.0000   1.0000
     1.0000   1.0000   1.0000   1.0000   1.0000   1.0000   0.0000   0.0000
     0.0000   0.0000

          k = 0.5657 0.0000 0.0000 (  3940 PWs)   bands (ev):

   -12.4057 -12.4057 -12.3412 -12.2662 -12.2425 -12.1940 -12.1739 -12.1187
   -12.0597 -12.0597  -0.6478   1.3348   6.4611   6.4611   9.3727   9.7973
    14.9333  14.9334

     occupation numbers 
     1.0000   1.0000   1.0000   1.0000   1.0000   1.0000   1.0000   1.0000
     1.0000   1.0000   1.0000   1.0000   1.0000   1.0000   0.0000   0.0000
     0.0000   0.0000

          k = 0.6128 0.0471-0.0471 (  3915 PWs)   bands (ev):

   -12.4096 -12.4074 -12.3283 -12.2781 -12.2314 -12.1852 -12.1824 -12.1325
   -12.0571 -12.0547  -0.3490   0.9611   6.2799   6.4109   9.4808   9.8102
    14.8897  15.1046

     occupation numbers 
     1.0000   1.0000   1.0000   1.0000   1.0000   1.0000   1.0000   1.0000
     1.0000   1.0000   1.0000   1.0000   1.0000   1.0000   0.0000   0.0000
     0.0000   0.0000

          k =-0.0471-0.6128 0.6128 (  3929 PWs)   bands (ev):

   -12.4156 -12.4084 -12.3130 -12.2813 -12.2206 -12.1968 -12.1790 -12.1482
   -12.0554 -12.0479  -0.0464   0.6240   5.9904   6.4370   9.5392  10.2754
    14.5941  14.9977

     occupation numbers 
     1.0000   1.0000   1.0000   1.0000   1.0000   1.0000   1.0000   1.0000
     1.0000   1.0000   1.0000   1.0000   1.0000   1.0000   0.0000   0.0000
     0.0000   0.0000

          k = 0.0000-0.5657 0.5657 (  3905 PWs)   bands (ev):

   -12.4209 -12.4087 -12.3075 -12.2669 -12.2157 -12.2032 -12.1926 -12.1536
   -12.0547 -12.0423   0.0271   0.5543   5.7285   6.5376   9.5735  11.0128
    14.1626  14.6499

     occupation numbers 
     1.0000   1.0000   1.0000   1.0000   1.0000   1.0000   1.0000   1.0000
     1.0000   1.0000   1.0000   1.0000   1.0000   1.0000   0.0000   0.0000
     0.0000   0.0000

          k = 0.6600 0.0000 0.0000 (  3920 PWs)   bands (ev):

   -12.4084 -12.4084 -12.3200 -12.2947 -12.2197 -12.1965 -12.1664 -12.1409
   -12.0556 -12.0556  -0.0503   0.6145   6.3436   6.3436   9.4247   9.5787
    15.3868  15.3869

     occupation numbers 
     1.0000   1.0000   1.0000   1.0000   1.0000   1.0000   1.0000   1.0000
     1.0000   1.0000   1.0000   1.0000   1.0000   1.0000   0.0000   0.0000
     0.0000   0.0000

          k = 0.0000-0.6600 0.6600 (  3933 PWs)   bands (ev):

   -12.4109 -12.4087 -12.3078 -12.3023 -12.2089 -12.2075 -12.1588 -12.1534
   -12.0550 -12.0527   0.2476   0.3056   6.2183   6.3525   9.5014   9.7071
    15.1961  15.3457

     occupation numbers 
     1.0000   1.0000   1.0000   1.0000   1.0000   1.0000   1.0000   1.0000
     1.0000   1.0000   1.0000   1.0000   1.0000   1.0000   0.0000   0.0000
     0.0000   0.0000

          k = 0.1886 0.0943-0.0000 (  3887 PWs)   bands (ev):

   -12.3845 -12.3811 -12.3697 -12.3076 -12.2968 -12.1451 -12.1184 -12.0987
   -12.0958 -12.0781  -2.1499   4.2180   7.7225   8.0989   9.1230  10.6098
    11.6600  12.0024

     occupation numbers 
     1.0000   1.0000   1.0000   1.0000   1.0000   1.0000   1.0000   1.0000
     1.0000   1.0000   1.0000   1.0000   1.0000   0.9871   0.0000   0.0000
     0.0000   0.0000

          k = 0.2357 0.1414-0.0471 (  3902 PWs)   bands (ev):

   -12.3907 -12.3870 -12.3641 -12.3000 -12.2863 -12.1552 -12.1266 -12.1061
   -12.0863 -12.0721  -1.9686   3.6657   7.3150   7.9343   9.1511  10.8270
    11.9642  12.4475

     occupation numbers 
     1.0000   1.0000   1.0000   1.0000   1.0000   1.0000   1.0000   1.0000
     1.0000   1.0000   1.0000   1.0000   1.0000   1.0000   0.0000   0.0000
     0.0000   0.0000

          k = 0.2828 0.1886-0.0943 (  3906 PWs)   bands (ev):

   -12.3967 -12.3925 -12.3567 -12.2919 -12.2769 -12.1627 -12.1339 -12.1163
   -12.0779 -12.0669  -1.7272   3.0479   6.9841   7.7328   9.0732  11.2011
    12.2668  12.8325

     occupation numbers 
     1.0000   1.0000   1.0000   1.0000   1.0000   1.0000   1.0000   1.0000
     1.0000   1.0000   1.0000   1.0000   1.0000   1.0000   0.0000   0.0000
     0.0000   0.0000

          k = 0.3300 0.2357-0.1414 (  3896 PWs)   bands (ev):

   -12.4019 -12.3965 -12.3491 -12.2845 -12.2704 -12.1665 -12.1399 -12.1276
   -12.0715 -12.0629  -1.4454   2.4423   6.7395   7.5491   8.9641  11.5592
    12.4268  13.3150

     occupation numbers 
     1.0000   1.0000   1.0000   1.0000   1.0000   1.0000   1.0000   1.0000
     1.0000   1.0000   1.0000   1.0000   1.0000   1.0000   0.0000   0.0000
     0.0000   0.0000

          k = 0.3771 0.2828-0.1886 (  3904 PWs)   bands (ev):

   -12.4055 -12.3991 -12.3428 -12.2781 -12.2676 -12.1660 -12.1453 -12.1376
   -12.0674 -12.0601  -1.1654   1.9286   6.5798   7.4139   8.8728  11.7902
    12.4675  13.9069

     occupation numbers 
     1.0000   1.0000   1.0000   1.0000   1.0000   1.0000   1.0000   1.0000
     1.0000   1.0000   1.0000   1.0000   1.0000   1.0000   0.0000   0.0000
     0.0000   0.0000

          k =-0.2828-0.3771 0.4714 (  3908 PWs)   bands (ev):

   -12.4075 -12.4003 -12.3392 -12.2731 -12.2683 -12.1621 -12.1520 -12.1424
   -12.0654 -12.0586  -0.9724   1.6138   6.5013   7.3430   8.8225  11.8907
    12.4699  14.3613

     occupation numbers 
     1.0000   1.0000   1.0000   1.0000   1.0000   1.0000   1.0000   1.0000
     1.0000   1.0000   1.0000   1.0000   1.0000   1.0000   0.0000   0.0000
     0.0000   0.0000

          k = 0.2828 0.0943 0.0000 (  3909 PWs)   bands (ev):

   -12.3904 -12.3883 -12.3677 -12.2972 -12.2761 -12.1720 -12.1228 -12.0995
   -12.0857 -12.0739  -1.9034   3.5287   7.2476   7.5758   9.6457  10.2344
    12.4856  12.6262

     occupation numbers 
     1.0000   1.0000   1.0000   1.0000   1.0000   1.0000   1.0000   1.0000
     1.0000   1.0000   1.0000   1.0000   1.0000   1.0000   0.0000   0.0000
     0.0000   0.0000

          k = 0.3300 0.1414-0.0471 (  3914 PWs)   bands (ev):

   -12.3975 -12.3936 -12.3589 -12.2889 -12.2657 -12.1822 -12.1315 -12.1092
   -12.0774 -12.0672  -1.6805   2.9991   6.8610   7.4102   9.6603  10.5096
    12.8000  12.8632

     occupation numbers 
     1.0000   1.0000   1.0000   1.0000   1.0000   1.0000   1.0000   1.0000
     1.0000   1.0000   1.0000   1.0000   1.0000   1.0000   0.0000   0.0000
     0.0000   0.0000

          k = 0.3771 0.1886-0.0943 (  3902 PWs)   bands (ev):

   -12.4047 -12.3977 -12.3484 -12.2805 -12.2579 -12.1885 -12.1402 -12.1217
   -12.0706 -12.0603  -1.4082   2.4423   6.5372   7.2486   9.5720  10.9712
    12.9009  13.1253

     occupation numbers 
     1.0000   1.0000   1.0000   1.0000   1.0000   1.0000   1.0000   1.0000
     1.0000   1.0000   1.0000   1.0000   1.0000   1.0000   0.0000   0.0000
     0.0000   0.0000

          k = 0.4243 0.2357-0.1414 (  3911 PWs)   bands (ev):

   -12.4104 -12.4007 -12.3382 -12.2726 -12.2546 -12.1894 -12.1490 -12.1338
   -12.0659 -12.0546  -1.1184   1.9300   6.2900   7.1386   9.4703  11.4143
    12.9409  13.4103

     occupation numbers 
     1.0000   1.0000   1.0000   1.0000   1.0000   1.0000   1.0000   1.0000
     1.0000   1.0000   1.0000   1.0000   1.0000   1.0000   0.0000   0.0000
     0.0000   0.0000

          k =-0.2357-0.4243 0.5185 (  3919 PWs)   bands (ev):

   -12.4138 -12.4027 -12.3304 -12.2660 -12.2558 -12.1852 -12.1579 -12.1426
   -12.0627 -12.0512  -0.8803   1.5573   6.1261   7.1009   9.3938  11.7001
    12.9407  13.7906

     occupation numbers 
     1.0000   1.0000   1.0000   1.0000   1.0000   1.0000   1.0000   1.0000
     1.0000   1.0000   1.0000   1.0000   1.0000   1.0000   0.0000   0.0000
     0.0000   0.0000

          k =-0.1886-0.3771 0.4714 (  3919 PWs)   bands (ev):

   -12.4147 -12.4037 -12.3270 -12.2645 -12.2573 -12.1789 -12.1635 -12.1470
   -12.0609 -12.0505  -0.8089   1.4528   6.0511   7.1401   9.3561  11.8321
    12.8753  14.0459

     occupation numbers 
     1.0000   1.0000   1.0000   1.0000   1.0000   1.0000   1.0000   1.0000
     1.0000   1.0000   1.0000   1.0000   1.0000   1.0000   0.0000   0.0000
     0.0000   0.0000

          k =-0.1414-0.3300 0.4243 (  3916 PWs)   bands (ev):

   -12.4130 -12.4036 -12.3289 -12.2709 -12.2559 -12.1783 -12.1568 -12.1477
   -12.0606 -12.0529  -0.9547   1.6696   6.0726   7.2512   9.3568  11.8433
    12.7671  13.7721

     occupation numbers 
     1.0000   1.0000   1.0000   1.0000   1.0000   1.0000   1.0000   1.0000
     1.0000   1.0000   1.0000   1.0000   1.0000   1.0000   0.0000   0.0000
     0.0000   0.0000

          k =-0.0943-0.2828 0.3771 (  3909 PWs)   bands (ev):

   -12.4087 -12.4022 -12.3357 -12.2786 -12.2582 -12.1783 -12.1455 -12.1426
   -12.0624 -12.0576  -1.2229   2.1041   6.2005   7.4212   9.3817  11.6777
    12.6693  13.2619

     occupation numbers 
     1.0000   1.0000   1.0000   1.0000   1.0000   1.0000   1.0000   1.0000
     1.0000   1.0000   1.0000   1.0000   1.0000   1.0000   0.0000   0.0000
     0.0000   0.0000

          k =-0.0471-0.2357 0.3300 (  3905 PWs)   bands (ev):

   -12.4023 -12.3995 -12.3455 -12.2861 -12.2650 -12.1740 -12.1408 -12.1272
   -12.0685 -12.0622  -1.5114   2.6342   6.4465   7.6257   9.3950  11.3286
    12.5398  12.8877

     occupation numbers 
     1.0000   1.0000   1.0000   1.0000   1.0000   1.0000   1.0000   1.0000
     1.0000   1.0000   1.0000   1.0000   1.0000   1.0000   0.0000   0.0000
     0.0000   0.0000

          k = 0.0000-0.1886 0.2828 (  3908 PWs)   bands (ev):

   -12.3957 -12.3943 -12.3558 -12.2933 -12.2751 -12.1658 -12.1343 -12.1136
   -12.0782 -12.0667  -1.7679   3.1762   6.8195   7.8204   9.3329  10.9847
    12.2334  12.7330

     occupation numbers 
     1.0000   1.0000   1.0000   1.0000   1.0000   1.0000   1.0000   1.0000
     1.0000   1.0000   1.0000   1.0000   1.0000   1.0000   0.0000   0.0000
     0.0000   0.0000

          k = 0.3771 0.0943 0.0000 (  3915 PWs)   bands (ev):

   -12.3968 -12.3961 -12.3619 -12.2824 -12.2517 -12.2014 -12.1357 -12.1009
   -12.0747 -12.0697  -1.5630   2.7875   6.8373   7.1014   9.9326  10.0001
    13.1529  13.3503

     occupation numbers 
     1.0000   1.0000   1.0000   1.0000   1.0000   1.0000   1.0000   1.0000
     1.0000   1.0000   1.0000   1.0000   1.0000   1.0000   0.0000   0.0000
     0.0000   0.0000

          k = 0.4243 0.1414-0.0471 (  3915 PWs)   bands (ev):

   -12.4045 -12.4001 -12.3501 -12.2732 -12.2419 -12.2110 -12.1454 -12.1145
   -12.0679 -12.0612  -1.3038   2.3036   6.4873   6.9538   9.9056  10.3638
    13.1215  13.6462

     occupation numbers 
     1.0000   1.0000   1.0000   1.0000   1.0000   1.0000   1.0000   1.0000
     1.0000   1.0000   1.0000   1.0000   1.0000   1.0000   0.0000   0.0000
     0.0000   0.0000

          k = 0.4714 0.1886-0.0943 (  3915 PWs)   bands (ev):

   -12.4120 -12.4031 -12.3366 -12.2642 -12.2370 -12.2147 -12.1557 -12.1293
   -12.0631 -12.0528  -1.0118   1.8255   6.1688   6.8525   9.8203  10.9371
    13.0638  13.7672

     occupation numbers 
     1.0000   1.0000   1.0000   1.0000   1.0000   1.0000   1.0000   1.0000
     1.0000   1.0000   1.0000   1.0000   1.0000   1.0000   0.0000   0.0000
     0.0000   0.0000

          k =-0.1886-0.4714 0.5657 (  3914 PWs)   bands (ev):

   -12.4175 -12.4053 -12.3247 -12.2559 -12.2381 -12.2118 -12.1660 -12.1419
   -12.0596 -12.0468  -0.7404   1.4309   5.9182   6.8279   9.7530  11.5082
    13.1262  13.7287

     occupation numbers 
     1.0000   1.0000   1.0000   1.0000   1.0000   1.0000   1.0000   1.0000
     1.0000   1.0000   1.0000   1.0000   1.0000   1.0000   0.0000   0.0000
     0.0000   0.0000

          k =-0.1414-0.4243 0.5185 (  3916 PWs)   bands (ev):

   -12.4201 -12.4067 -12.3173 -12.2514 -12.2420 -12.2043 -12.1747 -12.1494
   -12.0573 -12.0441  -0.6022   1.2455   5.7629   6.8839   9.7162  11.8920
    13.3202  13.5959

     occupation numbers 
     1.0000   1.0000   1.0000   1.0000   1.0000   1.0000   1.0000   1.0000
     1.0000   1.0000   1.0000   1.0000   1.0000   1.0000   0.0000   0.0000
     0.0000   0.0000

          k =-0.0943-0.3771 0.4714 (  3907 PWs)   bands (ev):

   -12.4197 -12.4069 -12.3162 -12.2581 -12.2423 -12.1954 -12.1758 -12.1517
   -12.0564 -12.0451  -0.6976   1.3727   5.7224   7.0139   9.7029  12.0470
    13.1677  13.5537

     occupation numbers 
     1.0000   1.0000   1.0000   1.0000   1.0000   1.0000   1.0000   1.0000
     1.0000   1.0000   1.0000   1.0000   1.0000   1.0000   0.0000   0.0000
     0.0000   0.0000

          k =-0.0471-0.3300 0.4243 (  3913 PWs)   bands (ev):

   -12.4161 -12.4060 -12.3217 -12.2692 -12.2452 -12.1904 -12.1632 -12.1501
   -12.0568 -12.0499  -0.9521   1.7300   5.8139   7.2026   9.6850  11.9721
    12.8742  13.3015

     occupation numbers 
     1.0000   1.0000   1.0000   1.0000   1.0000   1.0000   1.0000   1.0000
     1.0000   1.0000   1.0000   1.0000   1.0000   1.0000   0.0000   0.0000
     0.0000   0.0000

          k = 0.0000-0.2828 0.3771 (  3912 PWs)   bands (ev):

   -12.4098 -12.4037 -12.3325 -12.2787 -12.2536 -12.1837 -12.1477 -12.1433
   -12.0588 -12.0581  -1.2441   2.1786   6.0526   7.4228   9.6051  11.6393
    12.8129  12.9277

     occupation numbers 
     1.0000   1.0000   1.0000   1.0000   1.0000   1.0000   1.0000   1.0000
     1.0000   1.0000   1.0000   1.0000   1.0000   1.0000   0.0000   0.0000
     0.0000   0.0000

          k = 0.4714 0.0943-0.0000 (  3928 PWs)   bands (ev):

   -12.4030 -12.4029 -12.3511 -12.2639 -12.2317 -12.2251 -12.1535 -12.1099
   -12.0647 -12.0633  -1.1338   2.0385   6.5235   6.7154   9.7334  10.0751
    13.6675  14.1783

     occupation numbers 
     1.0000   1.0000   1.0000   1.0000   1.0000   1.0000   1.0000   1.0000
     1.0000   1.0000   1.0000   1.0000   1.0000   1.0000   0.0000   0.0000
     0.0000   0.0000

          k = 0.5185 0.1414-0.0471 (  3935 PWs)   bands (ev):

   -12.4105 -12.4057 -12.3366 -12.2539 -12.2405 -12.2162 -12.1643 -12.1258
   -12.0600 -12.0544  -0.8456   1.6083   6.2145   6.6046   9.8501  10.3572
    13.5252  14.3817

     occupation numbers 
     1.0000   1.0000   1.0000   1.0000   1.0000   1.0000   1.0000   1.0000
     1.0000   1.0000   1.0000   1.0000   1.0000   1.0000   0.0000   0.0000
     0.0000   0.0000

          k =-0.1414-0.5185 0.6128 (  3922 PWs)   bands (ev):

   -12.4175 -12.4077 -12.3215 -12.2448 -12.2423 -12.2130 -12.1756 -12.1416
   -12.0568 -12.0465  -0.5520   1.2185   5.9055   6.5789   9.8312  10.9965
    13.3839  14.3120

     occupation numbers 
     1.0000   1.0000   1.0000   1.0000   1.0000   1.0000   1.0000   1.0000
     1.0000   1.0000   1.0000   1.0000   1.0000   1.0000   0.0000   0.0000
     0.0000   0.0000

          k =-0.0943-0.4714 0.5657 (  3911 PWs)   bands (ev):

   -12.4221 -12.4089 -12.3109 -12.2391 -12.2337 -12.2182 -12.1858 -12.1518
   -12.0548 -12.0415  -0.3556   0.9803   5.6723   6.6384   9.8225  11.7109
    13.3107  13.9992

     occupation numbers 
     1.0000   1.0000   1.0000   1.0000   1.0000   1.0000   1.0000   1.0000
     1.0000   1.0000   1.0000   1.0000   1.0000   1.0000   0.0000   0.0000
     0.0000   0.0000

          k =-0.0471-0.4243 0.5185 (  3911 PWs)   bands (ev):

   -12.4235 -12.4091 -12.3079 -12.2400 -12.2276 -12.2190 -12.1906 -12.1549
   -12.0540 -12.0403  -0.4098   1.0463   5.5611   6.7741   9.8292  12.2652
    13.2565  13.5891

     occupation numbers 
     1.0000   1.0000   1.0000   1.0000   1.0000   1.0000   1.0000   1.0000
     1.0000   1.0000   1.0000   1.0000   1.0000   1.0000   0.0000   0.0000
     0.0000   0.0000

          k =-0.0000-0.3771 0.4714 (  3918 PWs)   bands (ev):

   -12.4214 -12.4082 -12.3118 -12.2551 -12.2339 -12.2034 -12.1824 -12.1536
   -12.0545 -12.0432  -0.6587   1.3510   5.6020   6.9711   9.8107  12.3490
    12.9510  13.4890

     occupation numbers 
     1.0000   1.0000   1.0000   1.0000   1.0000   1.0000   1.0000   1.0000
     1.0000   1.0000   1.0000   1.0000   1.0000   1.0000   0.0000   0.0000
     0.0000   0.0000

          k = 0.5657 0.0943 0.0000 (  3939 PWs)   bands (ev):

   -12.4080 -12.4078 -12.3351 -12.2615 -12.2428 -12.1978 -12.1743 -12.1258
   -12.0572 -12.0570  -0.6225   1.3064   6.3210   6.4370   9.6464   9.9532
    14.2809  14.8566

     occupation numbers 
     1.0000   1.0000   1.0000   1.0000   1.0000   1.0000   1.0000   1.0000
     1.0000   1.0000   1.0000   1.0000   1.0000   1.0000   0.0000   0.0000
     0.0000   0.0000

          k =-0.0943-0.5657 0.6600 (  3924 PWs)   bands (ev):

   -12.4145 -12.4095 -12.3187 -12.2681 -12.2321 -12.1911 -12.1859 -12.1428
   -12.0546 -12.0494  -0.3163   0.9336   6.0501   6.3854   9.7738  10.3073
    14.1013  14.8264

     occupation numbers 
     1.0000   1.0000   1.0000   1.0000   1.0000   1.0000   1.0000   1.0000
     1.0000   1.0000   1.0000   1.0000   1.0000   1.0000   0.0000   0.0000
     0.0000   0.0000

          k =-0.0471-0.5185 0.6128 (  3911 PWs)   bands (ev):

   -12.4203 -12.4103 -12.3061 -12.2636 -12.2228 -12.1975 -12.1945 -12.1551
   -12.0532 -12.0429  -0.0742   0.6671   5.7680   6.4404   9.7944  11.0161
    13.8850  14.4251

     occupation numbers 
     1.0000   1.0000   1.0000   1.0000   1.0000   1.0000   1.0000   1.0000
     1.0000   1.0000   1.0000   1.0000   1.0000   1.0000   0.0000   0.0000
     0.0000   0.0000

          k = 0.0000-0.4714 0.5657 (  3910 PWs)   bands (ev):

   -12.4237 -12.4102 -12.3039 -12.2446 -12.2232 -12.2109 -12.2002 -12.1571
   -12.0529 -12.0396  -0.1379   0.7421   5.5862   6.5749   9.8257  11.7937
    13.5664  13.9173

     occupation numbers 
     1.0000   1.0000   1.0000   1.0000   1.0000   1.0000   1.0000   1.0000
     1.0000   1.0000   1.0000   1.0000   1.0000   1.0000   0.0000   0.0000
     0.0000   0.0000

          k =-0.0471-0.6128 0.7071 (  3913 PWs)   bands (ev):

   -12.4106 -12.4105 -12.3143 -12.2894 -12.2200 -12.1968 -12.1713 -12.1468
   -12.0532 -12.0532  -0.0379   0.6093   6.2375   6.2763   9.6694   9.7861
    14.8783  15.1531

     occupation numbers 
     1.0000   1.0000   1.0000   1.0000   1.0000   1.0000   1.0000   1.0000
     1.0000   1.0000   1.0000   1.0000   1.0000   1.0000   0.0000   0.0000
     0.0000   0.0000

          k = 0.0000-0.5657 0.6600 (  3928 PWs)   bands (ev):

   -12.4158 -12.4108 -12.3024 -12.2878 -12.2111 -12.2069 -12.1726 -12.1584
   -12.0527 -12.0475   0.1966   0.3717   5.9955   6.3105   9.7476  10.2754
    14.5669  14.7717

     occupation numbers 
     1.0000   1.0000   1.0000   1.0000   1.0000   1.0000   1.0000   1.0000
     1.0000   1.0000   1.0000   1.0000   1.0000   1.0000   0.0000   0.0000
     0.0000   0.0000

          k = 0.3771 0.1886-0.0000 (  3903 PWs)   bands (ev):

   -12.4022 -12.4011 -12.3477 -12.2811 -12.2546 -12.1929 -12.1396 -12.1216
   -12.0673 -12.0625  -1.4414   2.5337   6.4415   7.2745   9.8477  10.6822
    12.8547  13.1727

     occupation numbers 
     1.0000   1.0000   1.0000   1.0000   1.0000   1.0000   1.0000   1.0000
     1.0000   1.0000   1.0000   1.0000   1.0000   1.0000   0.0000   0.0000
     0.0000   0.0000

          k = 0.4243 0.2357-0.0471 (  3911 PWs)   bands (ev):

   -12.4098 -12.4043 -12.3349 -12.2728 -12.2459 -12.2000 -12.1485 -12.1364
   -12.0606 -12.0561  -1.1589   2.0483   6.1252   7.0982   9.8971  11.0914
    12.8175  13.4814

     occupation numbers 
     1.0000   1.0000   1.0000   1.0000   1.0000   1.0000   1.0000   1.0000
     1.0000   1.0000   1.0000   1.0000   1.0000   1.0000   0.0000   0.0000
     0.0000   0.0000

          k =-0.2357-0.4243 0.6128 (  3912 PWs)   bands (ev):

   -12.4157 -12.4064 -12.3237 -12.2644 -12.2420 -12.2018 -12.1599 -12.1470
   -12.0578 -12.0494  -0.8712   1.6085   5.9189   6.9488   9.8761  11.5124
    12.9270  13.6488

     occupation numbers 
     1.0000   1.0000   1.0000   1.0000   1.0000   1.0000   1.0000   1.0000
     1.0000   1.0000   1.0000   1.0000   1.0000   1.0000   0.0000   0.0000
     0.0000   0.0000

          k =-0.1886-0.3771 0.5657 (  3915 PWs)   bands (ev):

   -12.4188 -12.4074 -12.3171 -12.2575 -12.2427 -12.1999 -12.1704 -12.1516
   -12.0566 -12.0457  -0.6648   1.3208   5.8182   6.8656   9.8539  11.7196
    13.2222  13.6429

     occupation numbers 
     1.0000   1.0000   1.0000   1.0000   1.0000   1.0000   1.0000   1.0000
     1.0000   1.0000   1.0000   1.0000   1.0000   1.0000   0.0000   0.0000
     0.0000   0.0000

          k = 0.4714 0.1886-0.0000 (  3924 PWs)   bands (ev):

   -12.4089 -12.4067 -12.3363 -12.2641 -12.2312 -12.2214 -12.1555 -12.1293
   -12.0578 -12.0575  -1.0323   1.8757   6.1726   6.7866  10.2054  10.4614
    12.9888  14.0361

     occupation numbers 
     1.0000   1.0000   1.0000   1.0000   1.0000   1.0000   1.0000   1.0000
     1.0000   1.0000   1.0000   1.0000   1.0000   1.0000   0.0000   0.0000
     0.0000   0.0000

          k =-0.1886-0.4714 0.6600 (  3920 PWs)   bands (ev):

   -12.4156 -12.4094 -12.3212 -12.2549 -12.2288 -12.2224 -12.1669 -12.1445
   -12.0548 -12.0491  -0.7359   1.4577   5.9184   6.6354  10.2322  10.9937
    12.8855  14.1607

     occupation numbers 
     1.0000   1.0000   1.0000   1.0000   1.0000   1.0000   1.0000   1.0000
     1.0000   1.0000   1.0000   1.0000   1.0000   1.0000   0.0000   0.0000
     0.0000   0.0000

          k =-0.1414-0.4243 0.6128 (  3918 PWs)   bands (ev):

   -12.4204 -12.4108 -12.3094 -12.2471 -12.2293 -12.2201 -12.1786 -12.1548
   -12.0529 -12.0434  -0.4808   1.1306   5.7401   6.5633  10.2174  11.5521
    12.9516  13.9219

     occupation numbers 
     1.0000   1.0000   1.0000   1.0000   1.0000   1.0000   1.0000   1.0000
     1.0000   1.0000   1.0000   1.0000   1.0000   1.0000   0.0000   0.0000
     0.0000   0.0000

          k =-0.0943-0.3771 0.5657 (  3920 PWs)   bands (ev):

   -12.4221 -12.4111 -12.3051 -12.2454 -12.2267 -12.2198 -12.1844 -12.1583
   -12.0522 -12.0416  -0.4093   1.0441   5.6543   6.5904  10.2132  11.8318
    13.2062  13.5109

     occupation numbers 
     1.0000   1.0000   1.0000   1.0000   1.0000   1.0000   1.0000   1.0000
     1.0000   1.0000   1.0000   1.0000   1.0000   1.0000   0.0000   0.0000
     0.0000   0.0000

          k =-0.0471-0.3300 0.5185 (  3910 PWs)   bands (ev):

   -12.4205 -12.4104 -12.3093 -12.2529 -12.2286 -12.2155 -12.1774 -12.1560
   -12.0527 -12.0439  -0.5853   1.2614   5.6804   6.7091  10.2022  11.7599
    12.8619  13.7767

     occupation numbers 
     1.0000   1.0000   1.0000   1.0000   1.0000   1.0000   1.0000   1.0000
     1.0000   1.0000   1.0000   1.0000   1.0000   1.0000   0.0000   0.0000
     0.0000   0.0000

          k = 0.0000-0.2828 0.4714 (  3913 PWs)   bands (ev):

   -12.4159 -12.4084 -12.3204 -12.2636 -12.2350 -12.2095 -12.1614 -12.1494
   -12.0547 -12.0498  -0.8705   1.6358   5.8349   6.8939  10.1260  11.4032
    12.7315  13.7928

     occupation numbers 
     1.0000   1.0000   1.0000   1.0000   1.0000   1.0000   1.0000   1.0000
     1.0000   1.0000   1.0000   1.0000   1.0000   1.0000   0.0000   0.0000
     0.0000   0.0000

          k =-0.1414-0.5185 0.7071 (  3933 PWs)   bands (ev):

   -12.4136 -12.4116 -12.3204 -12.2496 -12.2438 -12.2067 -12.1759 -12.1423
   -12.0522 -12.0511  -0.5495   1.2232   6.0283   6.4019  10.3295  10.3337
    13.3691  14.5871

     occupation numbers 
     1.0000   1.0000   1.0000   1.0000   1.0000   1.0000   1.0000   1.0000
     1.0000   1.0000   1.0000   1.0000   1.0000   1.0000   0.0000   0.0000
     0.0000   0.0000

          k =-0.0943-0.4714 0.6600 (  3920 PWs)   bands (ev):

   -12.4191 -12.4134 -12.3041 -12.2531 -12.2340 -12.2025 -12.1881 -12.1577
   -12.0501 -12.0445  -0.2585   0.8807   5.8280   6.3030  10.3257  11.0099
    13.2234  14.2537

     occupation numbers 
     1.0000   1.0000   1.0000   1.0000   1.0000   1.0000   1.0000   1.0000
     1.0000   1.0000   1.0000   1.0000   1.0000   1.0000   0.0000   0.0000
     0.0000   0.0000

          k =-0.0471-0.4243 0.6128 (  3920 PWs)   bands (ev):

   -12.4227 -12.4137 -12.2961 -12.2465 -12.2281 -12.2084 -12.1968 -12.1642
   -12.0495 -12.0406  -0.1232   0.7330   5.6595   6.3453  10.3377  11.6972
    13.1515  13.6410

     occupation numbers 
     1.0000   1.0000   1.0000   1.0000   1.0000   1.0000   1.0000   1.0000
     1.0000   1.0000   1.0000   1.0000   1.0000   1.0000   0.0000   0.0000
     0.0000   0.0000

          k = 0.0000-0.3771 0.5657 (  3922 PWs)   bands (ev):

   -12.4232 -12.4127 -12.2991 -12.2381 -12.2312 -12.2161 -12.1936 -12.1619
   -12.0503 -12.0404  -0.2954   0.9262   5.5974   6.4924  10.3281  12.0161
    12.9498  13.5164

     occupation numbers 
     1.0000   1.0000   1.0000   1.0000   1.0000   1.0000   1.0000   1.0000
     1.0000   1.0000   1.0000   1.0000   1.0000   1.0000   0.0000   0.0000
     0.0000   0.0000

          k =-0.0471-0.5185 0.7071 (  3925 PWs)   bands (ev):

   -12.4156 -12.4148 -12.3002 -12.2762 -12.2214 -12.1983 -12.1826 -12.1606
   -12.0485 -12.0479  -0.0038   0.5918   6.0169   6.1421  10.2944  10.3162
    13.9473  14.4914

     occupation numbers 
     1.0000   1.0000   1.0000   1.0000   1.0000   1.0000   1.0000   1.0000
     1.0000   1.0000   1.0000   1.0000   1.0000   1.0000   0.0000   0.0000
     0.0000   0.0000

          k = 0.0000-0.4714 0.6600 (  3920 PWs)   bands (ev):

   -12.4202 -12.4150 -12.2903 -12.2698 -12.2153 -12.2073 -12.1880 -12.1691
   -12.0482 -12.0430   0.1477   0.4415   5.8157   6.1709  10.3312  11.0233
    13.7196  13.8345

     occupation numbers 
     1.0000   1.0000   1.0000   1.0000   1.0000   1.0000   1.0000   1.0000
     1.0000   1.0000   1.0000   1.0000   1.0000   1.0000   0.0000   0.0000
     0.0000   0.0000

          k =-0.1414-0.4243 0.7071 (  3899 PWs)   bands (ev):

   -12.4194 -12.4136 -12.3049 -12.2447 -12.2362 -12.2141 -12.1812 -12.1584
   -12.0496 -12.0447  -0.4366   1.0921   5.7571   6.4155  10.6029  11.2261
    12.7755  14.0638

     occupation numbers 
     1.0000   1.0000   1.0000   1.0000   1.0000   1.0000   1.0000   1.0000
     1.0000   1.0000   1.0000   1.0000   1.0000   1.0000   0.0000   0.0000
     0.0000   0.0000

          k =-0.0943-0.3771 0.6600 (  3919 PWs)   bands (ev):

   -12.4221 -12.4152 -12.2934 -12.2428 -12.2336 -12.2099 -12.1934 -12.1669
   -12.0479 -12.0413  -0.1889   0.8094   5.6845   6.2796  10.7078  11.6136
    12.8631  13.5369

     occupation numbers 
     1.0000   1.0000   1.0000   1.0000   1.0000   1.0000   1.0000   1.0000
     1.0000   1.0000   1.0000   1.0000   1.0000   1.0000   0.0000   0.0000
     0.0000   0.0000

          k =-0.0471-0.4243 0.7071 (  3915 PWs)   bands (ev):

   -12.4200 -12.4178 -12.2852 -12.2619 -12.2239 -12.2024 -12.1930 -12.1737
   -12.0452 -12.0432   0.0442   0.5580   5.8285   6.0511  10.9156  11.0866
    13.0958  13.6352

     occupation numbers 
     1.0000   1.0000   1.0000   1.0000   1.0000   1.0000   1.0000   1.0000
     1.0000   1.0000   1.0000   1.0000   1.0000   1.0000   0.0000   0.0000
     0.0000   0.0000

          k =-0.0000-0.3771 0.6600 (  3913 PWs)   bands (ev):

   -12.4218 -12.4179 -12.2808 -12.2576 -12.2222 -12.2073 -12.1957 -12.1765
   -12.0451 -12.0413   0.0968   0.5065   5.7532   6.0619  10.9488  11.5504
    12.9931  13.1816

     occupation numbers 
     1.0000   1.0000   1.0000   1.0000   1.0000   1.0000   1.0000   1.0000
     1.0000   1.0000   1.0000   1.0000   1.0000   1.0000   0.0000   0.0000
     0.0000   0.0000

     the Fermi energy is     8.3133 ev

!    total energy              =    -233.44807696 Ry
     Harris-Foulkes estimate   =    -233.44807710 Ry
     estimated scf accuracy    <       0.00000039 Ry

     The total energy is the sum of the following terms:

     one-electron contribution =     -95.31665558 Ry
     hartree contribution      =      58.35656860 Ry
     xc contribution           =     -28.70632075 Ry
     ewald contribution        =    -167.78134162 Ry
     smearing contrib. (-TS)   =      -0.00032761 Ry

     convergence has been achieved in   5 iterations

     Writing output data file Sn.save
 
     init_run     :      2.39s CPU      2.50s WALL (       1 calls)
     electrons    :     46.67s CPU     47.42s WALL (       1 calls)

     Called by init_run:
     wfcinit      :      2.25s CPU      2.29s WALL (       1 calls)
     potinit      :      0.02s CPU      0.02s WALL (       1 calls)

     Called by electrons:
     c_bands      :     41.54s CPU     42.20s WALL (       5 calls)
     sum_band     :      5.07s CPU      5.14s WALL (       5 calls)
     v_of_rho     :      0.05s CPU      0.05s WALL (       6 calls)
     v_h          :      0.00s CPU      0.00s WALL (       6 calls)
     v_xc         :      0.04s CPU      0.05s WALL (       6 calls)
     mix_rho      :      0.01s CPU      0.01s WALL (       5 calls)

     Called by c_bands:
     init_us_2    :      0.16s CPU      0.17s WALL (    1320 calls)
     cegterg      :     40.62s CPU     41.22s WALL (     600 calls)

     Called by sum_band:

     Called by *egterg:
     h_psi        :     36.37s CPU     36.89s WALL (    2627 calls)
     g_psi        :      0.09s CPU      0.09s WALL (    1907 calls)
     cdiaghg      :      2.67s CPU      2.69s WALL (    2507 calls)
     cegterg:over :      1.62s CPU      1.65s WALL (    1907 calls)
     cegterg:upda :      0.43s CPU      0.44s WALL (    1907 calls)
     cegterg:last :      0.22s CPU      0.23s WALL (     721 calls)

     Called by h_psi:
     h_psi:vloc   :     34.50s CPU     35.00s WALL (    2627 calls)
     h_psi:vnl    :      1.82s CPU      1.85s WALL (    2627 calls)
     add_vuspsi   :      0.43s CPU      0.44s WALL (    2627 calls)

     General routines
     calbec       :      1.37s CPU      1.39s WALL (    2627 calls)
     fft          :      0.05s CPU      0.06s WALL (      65 calls)
     fftw         :     38.27s CPU     38.81s WALL (   84814 calls)
     davcio       :      0.01s CPU      0.06s WALL (     120 calls)
 
     Parallel routines
     fft_scatter  :     30.56s CPU     31.01s WALL (   84879 calls)
 
     PWSCF        :    49.32s CPU        50.35s WALL

 
   This run was terminated on:   0:52:46  21Feb2020            

=------------------------------------------------------------------------------=
   JOB DONE.
=------------------------------------------------------------------------------=
