
     Program PWSCF v.5.4.0 starts on  8Mar2020 at 22:44:27 

     This program is part of the open-source Quantum ESPRESSO suite
     for quantum simulation of materials; please cite
         "P. Giannozzi et al., J. Phys.:Condens. Matter 21 395502 (2009);
          URL http://www.quantum-espresso.org", 
     in publications or presentations arising from this work. More details at
     http://www.quantum-espresso.org/quote

     Parallel version (MPI & OpenMP), running on      16 processor cores
     Number of MPI processes:                16
     Threads/MPI process:                     1
     R & G space division:  proc/nbgrp/npool/nimage =      16
     Waiting for input...
     Reading input from standard input
Warning: card &IONS ignored
Warning: card / ignored
Warning: card &CELL ignored
Warning: card / ignored

     Current dimensions of program PWSCF are:
     Max number of different atomic species (ntypx) = 10
     Max number of k-points (npk) =  40000
     Max angular momentum in pseudopotentials (lmaxx) =  3
               file Sn.rel-pbe-dn-kjpaw_psl.1.0.0.UPF: wavefunction(s)  5S 5P 5P 4D 4D renormalized

     Subspace diagonalization in iterative solution of the eigenvalue problem:
     a serial algorithm will be used

 
     Parallelization info
     --------------------
     sticks:   dense  smooth     PW     G-vecs:    dense   smooth      PW
     Min          52      52     15                 1019     1019     168
     Max          53      53     16                 1023     1023     172
     Sum         847     847    253                16361    16361    2733
 

     Title: 
     Sn                                                                         


     bravais-lattice index     =            0
     lattice parameter (alat)  =       8.7524  a.u.
     unit-cell volume          =     474.0897 (a.u.)^3
     number of atoms/cell      =            2
     number of atomic types    =            1
     number of electrons       =        28.00
     number of Kohn-Sham states=           36
     kinetic-energy cutoff     =      40.0000  Ry
     charge density cutoff     =     160.0000  Ry
     convergence threshold     =      1.0E-06
     mixing beta               =       0.7000
     number of iterations used =            8  plain     mixing
     Exchange-correlation      =  SLA  PW   PBX  PBC ( 1  4  3  4 0 0)
     Non magnetic calculation with spin-orbit


     celldm(1)=   8.752360  celldm(2)=   0.000000  celldm(3)=   0.000000
     celldm(4)=   0.000000  celldm(5)=   0.000000  celldm(6)=   0.000000

     crystal axes: (cart. coord. in units of alat)
               a(1) = (   0.000000   0.707107   0.707107 )  
               a(2) = (   0.707107   0.000000   0.707107 )  
               a(3) = (   0.707107   0.707107   0.000000 )  

     reciprocal axes: (cart. coord. in units 2 pi/alat)
               b(1) = ( -0.707107  0.707107  0.707107 )  
               b(2) = (  0.707107 -0.707107  0.707107 )  
               b(3) = (  0.707107  0.707107 -0.707107 )  


     PseudoPot. # 1 for Sn read from file:
     ../PseudopotentialDatabase/Sn.rel-pbe-dn-kjpaw_psl.1.0.0.UPF
     MD5 check sum: 6bcaba2b82cf8d008985ef5bb9854e68
     Pseudo is Projector augmented-wave + core cor, Zval = 14.0
     Generated using "atomic" code by A. Dal Corso  v.6.3
     Shape of augmentation charge: PSQ
     Using radial grid of 1243 points, 10 beta functions with: 
                l(1) =   0
                l(2) =   0
                l(3) =   1
                l(4) =   1
                l(5) =   1
                l(6) =   1
                l(7) =   2
                l(8) =   2
                l(9) =   2
               l(10) =   2
     Q(r) pseudized with 0 coefficients 


     atomic species   valence    mass     pseudopotential
        Sn            14.00   118.71000     Sn( 1.00)

     48 Sym. Ops., with inversion, found (24 have fractional translation)


                                    s                        frac. trans.

      isym =  1     identity                                     

 cryst.   s( 1) = (     1          0          0      )
                  (     0          1          0      )
                  (     0          0          1      )

 cart.    s( 1) = (  1.0000000  0.0000000  0.0000000 )
                  (  0.0000000  1.0000000  0.0000000 )
                  (  0.0000000  0.0000000  1.0000000 )


      isym =  2     180 deg rotation - cart. axis [0,0,1]        

 cryst.   s( 2) = (     0          1         -1      )
                  (     1          0         -1      )
                  (     0          0         -1      )

 cart.    s( 2) = ( -1.0000000  0.0000000  0.0000000 )
                  (  0.0000000 -1.0000000  0.0000000 )
                  (  0.0000000  0.0000000  1.0000000 )


      isym =  3     180 deg rotation - cart. axis [0,1,0]        

 cryst.   s( 3) = (     0         -1          1      )
                  (     0         -1          0      )
                  (     1         -1          0      )

 cart.    s( 3) = ( -1.0000000  0.0000000  0.0000000 )
                  (  0.0000000  1.0000000  0.0000000 )
                  (  0.0000000  0.0000000 -1.0000000 )


      isym =  4     180 deg rotation - cart. axis [1,0,0]        

 cryst.   s( 4) = (    -1          0          0      )
                  (    -1          0          1      )
                  (    -1          1          0      )

 cart.    s( 4) = (  1.0000000  0.0000000  0.0000000 )
                  (  0.0000000 -1.0000000  0.0000000 )
                  (  0.0000000  0.0000000 -1.0000000 )


      isym =  5     180 deg rotation - cart. axis [1,1,0]        

 cryst.   s( 5) = (    -1          0          1      )    f =( -0.2500000 )
                  (     0         -1          1      )       ( -0.2500000 )
                  (     0          0          1      )       ( -0.2500000 )

 cart.    s( 5) = (  0.0000000  1.0000000  0.0000000 )    f =( -0.3535534 )
                  (  1.0000000  0.0000000  0.0000000 )       ( -0.3535534 )
                  (  0.0000000  0.0000000 -1.0000000 )       ( -0.3535534 )


      isym =  6     180 deg rotation - cart. axis [1,-1,0]       

 cryst.   s( 6) = (     0         -1          0      )    f =( -0.2500000 )
                  (    -1          0          0      )       ( -0.2500000 )
                  (     0          0         -1      )       ( -0.2500000 )

 cart.    s( 6) = (  0.0000000 -1.0000000  0.0000000 )    f =( -0.3535534 )
                  ( -1.0000000  0.0000000  0.0000000 )       ( -0.3535534 )
                  (  0.0000000  0.0000000 -1.0000000 )       ( -0.3535534 )


      isym =  7      90 deg rotation - cart. axis [0,0,-1]       

 cryst.   s( 7) = (     0          1          0      )    f =( -0.2500000 )
                  (     0          1         -1      )       ( -0.2500000 )
                  (    -1          1          0      )       ( -0.2500000 )

 cart.    s( 7) = (  0.0000000  1.0000000  0.0000000 )    f =( -0.3535534 )
                  ( -1.0000000  0.0000000  0.0000000 )       ( -0.3535534 )
                  (  0.0000000  0.0000000  1.0000000 )       ( -0.3535534 )


      isym =  8      90 deg rotation - cart. axis [0,0,1]        

 cryst.   s( 8) = (     1          0         -1      )    f =( -0.2500000 )
                  (     1          0          0      )       ( -0.2500000 )
                  (     1         -1          0      )       ( -0.2500000 )

 cart.    s( 8) = (  0.0000000 -1.0000000  0.0000000 )    f =( -0.3535534 )
                  (  1.0000000  0.0000000  0.0000000 )       ( -0.3535534 )
                  (  0.0000000  0.0000000  1.0000000 )       ( -0.3535534 )


      isym =  9     180 deg rotation - cart. axis [1,0,1]        

 cryst.   s( 9) = (    -1          1          0      )    f =( -0.2500000 )
                  (     0          1          0      )       ( -0.2500000 )
                  (     0          1         -1      )       ( -0.2500000 )

 cart.    s( 9) = (  0.0000000  0.0000000  1.0000000 )    f =( -0.3535534 )
                  (  0.0000000 -1.0000000  0.0000000 )       ( -0.3535534 )
                  (  1.0000000  0.0000000  0.0000000 )       ( -0.3535534 )


      isym = 10     180 deg rotation - cart. axis [-1,0,1]       

 cryst.   s(10) = (     0          0         -1      )    f =( -0.2500000 )
                  (     0         -1          0      )       ( -0.2500000 )
                  (    -1          0          0      )       ( -0.2500000 )

 cart.    s(10) = (  0.0000000  0.0000000 -1.0000000 )    f =( -0.3535534 )
                  (  0.0000000 -1.0000000  0.0000000 )       ( -0.3535534 )
                  ( -1.0000000  0.0000000  0.0000000 )       ( -0.3535534 )


      isym = 11      90 deg rotation - cart. axis [0,1,0]        

 cryst.   s(11) = (     0          0          1      )    f =( -0.2500000 )
                  (    -1          0          1      )       ( -0.2500000 )
                  (     0         -1          1      )       ( -0.2500000 )

 cart.    s(11) = (  0.0000000  0.0000000  1.0000000 )    f =( -0.3535534 )
                  (  0.0000000  1.0000000  0.0000000 )       ( -0.3535534 )
                  ( -1.0000000  0.0000000  0.0000000 )       ( -0.3535534 )


      isym = 12      90 deg rotation - cart. axis [0,-1,0]       

 cryst.   s(12) = (     1         -1          0      )    f =( -0.2500000 )
                  (     1          0         -1      )       ( -0.2500000 )
                  (     1          0          0      )       ( -0.2500000 )

 cart.    s(12) = (  0.0000000  0.0000000 -1.0000000 )    f =( -0.3535534 )
                  (  0.0000000  1.0000000  0.0000000 )       ( -0.3535534 )
                  (  1.0000000  0.0000000  0.0000000 )       ( -0.3535534 )


      isym = 13     180 deg rotation - cart. axis [0,1,1]        

 cryst.   s(13) = (     1          0          0      )    f =( -0.2500000 )
                  (     1         -1          0      )       ( -0.2500000 )
                  (     1          0         -1      )       ( -0.2500000 )

 cart.    s(13) = ( -1.0000000  0.0000000  0.0000000 )    f =( -0.3535534 )
                  (  0.0000000  0.0000000  1.0000000 )       ( -0.3535534 )
                  (  0.0000000  1.0000000  0.0000000 )       ( -0.3535534 )


      isym = 14     180 deg rotation - cart. axis [0,1,-1]       

 cryst.   s(14) = (    -1          0          0      )    f =( -0.2500000 )
                  (     0          0         -1      )       ( -0.2500000 )
                  (     0         -1          0      )       ( -0.2500000 )

 cart.    s(14) = ( -1.0000000  0.0000000  0.0000000 )    f =( -0.3535534 )
                  (  0.0000000  0.0000000 -1.0000000 )       ( -0.3535534 )
                  (  0.0000000 -1.0000000  0.0000000 )       ( -0.3535534 )


      isym = 15      90 deg rotation - cart. axis [-1,0,0]       

 cryst.   s(15) = (     0         -1          1      )    f =( -0.2500000 )
                  (     0          0          1      )       ( -0.2500000 )
                  (    -1          0          1      )       ( -0.2500000 )

 cart.    s(15) = (  1.0000000  0.0000000  0.0000000 )    f =( -0.3535534 )
                  (  0.0000000  0.0000000  1.0000000 )       ( -0.3535534 )
                  (  0.0000000 -1.0000000  0.0000000 )       ( -0.3535534 )


      isym = 16      90 deg rotation - cart. axis [1,0,0]        

 cryst.   s(16) = (     0          1         -1      )    f =( -0.2500000 )
                  (    -1          1          0      )       ( -0.2500000 )
                  (     0          1          0      )       ( -0.2500000 )

 cart.    s(16) = (  1.0000000  0.0000000  0.0000000 )    f =( -0.3535534 )
                  (  0.0000000  0.0000000 -1.0000000 )       ( -0.3535534 )
                  (  0.0000000  1.0000000  0.0000000 )       ( -0.3535534 )


      isym = 17     120 deg rotation - cart. axis [-1,-1,-1]     

 cryst.   s(17) = (     0          0          1      )
                  (     1          0          0      )
                  (     0          1          0      )

 cart.    s(17) = (  0.0000000  1.0000000  0.0000000 )
                  (  0.0000000  0.0000000  1.0000000 )
                  (  1.0000000  0.0000000  0.0000000 )


      isym = 18     120 deg rotation - cart. axis [-1,1,1]       

 cryst.   s(18) = (     1         -1          0      )
                  (     0         -1          1      )
                  (     0         -1          0      )

 cart.    s(18) = (  0.0000000 -1.0000000  0.0000000 )
                  (  0.0000000  0.0000000  1.0000000 )
                  ( -1.0000000  0.0000000  0.0000000 )


      isym = 19     120 deg rotation - cart. axis [1,1,-1]       

 cryst.   s(19) = (    -1          1          0      )
                  (    -1          0          0      )
                  (    -1          0          1      )

 cart.    s(19) = (  0.0000000  1.0000000  0.0000000 )
                  (  0.0000000  0.0000000 -1.0000000 )
                  ( -1.0000000  0.0000000  0.0000000 )


      isym = 20     120 deg rotation - cart. axis [1,-1,1]       

 cryst.   s(20) = (     0          0         -1      )
                  (     0          1         -1      )
                  (     1          0         -1      )

 cart.    s(20) = (  0.0000000 -1.0000000  0.0000000 )
                  (  0.0000000  0.0000000 -1.0000000 )
                  (  1.0000000  0.0000000  0.0000000 )


      isym = 21     120 deg rotation - cart. axis [1,1,1]        

 cryst.   s(21) = (     0          1          0      )
                  (     0          0          1      )
                  (     1          0          0      )

 cart.    s(21) = (  0.0000000  0.0000000  1.0000000 )
                  (  1.0000000  0.0000000  0.0000000 )
                  (  0.0000000  1.0000000  0.0000000 )


      isym = 22     120 deg rotation - cart. axis [-1,1,-1]      

 cryst.   s(22) = (    -1          0          1      )
                  (    -1          1          0      )
                  (    -1          0          0      )

 cart.    s(22) = (  0.0000000  0.0000000  1.0000000 )
                  ( -1.0000000  0.0000000  0.0000000 )
                  (  0.0000000 -1.0000000  0.0000000 )


      isym = 23     120 deg rotation - cart. axis [1,-1,-1]      

 cryst.   s(23) = (     1          0         -1      )
                  (     0          0         -1      )
                  (     0          1         -1      )

 cart.    s(23) = (  0.0000000  0.0000000 -1.0000000 )
                  ( -1.0000000  0.0000000  0.0000000 )
                  (  0.0000000  1.0000000  0.0000000 )


      isym = 24     120 deg rotation - cart. axis [-1,-1,1]      

 cryst.   s(24) = (     0         -1          0      )
                  (     1         -1          0      )
                  (     0         -1          1      )

 cart.    s(24) = (  0.0000000  0.0000000 -1.0000000 )
                  (  1.0000000  0.0000000  0.0000000 )
                  (  0.0000000 -1.0000000  0.0000000 )


      isym = 25     inversion                                    

 cryst.   s(25) = (    -1          0          0      )    f =( -0.2500000 )
                  (     0         -1          0      )       ( -0.2500000 )
                  (     0          0         -1      )       ( -0.2500000 )

 cart.    s(25) = ( -1.0000000  0.0000000  0.0000000 )    f =( -0.3535534 )
                  (  0.0000000 -1.0000000  0.0000000 )       ( -0.3535534 )
                  (  0.0000000  0.0000000 -1.0000000 )       ( -0.3535534 )


      isym = 26     inv. 180 deg rotation - cart. axis [0,0,1]   

 cryst.   s(26) = (     0         -1          1      )    f =( -0.2500000 )
                  (    -1          0          1      )       ( -0.2500000 )
                  (     0          0          1      )       ( -0.2500000 )

 cart.    s(26) = (  1.0000000  0.0000000  0.0000000 )    f =( -0.3535534 )
                  (  0.0000000  1.0000000  0.0000000 )       ( -0.3535534 )
                  (  0.0000000  0.0000000 -1.0000000 )       ( -0.3535534 )


      isym = 27     inv. 180 deg rotation - cart. axis [0,1,0]   

 cryst.   s(27) = (     0          1         -1      )    f =( -0.2500000 )
                  (     0          1          0      )       ( -0.2500000 )
                  (    -1          1          0      )       ( -0.2500000 )

 cart.    s(27) = (  1.0000000  0.0000000  0.0000000 )    f =( -0.3535534 )
                  (  0.0000000 -1.0000000  0.0000000 )       ( -0.3535534 )
                  (  0.0000000  0.0000000  1.0000000 )       ( -0.3535534 )


      isym = 28     inv. 180 deg rotation - cart. axis [1,0,0]   

 cryst.   s(28) = (     1          0          0      )    f =( -0.2500000 )
                  (     1          0         -1      )       ( -0.2500000 )
                  (     1         -1          0      )       ( -0.2500000 )

 cart.    s(28) = ( -1.0000000  0.0000000  0.0000000 )    f =( -0.3535534 )
                  (  0.0000000  1.0000000  0.0000000 )       ( -0.3535534 )
                  (  0.0000000  0.0000000  1.0000000 )       ( -0.3535534 )


      isym = 29     inv. 180 deg rotation - cart. axis [1,1,0]   

 cryst.   s(29) = (     1          0         -1      )
                  (     0          1         -1      )
                  (     0          0         -1      )

 cart.    s(29) = (  0.0000000 -1.0000000  0.0000000 )
                  ( -1.0000000  0.0000000  0.0000000 )
                  (  0.0000000  0.0000000  1.0000000 )


      isym = 30     inv. 180 deg rotation - cart. axis [1,-1,0]  

 cryst.   s(30) = (     0          1          0      )
                  (     1          0          0      )
                  (     0          0          1      )

 cart.    s(30) = (  0.0000000  1.0000000  0.0000000 )
                  (  1.0000000  0.0000000  0.0000000 )
                  (  0.0000000  0.0000000  1.0000000 )


      isym = 31     inv.  90 deg rotation - cart. axis [0,0,-1]  

 cryst.   s(31) = (     0         -1          0      )
                  (     0         -1          1      )
                  (     1         -1          0      )

 cart.    s(31) = (  0.0000000 -1.0000000  0.0000000 )
                  (  1.0000000  0.0000000  0.0000000 )
                  (  0.0000000  0.0000000 -1.0000000 )


      isym = 32     inv.  90 deg rotation - cart. axis [0,0,1]   

 cryst.   s(32) = (    -1          0          1      )
                  (    -1          0          0      )
                  (    -1          1          0      )

 cart.    s(32) = (  0.0000000  1.0000000  0.0000000 )
                  ( -1.0000000  0.0000000  0.0000000 )
                  (  0.0000000  0.0000000 -1.0000000 )


      isym = 33     inv. 180 deg rotation - cart. axis [1,0,1]   

 cryst.   s(33) = (     1         -1          0      )
                  (     0         -1          0      )
                  (     0         -1          1      )

 cart.    s(33) = (  0.0000000  0.0000000 -1.0000000 )
                  (  0.0000000  1.0000000  0.0000000 )
                  ( -1.0000000  0.0000000  0.0000000 )


      isym = 34     inv. 180 deg rotation - cart. axis [-1,0,1]  

 cryst.   s(34) = (     0          0          1      )
                  (     0          1          0      )
                  (     1          0          0      )

 cart.    s(34) = (  0.0000000  0.0000000  1.0000000 )
                  (  0.0000000  1.0000000  0.0000000 )
                  (  1.0000000  0.0000000  0.0000000 )


      isym = 35     inv.  90 deg rotation - cart. axis [0,1,0]   

 cryst.   s(35) = (     0          0         -1      )
                  (     1          0         -1      )
                  (     0          1         -1      )

 cart.    s(35) = (  0.0000000  0.0000000 -1.0000000 )
                  (  0.0000000 -1.0000000  0.0000000 )
                  (  1.0000000  0.0000000  0.0000000 )


      isym = 36     inv.  90 deg rotation - cart. axis [0,-1,0]  

 cryst.   s(36) = (    -1          1          0      )
                  (    -1          0          1      )
                  (    -1          0          0      )

 cart.    s(36) = (  0.0000000  0.0000000  1.0000000 )
                  (  0.0000000 -1.0000000  0.0000000 )
                  ( -1.0000000  0.0000000  0.0000000 )


      isym = 37     inv. 180 deg rotation - cart. axis [0,1,1]   

 cryst.   s(37) = (    -1          0          0      )
                  (    -1          1          0      )
                  (    -1          0          1      )

 cart.    s(37) = (  1.0000000  0.0000000  0.0000000 )
                  (  0.0000000  0.0000000 -1.0000000 )
                  (  0.0000000 -1.0000000  0.0000000 )


      isym = 38     inv. 180 deg rotation - cart. axis [0,1,-1]  

 cryst.   s(38) = (     1          0          0      )
                  (     0          0          1      )
                  (     0          1          0      )

 cart.    s(38) = (  1.0000000  0.0000000  0.0000000 )
                  (  0.0000000  0.0000000  1.0000000 )
                  (  0.0000000  1.0000000  0.0000000 )


      isym = 39     inv.  90 deg rotation - cart. axis [-1,0,0]  

 cryst.   s(39) = (     0          1         -1      )
                  (     0          0         -1      )
                  (     1          0         -1      )

 cart.    s(39) = ( -1.0000000  0.0000000  0.0000000 )
                  (  0.0000000  0.0000000 -1.0000000 )
                  (  0.0000000  1.0000000  0.0000000 )


      isym = 40     inv.  90 deg rotation - cart. axis [1,0,0]   

 cryst.   s(40) = (     0         -1          1      )
                  (     1         -1          0      )
                  (     0         -1          0      )

 cart.    s(40) = ( -1.0000000  0.0000000  0.0000000 )
                  (  0.0000000  0.0000000  1.0000000 )
                  (  0.0000000 -1.0000000  0.0000000 )


      isym = 41     inv. 120 deg rotation - cart. axis [-1,-1,-1]

 cryst.   s(41) = (     0          0         -1      )    f =( -0.2500000 )
                  (    -1          0          0      )       ( -0.2500000 )
                  (     0         -1          0      )       ( -0.2500000 )

 cart.    s(41) = (  0.0000000 -1.0000000  0.0000000 )    f =( -0.3535534 )
                  (  0.0000000  0.0000000 -1.0000000 )       ( -0.3535534 )
                  ( -1.0000000  0.0000000  0.0000000 )       ( -0.3535534 )


      isym = 42     inv. 120 deg rotation - cart. axis [-1,1,1]  

 cryst.   s(42) = (    -1          1          0      )    f =( -0.2500000 )
                  (     0          1         -1      )       ( -0.2500000 )
                  (     0          1          0      )       ( -0.2500000 )

 cart.    s(42) = (  0.0000000  1.0000000  0.0000000 )    f =( -0.3535534 )
                  (  0.0000000  0.0000000 -1.0000000 )       ( -0.3535534 )
                  (  1.0000000  0.0000000  0.0000000 )       ( -0.3535534 )


      isym = 43     inv. 120 deg rotation - cart. axis [1,1,-1]  

 cryst.   s(43) = (     1         -1          0      )    f =( -0.2500000 )
                  (     1          0          0      )       ( -0.2500000 )
                  (     1          0         -1      )       ( -0.2500000 )

 cart.    s(43) = (  0.0000000 -1.0000000  0.0000000 )    f =( -0.3535534 )
                  (  0.0000000  0.0000000  1.0000000 )       ( -0.3535534 )
                  (  1.0000000  0.0000000  0.0000000 )       ( -0.3535534 )


      isym = 44     inv. 120 deg rotation - cart. axis [1,-1,1]  

 cryst.   s(44) = (     0          0          1      )    f =( -0.2500000 )
                  (     0         -1          1      )       ( -0.2500000 )
                  (    -1          0          1      )       ( -0.2500000 )

 cart.    s(44) = (  0.0000000  1.0000000  0.0000000 )    f =( -0.3535534 )
                  (  0.0000000  0.0000000  1.0000000 )       ( -0.3535534 )
                  ( -1.0000000  0.0000000  0.0000000 )       ( -0.3535534 )


      isym = 45     inv. 120 deg rotation - cart. axis [1,1,1]   

 cryst.   s(45) = (     0         -1          0      )    f =( -0.2500000 )
                  (     0          0         -1      )       ( -0.2500000 )
                  (    -1          0          0      )       ( -0.2500000 )

 cart.    s(45) = (  0.0000000  0.0000000 -1.0000000 )    f =( -0.3535534 )
                  ( -1.0000000  0.0000000  0.0000000 )       ( -0.3535534 )
                  (  0.0000000 -1.0000000  0.0000000 )       ( -0.3535534 )


      isym = 46     inv. 120 deg rotation - cart. axis [-1,1,-1] 

 cryst.   s(46) = (     1          0         -1      )    f =( -0.2500000 )
                  (     1         -1          0      )       ( -0.2500000 )
                  (     1          0          0      )       ( -0.2500000 )

 cart.    s(46) = (  0.0000000  0.0000000 -1.0000000 )    f =( -0.3535534 )
                  (  1.0000000  0.0000000  0.0000000 )       ( -0.3535534 )
                  (  0.0000000  1.0000000  0.0000000 )       ( -0.3535534 )


      isym = 47     inv. 120 deg rotation - cart. axis [1,-1,-1] 

 cryst.   s(47) = (    -1          0          1      )    f =( -0.2500000 )
                  (     0          0          1      )       ( -0.2500000 )
                  (     0         -1          1      )       ( -0.2500000 )

 cart.    s(47) = (  0.0000000  0.0000000  1.0000000 )    f =( -0.3535534 )
                  (  1.0000000  0.0000000  0.0000000 )       ( -0.3535534 )
                  (  0.0000000 -1.0000000  0.0000000 )       ( -0.3535534 )


      isym = 48     inv. 120 deg rotation - cart. axis [-1,-1,1] 

 cryst.   s(48) = (     0          1          0      )    f =( -0.2500000 )
                  (    -1          1          0      )       ( -0.2500000 )
                  (     0          1         -1      )       ( -0.2500000 )

 cart.    s(48) = (  0.0000000  0.0000000  1.0000000 )    f =( -0.3535534 )
                  ( -1.0000000  0.0000000  0.0000000 )       ( -0.3535534 )
                  (  0.0000000  1.0000000  0.0000000 )       ( -0.3535534 )


   Cartesian axes

     site n.     atom                  positions (alat units)
         1           Sn  tau(   1) = (   0.0000000   0.0000000   0.0000000  )
         2           Sn  tau(   2) = (   0.3535534   0.3535534   0.3535534  )

   Crystallographic axes

     site n.     atom                  positions (cryst. coord.)
         1           Sn  tau(   1) = (  0.0000000  0.0000000  0.0000000  )
         2           Sn  tau(   2) = (  0.2500000  0.2500000  0.2500000  )

     number of k points=   286  gaussian smearing, width (Ry)=  0.0001
                       cart. coord. in units 2pi/alat
        k(    1) = (   0.0000000   0.0000000   0.0000000), wk =   0.0001080
        k(    2) = (   0.0336718   0.0336718  -0.0336718), wk =   0.0008638
        k(    3) = (   0.0673435   0.0673435  -0.0673435), wk =   0.0008638
        k(    4) = (   0.1010153   0.1010153  -0.1010153), wk =   0.0008638
        k(    5) = (   0.1346870   0.1346870  -0.1346870), wk =   0.0008638
        k(    6) = (   0.1683588   0.1683588  -0.1683588), wk =   0.0008638
        k(    7) = (   0.2020305   0.2020305  -0.2020305), wk =   0.0008638
        k(    8) = (   0.2357023   0.2357023  -0.2357023), wk =   0.0008638
        k(    9) = (   0.2693740   0.2693740  -0.2693740), wk =   0.0008638
        k(   10) = (   0.3030458   0.3030458  -0.3030458), wk =   0.0008638
        k(   11) = (   0.3367175   0.3367175  -0.3367175), wk =   0.0008638
        k(   12) = (   0.0673435   0.0000000   0.0000000), wk =   0.0006479
        k(   13) = (   0.1010153   0.0336718  -0.0336718), wk =   0.0025915
        k(   14) = (   0.1346870   0.0673435  -0.0673435), wk =   0.0025915
        k(   15) = (   0.1683588   0.1010153  -0.1010153), wk =   0.0025915
        k(   16) = (   0.2020305   0.1346870  -0.1346870), wk =   0.0025915
        k(   17) = (   0.2357023   0.1683588  -0.1683588), wk =   0.0025915
        k(   18) = (   0.2693740   0.2020305  -0.2020305), wk =   0.0025915
        k(   19) = (   0.3030458   0.2357023  -0.2357023), wk =   0.0025915
        k(   20) = (   0.3367175   0.2693740  -0.2693740), wk =   0.0025915
        k(   21) = (   0.3703893   0.3030458  -0.3030458), wk =   0.0025915
        k(   22) = (  -0.3030458  -0.3703893   0.3703893), wk =   0.0025915
        k(   23) = (  -0.2693740  -0.3367175   0.3367175), wk =   0.0025915
        k(   24) = (  -0.2357023  -0.3030458   0.3030458), wk =   0.0025915
        k(   25) = (  -0.2020305  -0.2693740   0.2693740), wk =   0.0025915
        k(   26) = (  -0.1683588  -0.2357023   0.2357023), wk =   0.0025915
        k(   27) = (  -0.1346870  -0.2020305   0.2020305), wk =   0.0025915
        k(   28) = (  -0.1010153  -0.1683588   0.1683588), wk =   0.0025915
        k(   29) = (  -0.0673435  -0.1346870   0.1346870), wk =   0.0025915
        k(   30) = (  -0.0336718  -0.1010153   0.1010153), wk =   0.0025915
        k(   31) = (  -0.0000000  -0.0673435   0.0673435), wk =   0.0012958
        k(   32) = (   0.1346870   0.0000000   0.0000000), wk =   0.0006479
        k(   33) = (   0.1683588   0.0336718  -0.0336718), wk =   0.0025915
        k(   34) = (   0.2020305   0.0673435  -0.0673435), wk =   0.0025915
        k(   35) = (   0.2357023   0.1010153  -0.1010153), wk =   0.0025915
        k(   36) = (   0.2693740   0.1346870  -0.1346870), wk =   0.0025915
        k(   37) = (   0.3030458   0.1683588  -0.1683588), wk =   0.0025915
        k(   38) = (   0.3367175   0.2020305  -0.2020305), wk =   0.0025915
        k(   39) = (   0.3703893   0.2357023  -0.2357023), wk =   0.0025915
        k(   40) = (   0.4040610   0.2693740  -0.2693740), wk =   0.0025915
        k(   41) = (  -0.2693740  -0.4040610   0.4040610), wk =   0.0025915
        k(   42) = (  -0.2357023  -0.3703893   0.3703893), wk =   0.0025915
        k(   43) = (  -0.2020305  -0.3367175   0.3367175), wk =   0.0025915
        k(   44) = (  -0.1683588  -0.3030458   0.3030458), wk =   0.0025915
        k(   45) = (  -0.1346870  -0.2693740   0.2693740), wk =   0.0025915
        k(   46) = (  -0.1010153  -0.2357023   0.2357023), wk =   0.0025915
        k(   47) = (  -0.0673435  -0.2020305   0.2020305), wk =   0.0025915
        k(   48) = (  -0.0336718  -0.1683588   0.1683588), wk =   0.0025915
        k(   49) = (   0.0000000  -0.1346870   0.1346870), wk =   0.0012958
        k(   50) = (   0.2020305   0.0000000   0.0000000), wk =   0.0006479
        k(   51) = (   0.2357023   0.0336718  -0.0336718), wk =   0.0025915
        k(   52) = (   0.2693740   0.0673435  -0.0673435), wk =   0.0025915
        k(   53) = (   0.3030458   0.1010153  -0.1010153), wk =   0.0025915
        k(   54) = (   0.3367175   0.1346870  -0.1346870), wk =   0.0025915
        k(   55) = (   0.3703893   0.1683588  -0.1683588), wk =   0.0025915
        k(   56) = (   0.4040610   0.2020305  -0.2020305), wk =   0.0025915
        k(   57) = (   0.4377328   0.2357023  -0.2357023), wk =   0.0025915
        k(   58) = (  -0.2357023  -0.4377328   0.4377328), wk =   0.0025915
        k(   59) = (  -0.2020305  -0.4040610   0.4040610), wk =   0.0025915
        k(   60) = (  -0.1683588  -0.3703893   0.3703893), wk =   0.0025915
        k(   61) = (  -0.1346870  -0.3367175   0.3367175), wk =   0.0025915
        k(   62) = (  -0.1010153  -0.3030458   0.3030458), wk =   0.0025915
        k(   63) = (  -0.0673435  -0.2693740   0.2693740), wk =   0.0025915
        k(   64) = (  -0.0336718  -0.2357023   0.2357023), wk =   0.0025915
        k(   65) = (  -0.0000000  -0.2020305   0.2020305), wk =   0.0012958
        k(   66) = (   0.2693740   0.0000000   0.0000000), wk =   0.0006479
        k(   67) = (   0.3030458   0.0336718  -0.0336718), wk =   0.0025915
        k(   68) = (   0.3367175   0.0673435  -0.0673435), wk =   0.0025915
        k(   69) = (   0.3703893   0.1010153  -0.1010153), wk =   0.0025915
        k(   70) = (   0.4040610   0.1346870  -0.1346870), wk =   0.0025915
        k(   71) = (   0.4377328   0.1683588  -0.1683588), wk =   0.0025915
        k(   72) = (   0.4714045   0.2020305  -0.2020305), wk =   0.0025915
        k(   73) = (  -0.2020305  -0.4714045   0.4714045), wk =   0.0025915
        k(   74) = (  -0.1683588  -0.4377328   0.4377328), wk =   0.0025915
        k(   75) = (  -0.1346870  -0.4040610   0.4040610), wk =   0.0025915
        k(   76) = (  -0.1010153  -0.3703893   0.3703893), wk =   0.0025915
        k(   77) = (  -0.0673435  -0.3367175   0.3367175), wk =   0.0025915
        k(   78) = (  -0.0336718  -0.3030458   0.3030458), wk =   0.0025915
        k(   79) = (   0.0000000  -0.2693740   0.2693740), wk =   0.0012958
        k(   80) = (   0.3367175   0.0000000   0.0000000), wk =   0.0006479
        k(   81) = (   0.3703893   0.0336718  -0.0336718), wk =   0.0025915
        k(   82) = (   0.4040610   0.0673435  -0.0673435), wk =   0.0025915
        k(   83) = (   0.4377328   0.1010153  -0.1010153), wk =   0.0025915
        k(   84) = (   0.4714045   0.1346870  -0.1346870), wk =   0.0025915
        k(   85) = (   0.5050763   0.1683588  -0.1683588), wk =   0.0025915
        k(   86) = (  -0.1683588  -0.5050763   0.5050763), wk =   0.0025915
        k(   87) = (  -0.1346870  -0.4714045   0.4714045), wk =   0.0025915
        k(   88) = (  -0.1010153  -0.4377328   0.4377328), wk =   0.0025915
        k(   89) = (  -0.0673435  -0.4040610   0.4040610), wk =   0.0025915
        k(   90) = (  -0.0336718  -0.3703893   0.3703893), wk =   0.0025915
        k(   91) = (  -0.0000000  -0.3367175   0.3367175), wk =   0.0012958
        k(   92) = (   0.4040610   0.0000000   0.0000000), wk =   0.0006479
        k(   93) = (   0.4377328   0.0336718  -0.0336718), wk =   0.0025915
        k(   94) = (   0.4714045   0.0673435  -0.0673435), wk =   0.0025915
        k(   95) = (   0.5050763   0.1010153  -0.1010153), wk =   0.0025915
        k(   96) = (   0.5387480   0.1346870  -0.1346870), wk =   0.0025915
        k(   97) = (  -0.1346870  -0.5387480   0.5387480), wk =   0.0025915
        k(   98) = (  -0.1010153  -0.5050763   0.5050763), wk =   0.0025915
        k(   99) = (  -0.0673435  -0.4714045   0.4714045), wk =   0.0025915
        k(  100) = (  -0.0336718  -0.4377328   0.4377328), wk =   0.0025915
        k(  101) = (   0.0000000  -0.4040610   0.4040610), wk =   0.0012958
        k(  102) = (   0.4714045   0.0000000   0.0000000), wk =   0.0006479
        k(  103) = (   0.5050763   0.0336718  -0.0336718), wk =   0.0025915
        k(  104) = (   0.5387480   0.0673435  -0.0673435), wk =   0.0025915
        k(  105) = (   0.5724198   0.1010153  -0.1010153), wk =   0.0025915
        k(  106) = (  -0.1010153  -0.5724198   0.5724198), wk =   0.0025915
        k(  107) = (  -0.0673435  -0.5387480   0.5387480), wk =   0.0025915
        k(  108) = (  -0.0336718  -0.5050763   0.5050763), wk =   0.0025915
        k(  109) = (  -0.0000000  -0.4714045   0.4714045), wk =   0.0012958
        k(  110) = (   0.5387480   0.0000000   0.0000000), wk =   0.0006479
        k(  111) = (   0.5724198   0.0336718  -0.0336718), wk =   0.0025915
        k(  112) = (   0.6060915   0.0673435  -0.0673435), wk =   0.0025915
        k(  113) = (  -0.0673435  -0.6060915   0.6060915), wk =   0.0025915
        k(  114) = (  -0.0336718  -0.5724198   0.5724198), wk =   0.0025915
        k(  115) = (   0.0000000  -0.5387480   0.5387480), wk =   0.0012958
        k(  116) = (   0.6060915   0.0000000   0.0000000), wk =   0.0006479
        k(  117) = (   0.6397633   0.0336718  -0.0336718), wk =   0.0025915
        k(  118) = (  -0.0336718  -0.6397633   0.6397633), wk =   0.0025915
        k(  119) = (   0.0000000  -0.6060915   0.6060915), wk =   0.0012958
        k(  120) = (   0.6734350   0.0000000   0.0000000), wk =   0.0006479
        k(  121) = (   0.0000000  -0.6734350   0.6734350), wk =   0.0012958
        k(  122) = (   0.1346870   0.0673435  -0.0000000), wk =   0.0025915
        k(  123) = (   0.1683588   0.1010153  -0.0336718), wk =   0.0051830
        k(  124) = (   0.2020305   0.1346870  -0.0673435), wk =   0.0051830
        k(  125) = (   0.2357023   0.1683588  -0.1010153), wk =   0.0051830
        k(  126) = (   0.2693740   0.2020305  -0.1346870), wk =   0.0051830
        k(  127) = (   0.3030458   0.2357023  -0.1683588), wk =   0.0051830
        k(  128) = (   0.3367175   0.2693740  -0.2020305), wk =   0.0051830
        k(  129) = (   0.3703893   0.3030458  -0.2357023), wk =   0.0051830
        k(  130) = (  -0.3030458  -0.3703893   0.4377328), wk =   0.0051830
        k(  131) = (   0.2020305   0.0673435   0.0000000), wk =   0.0025915
        k(  132) = (   0.2357023   0.1010153  -0.0336718), wk =   0.0051830
        k(  133) = (   0.2693740   0.1346870  -0.0673435), wk =   0.0051830
        k(  134) = (   0.3030458   0.1683588  -0.1010153), wk =   0.0051830
        k(  135) = (   0.3367175   0.2020305  -0.1346870), wk =   0.0051830
        k(  136) = (   0.3703893   0.2357023  -0.1683588), wk =   0.0051830
        k(  137) = (   0.4040610   0.2693740  -0.2020305), wk =   0.0051830
        k(  138) = (  -0.2693740  -0.4040610   0.4714045), wk =   0.0051830
        k(  139) = (  -0.2357023  -0.3703893   0.4377328), wk =   0.0051830
        k(  140) = (  -0.2020305  -0.3367175   0.4040610), wk =   0.0051830
        k(  141) = (  -0.1683588  -0.3030458   0.3703893), wk =   0.0051830
        k(  142) = (  -0.1346870  -0.2693740   0.3367175), wk =   0.0051830
        k(  143) = (  -0.1010153  -0.2357023   0.3030458), wk =   0.0051830
        k(  144) = (  -0.0673435  -0.2020305   0.2693740), wk =   0.0051830
        k(  145) = (  -0.0336718  -0.1683588   0.2357023), wk =   0.0051830
        k(  146) = (   0.0000000  -0.1346870   0.2020305), wk =   0.0025915
        k(  147) = (   0.2693740   0.0673435  -0.0000000), wk =   0.0025915
        k(  148) = (   0.3030458   0.1010153  -0.0336718), wk =   0.0051830
        k(  149) = (   0.3367175   0.1346870  -0.0673435), wk =   0.0051830
        k(  150) = (   0.3703893   0.1683588  -0.1010153), wk =   0.0051830
        k(  151) = (   0.4040610   0.2020305  -0.1346870), wk =   0.0051830
        k(  152) = (   0.4377328   0.2357023  -0.1683588), wk =   0.0051830
        k(  153) = (  -0.2357023  -0.4377328   0.5050763), wk =   0.0051830
        k(  154) = (  -0.2020305  -0.4040610   0.4714045), wk =   0.0051830
        k(  155) = (  -0.1683588  -0.3703893   0.4377328), wk =   0.0051830
        k(  156) = (  -0.1346870  -0.3367175   0.4040610), wk =   0.0051830
        k(  157) = (  -0.1010153  -0.3030458   0.3703893), wk =   0.0051830
        k(  158) = (  -0.0673435  -0.2693740   0.3367175), wk =   0.0051830
        k(  159) = (  -0.0336718  -0.2357023   0.3030458), wk =   0.0051830
        k(  160) = (  -0.0000000  -0.2020305   0.2693740), wk =   0.0025915
        k(  161) = (   0.3367175   0.0673435   0.0000000), wk =   0.0025915
        k(  162) = (   0.3703893   0.1010153  -0.0336718), wk =   0.0051830
        k(  163) = (   0.4040610   0.1346870  -0.0673435), wk =   0.0051830
        k(  164) = (   0.4377328   0.1683588  -0.1010153), wk =   0.0051830
        k(  165) = (   0.4714045   0.2020305  -0.1346870), wk =   0.0051830
        k(  166) = (  -0.2020305  -0.4714045   0.5387480), wk =   0.0051830
        k(  167) = (  -0.1683588  -0.4377328   0.5050763), wk =   0.0051830
        k(  168) = (  -0.1346870  -0.4040610   0.4714045), wk =   0.0051830
        k(  169) = (  -0.1010153  -0.3703893   0.4377328), wk =   0.0051830
        k(  170) = (  -0.0673435  -0.3367175   0.4040610), wk =   0.0051830
        k(  171) = (  -0.0336718  -0.3030458   0.3703893), wk =   0.0051830
        k(  172) = (   0.0000000  -0.2693740   0.3367175), wk =   0.0025915
        k(  173) = (   0.4040610   0.0673435   0.0000000), wk =   0.0025915
        k(  174) = (   0.4377328   0.1010153  -0.0336718), wk =   0.0051830
        k(  175) = (   0.4714045   0.1346870  -0.0673435), wk =   0.0051830
        k(  176) = (   0.5050763   0.1683588  -0.1010153), wk =   0.0051830
        k(  177) = (  -0.1683588  -0.5050763   0.5724198), wk =   0.0051830
        k(  178) = (  -0.1346870  -0.4714045   0.5387480), wk =   0.0051830
        k(  179) = (  -0.1010153  -0.4377328   0.5050763), wk =   0.0051830
        k(  180) = (  -0.0673435  -0.4040610   0.4714045), wk =   0.0051830
        k(  181) = (  -0.0336718  -0.3703893   0.4377328), wk =   0.0051830
        k(  182) = (   0.0000000  -0.3367175   0.4040610), wk =   0.0025915
        k(  183) = (   0.4714045   0.0673435   0.0000000), wk =   0.0025915
        k(  184) = (   0.5050763   0.1010153  -0.0336718), wk =   0.0051830
        k(  185) = (   0.5387480   0.1346870  -0.0673435), wk =   0.0051830
        k(  186) = (  -0.1346870  -0.5387480   0.6060915), wk =   0.0051830
        k(  187) = (  -0.1010153  -0.5050763   0.5724198), wk =   0.0051830
        k(  188) = (  -0.0673435  -0.4714045   0.5387480), wk =   0.0051830
        k(  189) = (  -0.0336718  -0.4377328   0.5050763), wk =   0.0051830
        k(  190) = (   0.0000000  -0.4040610   0.4714045), wk =   0.0025915
        k(  191) = (   0.5387480   0.0673435  -0.0000000), wk =   0.0025915
        k(  192) = (   0.5724198   0.1010153  -0.0336718), wk =   0.0051830
        k(  193) = (  -0.1010153  -0.5724198   0.6397633), wk =   0.0051830
        k(  194) = (  -0.0673435  -0.5387480   0.6060915), wk =   0.0051830
        k(  195) = (  -0.0336718  -0.5050763   0.5724198), wk =   0.0051830
        k(  196) = (  -0.0000000  -0.4714045   0.5387480), wk =   0.0025915
        k(  197) = (   0.6060915   0.0673435   0.0000000), wk =   0.0025915
        k(  198) = (  -0.0673435  -0.6060915   0.6734350), wk =   0.0051830
        k(  199) = (  -0.0336718  -0.5724198   0.6397633), wk =   0.0051830
        k(  200) = (   0.0000000  -0.5387480   0.6060915), wk =   0.0025915
        k(  201) = (  -0.0336718  -0.6397633   0.7071068), wk =   0.0025915
        k(  202) = (   0.0000000  -0.6060915   0.6734350), wk =   0.0025915
        k(  203) = (   0.2693740   0.1346870  -0.0000000), wk =   0.0025915
        k(  204) = (   0.3030458   0.1683588  -0.0336718), wk =   0.0051830
        k(  205) = (   0.3367175   0.2020305  -0.0673435), wk =   0.0051830
        k(  206) = (   0.3703893   0.2357023  -0.1010153), wk =   0.0051830
        k(  207) = (   0.4040610   0.2693740  -0.1346870), wk =   0.0051830
        k(  208) = (  -0.2693740  -0.4040610   0.5387480), wk =   0.0051830
        k(  209) = (  -0.2357023  -0.3703893   0.5050763), wk =   0.0051830
        k(  210) = (   0.3367175   0.1346870   0.0000000), wk =   0.0025915
        k(  211) = (   0.3703893   0.1683588  -0.0336718), wk =   0.0051830
        k(  212) = (   0.4040610   0.2020305  -0.0673435), wk =   0.0051830
        k(  213) = (   0.4377328   0.2357023  -0.1010153), wk =   0.0051830
        k(  214) = (  -0.2357023  -0.4377328   0.5724198), wk =   0.0051830
        k(  215) = (  -0.2020305  -0.4040610   0.5387480), wk =   0.0051830
        k(  216) = (  -0.1683588  -0.3703893   0.5050763), wk =   0.0051830
        k(  217) = (  -0.1346870  -0.3367175   0.4714045), wk =   0.0051830
        k(  218) = (  -0.1010153  -0.3030458   0.4377328), wk =   0.0051830
        k(  219) = (  -0.0673435  -0.2693740   0.4040610), wk =   0.0051830
        k(  220) = (  -0.0336718  -0.2357023   0.3703893), wk =   0.0051830
        k(  221) = (  -0.0000000  -0.2020305   0.3367175), wk =   0.0025915
        k(  222) = (   0.4040610   0.1346870   0.0000000), wk =   0.0025915
        k(  223) = (   0.4377328   0.1683588  -0.0336718), wk =   0.0051830
        k(  224) = (   0.4714045   0.2020305  -0.0673435), wk =   0.0051830
        k(  225) = (  -0.2020305  -0.4714045   0.6060915), wk =   0.0051830
        k(  226) = (  -0.1683588  -0.4377328   0.5724198), wk =   0.0051830
        k(  227) = (  -0.1346870  -0.4040610   0.5387480), wk =   0.0051830
        k(  228) = (  -0.1010153  -0.3703893   0.5050763), wk =   0.0051830
        k(  229) = (  -0.0673435  -0.3367175   0.4714045), wk =   0.0051830
        k(  230) = (  -0.0336718  -0.3030458   0.4377328), wk =   0.0051830
        k(  231) = (   0.0000000  -0.2693740   0.4040610), wk =   0.0025915
        k(  232) = (   0.4714045   0.1346870   0.0000000), wk =   0.0025915
        k(  233) = (   0.5050763   0.1683588  -0.0336718), wk =   0.0051830
        k(  234) = (  -0.1683588  -0.5050763   0.6397633), wk =   0.0051830
        k(  235) = (  -0.1346870  -0.4714045   0.6060915), wk =   0.0051830
        k(  236) = (  -0.1010153  -0.4377328   0.5724198), wk =   0.0051830
        k(  237) = (  -0.0673435  -0.4040610   0.5387480), wk =   0.0051830
        k(  238) = (  -0.0336718  -0.3703893   0.5050763), wk =   0.0051830
        k(  239) = (  -0.0000000  -0.3367175   0.4714045), wk =   0.0025915
        k(  240) = (   0.5387480   0.1346870  -0.0000000), wk =   0.0025915
        k(  241) = (  -0.1346870  -0.5387480   0.6734350), wk =   0.0051830
        k(  242) = (  -0.1010153  -0.5050763   0.6397633), wk =   0.0051830
        k(  243) = (  -0.0673435  -0.4714045   0.6060915), wk =   0.0051830
        k(  244) = (  -0.0336718  -0.4377328   0.5724198), wk =   0.0051830
        k(  245) = (  -0.0000000  -0.4040610   0.5387480), wk =   0.0025915
        k(  246) = (  -0.1010153  -0.5724198   0.7071068), wk =   0.0025915
        k(  247) = (  -0.0673435  -0.5387480   0.6734350), wk =   0.0051830
        k(  248) = (  -0.0336718  -0.5050763   0.6397633), wk =   0.0051830
        k(  249) = (  -0.0000000  -0.4714045   0.6060915), wk =   0.0025915
        k(  250) = (  -0.0336718  -0.5724198   0.7071068), wk =   0.0025915
        k(  251) = (   0.0000000  -0.5387480   0.6734350), wk =   0.0025915
        k(  252) = (   0.4040610   0.2020305   0.0000000), wk =   0.0025915
        k(  253) = (   0.4377328   0.2357023  -0.0336718), wk =   0.0051830
        k(  254) = (  -0.2357023  -0.4377328   0.6397633), wk =   0.0051830
        k(  255) = (  -0.2020305  -0.4040610   0.6060915), wk =   0.0051830
        k(  256) = (  -0.1683588  -0.3703893   0.5724198), wk =   0.0051830
        k(  257) = (   0.4714045   0.2020305   0.0000000), wk =   0.0025915
        k(  258) = (  -0.2020305  -0.4714045   0.6734350), wk =   0.0051830
        k(  259) = (  -0.1683588  -0.4377328   0.6397633), wk =   0.0051830
        k(  260) = (  -0.1346870  -0.4040610   0.6060915), wk =   0.0051830
        k(  261) = (  -0.1010153  -0.3703893   0.5724198), wk =   0.0051830
        k(  262) = (  -0.0673435  -0.3367175   0.5387480), wk =   0.0051830
        k(  263) = (  -0.0336718  -0.3030458   0.5050763), wk =   0.0051830
        k(  264) = (   0.0000000  -0.2693740   0.4714045), wk =   0.0025915
        k(  265) = (  -0.1683588  -0.5050763   0.7071068), wk =   0.0025915
        k(  266) = (  -0.1346870  -0.4714045   0.6734350), wk =   0.0051830
        k(  267) = (  -0.1010153  -0.4377328   0.6397633), wk =   0.0051830
        k(  268) = (  -0.0673435  -0.4040610   0.6060915), wk =   0.0051830
        k(  269) = (  -0.0336718  -0.3703893   0.5724198), wk =   0.0051830
        k(  270) = (  -0.0000000  -0.3367175   0.5387480), wk =   0.0025915
        k(  271) = (  -0.1010153  -0.5050763   0.7071068), wk =   0.0025915
        k(  272) = (  -0.0673435  -0.4714045   0.6734350), wk =   0.0051830
        k(  273) = (  -0.0336718  -0.4377328   0.6397633), wk =   0.0051830
        k(  274) = (   0.0000000  -0.4040610   0.6060915), wk =   0.0025915
        k(  275) = (  -0.0336718  -0.5050763   0.7071068), wk =   0.0025915
        k(  276) = (  -0.0000000  -0.4714045   0.6734350), wk =   0.0025915
        k(  277) = (  -0.1683588  -0.4377328   0.7071068), wk =   0.0025915
        k(  278) = (  -0.1346870  -0.4040610   0.6734350), wk =   0.0051830
        k(  279) = (  -0.1010153  -0.3703893   0.6397633), wk =   0.0051830
        k(  280) = (  -0.1010153  -0.4377328   0.7071068), wk =   0.0025915
        k(  281) = (  -0.0673435  -0.4040610   0.6734350), wk =   0.0051830
        k(  282) = (  -0.0336718  -0.3703893   0.6397633), wk =   0.0051830
        k(  283) = (   0.0000000  -0.3367175   0.6060915), wk =   0.0025915
        k(  284) = (  -0.0336718  -0.4377328   0.7071068), wk =   0.0025915
        k(  285) = (   0.0000000  -0.4040610   0.6734350), wk =   0.0025915
        k(  286) = (  -0.0336718  -0.3703893   0.7071068), wk =   0.0025915

                       cryst. coord.
        k(    1) = (   0.0000000   0.0000000   0.0000000), wk =   0.0001080
        k(    2) = (   0.0000000   0.0000000   0.0476190), wk =   0.0008638
        k(    3) = (   0.0000000   0.0000000   0.0952381), wk =   0.0008638
        k(    4) = (   0.0000000   0.0000000   0.1428571), wk =   0.0008638
        k(    5) = (   0.0000000   0.0000000   0.1904762), wk =   0.0008638
        k(    6) = (   0.0000000   0.0000000   0.2380952), wk =   0.0008638
        k(    7) = (   0.0000000   0.0000000   0.2857143), wk =   0.0008638
        k(    8) = (   0.0000000   0.0000000   0.3333333), wk =   0.0008638
        k(    9) = (   0.0000000   0.0000000   0.3809524), wk =   0.0008638
        k(   10) = (   0.0000000   0.0000000   0.4285714), wk =   0.0008638
        k(   11) = (   0.0000000   0.0000000   0.4761905), wk =   0.0008638
        k(   12) = (   0.0000000   0.0476190   0.0476190), wk =   0.0006479
        k(   13) = (   0.0000000   0.0476190   0.0952381), wk =   0.0025915
        k(   14) = (   0.0000000   0.0476190   0.1428571), wk =   0.0025915
        k(   15) = (   0.0000000   0.0476190   0.1904762), wk =   0.0025915
        k(   16) = (   0.0000000   0.0476190   0.2380952), wk =   0.0025915
        k(   17) = (   0.0000000   0.0476190   0.2857143), wk =   0.0025915
        k(   18) = (   0.0000000   0.0476190   0.3333333), wk =   0.0025915
        k(   19) = (   0.0000000   0.0476190   0.3809524), wk =   0.0025915
        k(   20) = (   0.0000000   0.0476190   0.4285714), wk =   0.0025915
        k(   21) = (   0.0000000   0.0476190   0.4761905), wk =   0.0025915
        k(   22) = (   0.0000000   0.0476190  -0.4761905), wk =   0.0025915
        k(   23) = (   0.0000000   0.0476190  -0.4285714), wk =   0.0025915
        k(   24) = (   0.0000000   0.0476190  -0.3809524), wk =   0.0025915
        k(   25) = (   0.0000000   0.0476190  -0.3333333), wk =   0.0025915
        k(   26) = (   0.0000000   0.0476190  -0.2857143), wk =   0.0025915
        k(   27) = (   0.0000000   0.0476190  -0.2380952), wk =   0.0025915
        k(   28) = (   0.0000000   0.0476190  -0.1904762), wk =   0.0025915
        k(   29) = (   0.0000000   0.0476190  -0.1428571), wk =   0.0025915
        k(   30) = (   0.0000000   0.0476190  -0.0952381), wk =   0.0025915
        k(   31) = (   0.0000000   0.0476190  -0.0476190), wk =   0.0012958
        k(   32) = (   0.0000000   0.0952381   0.0952381), wk =   0.0006479
        k(   33) = (   0.0000000   0.0952381   0.1428571), wk =   0.0025915
        k(   34) = (   0.0000000   0.0952381   0.1904762), wk =   0.0025915
        k(   35) = (   0.0000000   0.0952381   0.2380952), wk =   0.0025915
        k(   36) = (   0.0000000   0.0952381   0.2857143), wk =   0.0025915
        k(   37) = (   0.0000000   0.0952381   0.3333333), wk =   0.0025915
        k(   38) = (   0.0000000   0.0952381   0.3809524), wk =   0.0025915
        k(   39) = (   0.0000000   0.0952381   0.4285714), wk =   0.0025915
        k(   40) = (   0.0000000   0.0952381   0.4761905), wk =   0.0025915
        k(   41) = (   0.0000000   0.0952381  -0.4761905), wk =   0.0025915
        k(   42) = (   0.0000000   0.0952381  -0.4285714), wk =   0.0025915
        k(   43) = (   0.0000000   0.0952381  -0.3809524), wk =   0.0025915
        k(   44) = (   0.0000000   0.0952381  -0.3333333), wk =   0.0025915
        k(   45) = (   0.0000000   0.0952381  -0.2857143), wk =   0.0025915
        k(   46) = (   0.0000000   0.0952381  -0.2380952), wk =   0.0025915
        k(   47) = (   0.0000000   0.0952381  -0.1904762), wk =   0.0025915
        k(   48) = (   0.0000000   0.0952381  -0.1428571), wk =   0.0025915
        k(   49) = (   0.0000000   0.0952381  -0.0952381), wk =   0.0012958
        k(   50) = (   0.0000000   0.1428571   0.1428571), wk =   0.0006479
        k(   51) = (   0.0000000   0.1428571   0.1904762), wk =   0.0025915
        k(   52) = (   0.0000000   0.1428571   0.2380952), wk =   0.0025915
        k(   53) = (   0.0000000   0.1428571   0.2857143), wk =   0.0025915
        k(   54) = (   0.0000000   0.1428571   0.3333333), wk =   0.0025915
        k(   55) = (   0.0000000   0.1428571   0.3809524), wk =   0.0025915
        k(   56) = (   0.0000000   0.1428571   0.4285714), wk =   0.0025915
        k(   57) = (   0.0000000   0.1428571   0.4761905), wk =   0.0025915
        k(   58) = (   0.0000000   0.1428571  -0.4761905), wk =   0.0025915
        k(   59) = (   0.0000000   0.1428571  -0.4285714), wk =   0.0025915
        k(   60) = (   0.0000000   0.1428571  -0.3809524), wk =   0.0025915
        k(   61) = (   0.0000000   0.1428571  -0.3333333), wk =   0.0025915
        k(   62) = (   0.0000000   0.1428571  -0.2857143), wk =   0.0025915
        k(   63) = (   0.0000000   0.1428571  -0.2380952), wk =   0.0025915
        k(   64) = (   0.0000000   0.1428571  -0.1904762), wk =   0.0025915
        k(   65) = (   0.0000000   0.1428571  -0.1428571), wk =   0.0012958
        k(   66) = (   0.0000000   0.1904762   0.1904762), wk =   0.0006479
        k(   67) = (   0.0000000   0.1904762   0.2380952), wk =   0.0025915
        k(   68) = (   0.0000000   0.1904762   0.2857143), wk =   0.0025915
        k(   69) = (   0.0000000   0.1904762   0.3333333), wk =   0.0025915
        k(   70) = (   0.0000000   0.1904762   0.3809524), wk =   0.0025915
        k(   71) = (   0.0000000   0.1904762   0.4285714), wk =   0.0025915
        k(   72) = (   0.0000000   0.1904762   0.4761905), wk =   0.0025915
        k(   73) = (   0.0000000   0.1904762  -0.4761905), wk =   0.0025915
        k(   74) = (   0.0000000   0.1904762  -0.4285714), wk =   0.0025915
        k(   75) = (   0.0000000   0.1904762  -0.3809524), wk =   0.0025915
        k(   76) = (   0.0000000   0.1904762  -0.3333333), wk =   0.0025915
        k(   77) = (   0.0000000   0.1904762  -0.2857143), wk =   0.0025915
        k(   78) = (   0.0000000   0.1904762  -0.2380952), wk =   0.0025915
        k(   79) = (   0.0000000   0.1904762  -0.1904762), wk =   0.0012958
        k(   80) = (   0.0000000   0.2380952   0.2380952), wk =   0.0006479
        k(   81) = (   0.0000000   0.2380952   0.2857143), wk =   0.0025915
        k(   82) = (   0.0000000   0.2380952   0.3333333), wk =   0.0025915
        k(   83) = (   0.0000000   0.2380952   0.3809524), wk =   0.0025915
        k(   84) = (   0.0000000   0.2380952   0.4285714), wk =   0.0025915
        k(   85) = (   0.0000000   0.2380952   0.4761905), wk =   0.0025915
        k(   86) = (   0.0000000   0.2380952  -0.4761905), wk =   0.0025915
        k(   87) = (   0.0000000   0.2380952  -0.4285714), wk =   0.0025915
        k(   88) = (   0.0000000   0.2380952  -0.3809524), wk =   0.0025915
        k(   89) = (   0.0000000   0.2380952  -0.3333333), wk =   0.0025915
        k(   90) = (   0.0000000   0.2380952  -0.2857143), wk =   0.0025915
        k(   91) = (   0.0000000   0.2380952  -0.2380952), wk =   0.0012958
        k(   92) = (   0.0000000   0.2857143   0.2857143), wk =   0.0006479
        k(   93) = (   0.0000000   0.2857143   0.3333333), wk =   0.0025915
        k(   94) = (   0.0000000   0.2857143   0.3809524), wk =   0.0025915
        k(   95) = (   0.0000000   0.2857143   0.4285714), wk =   0.0025915
        k(   96) = (   0.0000000   0.2857143   0.4761905), wk =   0.0025915
        k(   97) = (   0.0000000   0.2857143  -0.4761905), wk =   0.0025915
        k(   98) = (   0.0000000   0.2857143  -0.4285714), wk =   0.0025915
        k(   99) = (   0.0000000   0.2857143  -0.3809524), wk =   0.0025915
        k(  100) = (   0.0000000   0.2857143  -0.3333333), wk =   0.0025915
        k(  101) = (   0.0000000   0.2857143  -0.2857143), wk =   0.0012958
        k(  102) = (   0.0000000   0.3333333   0.3333333), wk =   0.0006479
        k(  103) = (   0.0000000   0.3333333   0.3809524), wk =   0.0025915
        k(  104) = (   0.0000000   0.3333333   0.4285714), wk =   0.0025915
        k(  105) = (   0.0000000   0.3333333   0.4761905), wk =   0.0025915
        k(  106) = (   0.0000000   0.3333333  -0.4761905), wk =   0.0025915
        k(  107) = (   0.0000000   0.3333333  -0.4285714), wk =   0.0025915
        k(  108) = (   0.0000000   0.3333333  -0.3809524), wk =   0.0025915
        k(  109) = (   0.0000000   0.3333333  -0.3333333), wk =   0.0012958
        k(  110) = (   0.0000000   0.3809524   0.3809524), wk =   0.0006479
        k(  111) = (   0.0000000   0.3809524   0.4285714), wk =   0.0025915
        k(  112) = (   0.0000000   0.3809524   0.4761905), wk =   0.0025915
        k(  113) = (   0.0000000   0.3809524  -0.4761905), wk =   0.0025915
        k(  114) = (   0.0000000   0.3809524  -0.4285714), wk =   0.0025915
        k(  115) = (   0.0000000   0.3809524  -0.3809524), wk =   0.0012958
        k(  116) = (   0.0000000   0.4285714   0.4285714), wk =   0.0006479
        k(  117) = (   0.0000000   0.4285714   0.4761905), wk =   0.0025915
        k(  118) = (   0.0000000   0.4285714  -0.4761905), wk =   0.0025915
        k(  119) = (   0.0000000   0.4285714  -0.4285714), wk =   0.0012958
        k(  120) = (   0.0000000   0.4761905   0.4761905), wk =   0.0006479
        k(  121) = (   0.0000000   0.4761905  -0.4761905), wk =   0.0012958
        k(  122) = (   0.0476190   0.0952381   0.1428571), wk =   0.0025915
        k(  123) = (   0.0476190   0.0952381   0.1904762), wk =   0.0051830
        k(  124) = (   0.0476190   0.0952381   0.2380952), wk =   0.0051830
        k(  125) = (   0.0476190   0.0952381   0.2857143), wk =   0.0051830
        k(  126) = (   0.0476190   0.0952381   0.3333333), wk =   0.0051830
        k(  127) = (   0.0476190   0.0952381   0.3809524), wk =   0.0051830
        k(  128) = (   0.0476190   0.0952381   0.4285714), wk =   0.0051830
        k(  129) = (   0.0476190   0.0952381   0.4761905), wk =   0.0051830
        k(  130) = (   0.0476190   0.0952381  -0.4761905), wk =   0.0051830
        k(  131) = (   0.0476190   0.1428571   0.1904762), wk =   0.0025915
        k(  132) = (   0.0476190   0.1428571   0.2380952), wk =   0.0051830
        k(  133) = (   0.0476190   0.1428571   0.2857143), wk =   0.0051830
        k(  134) = (   0.0476190   0.1428571   0.3333333), wk =   0.0051830
        k(  135) = (   0.0476190   0.1428571   0.3809524), wk =   0.0051830
        k(  136) = (   0.0476190   0.1428571   0.4285714), wk =   0.0051830
        k(  137) = (   0.0476190   0.1428571   0.4761905), wk =   0.0051830
        k(  138) = (   0.0476190   0.1428571  -0.4761905), wk =   0.0051830
        k(  139) = (   0.0476190   0.1428571  -0.4285714), wk =   0.0051830
        k(  140) = (   0.0476190   0.1428571  -0.3809524), wk =   0.0051830
        k(  141) = (   0.0476190   0.1428571  -0.3333333), wk =   0.0051830
        k(  142) = (   0.0476190   0.1428571  -0.2857143), wk =   0.0051830
        k(  143) = (   0.0476190   0.1428571  -0.2380952), wk =   0.0051830
        k(  144) = (   0.0476190   0.1428571  -0.1904762), wk =   0.0051830
        k(  145) = (   0.0476190   0.1428571  -0.1428571), wk =   0.0051830
        k(  146) = (   0.0476190   0.1428571  -0.0952381), wk =   0.0025915
        k(  147) = (   0.0476190   0.1904762   0.2380952), wk =   0.0025915
        k(  148) = (   0.0476190   0.1904762   0.2857143), wk =   0.0051830
        k(  149) = (   0.0476190   0.1904762   0.3333333), wk =   0.0051830
        k(  150) = (   0.0476190   0.1904762   0.3809524), wk =   0.0051830
        k(  151) = (   0.0476190   0.1904762   0.4285714), wk =   0.0051830
        k(  152) = (   0.0476190   0.1904762   0.4761905), wk =   0.0051830
        k(  153) = (   0.0476190   0.1904762  -0.4761905), wk =   0.0051830
        k(  154) = (   0.0476190   0.1904762  -0.4285714), wk =   0.0051830
        k(  155) = (   0.0476190   0.1904762  -0.3809524), wk =   0.0051830
        k(  156) = (   0.0476190   0.1904762  -0.3333333), wk =   0.0051830
        k(  157) = (   0.0476190   0.1904762  -0.2857143), wk =   0.0051830
        k(  158) = (   0.0476190   0.1904762  -0.2380952), wk =   0.0051830
        k(  159) = (   0.0476190   0.1904762  -0.1904762), wk =   0.0051830
        k(  160) = (   0.0476190   0.1904762  -0.1428571), wk =   0.0025915
        k(  161) = (   0.0476190   0.2380952   0.2857143), wk =   0.0025915
        k(  162) = (   0.0476190   0.2380952   0.3333333), wk =   0.0051830
        k(  163) = (   0.0476190   0.2380952   0.3809524), wk =   0.0051830
        k(  164) = (   0.0476190   0.2380952   0.4285714), wk =   0.0051830
        k(  165) = (   0.0476190   0.2380952   0.4761905), wk =   0.0051830
        k(  166) = (   0.0476190   0.2380952  -0.4761905), wk =   0.0051830
        k(  167) = (   0.0476190   0.2380952  -0.4285714), wk =   0.0051830
        k(  168) = (   0.0476190   0.2380952  -0.3809524), wk =   0.0051830
        k(  169) = (   0.0476190   0.2380952  -0.3333333), wk =   0.0051830
        k(  170) = (   0.0476190   0.2380952  -0.2857143), wk =   0.0051830
        k(  171) = (   0.0476190   0.2380952  -0.2380952), wk =   0.0051830
        k(  172) = (   0.0476190   0.2380952  -0.1904762), wk =   0.0025915
        k(  173) = (   0.0476190   0.2857143   0.3333333), wk =   0.0025915
        k(  174) = (   0.0476190   0.2857143   0.3809524), wk =   0.0051830
        k(  175) = (   0.0476190   0.2857143   0.4285714), wk =   0.0051830
        k(  176) = (   0.0476190   0.2857143   0.4761905), wk =   0.0051830
        k(  177) = (   0.0476190   0.2857143  -0.4761905), wk =   0.0051830
        k(  178) = (   0.0476190   0.2857143  -0.4285714), wk =   0.0051830
        k(  179) = (   0.0476190   0.2857143  -0.3809524), wk =   0.0051830
        k(  180) = (   0.0476190   0.2857143  -0.3333333), wk =   0.0051830
        k(  181) = (   0.0476190   0.2857143  -0.2857143), wk =   0.0051830
        k(  182) = (   0.0476190   0.2857143  -0.2380952), wk =   0.0025915
        k(  183) = (   0.0476190   0.3333333   0.3809524), wk =   0.0025915
        k(  184) = (   0.0476190   0.3333333   0.4285714), wk =   0.0051830
        k(  185) = (   0.0476190   0.3333333   0.4761905), wk =   0.0051830
        k(  186) = (   0.0476190   0.3333333  -0.4761905), wk =   0.0051830
        k(  187) = (   0.0476190   0.3333333  -0.4285714), wk =   0.0051830
        k(  188) = (   0.0476190   0.3333333  -0.3809524), wk =   0.0051830
        k(  189) = (   0.0476190   0.3333333  -0.3333333), wk =   0.0051830
        k(  190) = (   0.0476190   0.3333333  -0.2857143), wk =   0.0025915
        k(  191) = (   0.0476190   0.3809524   0.4285714), wk =   0.0025915
        k(  192) = (   0.0476190   0.3809524   0.4761905), wk =   0.0051830
        k(  193) = (   0.0476190   0.3809524  -0.4761905), wk =   0.0051830
        k(  194) = (   0.0476190   0.3809524  -0.4285714), wk =   0.0051830
        k(  195) = (   0.0476190   0.3809524  -0.3809524), wk =   0.0051830
        k(  196) = (   0.0476190   0.3809524  -0.3333333), wk =   0.0025915
        k(  197) = (   0.0476190   0.4285714   0.4761905), wk =   0.0025915
        k(  198) = (   0.0476190   0.4285714  -0.4761905), wk =   0.0051830
        k(  199) = (   0.0476190   0.4285714  -0.4285714), wk =   0.0051830
        k(  200) = (   0.0476190   0.4285714  -0.3809524), wk =   0.0025915
        k(  201) = (   0.0476190   0.4761905  -0.4761905), wk =   0.0025915
        k(  202) = (   0.0476190   0.4761905  -0.4285714), wk =   0.0025915
        k(  203) = (   0.0952381   0.1904762   0.2857143), wk =   0.0025915
        k(  204) = (   0.0952381   0.1904762   0.3333333), wk =   0.0051830
        k(  205) = (   0.0952381   0.1904762   0.3809524), wk =   0.0051830
        k(  206) = (   0.0952381   0.1904762   0.4285714), wk =   0.0051830
        k(  207) = (   0.0952381   0.1904762   0.4761905), wk =   0.0051830
        k(  208) = (   0.0952381   0.1904762  -0.4761905), wk =   0.0051830
        k(  209) = (   0.0952381   0.1904762  -0.4285714), wk =   0.0051830
        k(  210) = (   0.0952381   0.2380952   0.3333333), wk =   0.0025915
        k(  211) = (   0.0952381   0.2380952   0.3809524), wk =   0.0051830
        k(  212) = (   0.0952381   0.2380952   0.4285714), wk =   0.0051830
        k(  213) = (   0.0952381   0.2380952   0.4761905), wk =   0.0051830
        k(  214) = (   0.0952381   0.2380952  -0.4761905), wk =   0.0051830
        k(  215) = (   0.0952381   0.2380952  -0.4285714), wk =   0.0051830
        k(  216) = (   0.0952381   0.2380952  -0.3809524), wk =   0.0051830
        k(  217) = (   0.0952381   0.2380952  -0.3333333), wk =   0.0051830
        k(  218) = (   0.0952381   0.2380952  -0.2857143), wk =   0.0051830
        k(  219) = (   0.0952381   0.2380952  -0.2380952), wk =   0.0051830
        k(  220) = (   0.0952381   0.2380952  -0.1904762), wk =   0.0051830
        k(  221) = (   0.0952381   0.2380952  -0.1428571), wk =   0.0025915
        k(  222) = (   0.0952381   0.2857143   0.3809524), wk =   0.0025915
        k(  223) = (   0.0952381   0.2857143   0.4285714), wk =   0.0051830
        k(  224) = (   0.0952381   0.2857143   0.4761905), wk =   0.0051830
        k(  225) = (   0.0952381   0.2857143  -0.4761905), wk =   0.0051830
        k(  226) = (   0.0952381   0.2857143  -0.4285714), wk =   0.0051830
        k(  227) = (   0.0952381   0.2857143  -0.3809524), wk =   0.0051830
        k(  228) = (   0.0952381   0.2857143  -0.3333333), wk =   0.0051830
        k(  229) = (   0.0952381   0.2857143  -0.2857143), wk =   0.0051830
        k(  230) = (   0.0952381   0.2857143  -0.2380952), wk =   0.0051830
        k(  231) = (   0.0952381   0.2857143  -0.1904762), wk =   0.0025915
        k(  232) = (   0.0952381   0.3333333   0.4285714), wk =   0.0025915
        k(  233) = (   0.0952381   0.3333333   0.4761905), wk =   0.0051830
        k(  234) = (   0.0952381   0.3333333  -0.4761905), wk =   0.0051830
        k(  235) = (   0.0952381   0.3333333  -0.4285714), wk =   0.0051830
        k(  236) = (   0.0952381   0.3333333  -0.3809524), wk =   0.0051830
        k(  237) = (   0.0952381   0.3333333  -0.3333333), wk =   0.0051830
        k(  238) = (   0.0952381   0.3333333  -0.2857143), wk =   0.0051830
        k(  239) = (   0.0952381   0.3333333  -0.2380952), wk =   0.0025915
        k(  240) = (   0.0952381   0.3809524   0.4761905), wk =   0.0025915
        k(  241) = (   0.0952381   0.3809524  -0.4761905), wk =   0.0051830
        k(  242) = (   0.0952381   0.3809524  -0.4285714), wk =   0.0051830
        k(  243) = (   0.0952381   0.3809524  -0.3809524), wk =   0.0051830
        k(  244) = (   0.0952381   0.3809524  -0.3333333), wk =   0.0051830
        k(  245) = (   0.0952381   0.3809524  -0.2857143), wk =   0.0025915
        k(  246) = (   0.0952381   0.4285714  -0.4761905), wk =   0.0025915
        k(  247) = (   0.0952381   0.4285714  -0.4285714), wk =   0.0051830
        k(  248) = (   0.0952381   0.4285714  -0.3809524), wk =   0.0051830
        k(  249) = (   0.0952381   0.4285714  -0.3333333), wk =   0.0025915
        k(  250) = (   0.0952381   0.4761905  -0.4285714), wk =   0.0025915
        k(  251) = (   0.0952381   0.4761905  -0.3809524), wk =   0.0025915
        k(  252) = (   0.1428571   0.2857143   0.4285714), wk =   0.0025915
        k(  253) = (   0.1428571   0.2857143   0.4761905), wk =   0.0051830
        k(  254) = (   0.1428571   0.2857143  -0.4761905), wk =   0.0051830
        k(  255) = (   0.1428571   0.2857143  -0.4285714), wk =   0.0051830
        k(  256) = (   0.1428571   0.2857143  -0.3809524), wk =   0.0051830
        k(  257) = (   0.1428571   0.3333333   0.4761905), wk =   0.0025915
        k(  258) = (   0.1428571   0.3333333  -0.4761905), wk =   0.0051830
        k(  259) = (   0.1428571   0.3333333  -0.4285714), wk =   0.0051830
        k(  260) = (   0.1428571   0.3333333  -0.3809524), wk =   0.0051830
        k(  261) = (   0.1428571   0.3333333  -0.3333333), wk =   0.0051830
        k(  262) = (   0.1428571   0.3333333  -0.2857143), wk =   0.0051830
        k(  263) = (   0.1428571   0.3333333  -0.2380952), wk =   0.0051830
        k(  264) = (   0.1428571   0.3333333  -0.1904762), wk =   0.0025915
        k(  265) = (   0.1428571   0.3809524  -0.4761905), wk =   0.0025915
        k(  266) = (   0.1428571   0.3809524  -0.4285714), wk =   0.0051830
        k(  267) = (   0.1428571   0.3809524  -0.3809524), wk =   0.0051830
        k(  268) = (   0.1428571   0.3809524  -0.3333333), wk =   0.0051830
        k(  269) = (   0.1428571   0.3809524  -0.2857143), wk =   0.0051830
        k(  270) = (   0.1428571   0.3809524  -0.2380952), wk =   0.0025915
        k(  271) = (   0.1428571   0.4285714  -0.4285714), wk =   0.0025915
        k(  272) = (   0.1428571   0.4285714  -0.3809524), wk =   0.0051830
        k(  273) = (   0.1428571   0.4285714  -0.3333333), wk =   0.0051830
        k(  274) = (   0.1428571   0.4285714  -0.2857143), wk =   0.0025915
        k(  275) = (   0.1428571   0.4761905  -0.3809524), wk =   0.0025915
        k(  276) = (   0.1428571   0.4761905  -0.3333333), wk =   0.0025915
        k(  277) = (   0.1904762   0.3809524  -0.4285714), wk =   0.0025915
        k(  278) = (   0.1904762   0.3809524  -0.3809524), wk =   0.0051830
        k(  279) = (   0.1904762   0.3809524  -0.3333333), wk =   0.0051830
        k(  280) = (   0.1904762   0.4285714  -0.3809524), wk =   0.0025915
        k(  281) = (   0.1904762   0.4285714  -0.3333333), wk =   0.0051830
        k(  282) = (   0.1904762   0.4285714  -0.2857143), wk =   0.0051830
        k(  283) = (   0.1904762   0.4285714  -0.2380952), wk =   0.0025915
        k(  284) = (   0.1904762   0.4761905  -0.3333333), wk =   0.0025915
        k(  285) = (   0.1904762   0.4761905  -0.2857143), wk =   0.0025915
        k(  286) = (   0.2380952   0.4761905  -0.2857143), wk =   0.0025915

     Dense  grid:    16361 G-vectors     FFT dimensions: (  36,  36,  36)

     Largest allocated arrays     est. size (Mb)     dimensions
        Kohn-Sham Wavefunctions         0.15 Mb     (     268,   36)
        NL pseudopotentials             0.14 Mb     (     134,   68)
        Each V/rho on FFT grid          0.06 Mb     (    3888)
        Each G-vector array             0.01 Mb     (    1023)
        G-vector shells                 0.00 Mb     (     191)
     Largest temporary arrays     est. size (Mb)     dimensions
        Auxiliary wavefunctions         0.59 Mb     (     268,  144)
        Each subspace H/S matrix        0.32 Mb     (     144,  144)
        Each <psi_i|beta_j> matrix      0.07 Mb     (      68,   2,   36)
        Arrays for rho mixing           0.47 Mb     (    3888,    8)

     Check: negative/imaginary core charge=   -0.000003    0.000000

     Initial potential from superposition of free atoms

     starting charge   27.99781, renormalised to   28.00000
     Starting wfc are   36 randomized atomic wfcs
     Checking if some PAW data can be deallocated... 

     total cpu time spent up to now is       11.0 secs

     Self-consistent Calculation

     iteration #  1     ecut=    40.00 Ry     beta=0.70
     Davidson diagonalization with overlap
     ethr =  1.00E-02,  avg # of iterations =  3.5

     Threshold (ethr) on eigenvalues was too large:
     Diagonalizing with lowered threshold

     Davidson diagonalization with overlap
     ethr =  6.13E-05,  avg # of iterations =  3.5

     total cpu time spent up to now is       84.1 secs

     total energy              =    -885.82661257 Ry
     Harris-Foulkes estimate   =    -885.82846691 Ry
     estimated scf accuracy    <       0.02069205 Ry

     iteration #  2     ecut=    40.00 Ry     beta=0.70
     Davidson diagonalization with overlap
     ethr =  7.39E-05,  avg # of iterations =  1.0

     total cpu time spent up to now is      110.9 secs

     total energy              =    -885.82797871 Ry
     Harris-Foulkes estimate   =    -885.82804223 Ry
     estimated scf accuracy    <       0.00187163 Ry

     iteration #  3     ecut=    40.00 Ry     beta=0.70
     Davidson diagonalization with overlap
     ethr =  6.68E-06,  avg # of iterations =  2.2

     total cpu time spent up to now is      147.9 secs

     total energy              =    -885.82833807 Ry
     Harris-Foulkes estimate   =    -885.82836618 Ry
     estimated scf accuracy    <       0.00008517 Ry

     iteration #  4     ecut=    40.00 Ry     beta=0.70
     Davidson diagonalization with overlap
     ethr =  3.04E-07,  avg # of iterations =  2.1

     total cpu time spent up to now is      184.1 secs

     total energy              =    -885.82836526 Ry
     Harris-Foulkes estimate   =    -885.82836348 Ry
     estimated scf accuracy    <       0.00000478 Ry

     iteration #  5     ecut=    40.00 Ry     beta=0.70
     Davidson diagonalization with overlap
     ethr =  1.71E-08,  avg # of iterations =  2.0

     total cpu time spent up to now is      214.5 secs

     End of self-consistent calculation

          k = 0.0000 0.0000 0.0000 (  2085 PWs)   bands (ev):

   -14.5617 -14.5617 -14.5617 -14.5617 -14.4667 -14.4667 -14.4667 -14.4667
   -13.6499 -13.6499 -13.4488 -13.4488 -13.4488 -13.4488 -13.4043 -13.4043
   -13.4043 -13.4043 -13.2890 -13.2890  -2.8488  -2.8488   6.7545   6.7545
     7.1947   7.1947   7.8626   7.8626   7.8626   7.8626   9.4034   9.4034
     9.8757   9.8757   9.8757   9.8757

     occupation numbers 
     1.0000   1.0000   1.0000   1.0000   1.0000   1.0000   1.0000   1.0000
     1.0000   1.0000   1.0000   1.0000   1.0000   1.0000   1.0000   1.0000
     1.0000   1.0000   1.0000   1.0000   1.0000   1.0000   1.0000   1.0000
     1.0000   1.0000   0.0000   0.0000   0.0000   0.0000   0.0000   0.0000
     0.0000   0.0000   0.0000   0.0000

          k = 0.0337 0.0337-0.0337 (  2037 PWs)   bands (ev):

   -14.5551 -14.5551 -14.5541 -14.5541 -14.4612 -14.4612 -14.4597 -14.4597
   -13.6411 -13.6411 -13.4452 -13.4452 -13.4451 -13.4451 -13.3967 -13.3967
   -13.3960 -13.3960 -13.2816 -13.2816  -2.8274  -2.8274   6.3908   6.3908
     7.2715   7.2715   7.8138   7.8138   7.9526   7.9526   9.5074   9.5074
     9.9296   9.9296   9.9381   9.9381

     occupation numbers 
     1.0000   1.0000   1.0000   1.0000   1.0000   1.0000   1.0000   1.0000
     1.0000   1.0000   1.0000   1.0000   1.0000   1.0000   1.0000   1.0000
     1.0000   1.0000   1.0000   1.0000   1.0000   1.0000   1.0000   1.0000
     1.0000   1.0000   0.0000   0.0000   0.0000   0.0000   0.0000   0.0000
     0.0000   0.0000   0.0000   0.0000

          k = 0.0673 0.0673-0.0673 (  2031 PWs)   bands (ev):

   -14.5561 -14.5561 -14.5495 -14.5495 -14.4627 -14.4627 -14.4586 -14.4586
   -13.6360 -13.6360 -13.4533 -13.4533 -13.4504 -13.4504 -13.3892 -13.3892
   -13.3890 -13.3890 -13.2835 -13.2835  -2.7636  -2.7636   5.7612   5.7612
     7.2156   7.2156   7.6863   7.6863   8.0735   8.0735   9.7577   9.7577
    10.1019  10.1019  10.1433  10.1433

     occupation numbers 
     1.0000   1.0000   1.0000   1.0000   1.0000   1.0000   1.0000   1.0000
     1.0000   1.0000   1.0000   1.0000   1.0000   1.0000   1.0000   1.0000
     1.0000   1.0000   1.0000   1.0000   1.0000   1.0000   1.0000   1.0000
     1.0000   1.0000   0.3677   0.3677   0.0000   0.0000   0.0000   0.0000
     0.0000   0.0000   0.0000   0.0000

          k = 0.1010 0.1010-0.1010 (  2016 PWs)   bands (ev):

   -14.5539 -14.5539 -14.5436 -14.5436 -14.4645 -14.4645 -14.4566 -14.4566
   -13.6282 -13.6282 -13.4629 -13.4629 -13.4547 -13.4547 -13.3777 -13.3777
   -13.3772 -13.3772 -13.2861 -13.2861  -2.6581  -2.6581   5.0754   5.0754
     7.0703   7.0703   7.5176   7.5176   8.0820   8.0820  10.0059  10.0059
    10.3176  10.3176  10.5897  10.5897

     occupation numbers 
     1.0000   1.0000   1.0000   1.0000   1.0000   1.0000   1.0000   1.0000
     1.0000   1.0000   1.0000   1.0000   1.0000   1.0000   1.0000   1.0000
     1.0000   1.0000   1.0000   1.0000   1.0000   1.0000   1.0000   1.0000
     1.0000   1.0000   1.0000   1.0000   0.0000   0.0000   0.0000   0.0000
     0.0000   0.0000   0.0000   0.0000

          k = 0.1347 0.1347-0.1347 (  2022 PWs)   bands (ev):

   -14.5568 -14.5568 -14.5424 -14.5424 -14.4668 -14.4668 -14.4542 -14.4542
   -13.6217 -13.6217 -13.4745 -13.4745 -13.4619 -13.4619 -13.3719 -13.3719
   -13.3715 -13.3715 -13.2894 -13.2894  -2.5128  -2.5128   4.3848   4.3848
     6.9006   6.9006   7.3379   7.3379   8.0058   8.0058  10.2253  10.2253
    10.5349  10.5349  11.1804  11.1804

     occupation numbers 
     1.0000   1.0000   1.0000   1.0000   1.0000   1.0000   1.0000   1.0000
     1.0000   1.0000   1.0000   1.0000   1.0000   1.0000   1.0000   1.0000
     1.0000   1.0000   1.0000   1.0000   1.0000   1.0000   1.0000   1.0000
     1.0000   1.0000   1.0000   1.0000   0.0000   0.0000   0.0000   0.0000
     0.0000   0.0000   0.0000   0.0000

          k = 0.1684 0.1684-0.1684 (  2015 PWs)   bands (ev):

   -14.5556 -14.5556 -14.5373 -14.5373 -14.4697 -14.4697 -14.4514 -14.4514
   -13.6113 -13.6113 -13.4860 -13.4860 -13.4651 -13.4651 -13.3642 -13.3642
   -13.3613 -13.3613 -13.2942 -13.2942  -2.3308  -2.3308   3.7145   3.7145
     6.7343   6.7343   7.1663   7.1663   7.8955   7.8955  10.4115  10.4115
    10.7133  10.7133  11.8331  11.8331

     occupation numbers 
     1.0000   1.0000   1.0000   1.0000   1.0000   1.0000   1.0000   1.0000
     1.0000   1.0000   1.0000   1.0000   1.0000   1.0000   1.0000   1.0000
     1.0000   1.0000   1.0000   1.0000   1.0000   1.0000   1.0000   1.0000
     1.0000   1.0000   1.0000   1.0000   0.0000   0.0000   0.0000   0.0000
     0.0000   0.0000   0.0000   0.0000

          k = 0.2020 0.2020-0.2020 (  2012 PWs)   bands (ev):

   -14.5571 -14.5571 -14.5296 -14.5296 -14.4758 -14.4758 -14.4482 -14.4482
   -13.5992 -13.5992 -13.4977 -13.4977 -13.4716 -13.4716 -13.3562 -13.3562
   -13.3530 -13.3530 -13.3008 -13.3008  -2.1173  -2.1173   3.0821   3.0821
     6.5848   6.5848   7.0138   7.0138   7.7820   7.7820  10.5468  10.5468
    10.8302  10.8302  12.5136  12.5136

     occupation numbers 
     1.0000   1.0000   1.0000   1.0000   1.0000   1.0000   1.0000   1.0000
     1.0000   1.0000   1.0000   1.0000   1.0000   1.0000   1.0000   1.0000
     1.0000   1.0000   1.0000   1.0000   1.0000   1.0000   1.0000   1.0000
     1.0000   1.0000   1.0000   1.0000   0.0000   0.0000   0.0000   0.0000
     0.0000   0.0000   0.0000   0.0000

          k = 0.2357 0.2357-0.2357 (  2030 PWs)   bands (ev):

   -14.5611 -14.5611 -14.5279 -14.5279 -14.4825 -14.4825 -14.4481 -14.4481
   -13.5912 -13.5912 -13.5114 -13.5114 -13.4793 -13.4793 -13.3536 -13.3536
   -13.3494 -13.3494 -13.3073 -13.3073  -1.8821  -1.8821   2.5049   2.5049
     6.4596   6.4596   6.8868   6.8868   7.6811   7.6811  10.6270  10.6270
    10.8869  10.8869  13.1553  13.1553

     occupation numbers 
     1.0000   1.0000   1.0000   1.0000   1.0000   1.0000   1.0000   1.0000
     1.0000   1.0000   1.0000   1.0000   1.0000   1.0000   1.0000   1.0000
     1.0000   1.0000   1.0000   1.0000   1.0000   1.0000   1.0000   1.0000
     1.0000   1.0000   1.0000   1.0000   1.0000   1.0000   0.0000   0.0000
     0.0000   0.0000   0.0000   0.0000

          k = 0.2694 0.2694-0.2694 (  2024 PWs)   bands (ev):

   -14.5620 -14.5620 -14.5218 -14.5218 -14.4858 -14.4858 -14.4444 -14.4444
   -13.5788 -13.5788 -13.5218 -13.5218 -13.4820 -13.4820 -13.3478 -13.3478
   -13.3426 -13.3426 -13.3125 -13.3125  -1.6429  -1.6429   2.0056   2.0056
     6.3630   6.3630   6.7891   6.7891   7.6011   7.6011  10.6641  10.6641
    10.9022  10.9022  13.3936  13.3936

[...]

     occupation numbers 
     1.0000   1.0000   1.0000   1.0000   1.0000   1.0000   1.0000   1.0000
     1.0000   1.0000   1.0000   1.0000   1.0000   1.0000   1.0000   1.0000
     1.0000   1.0000   1.0000   1.0000   1.0000   1.0000   1.0000   1.0000
     1.0000   1.0000   1.0000   1.0000   0.0000   0.0000   0.0000   0.0000
     0.0000   0.0000   0.0000   0.0000

          k =-0.1347-0.4714 0.6734 (  2023 PWs)   bands (ev):

   -14.5546 -14.5546 -14.5262 -14.5262 -14.4836 -14.4836 -14.4434 -14.4434
   -13.5632 -13.5632 -13.5205 -13.5205 -13.4656 -13.4656 -13.4163 -13.4163
   -13.3268 -13.3268 -13.2815 -13.2815  -0.6662  -0.6662   1.1108   1.1108
     4.6164   4.6164   5.2240   5.2240   9.6343   9.6343  10.2227  10.2227
    11.7666  11.7666  13.7753  13.7753

     occupation numbers 
     1.0000   1.0000   1.0000   1.0000   1.0000   1.0000   1.0000   1.0000
     1.0000   1.0000   1.0000   1.0000   1.0000   1.0000   1.0000   1.0000
     1.0000   1.0000   1.0000   1.0000   1.0000   1.0000   1.0000   1.0000
     1.0000   1.0000   1.0000   1.0000   0.0000   0.0000   0.0000   0.0000
     0.0000   0.0000   0.0000   0.0000

          k =-0.1010-0.4377 0.6398 (  2027 PWs)   bands (ev):

   -14.5559 -14.5559 -14.5248 -14.5248 -14.4863 -14.4863 -14.4423 -14.4423
   -13.5640 -13.5640 -13.5181 -13.5181 -13.4646 -13.4646 -13.4225 -13.4225
   -13.3271 -13.3271 -13.2789 -13.2789  -0.4534  -0.4534   0.8661   0.8661
     4.4740   4.4740   5.1791   5.1791   9.6933   9.6933  10.7813  10.7813
    11.6781  11.6781  13.2743  13.2743

     occupation numbers 
     1.0000   1.0000   1.0000   1.0000   1.0000   1.0000   1.0000   1.0000
     1.0000   1.0000   1.0000   1.0000   1.0000   1.0000   1.0000   1.0000
     1.0000   1.0000   1.0000   1.0000   1.0000   1.0000   1.0000   1.0000
     1.0000   1.0000   1.0000   1.0000   0.0000   0.0000   0.0000   0.0000
     0.0000   0.0000   0.0000   0.0000

          k =-0.0673-0.4041 0.6061 (  2027 PWs)   bands (ev):

   -14.5567 -14.5567 -14.5234 -14.5234 -14.4876 -14.4876 -14.4409 -14.4409
   -13.5642 -13.5642 -13.5168 -13.5168 -13.4644 -13.4644 -13.4243 -13.4243
   -13.3274 -13.3274 -13.2769 -13.2769  -0.3613  -0.3613   0.7654   0.7654
     4.3716   4.3716   5.2060   5.2060   9.7572   9.7572  11.1992  11.1992
    11.8203  11.8203  12.6314  12.6314

     occupation numbers 
     1.0000   1.0000   1.0000   1.0000   1.0000   1.0000   1.0000   1.0000
     1.0000   1.0000   1.0000   1.0000   1.0000   1.0000   1.0000   1.0000
     1.0000   1.0000   1.0000   1.0000   1.0000   1.0000   1.0000   1.0000
     1.0000   1.0000   1.0000   1.0000   0.0000   0.0000   0.0000   0.0000
     0.0000   0.0000   0.0000   0.0000

          k =-0.0337-0.3704 0.5724 (  2028 PWs)   bands (ev):

   -14.5576 -14.5576 -14.5224 -14.5224 -14.4892 -14.4892 -14.4405 -14.4405
   -13.5644 -13.5644 -13.5172 -13.5172 -13.4654 -13.4654 -13.4230 -13.4230
   -13.3276 -13.3276 -13.2779 -13.2779  -0.4562  -0.4562   0.8723   0.8723
     4.3297   4.3297   5.2947   5.2947   9.8318   9.8318  11.2338  11.2338
    11.9115  11.9115  12.4722  12.4722

     occupation numbers 
     1.0000   1.0000   1.0000   1.0000   1.0000   1.0000   1.0000   1.0000
     1.0000   1.0000   1.0000   1.0000   1.0000   1.0000   1.0000   1.0000
     1.0000   1.0000   1.0000   1.0000   1.0000   1.0000   1.0000   1.0000
     1.0000   1.0000   1.0000   1.0000   0.0000   0.0000   0.0000   0.0000
     0.0000   0.0000   0.0000   0.0000

          k =-0.0000-0.3367 0.5387 (  2026 PWs)   bands (ev):

   -14.5572 -14.5572 -14.5221 -14.5221 -14.4894 -14.4894 -14.4410 -14.4410
   -13.5646 -13.5646 -13.5190 -13.5190 -13.4672 -13.4672 -13.4168 -13.4168
   -13.3283 -13.3283 -13.2802 -13.2802  -0.6666  -0.6666   1.1098   1.1098
     4.3647   4.3647   5.4329   5.4329   9.8953   9.8953  11.0347  11.0347
    11.5108  11.5108  13.0685  13.0685

     occupation numbers 
     1.0000   1.0000   1.0000   1.0000   1.0000   1.0000   1.0000   1.0000
     1.0000   1.0000   1.0000   1.0000   1.0000   1.0000   1.0000   1.0000
     1.0000   1.0000   1.0000   1.0000   1.0000   1.0000   1.0000   1.0000
     1.0000   1.0000   1.0000   1.0000   0.0000   0.0000   0.0000   0.0000
     0.0000   0.0000   0.0000   0.0000

          k =-0.1010-0.5051 0.7071 (  2026 PWs)   bands (ev):

   -14.5533 -14.5533 -14.5292 -14.5292 -14.4811 -14.4811 -14.4456 -14.4456
   -13.5619 -13.5619 -13.5221 -13.5221 -13.4629 -13.4629 -13.4223 -13.4223
   -13.3244 -13.3244 -13.2823 -13.2823  -0.4983  -0.4983   0.9116   0.9116
     4.7263   4.7263   5.0814   5.0814   9.4379   9.4379   9.7147   9.7147
    12.4260  12.4260  14.0088  14.0088

     occupation numbers 
     1.0000   1.0000   1.0000   1.0000   1.0000   1.0000   1.0000   1.0000
     1.0000   1.0000   1.0000   1.0000   1.0000   1.0000   1.0000   1.0000
     1.0000   1.0000   1.0000   1.0000   1.0000   1.0000   1.0000   1.0000
     1.0000   1.0000   1.0000   1.0000   0.0000   0.0000   0.0000   0.0000
     0.0000   0.0000   0.0000   0.0000

          k =-0.0673-0.4714 0.6734 (  2033 PWs)   bands (ev):

   -14.5551 -14.5551 -14.5282 -14.5282 -14.4844 -14.4844 -14.4445 -14.4445
   -13.5636 -13.5636 -13.5196 -13.5196 -13.4606 -13.4606 -13.4302 -13.4302
   -13.3260 -13.3260 -13.2798 -13.2798  -0.2603  -0.2603   0.6562   0.6562
     4.5855   4.5855   5.0046   5.0046   9.5923   9.5923  10.1694  10.1694
    12.2780  12.2780  13.4403  13.4403

     occupation numbers 
     1.0000   1.0000   1.0000   1.0000   1.0000   1.0000   1.0000   1.0000
     1.0000   1.0000   1.0000   1.0000   1.0000   1.0000   1.0000   1.0000
     1.0000   1.0000   1.0000   1.0000   1.0000   1.0000   1.0000   1.0000
     1.0000   1.0000   1.0000   1.0000   0.0000   0.0000   0.0000   0.0000
     0.0000   0.0000   0.0000   0.0000

          k =-0.0337-0.4377 0.6398 (  2029 PWs)   bands (ev):

   -14.5560 -14.5560 -14.5253 -14.5253 -14.4860 -14.4860 -14.4417 -14.4417
   -13.5637 -13.5637 -13.5166 -13.5166 -13.4589 -13.4589 -13.4328 -13.4328
   -13.3260 -13.3260 -13.2768 -13.2768  -0.1305  -0.1305   0.5257   0.5257
     4.4381   4.4381   5.0362   5.0362   9.6672   9.6672  10.8020  10.8020
    12.1563  12.1563  12.7420  12.7420

     occupation numbers 
     1.0000   1.0000   1.0000   1.0000   1.0000   1.0000   1.0000   1.0000
     1.0000   1.0000   1.0000   1.0000   1.0000   1.0000   1.0000   1.0000
     1.0000   1.0000   1.0000   1.0000   1.0000   1.0000   1.0000   1.0000
     1.0000   1.0000   1.0000   1.0000   0.0000   0.0000   0.0000   0.0000
     0.0000   0.0000   0.0000   0.0000

          k = 0.0000-0.4041 0.6061 (  2020 PWs)   bands (ev):

   -14.5553 -14.5553 -14.5226 -14.5226 -14.4861 -14.4861 -14.4398 -14.4398
   -13.5629 -13.5629 -13.5147 -13.5147 -13.4595 -13.4595 -13.4290 -13.4290
   -13.3256 -13.3256 -13.2752 -13.2752  -0.2346  -0.2346   0.6391   0.6391
     4.3422   4.3422   5.1398   5.1398   9.7523   9.7523  11.3914  11.3914
    12.0780  12.0780  12.1357  12.1357

     occupation numbers 
     1.0000   1.0000   1.0000   1.0000   1.0000   1.0000   1.0000   1.0000
     1.0000   1.0000   1.0000   1.0000   1.0000   1.0000   1.0000   1.0000
     1.0000   1.0000   1.0000   1.0000   1.0000   1.0000   1.0000   1.0000
     1.0000   1.0000   1.0000   1.0000   0.0000   0.0000   0.0000   0.0000
     0.0000   0.0000   0.0000   0.0000

          k =-0.0337-0.5051 0.7071 (  2029 PWs)   bands (ev):

   -14.5531 -14.5531 -14.5296 -14.5296 -14.4811 -14.4811 -14.4459 -14.4459
   -13.5611 -13.5611 -13.5221 -13.5221 -13.4545 -13.4545 -13.4343 -13.4343
   -13.3232 -13.3232 -13.2813 -13.2813  -0.0518  -0.0518   0.4218   0.4218
     4.7321   4.7321   4.9167   4.9167   9.4445   9.4445   9.6122   9.6122
    13.0009  13.0009  13.5988  13.5988

     occupation numbers 
     1.0000   1.0000   1.0000   1.0000   1.0000   1.0000   1.0000   1.0000
     1.0000   1.0000   1.0000   1.0000   1.0000   1.0000   1.0000   1.0000
     1.0000   1.0000   1.0000   1.0000   1.0000   1.0000   1.0000   1.0000
     1.0000   1.0000   1.0000   1.0000   0.0000   0.0000   0.0000   0.0000
     0.0000   0.0000   0.0000   0.0000

          k =-0.0000-0.4714 0.6734 (  2028 PWs)   bands (ev):

   -14.5537 -14.5537 -14.5271 -14.5271 -14.4834 -14.4834 -14.4438 -14.4438
   -13.5623 -13.5623 -13.5179 -13.5179 -13.4543 -13.4543 -13.4373 -13.4373
   -13.3247 -13.3247 -13.2783 -13.2783   0.0772   0.0772   0.3027   0.3027
     4.5858   4.5858   4.9198   4.9198   9.5777   9.5777  10.1445  10.1445
    12.7974  12.7974  12.9330  12.9330

     occupation numbers 
     1.0000   1.0000   1.0000   1.0000   1.0000   1.0000   1.0000   1.0000
     1.0000   1.0000   1.0000   1.0000   1.0000   1.0000   1.0000   1.0000
     1.0000   1.0000   1.0000   1.0000   1.0000   1.0000   1.0000   1.0000
     1.0000   1.0000   1.0000   1.0000   0.0000   0.0000   0.0000   0.0000
     0.0000   0.0000   0.0000   0.0000

          k =-0.1684-0.4377 0.7071 (  2029 PWs)   bands (ev):

   -14.5576 -14.5576 -14.5252 -14.5252 -14.4866 -14.4866 -14.4427 -14.4427
   -13.5653 -13.5653 -13.5223 -13.5223 -13.4683 -13.4683 -13.4131 -13.4131
   -13.3283 -13.3283 -13.2827 -13.2827  -0.8007  -0.8007   1.2735   1.2735
     4.5441   4.5441   5.3680   5.3680  10.0818  10.0818  10.3237  10.3237
    11.3147  11.3147  13.6022  13.6022

     occupation numbers 
     1.0000   1.0000   1.0000   1.0000   1.0000   1.0000   1.0000   1.0000
     1.0000   1.0000   1.0000   1.0000   1.0000   1.0000   1.0000   1.0000
     1.0000   1.0000   1.0000   1.0000   1.0000   1.0000   1.0000   1.0000
     1.0000   1.0000   1.0000   1.0000   0.0000   0.0000   0.0000   0.0000
     0.0000   0.0000   0.0000   0.0000

          k =-0.1347-0.4041 0.6734 (  2027 PWs)   bands (ev):

   -14.5574 -14.5574 -14.5237 -14.5237 -14.4878 -14.4878 -14.4409 -14.4409
   -13.5643 -13.5643 -13.5186 -13.5186 -13.4660 -13.4660 -13.4203 -13.4203
   -13.3276 -13.3276 -13.2790 -13.2790  -0.5656  -0.5656   0.9984   0.9984
     4.4406   4.4406   5.2354   5.2354  10.1606  10.1606  10.6870  10.6870
    11.3715  11.3715  13.1761  13.1761

     occupation numbers 
     1.0000   1.0000   1.0000   1.0000   1.0000   1.0000   1.0000   1.0000
     1.0000   1.0000   1.0000   1.0000   1.0000   1.0000   1.0000   1.0000
     1.0000   1.0000   1.0000   1.0000   1.0000   1.0000   1.0000   1.0000
     1.0000   1.0000   1.0000   1.0000   0.0000   0.0000   0.0000   0.0000
     0.0000   0.0000   0.0000   0.0000

          k =-0.1010-0.3704 0.6398 (  2024 PWs)   bands (ev):

   -14.5565 -14.5565 -14.5225 -14.5225 -14.4880 -14.4880 -14.4401 -14.4401
   -13.5639 -13.5639 -13.5157 -13.5157 -13.4649 -13.4649 -13.4236 -13.4236
   -13.3270 -13.3270 -13.2766 -13.2766  -0.4008  -0.4008   0.8123   0.8123
     4.3915   4.3915   5.1633   5.1633  10.1715  10.1715  10.8305  10.8305
    11.8023  11.8023  12.5338  12.5338

     occupation numbers 
     1.0000   1.0000   1.0000   1.0000   1.0000   1.0000   1.0000   1.0000
     1.0000   1.0000   1.0000   1.0000   1.0000   1.0000   1.0000   1.0000
     1.0000   1.0000   1.0000   1.0000   1.0000   1.0000   1.0000   1.0000
     1.0000   1.0000   1.0000   1.0000   0.0000   0.0000   0.0000   0.0000
     0.0000   0.0000   0.0000   0.0000

          k =-0.1010-0.4377 0.7071 (  2028 PWs)   bands (ev):

   -14.5557 -14.5557 -14.5261 -14.5261 -14.4857 -14.4857 -14.4420 -14.4420
   -13.5639 -13.5639 -13.5176 -13.5176 -13.4639 -13.4639 -13.4254 -13.4254
   -13.3269 -13.3269 -13.2785 -13.2785  -0.4184  -0.4184   0.8390   0.8390
     4.5298   4.5298   5.0450   5.0450  10.1055  10.1055  10.3273  10.3273
    11.6236  11.6236  13.3102  13.3102

     occupation numbers 
     1.0000   1.0000   1.0000   1.0000   1.0000   1.0000   1.0000   1.0000
     1.0000   1.0000   1.0000   1.0000   1.0000   1.0000   1.0000   1.0000
     1.0000   1.0000   1.0000   1.0000   1.0000   1.0000   1.0000   1.0000
     1.0000   1.0000   1.0000   1.0000   0.0000   0.0000   0.0000   0.0000
     0.0000   0.0000   0.0000   0.0000

          k =-0.0673-0.4041 0.6734 (  2024 PWs)   bands (ev):

   -14.5554 -14.5554 -14.5244 -14.5244 -14.4859 -14.4859 -14.4404 -14.4404
   -13.5637 -13.5637 -13.5147 -13.5147 -13.4603 -13.4603 -13.4301 -13.4301
   -13.3265 -13.3265 -13.2756 -13.2756  -0.2092  -0.2092   0.6185   0.6185
     4.4637   4.4637   4.9490   4.9490  10.2402  10.2402  10.8209  10.8209
    11.5517  11.5517  12.6164  12.6164

     occupation numbers 
     1.0000   1.0000   1.0000   1.0000   1.0000   1.0000   1.0000   1.0000
     1.0000   1.0000   1.0000   1.0000   1.0000   1.0000   1.0000   1.0000
     1.0000   1.0000   1.0000   1.0000   1.0000   1.0000   1.0000   1.0000
     1.0000   1.0000   1.0000   1.0000   0.0000   0.0000   0.0000   0.0000
     0.0000   0.0000   0.0000   0.0000

          k =-0.0337-0.3704 0.6398 (  2018 PWs)   bands (ev):

   -14.5551 -14.5551 -14.5233 -14.5233 -14.4852 -14.4852 -14.4392 -14.4392
   -13.5632 -13.5632 -13.5129 -13.5129 -13.4586 -13.4586 -13.4301 -13.4301
   -13.3261 -13.3261 -13.2736 -13.2736  -0.1637  -0.1637   0.5729   0.5729
     4.4114   4.4114   4.9611   4.9611  10.3030  10.3030  11.1320  11.1320
    11.7235  11.7235  12.0272  12.0272

     occupation numbers 
     1.0000   1.0000   1.0000   1.0000   1.0000   1.0000   1.0000   1.0000
     1.0000   1.0000   1.0000   1.0000   1.0000   1.0000   1.0000   1.0000
     1.0000   1.0000   1.0000   1.0000   1.0000   1.0000   1.0000   1.0000
     1.0000   1.0000   1.0000   1.0000   0.0000   0.0000   0.0000   0.0000
     0.0000   0.0000   0.0000   0.0000

          k = 0.0000-0.3367 0.6061 (  2025 PWs)   bands (ev):

   -14.5567 -14.5567 -14.5242 -14.5242 -14.4870 -14.4870 -14.4397 -14.4397
   -13.5640 -13.5640 -13.5158 -13.5158 -13.4626 -13.4626 -13.4268 -13.4268
   -13.3267 -13.3267 -13.2762 -13.2762  -0.3282  -0.3282   0.7463   0.7463
     4.3952   4.3952   5.0660   5.0660  10.3327  10.3327  10.9854  10.9854
    11.4233  11.4233  12.5211  12.5211

     occupation numbers 
     1.0000   1.0000   1.0000   1.0000   1.0000   1.0000   1.0000   1.0000
     1.0000   1.0000   1.0000   1.0000   1.0000   1.0000   1.0000   1.0000
     1.0000   1.0000   1.0000   1.0000   1.0000   1.0000   1.0000   1.0000
     1.0000   1.0000   1.0000   1.0000   0.0000   0.0000   0.0000   0.0000
     0.0000   0.0000   0.0000   0.0000

          k =-0.0337-0.4377 0.7071 (  2026 PWs)   bands (ev):

   -14.5549 -14.5549 -14.5254 -14.5254 -14.4850 -14.4850 -14.4416 -14.4416
   -13.5632 -13.5632 -13.5154 -13.5154 -13.4558 -13.4558 -13.4367 -13.4367
   -13.3252 -13.3252 -13.2763 -13.2763  -0.0140  -0.0140   0.4096   0.4096
     4.5837   4.5837   4.8179   4.8179  10.1025  10.1025  10.2959  10.2959
    12.1315  12.1315  12.7338  12.7338

     occupation numbers 
     1.0000   1.0000   1.0000   1.0000   1.0000   1.0000   1.0000   1.0000
     1.0000   1.0000   1.0000   1.0000   1.0000   1.0000   1.0000   1.0000
     1.0000   1.0000   1.0000   1.0000   1.0000   1.0000   1.0000   1.0000
     1.0000   1.0000   1.0000   1.0000   0.0000   0.0000   0.0000   0.0000
     0.0000   0.0000   0.0000   0.0000

          k = 0.0000-0.4041 0.6734 (  2016 PWs)   bands (ev):

   -14.5543 -14.5543 -14.5238 -14.5238 -14.4839 -14.4839 -14.4389 -14.4389
   -13.5624 -13.5624 -13.5125 -13.5125 -13.4544 -13.4544 -13.4357 -13.4357
   -13.3246 -13.3246 -13.2729 -13.2729   0.0535   0.0535   0.3486   0.3486
     4.5030   4.5030   4.8198   4.8198  10.2465  10.2465  10.8556  10.8556
    11.9902  11.9902  12.0613  12.0613

     occupation numbers 
     1.0000   1.0000   1.0000   1.0000   1.0000   1.0000   1.0000   1.0000
     1.0000   1.0000   1.0000   1.0000   1.0000   1.0000   1.0000   1.0000
     1.0000   1.0000   1.0000   1.0000   1.0000   1.0000   1.0000   1.0000
     1.0000   1.0000   1.0000   1.0000   0.0000   0.0000   0.0000   0.0000
     0.0000   0.0000   0.0000   0.0000

          k =-0.0337-0.3704 0.7071 (  2020 PWs)   bands (ev):

   -14.5548 -14.5548 -14.5240 -14.5240 -14.4852 -14.4852 -14.4394 -14.4394
   -13.5635 -13.5635 -13.5118 -13.5118 -13.4559 -13.4559 -13.4357 -13.4357
   -13.3262 -13.3262 -13.2725 -13.2725   0.0227   0.0227   0.3853   0.3853
     4.5025   4.5025   4.7825   4.7825  10.6535  10.6535  10.9848  10.9848
    11.5173  11.5173  11.9343  11.9343

     occupation numbers 
     1.0000   1.0000   1.0000   1.0000   1.0000   1.0000   1.0000   1.0000
     1.0000   1.0000   1.0000   1.0000   1.0000   1.0000   1.0000   1.0000
     1.0000   1.0000   1.0000   1.0000   1.0000   1.0000   1.0000   1.0000
     1.0000   1.0000   1.0000   1.0000   0.0000   0.0000   0.0000   0.0000
     0.0000   0.0000   0.0000   0.0000

     the Fermi energy is     7.6860 ev

!    total energy              =    -885.82836603 Ry
     Harris-Foulkes estimate   =    -885.82836592 Ry
     estimated scf accuracy    <       0.00000010 Ry

     total all-electron energy =    -24716.528116 Ry

     The total energy is the sum of the following terms:

     one-electron contribution =    -148.92302571 Ry
     hartree contribution      =      93.71194923 Ry
     xc contribution           =     -96.16578379 Ry
     ewald contribution        =    -170.59904351 Ry
     one-center paw contrib.   =    -563.85246221 Ry
     smearing contrib. (-TS)   =      -0.00000005 Ry

     convergence has been achieved in   5 iterations

     Writing output data file Sn.save
 
     init_run     :      9.21s CPU      9.61s WALL (       1 calls)
     electrons    :    196.93s CPU    203.59s WALL (       1 calls)

     Called by init_run:
     wfcinit      :      8.52s CPU      8.82s WALL (       1 calls)
     potinit      :      0.29s CPU      0.31s WALL (       1 calls)

     Called by electrons:
     c_bands      :    165.03s CPU    170.70s WALL (       6 calls)
     sum_band     :     30.19s CPU     31.03s WALL (       6 calls)
     v_of_rho     :      0.03s CPU      0.04s WALL (       6 calls)
     v_h          :      0.00s CPU      0.00s WALL (       6 calls)
     v_xc         :      0.03s CPU      0.03s WALL (       6 calls)
     newd         :      0.34s CPU      0.37s WALL (       6 calls)
     PAW_pot      :      1.60s CPU      1.68s WALL (       6 calls)
     mix_rho      :      0.02s CPU      0.02s WALL (       6 calls)

     Called by c_bands:
     init_us_2    :      0.43s CPU      0.52s WALL (    3718 calls)
     cegterg      :    156.78s CPU    162.07s WALL (    1716 calls)

     Called by sum_band:
     sum_band:bec :      5.82s CPU      5.88s WALL (    1716 calls)
     addusdens    :      0.17s CPU      0.20s WALL (       6 calls)

     Called by *egterg:
     h_psi        :    115.27s CPU    118.34s WALL (    6089 calls)
     s_psi        :      5.33s CPU      5.38s WALL (    6089 calls)
     g_psi        :      0.37s CPU      0.37s WALL (    4087 calls)
     cdiaghg      :     23.15s CPU     23.55s WALL (    5517 calls)
     cegterg:over :      8.41s CPU      8.45s WALL (    4087 calls)
     cegterg:upda :      3.31s CPU      3.33s WALL (    4087 calls)
     cegterg:last :      1.85s CPU      1.85s WALL (    1716 calls)

     Called by h_psi:
     h_psi:vloc   :    102.20s CPU    105.13s WALL (    6089 calls)
     h_psi:vnl    :     12.74s CPU     12.87s WALL (    6089 calls)
     add_vuspsi   :      6.02s CPU      6.06s WALL (    6089 calls)

     General routines
     calbec       :      8.97s CPU      9.11s WALL (    7805 calls)
     fft          :      0.08s CPU      0.08s WALL (     116 calls)
     fftw         :    114.61s CPU    117.95s WALL (  779712 calls)
     davcio       :      0.05s CPU      0.32s WALL (     286 calls)
 
     Parallel routines
     fft_scatter  :     69.63s CPU     72.15s WALL (  779828 calls)

     PAW routines
     PAW_pot      :      1.60s CPU      1.68s WALL (       6 calls)
     PAW_symme    :      0.04s CPU      0.04s WALL (      12 calls)
 
     PWSCF        :  3m27.88s CPU     3m35.62s WALL

 
   This run was terminated on:  22:48: 2   8Mar2020            

=------------------------------------------------------------------------------=
   JOB DONE.
=------------------------------------------------------------------------------=
