
     Program PWSCF v.5.4.0 starts on  2Mar2020 at 12:19:12 

     This program is part of the open-source Quantum ESPRESSO suite
     for quantum simulation of materials; please cite
         "P. Giannozzi et al., J. Phys.:Condens. Matter 21 395502 (2009);
          URL http://www.quantum-espresso.org", 
     in publications or presentations arising from this work. More details at
     http://www.quantum-espresso.org/quote

     Parallel version (MPI & OpenMP), running on      16 processor cores
     Number of MPI processes:                16
     Threads/MPI process:                     1
     R & G space division:  proc/nbgrp/npool/nimage =      16
     Waiting for input...
     Reading input from standard input
Warning: card &IONS ignored
Warning: card / ignored
Warning: card &CELL ignored
Warning: card / ignored

     Current dimensions of program PWSCF are:
     Max number of different atomic species (ntypx) = 10
     Max number of k-points (npk) =  40000
     Max angular momentum in pseudopotentials (lmaxx) =  3

     Subspace diagonalization in iterative solution of the eigenvalue problem:
     a serial algorithm will be used

 
     Parallelization info
     --------------------
     sticks:   dense  smooth     PW     G-vecs:    dense   smooth      PW
     Min         111     111     31                 3065     3065     475
     Max         112     112     32                 3068     3068     478
     Sum        1777    1777    511                49061    49061    7631
 

     Title: 
     Sn                                                                         


     bravais-lattice index     =            0
     lattice parameter (alat)  =       8.9528  a.u.
     unit-cell volume          =     507.4123 (a.u.)^3
     number of atoms/cell      =            2
     number of atomic types    =            1
     number of electrons       =        28.00
     number of Kohn-Sham states=           18
     kinetic-energy cutoff     =      80.0000  Ry
     charge density cutoff     =     320.0000  Ry
     convergence threshold     =      1.0E-06
     mixing beta               =       0.7000
     number of iterations used =            8  plain     mixing
     Exchange-correlation      = PBE ( 1  4  3  4 0 0)

     celldm(1)=   8.952796  celldm(2)=   0.000000  celldm(3)=   0.000000
     celldm(4)=   0.000000  celldm(5)=   0.000000  celldm(6)=   0.000000

     crystal axes: (cart. coord. in units of alat)
               a(1) = (   0.000000   0.707107   0.707107 )  
               a(2) = (   0.707107   0.000000   0.707107 )  
               a(3) = (   0.707107   0.707107   0.000000 )  

     reciprocal axes: (cart. coord. in units 2 pi/alat)
               b(1) = ( -0.707107  0.707107  0.707107 )  
               b(2) = (  0.707107 -0.707107  0.707107 )  
               b(3) = (  0.707107  0.707107 -0.707107 )  


     PseudoPot. # 1 for Sn read from file:
     ../PseudopotentialDatabase/Sn_ONCV_PBE-1.0.upf
     MD5 check sum: 4ecdb67ea6112684f1b2ae1cab9d4ca6
     Pseudo is Norm-conserving, Zval = 14.0
     Generated using ONCVPSP code by D. R. Hamann
     Using radial grid of  602 points,  6 beta functions with: 
                l(1) =   0
                l(2) =   0
                l(3) =   1
                l(4) =   1
                l(5) =   2
                l(6) =   2

     atomic species   valence    mass     pseudopotential
        Sn            14.00   118.71000     Sn( 1.00)

     24 Sym. Ops. (no inversion) found
          (note: 24 additional sym.ops. were found but ignored
           their fractional translations are incommensurate with FFT grid)

                                    s                        frac. trans.

      isym =  1     identity                                     

 cryst.   s( 1) = (     1          0          0      )
                  (     0          1          0      )
                  (     0          0          1      )

 cart.    s( 1) = (  1.0000000  0.0000000  0.0000000 )
                  (  0.0000000  1.0000000  0.0000000 )
                  (  0.0000000  0.0000000  1.0000000 )


      isym =  2     180 deg rotation - cart. axis [0,0,1]        

 cryst.   s( 2) = (     0          1         -1      )
                  (     1          0         -1      )
                  (     0          0         -1      )

 cart.    s( 2) = ( -1.0000000  0.0000000  0.0000000 )
                  (  0.0000000 -1.0000000  0.0000000 )
                  (  0.0000000  0.0000000  1.0000000 )


      isym =  3     180 deg rotation - cart. axis [0,1,0]        

 cryst.   s( 3) = (     0         -1          1      )
                  (     0         -1          0      )
                  (     1         -1          0      )

 cart.    s( 3) = ( -1.0000000  0.0000000  0.0000000 )
                  (  0.0000000  1.0000000  0.0000000 )
                  (  0.0000000  0.0000000 -1.0000000 )


      isym =  4     180 deg rotation - cart. axis [1,0,0]        

 cryst.   s( 4) = (    -1          0          0      )
                  (    -1          0          1      )
                  (    -1          1          0      )

 cart.    s( 4) = (  1.0000000  0.0000000  0.0000000 )
                  (  0.0000000 -1.0000000  0.0000000 )
                  (  0.0000000  0.0000000 -1.0000000 )


      isym =  5     120 deg rotation - cart. axis [-1,-1,-1]     

 cryst.   s( 5) = (     0          0          1      )
                  (     1          0          0      )
                  (     0          1          0      )

 cart.    s( 5) = (  0.0000000  1.0000000  0.0000000 )
                  (  0.0000000  0.0000000  1.0000000 )
                  (  1.0000000  0.0000000  0.0000000 )


      isym =  6     120 deg rotation - cart. axis [-1,1,1]       

 cryst.   s( 6) = (     1         -1          0      )
                  (     0         -1          1      )
                  (     0         -1          0      )

 cart.    s( 6) = (  0.0000000 -1.0000000  0.0000000 )
                  (  0.0000000  0.0000000  1.0000000 )
                  ( -1.0000000  0.0000000  0.0000000 )


      isym =  7     120 deg rotation - cart. axis [1,1,-1]       

 cryst.   s( 7) = (    -1          1          0      )
                  (    -1          0          0      )
                  (    -1          0          1      )

 cart.    s( 7) = (  0.0000000  1.0000000  0.0000000 )
                  (  0.0000000  0.0000000 -1.0000000 )
                  ( -1.0000000  0.0000000  0.0000000 )


      isym =  8     120 deg rotation - cart. axis [1,-1,1]       

 cryst.   s( 8) = (     0          0         -1      )
                  (     0          1         -1      )
                  (     1          0         -1      )

 cart.    s( 8) = (  0.0000000 -1.0000000  0.0000000 )
                  (  0.0000000  0.0000000 -1.0000000 )
                  (  1.0000000  0.0000000  0.0000000 )


      isym =  9     120 deg rotation - cart. axis [1,1,1]        

 cryst.   s( 9) = (     0          1          0      )
                  (     0          0          1      )
                  (     1          0          0      )

 cart.    s( 9) = (  0.0000000  0.0000000  1.0000000 )
                  (  1.0000000  0.0000000  0.0000000 )
                  (  0.0000000  1.0000000  0.0000000 )


      isym = 10     120 deg rotation - cart. axis [-1,1,-1]      

 cryst.   s(10) = (    -1          0          1      )
                  (    -1          1          0      )
                  (    -1          0          0      )

 cart.    s(10) = (  0.0000000  0.0000000  1.0000000 )
                  ( -1.0000000  0.0000000  0.0000000 )
                  (  0.0000000 -1.0000000  0.0000000 )


      isym = 11     120 deg rotation - cart. axis [1,-1,-1]      

 cryst.   s(11) = (     1          0         -1      )
                  (     0          0         -1      )
                  (     0          1         -1      )

 cart.    s(11) = (  0.0000000  0.0000000 -1.0000000 )
                  ( -1.0000000  0.0000000  0.0000000 )
                  (  0.0000000  1.0000000  0.0000000 )


      isym = 12     120 deg rotation - cart. axis [-1,-1,1]      

 cryst.   s(12) = (     0         -1          0      )
                  (     1         -1          0      )
                  (     0         -1          1      )

 cart.    s(12) = (  0.0000000  0.0000000 -1.0000000 )
                  (  1.0000000  0.0000000  0.0000000 )
                  (  0.0000000 -1.0000000  0.0000000 )


      isym = 13     inv. 180 deg rotation - cart. axis [1,1,0]   

 cryst.   s(13) = (     1          0         -1      )
                  (     0          1         -1      )
                  (     0          0         -1      )

 cart.    s(13) = (  0.0000000 -1.0000000  0.0000000 )
                  ( -1.0000000  0.0000000  0.0000000 )
                  (  0.0000000  0.0000000  1.0000000 )


      isym = 14     inv. 180 deg rotation - cart. axis [1,-1,0]  

 cryst.   s(14) = (     0          1          0      )
                  (     1          0          0      )
                  (     0          0          1      )

 cart.    s(14) = (  0.0000000  1.0000000  0.0000000 )
                  (  1.0000000  0.0000000  0.0000000 )
                  (  0.0000000  0.0000000  1.0000000 )


      isym = 15     inv.  90 deg rotation - cart. axis [0,0,-1]  

 cryst.   s(15) = (     0         -1          0      )
                  (     0         -1          1      )
                  (     1         -1          0      )

 cart.    s(15) = (  0.0000000 -1.0000000  0.0000000 )
                  (  1.0000000  0.0000000  0.0000000 )
                  (  0.0000000  0.0000000 -1.0000000 )


      isym = 16     inv.  90 deg rotation - cart. axis [0,0,1]   

 cryst.   s(16) = (    -1          0          1      )
                  (    -1          0          0      )
                  (    -1          1          0      )

 cart.    s(16) = (  0.0000000  1.0000000  0.0000000 )
                  ( -1.0000000  0.0000000  0.0000000 )
                  (  0.0000000  0.0000000 -1.0000000 )


      isym = 17     inv. 180 deg rotation - cart. axis [1,0,1]   

 cryst.   s(17) = (     1         -1          0      )
                  (     0         -1          0      )
                  (     0         -1          1      )

 cart.    s(17) = (  0.0000000  0.0000000 -1.0000000 )
                  (  0.0000000  1.0000000  0.0000000 )
                  ( -1.0000000  0.0000000  0.0000000 )


      isym = 18     inv. 180 deg rotation - cart. axis [-1,0,1]  

 cryst.   s(18) = (     0          0          1      )
                  (     0          1          0      )
                  (     1          0          0      )

 cart.    s(18) = (  0.0000000  0.0000000  1.0000000 )
                  (  0.0000000  1.0000000  0.0000000 )
                  (  1.0000000  0.0000000  0.0000000 )


      isym = 19     inv.  90 deg rotation - cart. axis [0,1,0]   

 cryst.   s(19) = (     0          0         -1      )
                  (     1          0         -1      )
                  (     0          1         -1      )

 cart.    s(19) = (  0.0000000  0.0000000 -1.0000000 )
                  (  0.0000000 -1.0000000  0.0000000 )
                  (  1.0000000  0.0000000  0.0000000 )


      isym = 20     inv.  90 deg rotation - cart. axis [0,-1,0]  

 cryst.   s(20) = (    -1          1          0      )
                  (    -1          0          1      )
                  (    -1          0          0      )

 cart.    s(20) = (  0.0000000  0.0000000  1.0000000 )
                  (  0.0000000 -1.0000000  0.0000000 )
                  ( -1.0000000  0.0000000  0.0000000 )


      isym = 21     inv. 180 deg rotation - cart. axis [0,1,1]   

 cryst.   s(21) = (    -1          0          0      )
                  (    -1          1          0      )
                  (    -1          0          1      )

 cart.    s(21) = (  1.0000000  0.0000000  0.0000000 )
                  (  0.0000000  0.0000000 -1.0000000 )
                  (  0.0000000 -1.0000000  0.0000000 )


      isym = 22     inv. 180 deg rotation - cart. axis [0,1,-1]  

 cryst.   s(22) = (     1          0          0      )
                  (     0          0          1      )
                  (     0          1          0      )

 cart.    s(22) = (  1.0000000  0.0000000  0.0000000 )
                  (  0.0000000  0.0000000  1.0000000 )
                  (  0.0000000  1.0000000  0.0000000 )


      isym = 23     inv.  90 deg rotation - cart. axis [-1,0,0]  

 cryst.   s(23) = (     0          1         -1      )
                  (     0          0         -1      )
                  (     1          0         -1      )

 cart.    s(23) = ( -1.0000000  0.0000000  0.0000000 )
                  (  0.0000000  0.0000000 -1.0000000 )
                  (  0.0000000  1.0000000  0.0000000 )


      isym = 24     inv.  90 deg rotation - cart. axis [1,0,0]   

 cryst.   s(24) = (     0         -1          1      )
                  (     1         -1          0      )
                  (     0         -1          0      )

 cart.    s(24) = ( -1.0000000  0.0000000  0.0000000 )
                  (  0.0000000  0.0000000  1.0000000 )
                  (  0.0000000 -1.0000000  0.0000000 )


   Cartesian axes

     site n.     atom                  positions (alat units)
         1           Sn  tau(   1) = (   0.0000000   0.0000000   0.0000000  )
         2           Sn  tau(   2) = (   0.3535534   0.3535534   0.3535534  )

   Crystallographic axes

     site n.     atom                  positions (cryst. coord.)
         1           Sn  tau(   1) = (  0.0000000  0.0000000  0.0000000  )
         2           Sn  tau(   2) = (  0.2500000  0.2500000  0.2500000  )

     number of k points=   120  gaussian smearing, width (Ry)=  0.0001
                       cart. coord. in units 2pi/alat
        k(    1) = (   0.0000000   0.0000000   0.0000000), wk =   0.0005926
        k(    2) = (   0.0471405   0.0471405  -0.0471405), wk =   0.0047407
        k(    3) = (   0.0942809   0.0942809  -0.0942809), wk =   0.0047407
        k(    4) = (   0.1414214   0.1414214  -0.1414214), wk =   0.0047407
        k(    5) = (   0.1885618   0.1885618  -0.1885618), wk =   0.0047407
        k(    6) = (   0.2357023   0.2357023  -0.2357023), wk =   0.0047407
        k(    7) = (   0.2828427   0.2828427  -0.2828427), wk =   0.0047407
        k(    8) = (   0.3299832   0.3299832  -0.3299832), wk =   0.0047407
        k(    9) = (   0.0942809   0.0000000   0.0000000), wk =   0.0035556
        k(   10) = (   0.1414214   0.0471405  -0.0471405), wk =   0.0142222
        k(   11) = (   0.1885618   0.0942809  -0.0942809), wk =   0.0142222
        k(   12) = (   0.2357023   0.1414214  -0.1414214), wk =   0.0142222
        k(   13) = (   0.2828427   0.1885618  -0.1885618), wk =   0.0142222
        k(   14) = (   0.3299832   0.2357023  -0.2357023), wk =   0.0142222
        k(   15) = (   0.3771236   0.2828427  -0.2828427), wk =   0.0142222
        k(   16) = (  -0.2828427  -0.3771236   0.3771236), wk =   0.0142222
        k(   17) = (  -0.2357023  -0.3299832   0.3299832), wk =   0.0142222
        k(   18) = (  -0.1885618  -0.2828427   0.2828427), wk =   0.0142222
        k(   19) = (  -0.1414214  -0.2357023   0.2357023), wk =   0.0142222
        k(   20) = (  -0.0942809  -0.1885618   0.1885618), wk =   0.0142222
        k(   21) = (  -0.0471405  -0.1414214   0.1414214), wk =   0.0142222
        k(   22) = (   0.0000000  -0.0942809   0.0942809), wk =   0.0071111
        k(   23) = (   0.1885618   0.0000000   0.0000000), wk =   0.0035556
        k(   24) = (   0.2357023   0.0471405  -0.0471405), wk =   0.0142222
        k(   25) = (   0.2828427   0.0942809  -0.0942809), wk =   0.0142222
        k(   26) = (   0.3299832   0.1414214  -0.1414214), wk =   0.0142222
        k(   27) = (   0.3771236   0.1885618  -0.1885618), wk =   0.0142222
        k(   28) = (   0.4242641   0.2357023  -0.2357023), wk =   0.0142222
        k(   29) = (  -0.2357023  -0.4242641   0.4242641), wk =   0.0142222
        k(   30) = (  -0.1885618  -0.3771236   0.3771236), wk =   0.0142222
        k(   31) = (  -0.1414214  -0.3299832   0.3299832), wk =   0.0142222
        k(   32) = (  -0.0942809  -0.2828427   0.2828427), wk =   0.0142222
        k(   33) = (  -0.0471405  -0.2357023   0.2357023), wk =   0.0142222
        k(   34) = (   0.0000000  -0.1885618   0.1885618), wk =   0.0071111
        k(   35) = (   0.2828427   0.0000000   0.0000000), wk =   0.0035556
        k(   36) = (   0.3299832   0.0471405  -0.0471405), wk =   0.0142222
        k(   37) = (   0.3771236   0.0942809  -0.0942809), wk =   0.0142222
        k(   38) = (   0.4242641   0.1414214  -0.1414214), wk =   0.0142222
        k(   39) = (   0.4714045   0.1885618  -0.1885618), wk =   0.0142222
        k(   40) = (  -0.1885618  -0.4714045   0.4714045), wk =   0.0142222
        k(   41) = (  -0.1414214  -0.4242641   0.4242641), wk =   0.0142222
        k(   42) = (  -0.0942809  -0.3771236   0.3771236), wk =   0.0142222
        k(   43) = (  -0.0471405  -0.3299832   0.3299832), wk =   0.0142222
        k(   44) = (   0.0000000  -0.2828427   0.2828427), wk =   0.0071111
        k(   45) = (   0.3771236   0.0000000   0.0000000), wk =   0.0035556
        k(   46) = (   0.4242641   0.0471405  -0.0471405), wk =   0.0142222
        k(   47) = (   0.4714045   0.0942809  -0.0942809), wk =   0.0142222
        k(   48) = (   0.5185450   0.1414214  -0.1414214), wk =   0.0142222
        k(   49) = (  -0.1414214  -0.5185450   0.5185450), wk =   0.0142222
        k(   50) = (  -0.0942809  -0.4714045   0.4714045), wk =   0.0142222
        k(   51) = (  -0.0471405  -0.4242641   0.4242641), wk =   0.0142222
        k(   52) = (  -0.0000000  -0.3771236   0.3771236), wk =   0.0071111
        k(   53) = (   0.4714045   0.0000000   0.0000000), wk =   0.0035556
        k(   54) = (   0.5185450   0.0471405  -0.0471405), wk =   0.0142222
        k(   55) = (   0.5656854   0.0942809  -0.0942809), wk =   0.0142222
        k(   56) = (  -0.0942809  -0.5656854   0.5656854), wk =   0.0142222
        k(   57) = (  -0.0471405  -0.5185450   0.5185450), wk =   0.0142222
        k(   58) = (  -0.0000000  -0.4714045   0.4714045), wk =   0.0071111
        k(   59) = (   0.5656854   0.0000000   0.0000000), wk =   0.0035556
        k(   60) = (   0.6128259   0.0471405  -0.0471405), wk =   0.0142222
        k(   61) = (  -0.0471405  -0.6128259   0.6128259), wk =   0.0142222
        k(   62) = (   0.0000000  -0.5656854   0.5656854), wk =   0.0071111
        k(   63) = (   0.6599663   0.0000000   0.0000000), wk =   0.0035556
        k(   64) = (   0.0000000  -0.6599663   0.6599663), wk =   0.0071111
        k(   65) = (   0.1885618   0.0942809  -0.0000000), wk =   0.0142222
        k(   66) = (   0.2357023   0.1414214  -0.0471405), wk =   0.0284444
        k(   67) = (   0.2828427   0.1885618  -0.0942809), wk =   0.0284444
        k(   68) = (   0.3299832   0.2357023  -0.1414214), wk =   0.0284444
        k(   69) = (   0.3771236   0.2828427  -0.1885618), wk =   0.0284444
        k(   70) = (  -0.2828427  -0.3771236   0.4714045), wk =   0.0284444
        k(   71) = (   0.2828427   0.0942809   0.0000000), wk =   0.0142222
        k(   72) = (   0.3299832   0.1414214  -0.0471405), wk =   0.0284444
        k(   73) = (   0.3771236   0.1885618  -0.0942809), wk =   0.0284444
        k(   74) = (   0.4242641   0.2357023  -0.1414214), wk =   0.0284444
        k(   75) = (  -0.2357023  -0.4242641   0.5185450), wk =   0.0284444
        k(   76) = (  -0.1885618  -0.3771236   0.4714045), wk =   0.0284444
        k(   77) = (  -0.1414214  -0.3299832   0.4242641), wk =   0.0284444
        k(   78) = (  -0.0942809  -0.2828427   0.3771236), wk =   0.0284444
        k(   79) = (  -0.0471405  -0.2357023   0.3299832), wk =   0.0284444
        k(   80) = (   0.0000000  -0.1885618   0.2828427), wk =   0.0142222
        k(   81) = (   0.3771236   0.0942809   0.0000000), wk =   0.0142222
        k(   82) = (   0.4242641   0.1414214  -0.0471405), wk =   0.0284444
        k(   83) = (   0.4714045   0.1885618  -0.0942809), wk =   0.0284444
        k(   84) = (  -0.1885618  -0.4714045   0.5656854), wk =   0.0284444
        k(   85) = (  -0.1414214  -0.4242641   0.5185450), wk =   0.0284444
        k(   86) = (  -0.0942809  -0.3771236   0.4714045), wk =   0.0284444
        k(   87) = (  -0.0471405  -0.3299832   0.4242641), wk =   0.0284444
        k(   88) = (   0.0000000  -0.2828427   0.3771236), wk =   0.0142222
        k(   89) = (   0.4714045   0.0942809  -0.0000000), wk =   0.0142222
        k(   90) = (   0.5185450   0.1414214  -0.0471405), wk =   0.0284444
        k(   91) = (  -0.1414214  -0.5185450   0.6128259), wk =   0.0284444
        k(   92) = (  -0.0942809  -0.4714045   0.5656854), wk =   0.0284444
        k(   93) = (  -0.0471405  -0.4242641   0.5185450), wk =   0.0284444
        k(   94) = (  -0.0000000  -0.3771236   0.4714045), wk =   0.0142222
        k(   95) = (   0.5656854   0.0942809   0.0000000), wk =   0.0142222
        k(   96) = (  -0.0942809  -0.5656854   0.6599663), wk =   0.0284444
        k(   97) = (  -0.0471405  -0.5185450   0.6128259), wk =   0.0284444
        k(   98) = (   0.0000000  -0.4714045   0.5656854), wk =   0.0142222
        k(   99) = (  -0.0471405  -0.6128259   0.7071068), wk =   0.0142222
        k(  100) = (   0.0000000  -0.5656854   0.6599663), wk =   0.0142222
        k(  101) = (   0.3771236   0.1885618  -0.0000000), wk =   0.0142222
        k(  102) = (   0.4242641   0.2357023  -0.0471405), wk =   0.0284444
        k(  103) = (  -0.2357023  -0.4242641   0.6128259), wk =   0.0284444
        k(  104) = (  -0.1885618  -0.3771236   0.5656854), wk =   0.0284444
        k(  105) = (   0.4714045   0.1885618  -0.0000000), wk =   0.0142222
        k(  106) = (  -0.1885618  -0.4714045   0.6599663), wk =   0.0284444
        k(  107) = (  -0.1414214  -0.4242641   0.6128259), wk =   0.0284444
        k(  108) = (  -0.0942809  -0.3771236   0.5656854), wk =   0.0284444
        k(  109) = (  -0.0471405  -0.3299832   0.5185450), wk =   0.0284444
        k(  110) = (   0.0000000  -0.2828427   0.4714045), wk =   0.0142222
        k(  111) = (  -0.1414214  -0.5185450   0.7071068), wk =   0.0142222
        k(  112) = (  -0.0942809  -0.4714045   0.6599663), wk =   0.0284444
        k(  113) = (  -0.0471405  -0.4242641   0.6128259), wk =   0.0284444
        k(  114) = (   0.0000000  -0.3771236   0.5656854), wk =   0.0142222
        k(  115) = (  -0.0471405  -0.5185450   0.7071068), wk =   0.0142222
        k(  116) = (   0.0000000  -0.4714045   0.6599663), wk =   0.0142222
        k(  117) = (  -0.1414214  -0.4242641   0.7071068), wk =   0.0142222
        k(  118) = (  -0.0942809  -0.3771236   0.6599663), wk =   0.0284444
        k(  119) = (  -0.0471405  -0.4242641   0.7071068), wk =   0.0142222
        k(  120) = (  -0.0000000  -0.3771236   0.6599663), wk =   0.0142222

                       cryst. coord.
        k(    1) = (   0.0000000   0.0000000   0.0000000), wk =   0.0005926
        k(    2) = (   0.0000000   0.0000000   0.0666667), wk =   0.0047407
        k(    3) = (   0.0000000   0.0000000   0.1333333), wk =   0.0047407
        k(    4) = (   0.0000000   0.0000000   0.2000000), wk =   0.0047407
        k(    5) = (   0.0000000   0.0000000   0.2666667), wk =   0.0047407
        k(    6) = (   0.0000000   0.0000000   0.3333333), wk =   0.0047407
        k(    7) = (   0.0000000   0.0000000   0.4000000), wk =   0.0047407
        k(    8) = (   0.0000000   0.0000000   0.4666667), wk =   0.0047407
        k(    9) = (   0.0000000   0.0666667   0.0666667), wk =   0.0035556
        k(   10) = (   0.0000000   0.0666667   0.1333333), wk =   0.0142222
        k(   11) = (   0.0000000   0.0666667   0.2000000), wk =   0.0142222
        k(   12) = (   0.0000000   0.0666667   0.2666667), wk =   0.0142222
        k(   13) = (   0.0000000   0.0666667   0.3333333), wk =   0.0142222
        k(   14) = (   0.0000000   0.0666667   0.4000000), wk =   0.0142222
        k(   15) = (   0.0000000   0.0666667   0.4666667), wk =   0.0142222
        k(   16) = (   0.0000000   0.0666667  -0.4666667), wk =   0.0142222
        k(   17) = (   0.0000000   0.0666667  -0.4000000), wk =   0.0142222
        k(   18) = (   0.0000000   0.0666667  -0.3333333), wk =   0.0142222
        k(   19) = (   0.0000000   0.0666667  -0.2666667), wk =   0.0142222
        k(   20) = (   0.0000000   0.0666667  -0.2000000), wk =   0.0142222
        k(   21) = (   0.0000000   0.0666667  -0.1333333), wk =   0.0142222
        k(   22) = (   0.0000000   0.0666667  -0.0666667), wk =   0.0071111
        k(   23) = (   0.0000000   0.1333333   0.1333333), wk =   0.0035556
        k(   24) = (   0.0000000   0.1333333   0.2000000), wk =   0.0142222
        k(   25) = (   0.0000000   0.1333333   0.2666667), wk =   0.0142222
        k(   26) = (   0.0000000   0.1333333   0.3333333), wk =   0.0142222
        k(   27) = (   0.0000000   0.1333333   0.4000000), wk =   0.0142222
        k(   28) = (   0.0000000   0.1333333   0.4666667), wk =   0.0142222
        k(   29) = (   0.0000000   0.1333333  -0.4666667), wk =   0.0142222
        k(   30) = (   0.0000000   0.1333333  -0.4000000), wk =   0.0142222
        k(   31) = (   0.0000000   0.1333333  -0.3333333), wk =   0.0142222
        k(   32) = (   0.0000000   0.1333333  -0.2666667), wk =   0.0142222
        k(   33) = (   0.0000000   0.1333333  -0.2000000), wk =   0.0142222
        k(   34) = (   0.0000000   0.1333333  -0.1333333), wk =   0.0071111
        k(   35) = (   0.0000000   0.2000000   0.2000000), wk =   0.0035556
        k(   36) = (   0.0000000   0.2000000   0.2666667), wk =   0.0142222
        k(   37) = (   0.0000000   0.2000000   0.3333333), wk =   0.0142222
        k(   38) = (   0.0000000   0.2000000   0.4000000), wk =   0.0142222
        k(   39) = (   0.0000000   0.2000000   0.4666667), wk =   0.0142222
        k(   40) = (   0.0000000   0.2000000  -0.4666667), wk =   0.0142222
        k(   41) = (   0.0000000   0.2000000  -0.4000000), wk =   0.0142222
        k(   42) = (   0.0000000   0.2000000  -0.3333333), wk =   0.0142222
        k(   43) = (   0.0000000   0.2000000  -0.2666667), wk =   0.0142222
        k(   44) = (   0.0000000   0.2000000  -0.2000000), wk =   0.0071111
        k(   45) = (   0.0000000   0.2666667   0.2666667), wk =   0.0035556
        k(   46) = (   0.0000000   0.2666667   0.3333333), wk =   0.0142222
        k(   47) = (   0.0000000   0.2666667   0.4000000), wk =   0.0142222
        k(   48) = (   0.0000000   0.2666667   0.4666667), wk =   0.0142222
        k(   49) = (   0.0000000   0.2666667  -0.4666667), wk =   0.0142222
        k(   50) = (   0.0000000   0.2666667  -0.4000000), wk =   0.0142222
        k(   51) = (   0.0000000   0.2666667  -0.3333333), wk =   0.0142222
        k(   52) = (   0.0000000   0.2666667  -0.2666667), wk =   0.0071111
        k(   53) = (   0.0000000   0.3333333   0.3333333), wk =   0.0035556
        k(   54) = (   0.0000000   0.3333333   0.4000000), wk =   0.0142222
        k(   55) = (   0.0000000   0.3333333   0.4666667), wk =   0.0142222
        k(   56) = (   0.0000000   0.3333333  -0.4666667), wk =   0.0142222
        k(   57) = (   0.0000000   0.3333333  -0.4000000), wk =   0.0142222
        k(   58) = (   0.0000000   0.3333333  -0.3333333), wk =   0.0071111
        k(   59) = (   0.0000000   0.4000000   0.4000000), wk =   0.0035556
        k(   60) = (   0.0000000   0.4000000   0.4666667), wk =   0.0142222
        k(   61) = (   0.0000000   0.4000000  -0.4666667), wk =   0.0142222
        k(   62) = (   0.0000000   0.4000000  -0.4000000), wk =   0.0071111
        k(   63) = (   0.0000000   0.4666667   0.4666667), wk =   0.0035556
        k(   64) = (   0.0000000   0.4666667  -0.4666667), wk =   0.0071111
        k(   65) = (   0.0666667   0.1333333   0.2000000), wk =   0.0142222
        k(   66) = (   0.0666667   0.1333333   0.2666667), wk =   0.0284444
        k(   67) = (   0.0666667   0.1333333   0.3333333), wk =   0.0284444
        k(   68) = (   0.0666667   0.1333333   0.4000000), wk =   0.0284444
        k(   69) = (   0.0666667   0.1333333   0.4666667), wk =   0.0284444
        k(   70) = (   0.0666667   0.1333333  -0.4666667), wk =   0.0284444
        k(   71) = (   0.0666667   0.2000000   0.2666667), wk =   0.0142222
        k(   72) = (   0.0666667   0.2000000   0.3333333), wk =   0.0284444
        k(   73) = (   0.0666667   0.2000000   0.4000000), wk =   0.0284444
        k(   74) = (   0.0666667   0.2000000   0.4666667), wk =   0.0284444
        k(   75) = (   0.0666667   0.2000000  -0.4666667), wk =   0.0284444
        k(   76) = (   0.0666667   0.2000000  -0.4000000), wk =   0.0284444
        k(   77) = (   0.0666667   0.2000000  -0.3333333), wk =   0.0284444
        k(   78) = (   0.0666667   0.2000000  -0.2666667), wk =   0.0284444
        k(   79) = (   0.0666667   0.2000000  -0.2000000), wk =   0.0284444
        k(   80) = (   0.0666667   0.2000000  -0.1333333), wk =   0.0142222
        k(   81) = (   0.0666667   0.2666667   0.3333333), wk =   0.0142222
        k(   82) = (   0.0666667   0.2666667   0.4000000), wk =   0.0284444
        k(   83) = (   0.0666667   0.2666667   0.4666667), wk =   0.0284444
        k(   84) = (   0.0666667   0.2666667  -0.4666667), wk =   0.0284444
        k(   85) = (   0.0666667   0.2666667  -0.4000000), wk =   0.0284444
        k(   86) = (   0.0666667   0.2666667  -0.3333333), wk =   0.0284444
        k(   87) = (   0.0666667   0.2666667  -0.2666667), wk =   0.0284444
        k(   88) = (   0.0666667   0.2666667  -0.2000000), wk =   0.0142222
        k(   89) = (   0.0666667   0.3333333   0.4000000), wk =   0.0142222
        k(   90) = (   0.0666667   0.3333333   0.4666667), wk =   0.0284444
        k(   91) = (   0.0666667   0.3333333  -0.4666667), wk =   0.0284444
        k(   92) = (   0.0666667   0.3333333  -0.4000000), wk =   0.0284444
        k(   93) = (   0.0666667   0.3333333  -0.3333333), wk =   0.0284444
        k(   94) = (   0.0666667   0.3333333  -0.2666667), wk =   0.0142222
        k(   95) = (   0.0666667   0.4000000   0.4666667), wk =   0.0142222
        k(   96) = (   0.0666667   0.4000000  -0.4666667), wk =   0.0284444
        k(   97) = (   0.0666667   0.4000000  -0.4000000), wk =   0.0284444
        k(   98) = (   0.0666667   0.4000000  -0.3333333), wk =   0.0142222
        k(   99) = (   0.0666667   0.4666667  -0.4666667), wk =   0.0142222
        k(  100) = (   0.0666667   0.4666667  -0.4000000), wk =   0.0142222
        k(  101) = (   0.1333333   0.2666667   0.4000000), wk =   0.0142222
        k(  102) = (   0.1333333   0.2666667   0.4666667), wk =   0.0284444
        k(  103) = (   0.1333333   0.2666667  -0.4666667), wk =   0.0284444
        k(  104) = (   0.1333333   0.2666667  -0.4000000), wk =   0.0284444
        k(  105) = (   0.1333333   0.3333333   0.4666667), wk =   0.0142222
        k(  106) = (   0.1333333   0.3333333  -0.4666667), wk =   0.0284444
        k(  107) = (   0.1333333   0.3333333  -0.4000000), wk =   0.0284444
        k(  108) = (   0.1333333   0.3333333  -0.3333333), wk =   0.0284444
        k(  109) = (   0.1333333   0.3333333  -0.2666667), wk =   0.0284444
        k(  110) = (   0.1333333   0.3333333  -0.2000000), wk =   0.0142222
        k(  111) = (   0.1333333   0.4000000  -0.4666667), wk =   0.0142222
        k(  112) = (   0.1333333   0.4000000  -0.4000000), wk =   0.0284444
        k(  113) = (   0.1333333   0.4000000  -0.3333333), wk =   0.0284444
        k(  114) = (   0.1333333   0.4000000  -0.2666667), wk =   0.0142222
        k(  115) = (   0.1333333   0.4666667  -0.4000000), wk =   0.0142222
        k(  116) = (   0.1333333   0.4666667  -0.3333333), wk =   0.0142222
        k(  117) = (   0.2000000   0.4000000  -0.4000000), wk =   0.0142222
        k(  118) = (   0.2000000   0.4000000  -0.3333333), wk =   0.0284444
        k(  119) = (   0.2000000   0.4666667  -0.3333333), wk =   0.0142222
        k(  120) = (   0.2000000   0.4666667  -0.2666667), wk =   0.0142222

     Dense  grid:    49061 G-vectors     FFT dimensions: (  54,  54,  54)

     Largest allocated arrays     est. size (Mb)     dimensions
        Kohn-Sham Wavefunctions         0.11 Mb     (     388,   18)
        NL pseudopotentials             0.21 Mb     (     388,   36)
        Each V/rho on FFT grid          0.18 Mb     (   11664)
        Each G-vector array             0.02 Mb     (    3066)
        G-vector shells                 0.00 Mb     (     417)
     Largest temporary arrays     est. size (Mb)     dimensions
        Auxiliary wavefunctions         0.43 Mb     (     388,   72)
        Each subspace H/S matrix        0.08 Mb     (      72,   72)
        Each <psi_i|beta_j> matrix      0.01 Mb     (      36,   18)
        Arrays for rho mixing           1.42 Mb     (   11664,    8)

     Initial potential from superposition of free atoms

     starting charge   27.82674, renormalised to   28.00000
     Starting wfc are random

     total cpu time spent up to now is        1.6 secs

     Self-consistent Calculation

     iteration #  1     ecut=    80.00 Ry     beta=0.70
     Davidson diagonalization with overlap
     ethr =  1.00E-02,  avg # of iterations =  7.6

     Threshold (ethr) on eigenvalues was too large:
     Diagonalizing with lowered threshold

     Davidson diagonalization with overlap
     ethr =  1.14E-04,  avg # of iterations =  6.0

     total cpu time spent up to now is       15.8 secs

     total energy              =    -256.21686058 Ry
     Harris-Foulkes estimate   =    -256.22959641 Ry
     estimated scf accuracy    <       0.03143613 Ry

     iteration #  2     ecut=    80.00 Ry     beta=0.70
     Davidson diagonalization with overlap
     ethr =  1.12E-04,  avg # of iterations =  2.1

     total cpu time spent up to now is       19.4 secs

     total energy              =    -256.22132006 Ry
     Harris-Foulkes estimate   =    -256.22155962 Ry
     estimated scf accuracy    <       0.00181947 Ry

     iteration #  3     ecut=    80.00 Ry     beta=0.70
     Davidson diagonalization with overlap
     ethr =  6.50E-06,  avg # of iterations =  2.6

     total cpu time spent up to now is       22.7 secs

     total energy              =    -256.22149300 Ry
     Harris-Foulkes estimate   =    -256.22147483 Ry
     estimated scf accuracy    <       0.00011059 Ry

     iteration #  4     ecut=    80.00 Ry     beta=0.70
     Davidson diagonalization with overlap
     ethr =  3.95E-07,  avg # of iterations =  2.7

     total cpu time spent up to now is       25.9 secs

     End of self-consistent calculation

          k = 0.0000 0.0000 0.0000 (  6183 PWs)   bands (ev):

   -14.2496 -14.2496 -14.2496 -14.2026 -14.2026 -13.9645 -13.9645 -13.9643
   -13.9643 -13.9643  -2.6903   6.0234   7.3972   7.3972   7.3972   9.2121
     9.2146   9.4581

     occupation numbers 
     1.0000   1.0000   1.0000   1.0000   1.0000   1.0000   1.0000   1.0000
     1.0000   1.0000   1.0000   1.0000   0.0000   0.0000   0.0000   0.0000
     0.0000   0.0000

          k = 0.0471 0.0471-0.0471 (  6120 PWs)   bands (ev):

   -14.2524 -14.2524 -14.2487 -14.1988 -14.1988 -13.9753 -13.9753 -13.9653
   -13.9541 -13.9541  -2.6513   5.6125   7.3174   7.3174   7.5734   9.2121
     9.2146   9.5630

     occupation numbers 
     1.0000   1.0000   1.0000   1.0000   1.0000   1.0000   1.0000   1.0000
     1.0000   1.0000   1.0000   1.0000   0.0000   0.0000   0.0000   0.0000
     0.0000   0.0000

          k = 0.0943 0.0943-0.0943 (  6120 PWs)   bands (ev):

   -14.2585 -14.2585 -14.2461 -14.1901 -14.1901 -13.9861 -13.9861 -13.9684
   -13.9450 -13.9450  -2.5354   4.8175   7.1259   7.1259   7.6800   9.2121
     9.2146   9.8167

     occupation numbers 
     1.0000   1.0000   1.0000   1.0000   1.0000   1.0000   1.0000   1.0000
     1.0000   1.0000   1.0000   1.0000   1.0000   1.0000   0.0000   0.0000
     0.0000   0.0000

          k = 0.1414 0.1414-0.1414 (  6114 PWs)   bands (ev):

   -14.2649 -14.2649 -14.2423 -14.1799 -14.1799 -13.9961 -13.9961 -13.9729
   -13.9374 -13.9374  -2.3466   3.9542   6.9005   6.9005   7.5927   9.2122
     9.2146  10.1038

     occupation numbers 
     1.0000   1.0000   1.0000   1.0000   1.0000   1.0000   1.0000   1.0000
     1.0000   1.0000   1.0000   1.0000   1.0000   1.0000   0.0000   0.0000
     0.0000   0.0000

          k = 0.1886 0.1886-0.1886 (  6123 PWs)   bands (ev):

   -14.2702 -14.2702 -14.2378 -14.1706 -14.1706 -14.0043 -14.0043 -13.9783
   -13.9315 -13.9315  -2.0936   3.1188   6.6903   6.6903   7.4404   9.2122
     9.2145  10.3282

     occupation numbers 
     1.0000   1.0000   1.0000   1.0000   1.0000   1.0000   1.0000   1.0000
     1.0000   1.0000   1.0000   1.0000   1.0000   1.0000   0.0000   0.0000
     0.0000   0.0000

          k = 0.2357 0.2357-0.2357 (  6135 PWs)   bands (ev):

   -14.2740 -14.2740 -14.2333 -14.1634 -14.1634 -14.0103 -14.0103 -13.9835
   -13.9274 -13.9274  -1.7955   2.3652   6.5200   6.5200   7.2973   9.2121
     9.2145  10.4494

     occupation numbers 
     1.0000   1.0000   1.0000   1.0000   1.0000   1.0000   1.0000   1.0000
     1.0000   1.0000   1.0000   1.0000   1.0000   1.0000   1.0000   0.0000
     0.0000   0.0000

          k = 0.2828 0.2828-0.2828 (  6132 PWs)   bands (ev):

   -14.2764 -14.2764 -14.2297 -14.1588 -14.1588 -14.0140 -14.0140 -13.9877
   -13.9248 -13.9248  -1.4952   1.7538   6.4017   6.4017   7.1930   9.2122
     9.2145  10.4903

     occupation numbers 
     1.0000   1.0000   1.0000   1.0000   1.0000   1.0000   1.0000   1.0000
     1.0000   1.0000   1.0000   1.0000   1.0000   1.0000   1.0000   0.0000
     0.0000   0.0000

          k = 0.3300 0.3300-0.3300 (  6140 PWs)   bands (ev):

   -14.2775 -14.2775 -14.2277 -14.1565 -14.1565 -14.0156 -14.0156 -13.9900
   -13.9235 -13.9235  -1.2845   1.3855   6.3414   6.3414   7.1389   9.2122
     9.2145  10.4964

     occupation numbers 
     1.0000   1.0000   1.0000   1.0000   1.0000   1.0000   1.0000   1.0000
     1.0000   1.0000   1.0000   1.0000   1.0000   1.0000   1.0000   0.0000
     0.0000   0.0000

          k = 0.0943 0.0000 0.0000 (  6118 PWs)   bands (ev):

   -14.2518 -14.2516 -14.2516 -14.1999 -14.1950 -13.9848 -13.9671 -13.9616
   -13.9616 -13.9501  -2.6382   5.5286   7.1732   7.1732   7.8704   9.2118
     9.2145   9.2976

     occupation numbers 
     1.0000   1.0000   1.0000   1.0000   1.0000   1.0000   1.0000   1.0000
     1.0000   1.0000   1.0000   1.0000   1.0000   1.0000   0.0000   0.0000
     0.0000   0.0000

          k = 0.1414 0.0471-0.0471 (  6121 PWs)   bands (ev):

   -14.2583 -14.2556 -14.2491 -14.1943 -14.1860 -13.9965 -13.9761 -13.9619
   -13.9530 -13.9431  -2.5477   4.9390   6.9513   6.9784   8.1219   9.2141
     9.2994  10.0543

     occupation numbers 
     1.0000   1.0000   1.0000   1.0000   1.0000   1.0000   1.0000   1.0000
     1.0000   1.0000   1.0000   1.0000   1.0000   1.0000   0.0000   0.0000
     0.0000   0.0000

          k = 0.1886 0.0943-0.0943 (  6132 PWs)   bands (ev):

   -14.2658 -14.2616 -14.2446 -14.1854 -14.1752 -14.0073 -13.9864 -13.9664
   -13.9442 -13.9353  -2.3826   4.1540   6.7204   6.7395   8.1203   9.2121
     9.2146   9.5545

     occupation numbers 
     1.0000   1.0000   1.0000   1.0000   1.0000   1.0000   1.0000   1.0000
     1.0000   1.0000   1.0000   1.0000   1.0000   1.0000   0.0000   0.0000
     0.0000   0.0000

          k = 0.2357 0.1414-0.1414 (  6124 PWs)   bands (ev):

   -14.2724 -14.2673 -14.2388 -14.1759 -14.1652 -14.0161 -13.9958 -13.9731
   -13.9369 -13.9284  -2.1496   3.3399   6.4836   6.5197   7.9900   9.2122
     9.2146   9.8869

     occupation numbers 
     1.0000   1.0000   1.0000   1.0000   1.0000   1.0000   1.0000   1.0000
     1.0000   1.0000   1.0000   1.0000   1.0000   1.0000   0.0000   0.0000
     0.0000   0.0000

          k = 0.2828 0.1886-0.1886 (  6132 PWs)   bands (ev):

   -14.2774 -14.2719 -14.2325 -14.1675 -14.1576 -14.0217 -14.0038 -13.9807
   -13.9311 -13.9232  -1.8633   2.5741   6.2524   6.3688   7.8389   9.2122
     9.2146  10.1442

     occupation numbers 
     1.0000   1.0000   1.0000   1.0000   1.0000   1.0000   1.0000   1.0000
     1.0000   1.0000   1.0000   1.0000   1.0000   1.0000   0.0000   0.0000
     0.0000   0.0000

          k = 0.3300 0.2357-0.2357 (  6142 PWs)   bands (ev):

   -14.2807 -14.2754 -14.2268 -14.1607 -14.1534 -14.0236 -14.0105 -13.9879
   -13.9267 -13.9199  -1.5560   1.9182   6.0678   6.2771   7.7131   9.2130
    10.2901  10.7306

     occupation numbers 
     1.0000   1.0000   1.0000   1.0000   1.0000   1.0000   1.0000   1.0000
     1.0000   1.0000   1.0000   1.0000   1.0000   1.0000   0.0000   0.0000
     0.0000   0.0000

          k = 0.3771 0.2828-0.2828 (  6149 PWs)   bands (ev):

   -14.2823 -14.2776 -14.2228 -14.1558 -14.1526 -14.0220 -14.0157 -13.9935
   -13.9236 -13.9184  -1.3007   1.4595   5.9404   6.2486   7.6301   9.2122
     9.2145  10.3721

     occupation numbers 
     1.0000   1.0000   1.0000   1.0000   1.0000   1.0000   1.0000   1.0000
     1.0000   1.0000   1.0000   1.0000   1.0000   1.0000   0.0000   0.0000
     0.0000   0.0000

          k =-0.2828-0.3771 0.3771 (  6140 PWs)   bands (ev):

   -14.2821 -14.2789 -14.2213 -14.1544 -14.1528 -14.0194 -14.0182 -13.9961
   -13.9218 -13.9189  -1.2208   1.3285   5.8762   6.2835   7.5982   9.2122
     9.2145  10.4383

     occupation numbers 
     1.0000   1.0000   1.0000   1.0000   1.0000   1.0000   1.0000   1.0000
     1.0000   1.0000   1.0000   1.0000   1.0000   1.0000   0.0000   0.0000
     0.0000   0.0000

          k =-0.2357-0.3300 0.3300 (  6145 PWs)   bands (ev):

   -14.2805 -14.2789 -14.2229 -14.1581 -14.1522 -14.0212 -14.0137 -13.9944
   -13.9213 -13.9212  -1.3736   1.5840   5.8786   6.3794   7.6186   9.2122
     9.2145  10.5037

     occupation numbers 
     1.0000   1.0000   1.0000   1.0000   1.0000   1.0000   1.0000   1.0000
     1.0000   1.0000   1.0000   1.0000   1.0000   1.0000   0.0000   0.0000
     0.0000   0.0000

          k =-0.1886-0.2828 0.2828 (  6133 PWs)   bands (ev):

   -14.2777 -14.2773 -14.2271 -14.1635 -14.1547 -14.0202 -14.0095 -13.9885
   -13.9254 -13.9224  -1.6582   2.1216   5.9503   6.5306   7.6883   9.2122
     9.2146  10.4410

     occupation numbers 
     1.0000   1.0000   1.0000   1.0000   1.0000   1.0000   1.0000   1.0000
     1.0000   1.0000   1.0000   1.0000   1.0000   1.0000   0.0000   0.0000
     0.0000   0.0000

          k =-0.1414-0.2357 0.2357 (  6124 PWs)   bands (ev):

   -14.2748 -14.2725 -14.2329 -14.1703 -14.1608 -14.0158 -14.0043 -13.9802
   -13.9313 -13.9252  -1.9639   2.8209   6.0925   6.7271   7.7962   9.2122
     9.2146  10.2817

     occupation numbers 
     1.0000   1.0000   1.0000   1.0000   1.0000   1.0000   1.0000   1.0000
     1.0000   1.0000   1.0000   1.0000   1.0000   1.0000   0.0000   0.0000
     0.0000   0.0000

          k =-0.0943-0.1886 0.1886 (  6120 PWs)   bands (ev):

   -14.2703 -14.2665 -14.2392 -14.1786 -14.1698 -14.0082 -13.9975 -13.9715
   -13.9390 -13.9299  -2.2347   3.6065   6.3063   6.9506   7.9142   9.2121
     9.2146  10.0447

     occupation numbers 
     1.0000   1.0000   1.0000   1.0000   1.0000   1.0000   1.0000   1.0000
     1.0000   1.0000   1.0000   1.0000   1.0000   1.0000   0.0000   0.0000
     0.0000   0.0000

          k =-0.0471-0.1414 0.1414 (  6124 PWs)   bands (ev):

   -14.2642 -14.2596 -14.2448 -14.1876 -14.1807 -13.9982 -13.9891 -13.9639
   -13.9482 -13.9364  -2.4460   4.4141   6.5922   7.1666   7.9713   9.2121
     9.2146   9.7755

     occupation numbers 
     1.0000   1.0000   1.0000   1.0000   1.0000   1.0000   1.0000   1.0000
     1.0000   1.0000   1.0000   1.0000   1.0000   1.0000   0.0000   0.0000
     0.0000   0.0000

          k = 0.0000-0.0943 0.0943 (  6117 PWs)   bands (ev):

   -14.2576 -14.2537 -14.2484 -14.1955 -14.1913 -13.9869 -13.9800 -13.9588
   -13.9577 -13.9446  -2.5866   5.1473   6.9503   7.3131   7.8404   9.2121
     9.2146   9.5786

     occupation numbers 
     1.0000   1.0000   1.0000   1.0000   1.0000   1.0000   1.0000   1.0000
     1.0000   1.0000   1.0000   1.0000   1.0000   0.5000   0.0000   0.0000
     0.0000   0.0000

          k = 0.1886 0.0000 0.0000 (  6122 PWs)   bands (ev):

   -14.2571 -14.2571 -14.2547 -14.1920 -14.1765 -14.0103 -13.9746 -13.9540
   -13.9540 -13.9427  -2.4825   4.6764   6.7156   6.7156   8.6142   8.9511
     9.2128   9.2153

     occupation numbers 
     1.0000   1.0000   1.0000   1.0000   1.0000   1.0000   1.0000   1.0000
     1.0000   1.0000   1.0000   1.0000   1.0000   1.0000   0.0000   0.0000
     0.0000   0.0000

          k = 0.2357 0.0471-0.0471 (  6123 PWs)   bands (ev):

   -14.2650 -14.2617 -14.2501 -14.1849 -14.1649 -14.0236 -13.9826 -13.9553
   -13.9469 -13.9367  -2.3416   4.1102   6.4535   6.4804   8.7754   8.9694
     9.2130   9.2156

     occupation numbers 
     1.0000   1.0000   1.0000   1.0000   1.0000   1.0000   1.0000   1.0000
     1.0000   1.0000   1.0000   1.0000   1.0000   1.0000   0.0000   0.0000
     0.0000   0.0000

          k = 0.2828 0.0943-0.0943 (  6127 PWs)   bands (ev):

   -14.2735 -14.2671 -14.2422 -14.1758 -14.1537 -14.0345 -13.9925 -13.9634
   -13.9390 -13.9278  -2.1301   3.4118   6.1482   6.2813   8.6810   9.2106
     9.2143   9.3096

     occupation numbers 
     1.0000   1.0000   1.0000   1.0000   1.0000   1.0000   1.0000   1.0000
     1.0000   1.0000   1.0000   1.0000   1.0000   1.0000   0.0000   0.0000
     0.0000   0.0000

          k = 0.3300 0.1414-0.1414 (  6124 PWs)   bands (ev):

   -14.2810 -14.2720 -14.2326 -14.1665 -14.1451 -14.0418 -14.0022 -13.9741
   -13.9320 -13.9198  -1.8589   2.6960   5.8477   6.1371   8.5323   9.2121
     9.2146   9.7231

     occupation numbers 
     1.0000   1.0000   1.0000   1.0000   1.0000   1.0000   1.0000   1.0000
     1.0000   1.0000   1.0000   1.0000   1.0000   1.0000   0.0000   0.0000
     0.0000   0.0000

          k = 0.3771 0.1886-0.1886 (  6139 PWs)   bands (ev):

   -14.2866 -14.2761 -14.2229 -14.1580 -14.1407 -14.0442 -14.0113 -13.9855
   -13.9263 -13.9137  -1.5521   2.0397   5.5908   6.0572   8.3906   9.2122
     9.2147  10.0509

     occupation numbers 
     1.0000   1.0000   1.0000   1.0000   1.0000   1.0000   1.0000   1.0000
     1.0000   1.0000   1.0000   1.0000   1.0000   1.0000   0.0000   0.0000
     0.0000   0.0000

          k = 0.4243 0.2357-0.2357 (  6148 PWs)   bands (ev):

   -14.2901 -14.2792 -14.2146 -14.1506 -14.1410 -14.0411 -14.0195 -13.9958
   -13.9219 -13.9100  -1.2655   1.5259   5.3961   6.0452   8.2841   9.2122
     9.2146  10.2383

     occupation numbers 
     1.0000   1.0000   1.0000   1.0000   1.0000   1.0000   1.0000   1.0000
     1.0000   1.0000   1.0000   1.0000   1.0000   1.0000   0.0000   0.0000
     0.0000   0.0000

          k =-0.2357-0.4243 0.4243 (  6139 PWs)   bands (ev):

   -14.2913 -14.2813 -14.2094 -14.1453 -14.1450 -14.0332 -14.0264 -14.0036
   -13.9188 -13.9090  -1.1121   1.2811   5.2729   6.1009   8.2243   9.2122
     9.2146  10.3573

     occupation numbers 
     1.0000   1.0000   1.0000   1.0000   1.0000   1.0000   1.0000   1.0000
     1.0000   1.0000   1.0000   1.0000   1.0000   1.0000   0.0000   0.0000
     0.0000   0.0000

          k =-0.1886-0.3771 0.3771 (  6141 PWs)   bands (ev):

   -14.2901 -14.2822 -14.2087 -14.1518 -14.1420 -14.0311 -14.0220 -14.0076
   -13.9172 -13.9109  -1.1965   1.4139   5.2284   6.2206   8.2134   9.2122
     9.2146  10.4668

     occupation numbers 
     1.0000   1.0000   1.0000   1.0000   1.0000   1.0000   1.0000   1.0000
     1.0000   1.0000   1.0000   1.0000   1.0000   1.0000   0.0000   0.0000
     0.0000   0.0000

          k =-0.1414-0.3300 0.3300 (  6135 PWs)   bands (ev):

   -14.2865 -14.2818 -14.2129 -14.1591 -14.1427 -14.0321 -14.0126 -14.0041
   -13.9173 -13.9157  -1.4562   1.8581   5.2702   6.3961   8.2457   9.2122
     9.2147  10.5688

     occupation numbers 
     1.0000   1.0000   1.0000   1.0000   1.0000   1.0000   1.0000   1.0000
     1.0000   1.0000   1.0000   1.0000   1.0000   1.0000   0.0000   0.0000
     0.0000   0.0000

          k =-0.0943-0.2828 0.2828 (  6129 PWs)   bands (ev):

   -14.2808 -14.2797 -14.2208 -14.1664 -14.1481 -14.0286 -14.0090 -13.9908
   -13.9231 -13.9193  -1.7647   2.4733   5.4090   6.6135   8.3032   9.2122
     9.2147  10.4871

     occupation numbers 
     1.0000   1.0000   1.0000   1.0000   1.0000   1.0000   1.0000   1.0000
     1.0000   1.0000   1.0000   1.0000   1.0000   1.0000   0.0000   0.0000
     0.0000   0.0000

          k =-0.0471-0.2357 0.2357 (  6126 PWs)   bands (ev):

   -14.2759 -14.2734 -14.2304 -14.1738 -14.1574 -14.0209 -14.0040 -13.9770
   -13.9328 -13.9232  -2.0504   3.1592   5.6619   6.8478   8.3406   9.2122
     9.2147  10.2112

     occupation numbers 
     1.0000   1.0000   1.0000   1.0000   1.0000   1.0000   1.0000   1.0000
     1.0000   1.0000   1.0000   1.0000   1.0000   1.0000   0.0000   0.0000
     0.0000   0.0000

          k = 0.0000-0.1886 0.1886 (  6139 PWs)   bands (ev):

   -14.2705 -14.2655 -14.2392 -14.1813 -14.1690 -14.0103 -13.9970 -13.9659
   -13.9433 -13.9290  -2.2822   3.8341   6.0530   7.0548   8.2594   9.2122
     9.2147   9.9372

     occupation numbers 
     1.0000   1.0000   1.0000   1.0000   1.0000   1.0000   1.0000   1.0000
     1.0000   1.0000   1.0000   1.0000   1.0000   1.0000   0.0000   0.0000
     0.0000   0.0000

          k = 0.2828 0.0000 0.0000 (  6126 PWs)   bands (ev):

   -14.2649 -14.2649 -14.2539 -14.1793 -14.1518 -14.0398 -13.9868 -13.9434
   -13.9434 -13.9423  -2.2246   3.7812   6.2403   6.2403   8.5972   9.1483
     9.2132   9.2226

     occupation numbers 
     1.0000   1.0000   1.0000   1.0000   1.0000   1.0000   1.0000   1.0000
     1.0000   1.0000   1.0000   1.0000   1.0000   1.0000   0.0000   0.0000
     0.0000   0.0000

          k = 0.3300 0.0471-0.0471 (  6132 PWs)   bands (ev):

   -14.2724 -14.2694 -14.2472 -14.1707 -14.1389 -14.0540 -13.9955 -13.9527
   -13.9367 -13.9310  -2.0352   3.2578   5.9649   6.0366   8.5957   9.1996
     9.2135   9.2535

     occupation numbers 
     1.0000   1.0000   1.0000   1.0000   1.0000   1.0000   1.0000   1.0000
     1.0000   1.0000   1.0000   1.0000   1.0000   1.0000   0.0000   0.0000
     0.0000   0.0000

          k = 0.3771 0.0943-0.0943 (  6130 PWs)   bands (ev):

   -14.2815 -14.2741 -14.2357 -14.1610 -14.1282 -14.0645 -14.0057 -13.9659
   -13.9299 -13.9200  -1.7814   2.6533   5.6203   5.8890   8.6974   9.2107
     9.2141   9.4190

     occupation numbers 
     1.0000   1.0000   1.0000   1.0000   1.0000   1.0000   1.0000   1.0000
     1.0000   1.0000   1.0000   1.0000   1.0000   1.0000   0.0000   0.0000
     0.0000   0.0000

          k = 0.4243 0.1414-0.1414 (  6153 PWs)   bands (ev):

   -14.2895 -14.2783 -14.2224 -14.1512 -14.1220 -14.0696 -14.0162 -13.9807
   -13.9238 -13.9108  -1.4809   2.0511   5.2850   5.8080   8.6657   9.2120
     9.2145   9.8650

     occupation numbers 
     1.0000   1.0000   1.0000   1.0000   1.0000   1.0000   1.0000   1.0000
     1.0000   1.0000   1.0000   1.0000   1.0000   1.0000   0.0000   0.0000
     0.0000   0.0000

          k = 0.4714 0.1886-0.1886 (  6143 PWs)   bands (ev):

   -14.2955 -14.2816 -14.2098 -14.1421 -14.1219 -14.0679 -14.0264 -13.9948
   -13.9189 -13.9042  -1.1751   1.5300   5.0089   5.7978   8.5999   9.2122
     9.2146  10.3160

     occupation numbers 
     1.0000   1.0000   1.0000   1.0000   1.0000   1.0000   1.0000   1.0000
     1.0000   1.0000   1.0000   1.0000   1.0000   1.0000   0.0000   0.0000
     0.0000   0.0000

          k =-0.1886-0.4714 0.4714 (  6133 PWs)   bands (ev):

   -14.2988 -14.2840 -14.2003 -14.1344 -14.1275 -14.0598 -14.0357 -14.0059
   -13.9154 -13.9007  -0.9596   1.2060   4.8149   5.8586   8.5628   9.2122
     9.2147  10.5635

     occupation numbers 
     1.0000   1.0000   1.0000   1.0000   1.0000   1.0000   1.0000   1.0000
     1.0000   1.0000   1.0000   1.0000   1.0000   1.0000   0.0000   0.0000
     0.0000   0.0000

          k =-0.1414-0.4243 0.4243 (  6133 PWs)   bands (ev):

   -14.2990 -14.2854 -14.1958 -14.1375 -14.1293 -14.0463 -14.0425 -14.0125
   -13.9134 -13.9007  -0.9704   1.2223   4.7172   5.9864   8.5659   9.2123
     9.2147  10.6945

     occupation numbers 
     1.0000   1.0000   1.0000   1.0000   1.0000   1.0000   1.0000   1.0000
     1.0000   1.0000   1.0000   1.0000   1.0000   1.0000   0.0000   0.0000
     0.0000   0.0000

          k =-0.0943-0.3771 0.3771 (  6133 PWs)   bands (ev):

   -14.2962 -14.2854 -14.1975 -14.1492 -14.1289 -14.0448 -14.0289 -14.0148
   -13.9131 -13.9045  -1.1979   1.5647   4.7303   6.1724   8.5990   9.2123
     9.2148  10.8118

     occupation numbers 
     1.0000   1.0000   1.0000   1.0000   1.0000   1.0000   1.0000   1.0000
     1.0000   1.0000   1.0000   1.0000   1.0000   1.0000   0.0000   0.0000
     0.0000   0.0000

          k =-0.0471-0.3300 0.3300 (  6131 PWs)   bands (ev):

   -14.2904 -14.2838 -14.2057 -14.1594 -14.1345 -14.0411 -14.0137 -14.0097
   -13.9146 -13.9118  -1.5047   2.0767   4.8746   6.4003   8.6286   9.2123
     9.2149  10.8725

     occupation numbers 
     1.0000   1.0000   1.0000   1.0000   1.0000   1.0000   1.0000   1.0000
     1.0000   1.0000   1.0000   1.0000   1.0000   1.0000   0.0000   0.0000
     0.0000   0.0000

          k = 0.0000-0.2828 0.2828 (  6111 PWs)   bands (ev):

   -14.2824 -14.2806 -14.2179 -14.1674 -14.1448 -14.0325 -14.0098 -13.9915
   -13.9219 -13.9180  -1.8016   2.6347   5.1777   6.6416   8.5797   9.2123
     9.2149  10.5252

     occupation numbers 
     1.0000   1.0000   1.0000   1.0000   1.0000   1.0000   1.0000   1.0000
     1.0000   1.0000   1.0000   1.0000   1.0000   1.0000   0.0000   0.0000
     0.0000   0.0000

          k = 0.3771 0.0000 0.0000 (  6106 PWs)   bands (ev):

   -14.2732 -14.2732 -14.2477 -14.1624 -14.1235 -14.0718 -14.0031 -13.9489
   -13.9316 -13.9316  -1.8672   2.8954   5.8246   5.8246   8.3158   9.2024
     9.2134   9.2568

     occupation numbers 
     1.0000   1.0000   1.0000   1.0000   1.0000   1.0000   1.0000   1.0000
     1.0000   1.0000   1.0000   1.0000   1.0000   1.0000   0.0000   0.0000
     0.0000   0.0000

          k = 0.4243 0.0471-0.0471 (  6136 PWs)   bands (ev):

   -14.2800 -14.2773 -14.2386 -14.1524 -14.1100 -14.0863 -14.0131 -13.9598
   -13.9257 -13.9222  -1.6319   2.4151   5.5626   5.6676   8.3591   9.1824
     9.2133   9.2268

     occupation numbers 
     1.0000   1.0000   1.0000   1.0000   1.0000   1.0000   1.0000   1.0000
     1.0000   1.0000   1.0000   1.0000   1.0000   1.0000   0.0000   0.0000
     0.0000   0.0000

          k = 0.4714 0.0943-0.0943 (  6145 PWs)   bands (ev):

   -14.2888 -14.2811 -14.2240 -14.1418 -14.1017 -14.0944 -14.0242 -13.9761
   -13.9202 -13.9115  -1.3419   1.8982   5.2042   5.5774   8.5076   9.2107
     9.2139   9.3918

     occupation numbers 
     1.0000   1.0000   1.0000   1.0000   1.0000   1.0000   1.0000   1.0000
     1.0000   1.0000   1.0000   1.0000   1.0000   1.0000   0.0000   0.0000
     0.0000   0.0000

          k = 0.5185 0.1414-0.1414 (  6133 PWs)   bands (ev):

   -14.2967 -14.2842 -14.2082 -14.1314 -14.1034 -14.0916 -14.0356 -13.9932
   -13.9156 -13.9025  -1.0268   1.4122   4.8545   5.5594   8.5413   9.2119
     9.2144   9.9534

     occupation numbers 
     1.0000   1.0000   1.0000   1.0000   1.0000   1.0000   1.0000   1.0000
     1.0000   1.0000   1.0000   1.0000   1.0000   1.0000   0.0000   0.0000
     0.0000   0.0000

          k =-0.1414-0.5185 0.5185 (  6120 PWs)   bands (ev):

   -14.3023 -14.2865 -14.1951 -14.1220 -14.1056 -14.0879 -14.0464 -14.0071
   -13.9122 -13.8965  -0.7627   1.0525   4.5801   5.6144   8.5525   9.2121
     9.2145  10.6647

     occupation numbers 
     1.0000   1.0000   1.0000   1.0000   1.0000   1.0000   1.0000   1.0000
     1.0000   1.0000   1.0000   1.0000   1.0000   1.0000   0.0000   0.0000
     0.0000   0.0000

          k =-0.0943-0.4714 0.4714 (  6127 PWs)   bands (ev):

   -14.3046 -14.2878 -14.1879 -14.1153 -14.1150 -14.0765 -14.0548 -14.0150
   -13.9103 -13.8942  -0.7030   0.9776   4.4170   5.7390   8.5946   9.2122
     9.2146  11.1878

     occupation numbers 
     1.0000   1.0000   1.0000   1.0000   1.0000   1.0000   1.0000   1.0000
     1.0000   1.0000   1.0000   1.0000   1.0000   1.0000   0.0000   0.0000
     0.0000   0.0000

          k =-0.0471-0.4243 0.4243 (  6124 PWs)   bands (ev):

   -14.3033 -14.2879 -14.1872 -14.1314 -14.1149 -14.0571 -14.0566 -14.0174
   -13.9100 -13.8961  -0.8988   1.2311   4.3929   5.9244   8.6622   9.2123
     9.2147  11.3814

     occupation numbers 
     1.0000   1.0000   1.0000   1.0000   1.0000   1.0000   1.0000   1.0000
     1.0000   1.0000   1.0000   1.0000   1.0000   1.0000   0.0000   0.0000
     0.0000   0.0000

          k =-0.0000-0.3771 0.3771 (  6137 PWs)   bands (ev):

   -14.2984 -14.2866 -14.1931 -14.1479 -14.1224 -14.0517 -14.0331 -14.0164
   -13.9115 -13.9022  -1.2018   1.6429   4.5366   6.1544   8.7088   9.2123
     9.2148  11.3256

     occupation numbers 
     1.0000   1.0000   1.0000   1.0000   1.0000   1.0000   1.0000   1.0000
     1.0000   1.0000   1.0000   1.0000   1.0000   1.0000   0.0000   0.0000
     0.0000   0.0000

          k = 0.4714 0.0000 0.0000 (  6154 PWs)   bands (ev):

   -14.2807 -14.2807 -14.2357 -14.1420 -14.1049 -14.0932 -14.0230 -13.9621
   -13.9209 -13.9209  -1.4142   2.0374   5.4981   5.4981   8.1393   8.9784
     9.2127   9.2153

     occupation numbers 
     1.0000   1.0000   1.0000   1.0000   1.0000   1.0000   1.0000   1.0000
     1.0000   1.0000   1.0000   1.0000   1.0000   1.0000   0.0000   0.0000
     0.0000   0.0000

          k = 0.5185 0.0471-0.0471 (  6149 PWs)   bands (ev):

   -14.2864 -14.2839 -14.2240 -14.1308 -14.1188 -14.0798 -14.0342 -13.9749
   -13.9163 -13.9135  -1.1369   1.5988   5.2664   5.3942   8.2276   8.9039
     9.2126   9.2150

     occupation numbers 
     1.0000   1.0000   1.0000   1.0000   1.0000   1.0000   1.0000   1.0000
     1.0000   1.0000   1.0000   1.0000   1.0000   1.0000   0.0000   0.0000
     0.0000   0.0000

          k = 0.5657 0.0943-0.0943 (  6137 PWs)   bands (ev):

   -14.2943 -14.2865 -14.2072 -14.1264 -14.1195 -14.0718 -14.0461 -13.9928
   -13.9125 -13.9045  -0.8200   1.1611   4.9197   5.3628   8.3695   9.1906
     9.2134   9.2261

     occupation numbers 
     1.0000   1.0000   1.0000   1.0000   1.0000   1.0000   1.0000   1.0000
     1.0000   1.0000   1.0000   1.0000   1.0000   1.0000   0.0000   0.0000
     0.0000   0.0000

          k =-0.0943-0.5657 0.5657 (  6133 PWs)   bands (ev):

   -14.3014 -14.2883 -14.1915 -14.1245 -14.1088 -14.0727 -14.0579 -14.0090
   -13.9098 -13.8968  -0.5206   0.7968   4.5863   5.4056   8.4214   9.2119
     9.2144   9.8900

     occupation numbers 
     1.0000   1.0000   1.0000   1.0000   1.0000   1.0000   1.0000   1.0000
     1.0000   1.0000   1.0000   1.0000   1.0000   1.0000   0.0000   0.0000
     0.0000   0.0000

          k =-0.0471-0.5185 0.5185 (  6121 PWs)   bands (ev):

   -14.3059 -14.2893 -14.1834 -14.1097 -14.1013 -14.0860 -14.0670 -14.0174
   -13.9084 -13.8922  -0.4071   0.6725   4.3526   5.5199   8.4872   9.2121
     9.2145  10.7503

     occupation numbers 
     1.0000   1.0000   1.0000   1.0000   1.0000   1.0000   1.0000   1.0000
     1.0000   1.0000   1.0000   1.0000   1.0000   1.0000   0.0000   0.0000
     0.0000   0.0000

          k =-0.0000-0.4714 0.4714 (  6111 PWs)   bands (ev):

   -14.3067 -14.2892 -14.1827 -14.1084 -14.1036 -14.0848 -14.0666 -14.0188
   -13.9085 -13.8919  -0.5959   0.8883   4.2742   5.6979   8.5831   9.2122
     9.2146  11.5918

     occupation numbers 
     1.0000   1.0000   1.0000   1.0000   1.0000   1.0000   1.0000   1.0000
     1.0000   1.0000   1.0000   1.0000   1.0000   1.0000   0.0000   0.0000
     0.0000   0.0000

          k = 0.5657 0.0000 0.0000 (  6162 PWs)   bands (ev):

   -14.2863 -14.2863 -14.2180 -14.1374 -14.1190 -14.0625 -14.0455 -13.9812
   -13.9127 -13.9127  -0.8711   1.2202   5.2745   5.2745   8.0815   8.6290
     9.2123   9.2147

     occupation numbers 
     1.0000   1.0000   1.0000   1.0000   1.0000   1.0000   1.0000   1.0000
     1.0000   1.0000   1.0000   1.0000   1.0000   1.0000   0.0000   0.0000
     0.0000   0.0000

          k = 0.6128 0.0471-0.0471 (  6136 PWs)   bands (ev):

   -14.2907 -14.2882 -14.2040 -14.1500 -14.1070 -14.0576 -14.0499 -13.9958
   -13.9099 -13.9075  -0.5570   0.8231   5.0856   5.2267   8.2064   8.6083
     9.2123   9.2147

     occupation numbers 
     1.0000   1.0000   1.0000   1.0000   1.0000   1.0000   1.0000   1.0000
     1.0000   1.0000   1.0000   1.0000   1.0000   1.0000   0.0000   0.0000
     0.0000   0.0000

          k =-0.0471-0.6128 0.6128 (  6137 PWs)   bands (ev):

   -14.2973 -14.2894 -14.1873 -14.1532 -14.0954 -14.0699 -14.0460 -14.0128
   -13.9082 -13.9005  -0.2338   0.4656   4.7758   5.2536   8.3039   9.0663
     9.2128   9.2155

     occupation numbers 
     1.0000   1.0000   1.0000   1.0000   1.0000   1.0000   1.0000   1.0000
     1.0000   1.0000   1.0000   1.0000   1.0000   1.0000   0.0000   0.0000
     0.0000   0.0000

          k = 0.0000-0.5657 0.5657 (  6112 PWs)   bands (ev):

   -14.3031 -14.2898 -14.1813 -14.1375 -14.0901 -14.0765 -14.0605 -14.0189
   -13.9077 -13.8947  -0.1421   0.3821   4.4955   5.3536   8.3768   9.2119
     9.2143   9.8517

     occupation numbers 
     1.0000   1.0000   1.0000   1.0000   1.0000   1.0000   1.0000   1.0000
     1.0000   1.0000   1.0000   1.0000   1.0000   1.0000   0.0000   0.0000
     0.0000   0.0000

          k = 0.6600 0.0000 0.0000 (  6126 PWs)   bands (ev):

   -14.2893 -14.2893 -14.1951 -14.1679 -14.0946 -14.0697 -14.0326 -14.0051
   -13.9083 -13.9083  -0.2449   0.4556   5.1612   5.1612   8.1476   8.3353
     9.2123   9.2146

     occupation numbers 
     1.0000   1.0000   1.0000   1.0000   1.0000   1.0000   1.0000   1.0000
     1.0000   1.0000   1.0000   1.0000   1.0000   1.0000   0.0000   0.0000
     0.0000   0.0000

          k = 0.0000-0.6600 0.6600 (  6126 PWs)   bands (ev):

   -14.2921 -14.2897 -14.1819 -14.1760 -14.0830 -14.0815 -14.0242 -14.0185
   -13.9077 -13.9054   0.0719   0.1284   5.0249   5.1704   8.2444   8.4568
     9.2123   9.2146

     occupation numbers 
     1.0000   1.0000   1.0000   1.0000   1.0000   1.0000   1.0000   1.0000
     1.0000   1.0000   1.0000   1.0000   1.0000   1.0000   0.0000   0.0000
     0.0000   0.0000

          k = 0.1886 0.0943-0.0000 (  6126 PWs)   bands (ev):

   -14.2639 -14.2594 -14.2473 -14.1886 -14.1756 -14.0089 -13.9827 -13.9585
   -13.9511 -13.9367  -2.4322   4.4101   6.4968   6.9181   8.3979   9.2108
     9.2144   9.2650

     occupation numbers 
     1.0000   1.0000   1.0000   1.0000   1.0000   1.0000   1.0000   1.0000
     1.0000   1.0000   1.0000   1.0000   1.0000   1.0000   0.0000   0.0000
     0.0000   0.0000

          k = 0.2357 0.1414-0.0471 (  6114 PWs)   bands (ev):

   -14.2708 -14.2659 -14.2410 -14.1802 -14.1643 -14.0200 -13.9918 -13.9656
   -13.9416 -13.9294  -2.2439   3.7180   6.1134   6.7629   8.4515   9.2120
     9.2147   9.4971

     occupation numbers 
     1.0000   1.0000   1.0000   1.0000   1.0000   1.0000   1.0000   1.0000
     1.0000   1.0000   1.0000   1.0000   1.0000   1.0000   0.0000   0.0000
     0.0000   0.0000

          k = 0.2828 0.1886-0.0943 (  6131 PWs)   bands (ev):

   -14.2772 -14.2720 -14.2327 -14.1715 -14.1543 -14.0285 -14.0003 -13.9761
   -13.9327 -13.9231  -1.9913   2.9816   5.8263   6.5612   8.3604   9.2122
     9.2147   9.8543

     occupation numbers 
     1.0000   1.0000   1.0000   1.0000   1.0000   1.0000   1.0000   1.0000
     1.0000   1.0000   1.0000   1.0000   1.0000   1.0000   0.0000   0.0000
     0.0000   0.0000

          k = 0.3300 0.2357-0.1414 (  6137 PWs)   bands (ev):

   -14.2825 -14.2766 -14.2241 -14.1635 -14.1474 -14.0332 -14.0076 -13.9873
   -13.9259 -13.9180  -1.6928   2.2838   5.6241   6.3732   8.2424   9.2123
     9.2147  10.1366

     occupation numbers 
     1.0000   1.0000   1.0000   1.0000   1.0000   1.0000   1.0000   1.0000
     1.0000   1.0000   1.0000   1.0000   1.0000   1.0000   0.0000   0.0000
     0.0000   0.0000

          k = 0.3771 0.2828-0.1886 (  6144 PWs)   bands (ev):

   -14.2864 -14.2794 -14.2169 -14.1566 -14.1447 -14.0333 -14.0144 -13.9969
   -13.9216 -13.9142  -1.3905   1.7012   5.4962   6.2327   8.1482   9.2123
     9.2147  10.2769

     occupation numbers 
     1.0000   1.0000   1.0000   1.0000   1.0000   1.0000   1.0000   1.0000
     1.0000   1.0000   1.0000   1.0000   1.0000   1.0000   0.0000   0.0000
     0.0000   0.0000

          k =-0.2828-0.3771 0.4714 (  6131 PWs)   bands (ev):

   -14.2884 -14.2807 -14.2128 -14.1510 -14.1457 -14.0295 -14.0213 -14.0023
   -13.9195 -13.9122  -1.1766   1.3434   5.4345   6.1582   8.0976   9.2122
     9.2147  10.3233

     occupation numbers 
     1.0000   1.0000   1.0000   1.0000   1.0000   1.0000   1.0000   1.0000
     1.0000   1.0000   1.0000   1.0000   1.0000   1.0000   0.0000   0.0000
     0.0000   0.0000

          k = 0.2828 0.0943 0.0000 (  6130 PWs)   bands (ev):

   -14.2702 -14.2673 -14.2456 -14.1775 -14.1526 -14.0373 -13.9901 -13.9578
   -13.9404 -13.9311  -2.1769   3.5988   6.0305   6.3863   8.9130   9.0017
     9.2132   9.2166

     occupation numbers 
     1.0000   1.0000   1.0000   1.0000   1.0000   1.0000   1.0000   1.0000
     1.0000   1.0000   1.0000   1.0000   1.0000   1.0000   0.0000   0.0000
     0.0000   0.0000

          k = 0.3300 0.1414-0.0471 (  6129 PWs)   bands (ev):

   -14.2779 -14.2733 -14.2358 -14.1686 -14.1413 -14.0483 -13.9995 -13.9684
   -13.9317 -13.9231  -1.9442   2.9815   5.6623   6.2272   8.8954   9.2100
     9.2145   9.3100

     occupation numbers 
     1.0000   1.0000   1.0000   1.0000   1.0000   1.0000   1.0000   1.0000
     1.0000   1.0000   1.0000   1.0000   1.0000   1.0000   0.0000   0.0000
     0.0000   0.0000

          k = 0.3771 0.1886-0.0943 (  6142 PWs)   bands (ev):

   -14.2856 -14.2778 -14.2240 -14.1594 -14.1331 -14.0552 -14.0091 -13.9817
   -13.9248 -13.9150  -1.6574   2.3439   5.3702   6.0625   8.7857   9.2121
     9.2148   9.7605

     occupation numbers 
     1.0000   1.0000   1.0000   1.0000   1.0000   1.0000   1.0000   1.0000
     1.0000   1.0000   1.0000   1.0000   1.0000   1.0000   0.0000   0.0000
     0.0000   0.0000

          k = 0.4243 0.2357-0.1414 (  6153 PWs)   bands (ev):

   -14.2917 -14.2811 -14.2126 -14.1508 -14.1298 -14.0564 -14.0186 -13.9948
   -13.9198 -13.9084  -1.3474   1.7638   5.1504   5.9482   8.6837   9.2123
     9.2148  10.1124

     occupation numbers 
     1.0000   1.0000   1.0000   1.0000   1.0000   1.0000   1.0000   1.0000
     1.0000   1.0000   1.0000   1.0000   1.0000   1.0000   0.0000   0.0000
     0.0000   0.0000

          k =-0.2357-0.4243 0.5185 (  6146 PWs)   bands (ev):

   -14.2954 -14.2833 -14.2039 -14.1434 -14.1315 -14.0519 -14.0278 -14.0048
   -13.9166 -13.9044  -1.0865   1.3415   5.0005   5.9086   8.6176   9.2123
     9.2148  10.2698

     occupation numbers 
     1.0000   1.0000   1.0000   1.0000   1.0000   1.0000   1.0000   1.0000
     1.0000   1.0000   1.0000   1.0000   1.0000   1.0000   0.0000   0.0000
     0.0000   0.0000

          k =-0.1886-0.3771 0.4714 (  6144 PWs)   bands (ev):

   -14.2964 -14.2845 -14.2000 -14.1414 -14.1337 -14.0450 -14.0333 -14.0101
   -13.9149 -13.9036  -1.0062   1.2217   4.9238   5.9488   8.5965   9.2123
     9.2148  10.3307

     occupation numbers 
     1.0000   1.0000   1.0000   1.0000   1.0000   1.0000   1.0000   1.0000
     1.0000   1.0000   1.0000   1.0000   1.0000   1.0000   0.0000   0.0000
     0.0000   0.0000

          k =-0.1414-0.3300 0.4243 (  6129 PWs)   bands (ev):

   -14.2944 -14.2844 -14.2018 -14.1486 -14.1321 -14.0458 -14.0246 -14.0106
   -13.9148 -13.9060  -1.1679   1.4678   4.9292   6.0629   8.6186   9.2123
     9.2149  10.3512

     occupation numbers 
     1.0000   1.0000   1.0000   1.0000   1.0000   1.0000   1.0000   1.0000
     1.0000   1.0000   1.0000   1.0000   1.0000   1.0000   0.0000   0.0000
     0.0000   0.0000

          k =-0.0943-0.2828 0.3771 (  6136 PWs)   bands (ev):

   -14.2897 -14.2830 -14.2092 -14.1571 -14.1344 -14.0458 -14.0135 -14.0037
   -13.9167 -13.9115  -1.4586   1.9577   5.0306   6.2368   8.6715   9.2123
     9.2149  10.2735

     occupation numbers 
     1.0000   1.0000   1.0000   1.0000   1.0000   1.0000   1.0000   1.0000
     1.0000   1.0000   1.0000   1.0000   1.0000   1.0000   0.0000   0.0000
     0.0000   0.0000

          k =-0.0471-0.2357 0.3300 (  6128 PWs)   bands (ev):

   -14.2828 -14.2801 -14.2202 -14.1653 -14.1415 -14.0408 -14.0069 -13.9888
   -13.9224 -13.9177  -1.7653   2.5548   5.2473   6.4457   8.7212   9.2123
     9.2150   9.9966

     occupation numbers 
     1.0000   1.0000   1.0000   1.0000   1.0000   1.0000   1.0000   1.0000
     1.0000   1.0000   1.0000   1.0000   1.0000   1.0000   0.0000   0.0000
     0.0000   0.0000

          k = 0.0000-0.1886 0.2828 (  6125 PWs)   bands (ev):

   -14.2762 -14.2738 -14.2318 -14.1731 -14.1523 -14.0317 -13.9997 -13.9745
   -13.9325 -13.9232  -2.0347   3.1660   5.6039   6.6455   8.6816   9.2122
     9.2150   9.6552

     occupation numbers 
     1.0000   1.0000   1.0000   1.0000   1.0000   1.0000   1.0000   1.0000
     1.0000   1.0000   1.0000   1.0000   1.0000   1.0000   0.0000   0.0000
     0.0000   0.0000

          k = 0.3771 0.0943 0.0000 (  6139 PWs)   bands (ev):

   -14.2769 -14.2758 -14.2398 -14.1617 -14.1256 -14.0684 -14.0045 -13.9604
   -13.9287 -13.9250  -1.8235   2.7779   5.6296   5.9059   8.6271   9.2051
     9.2136   9.2763

     occupation numbers 
     1.0000   1.0000   1.0000   1.0000   1.0000   1.0000   1.0000   1.0000
     1.0000   1.0000   1.0000   1.0000   1.0000   1.0000   0.0000   0.0000
     0.0000   0.0000

          k = 0.4243 0.1414-0.0471 (  6137 PWs)   bands (ev):

   -14.2854 -14.2803 -14.2266 -14.1518 -14.1151 -14.0787 -14.0149 -13.9749
   -13.9217 -13.9155  -1.5516   2.2389   5.2874   5.7590   8.7936   9.2107
     9.2141   9.4243

     occupation numbers 
     1.0000   1.0000   1.0000   1.0000   1.0000   1.0000   1.0000   1.0000
     1.0000   1.0000   1.0000   1.0000   1.0000   1.0000   0.0000   0.0000
     0.0000   0.0000

          k = 0.4714 0.1886-0.0943 (  6137 PWs)   bands (ev):

   -14.2935 -14.2837 -14.2118 -14.1419 -14.1098 -14.0828 -14.0258 -13.9910
   -13.9168 -13.9063  -1.2416   1.7081   4.9793   5.6558   8.8106   9.2120
     9.2146   9.9174

     occupation numbers 
     1.0000   1.0000   1.0000   1.0000   1.0000   1.0000   1.0000   1.0000
     1.0000   1.0000   1.0000   1.0000   1.0000   1.0000   0.0000   0.0000
     0.0000   0.0000

          k =-0.1886-0.4714 0.5657 (  6125 PWs)   bands (ev):

   -14.2994 -14.2862 -14.1986 -14.1328 -14.1110 -14.0796 -14.0366 -14.0049
   -13.9132 -13.8998  -0.9478   1.2683   4.7335   5.6312   8.7914   9.2122
     9.2148  10.4423

     occupation numbers 
     1.0000   1.0000   1.0000   1.0000   1.0000   1.0000   1.0000   1.0000
     1.0000   1.0000   1.0000   1.0000   1.0000   1.0000   0.0000   0.0000
     0.0000   0.0000

          k =-0.1414-0.4243 0.5185 (  6131 PWs)   bands (ev):

   -14.3023 -14.2877 -14.1904 -14.1272 -14.1162 -14.0710 -14.0455 -14.0138
   -13.9110 -13.8967  -0.7935   1.0581   4.5747   5.6888   8.8021   9.2123
     9.2149  10.6647

     occupation numbers 
     1.0000   1.0000   1.0000   1.0000   1.0000   1.0000   1.0000   1.0000
     1.0000   1.0000   1.0000   1.0000   1.0000   1.0000   0.0000   0.0000
     0.0000   0.0000

          k =-0.0943-0.3771 0.4714 (  6131 PWs)   bands (ev):

   -14.3017 -14.2881 -14.1887 -14.1340 -14.1175 -14.0622 -14.0449 -14.0169
   -13.9103 -13.8977  -0.8973   1.1986   4.5234   5.8210   8.8461   9.2124
     9.2151  10.7069

     occupation numbers 
     1.0000   1.0000   1.0000   1.0000   1.0000   1.0000   1.0000   1.0000
     1.0000   1.0000   1.0000   1.0000   1.0000   1.0000   0.0000   0.0000
     0.0000   0.0000

          k =-0.0471-0.3300 0.4243 (  6130 PWs)   bands (ev):

   -14.2978 -14.2872 -14.1942 -14.1466 -14.1206 -14.0585 -14.0288 -14.0157
   -13.9112 -13.9027  -1.1727   1.5919   4.6019   6.0124   8.8991   9.2125
     9.2154  10.6485

     occupation numbers 
     1.0000   1.0000   1.0000   1.0000   1.0000   1.0000   1.0000   1.0000
     1.0000   1.0000   1.0000   1.0000   1.0000   1.0000   0.0000   0.0000
     0.0000   0.0000

          k = 0.0000-0.2828 0.3771 (  6133 PWs)   bands (ev):

   -14.2908 -14.2848 -14.2058 -14.1573 -14.1294 -14.0514 -14.0133 -14.0069
   -13.9138 -13.9113  -1.4836   2.0761   4.8362   6.2365   8.8965   9.2125
     9.2156  10.3365

     occupation numbers 
     1.0000   1.0000   1.0000   1.0000   1.0000   1.0000   1.0000   1.0000
     1.0000   1.0000   1.0000   1.0000   1.0000   1.0000   0.0000   0.0000
     0.0000   0.0000

          k = 0.4714 0.0943-0.0000 (  6140 PWs)   bands (ev):

   -14.2835 -14.2834 -14.2283 -14.1419 -14.1006 -14.0965 -14.0236 -13.9709
   -13.9180 -13.9171  -1.3766   1.9698   5.3233   5.5185   8.4391   9.1166
     9.2131   9.2175

     occupation numbers 
     1.0000   1.0000   1.0000   1.0000   1.0000   1.0000   1.0000   1.0000
     1.0000   1.0000   1.0000   1.0000   1.0000   1.0000   0.0000   0.0000
     0.0000   0.0000

          k = 0.5185 0.1414-0.0471 (  6138 PWs)   bands (ev):

   -14.2918 -14.2864 -14.2124 -14.1310 -14.1099 -14.0868 -14.0351 -13.9879
   -13.9133 -13.9077  -1.0726   1.5048   5.0091   5.4064   8.6372   9.2097
     9.2139   9.3201

     occupation numbers 
     1.0000   1.0000   1.0000   1.0000   1.0000   1.0000   1.0000   1.0000
     1.0000   1.0000   1.0000   1.0000   1.0000   1.0000   0.0000   0.0000
     0.0000   0.0000

          k =-0.1414-0.5185 0.6128 (  6122 PWs)   bands (ev):

   -14.2994 -14.2887 -14.1959 -14.1206 -14.1121 -14.0833 -14.0470 -14.0051
   -13.9101 -13.8993  -0.7583   1.0824   4.6906   5.3817   8.6954   9.2120
     9.2145   9.9343

     occupation numbers 
     1.0000   1.0000   1.0000   1.0000   1.0000   1.0000   1.0000   1.0000
     1.0000   1.0000   1.0000   1.0000   1.0000   1.0000   0.0000   0.0000
     0.0000   0.0000

          k =-0.0943-0.4714 0.5657 (  6121 PWs)   bands (ev):

   -14.3044 -14.2901 -14.1843 -14.1128 -14.1043 -14.0887 -14.0576 -14.0167
   -13.9081 -13.8939  -0.5413   0.8191   4.4472   5.4426   8.7405   9.2122
     9.2147  10.7195

     occupation numbers 
     1.0000   1.0000   1.0000   1.0000   1.0000   1.0000   1.0000   1.0000
     1.0000   1.0000   1.0000   1.0000   1.0000   1.0000   0.0000   0.0000
     0.0000   0.0000

          k =-0.0471-0.4243 0.5185 (  6129 PWs)   bands (ev):

   -14.3059 -14.2904 -14.1807 -14.1139 -14.1012 -14.0862 -14.0621 -14.0206
   -13.9075 -13.8926  -0.5953   0.8851   4.3284   5.5796   8.8165   9.2123
     9.2148  11.2836

     occupation numbers 
     1.0000   1.0000   1.0000   1.0000   1.0000   1.0000   1.0000   1.0000
     1.0000   1.0000   1.0000   1.0000   1.0000   1.0000   0.0000   0.0000
     0.0000   0.0000

          k =-0.0000-0.3771 0.4714 (  6123 PWs)   bands (ev):

   -14.3036 -14.2895 -14.1841 -14.1305 -14.1085 -14.0710 -14.0509 -14.0195
   -13.9085 -13.8956  -0.8613   1.2059   4.3704   5.7780   8.8987   9.2125
     9.2152  11.2110

     occupation numbers 
     1.0000   1.0000   1.0000   1.0000   1.0000   1.0000   1.0000   1.0000
     1.0000   1.0000   1.0000   1.0000   1.0000   1.0000   0.0000   0.0000
     0.0000   0.0000

          k = 0.5657 0.0943 0.0000 (  6133 PWs)   bands (ev):

   -14.2889 -14.2888 -14.2112 -14.1323 -14.1192 -14.0667 -14.0459 -13.9884
   -13.9101 -13.9101  -0.8425   1.1898   5.1256   5.2413   8.3642   8.8267
     9.2125   9.2149

     occupation numbers 
     1.0000   1.0000   1.0000   1.0000   1.0000   1.0000   1.0000   1.0000
     1.0000   1.0000   1.0000   1.0000   1.0000   1.0000   0.0000   0.0000
     0.0000   0.0000

          k =-0.0943-0.5657 0.6600 (  6123 PWs)   bands (ev):

   -14.2961 -14.2906 -14.1933 -14.1392 -14.1077 -14.0594 -14.0582 -14.0066
   -13.9075 -13.9021  -0.5177   0.7943   4.8381   5.1896   8.5510   9.1388
     9.2132   9.2172

     occupation numbers 
     1.0000   1.0000   1.0000   1.0000   1.0000   1.0000   1.0000   1.0000
     1.0000   1.0000   1.0000   1.0000   1.0000   1.0000   0.0000   0.0000
     0.0000   0.0000

          k =-0.0471-0.5185 0.6128 (  6128 PWs)   bands (ev):

   -14.3025 -14.2915 -14.1796 -14.1340 -14.0975 -14.0701 -14.0632 -14.0203
   -13.9062 -13.8954  -0.2532   0.5070   4.5373   5.2456   8.6186   9.2120
     9.2144   9.8781

     occupation numbers 
     1.0000   1.0000   1.0000   1.0000   1.0000   1.0000   1.0000   1.0000
     1.0000   1.0000   1.0000   1.0000   1.0000   1.0000   0.0000   0.0000
     0.0000   0.0000

          k = 0.0000-0.4714 0.5657 (  6121 PWs)   bands (ev):

   -14.3061 -14.2915 -14.1771 -14.1134 -14.0973 -14.0813 -14.0729 -14.0229
   -13.9061 -13.8919  -0.3109   0.5773   4.3455   5.3803   8.7099   9.2122
     9.2146  10.7620

     occupation numbers 
     1.0000   1.0000   1.0000   1.0000   1.0000   1.0000   1.0000   1.0000
     1.0000   1.0000   1.0000   1.0000   1.0000   1.0000   0.0000   0.0000
     0.0000   0.0000

          k =-0.0471-0.6128 0.7071 (  6120 PWs)   bands (ev):

   -14.2918 -14.2917 -14.1888 -14.1621 -14.0949 -14.0700 -14.0378 -14.0112
   -13.9060 -13.9059  -0.2294   0.4521   5.0440   5.0823   8.4084   8.5688
     9.2124   9.2147

     occupation numbers 
     1.0000   1.0000   1.0000   1.0000   1.0000   1.0000   1.0000   1.0000
     1.0000   1.0000   1.0000   1.0000   1.0000   1.0000   0.0000   0.0000
     0.0000   0.0000

          k = 0.0000-0.5657 0.6600 (  6128 PWs)   bands (ev):

   -14.2976 -14.2921 -14.1759 -14.1601 -14.0852 -14.0806 -14.0390 -14.0240
   -13.9055 -13.9001   0.0258   0.1984   4.7803   5.1166   8.5268   9.0656
     9.2129   9.2155

     occupation numbers 
     1.0000   1.0000   1.0000   1.0000   1.0000   1.0000   1.0000   1.0000
     1.0000   1.0000   1.0000   1.0000   1.0000   1.0000   0.0000   0.0000
     0.0000   0.0000

          k = 0.3771 0.1886-0.0000 (  6130 PWs)   bands (ev):

   -14.2825 -14.2819 -14.2234 -14.1600 -14.1295 -14.0598 -14.0083 -13.9817
   -13.9210 -13.9178  -1.6939   2.4752   5.2299   6.0904   9.1798   9.2121
     9.2303   9.3752

     occupation numbers 
     1.0000   1.0000   1.0000   1.0000   1.0000   1.0000   1.0000   1.0000
     1.0000   1.0000   1.0000   1.0000   1.0000   1.0000   0.0000   0.0000
     0.0000   0.0000

          k = 0.4243 0.2357-0.0471 (  6136 PWs)   bands (ev):

   -14.2910 -14.2853 -14.2092 -14.1510 -14.1203 -14.0674 -14.0180 -13.9974
   -13.9146 -13.9098  -1.3953   1.9427   4.9213   5.9067   9.1631   9.2128
     9.2232   9.8368

     occupation numbers 
     1.0000   1.0000   1.0000   1.0000   1.0000   1.0000   1.0000   1.0000
     1.0000   1.0000   1.0000   1.0000   1.0000   1.0000   0.0000   0.0000
     0.0000   0.0000

          k =-0.2357-0.4243 0.6128 (  6130 PWs)   bands (ev):

   -14.2974 -14.2874 -14.1969 -14.1417 -14.1163 -14.0694 -14.0296 -14.0099
   -13.9117 -13.9024  -1.0867   1.4560   4.7302   5.7502   9.1112   9.2128
     9.2183  10.1788

     occupation numbers 
     1.0000   1.0000   1.0000   1.0000   1.0000   1.0000   1.0000   1.0000
     1.0000   1.0000   1.0000   1.0000   1.0000   1.0000   0.0000   0.0000
     0.0000   0.0000

          k =-0.1886-0.3771 0.5657 (  6133 PWs)   bands (ev):

   -14.3008 -14.2885 -14.1897 -14.1339 -14.1172 -14.0668 -14.0405 -14.0159
   -13.9103 -13.8984  -0.8603   1.1337   4.6403   5.6628   9.0793   9.2127
     9.2172  10.2666

     occupation numbers 
     1.0000   1.0000   1.0000   1.0000   1.0000   1.0000   1.0000   1.0000
     1.0000   1.0000   1.0000   1.0000   1.0000   1.0000   0.0000   0.0000
     0.0000   0.0000

          k = 0.4714 0.1886-0.0000 (  6136 PWs)   bands (ev):

   -14.2899 -14.2878 -14.2115 -14.1419 -14.1036 -14.0897 -14.0256 -13.9909
   -13.9116 -13.9109  -1.2660   1.7828   4.9622   5.5861   9.1705   9.2109
     9.2178   9.4335

     occupation numbers 
     1.0000   1.0000   1.0000   1.0000   1.0000   1.0000   1.0000   1.0000
     1.0000   1.0000   1.0000   1.0000   1.0000   1.0000   0.0000   0.0000
     0.0000   0.0000

          k =-0.1886-0.4714 0.6600 (  6121 PWs)   bands (ev):

   -14.2973 -14.2907 -14.1950 -14.1317 -14.0991 -14.0929 -14.0375 -14.0076
   -13.9083 -13.9020  -0.9508   1.3336   4.7054   5.4275   9.2085   9.2131
     9.2898   9.9191

     occupation numbers 
     1.0000   1.0000   1.0000   1.0000   1.0000   1.0000   1.0000   1.0000
     1.0000   1.0000   1.0000   1.0000   1.0000   1.0000   0.0000   0.0000
     0.0000   0.0000

          k =-0.1414-0.4243 0.6128 (  6118 PWs)   bands (ev):

   -14.3026 -14.2921 -14.1822 -14.1228 -14.0999 -14.0901 -14.0496 -14.0196
   -13.9063 -13.8960  -0.6745   0.9772   4.5256   5.3520   9.2087   9.2133
     9.3038  10.4470

     occupation numbers 
     1.0000   1.0000   1.0000   1.0000   1.0000   1.0000   1.0000   1.0000
     1.0000   1.0000   1.0000   1.0000   1.0000   1.0000   0.0000   0.0000
     0.0000   0.0000

          k =-0.0943-0.3771 0.5657 (  6127 PWs)   bands (ev):

   -14.3044 -14.2926 -14.1773 -14.1204 -14.0997 -14.0875 -14.0554 -14.0240
   -13.9056 -13.8941  -0.5943   0.8800   4.4358   5.3803   9.2097   9.2134
     9.3451  10.5601

     occupation numbers 
     1.0000   1.0000   1.0000   1.0000   1.0000   1.0000   1.0000   1.0000
     1.0000   1.0000   1.0000   1.0000   1.0000   1.0000   0.0000   0.0000
     0.0000   0.0000

          k =-0.0471-0.3300 0.5185 (  6125 PWs)   bands (ev):

   -14.3026 -14.2919 -14.1816 -14.1288 -14.1020 -14.0835 -14.0470 -14.0214
   -13.9064 -13.8964  -0.7850   1.1155   4.4574   5.5031   9.2103   9.2135
     9.4009  10.4849

     occupation numbers 
     1.0000   1.0000   1.0000   1.0000   1.0000   1.0000   1.0000   1.0000
     1.0000   1.0000   1.0000   1.0000   1.0000   1.0000   0.0000   0.0000
     0.0000   0.0000

          k = 0.0000-0.2828 0.4714 (  6129 PWs)   bands (ev):

   -14.2975 -14.2898 -14.1934 -14.1408 -14.1088 -14.0776 -14.0306 -14.0128
   -13.9088 -13.9026  -1.0901   1.5143   4.6139   5.6942   9.2102   9.2135
     9.4093  10.1411

     occupation numbers 
     1.0000   1.0000   1.0000   1.0000   1.0000   1.0000   1.0000   1.0000
     1.0000   1.0000   1.0000   1.0000   1.0000   1.0000   0.0000   0.0000
     0.0000   0.0000

          k =-0.1414-0.5185 0.7071 (  6129 PWs)   bands (ev):

   -14.2951 -14.2930 -14.1947 -14.1200 -14.1195 -14.0767 -14.0473 -14.0058
   -13.9055 -13.9038  -0.7600   1.0995   4.8165   5.1906   9.0732   9.2102
     9.2150   9.3458

     occupation numbers 
     1.0000   1.0000   1.0000   1.0000   1.0000   1.0000   1.0000   1.0000
     1.0000   1.0000   1.0000   1.0000   1.0000   1.0000   0.0000   0.0000
     0.0000   0.0000

          k =-0.0943-0.4714 0.6600 (  6124 PWs)   bands (ev):

   -14.3011 -14.2950 -14.1771 -14.1231 -14.1092 -14.0723 -14.0600 -14.0228
   -13.9031 -13.8970  -0.4489   0.7370   4.6033   5.0877   9.2020   9.2128
     9.2392   9.9380

     occupation numbers 
     1.0000   1.0000   1.0000   1.0000   1.0000   1.0000   1.0000   1.0000
     1.0000   1.0000   1.0000   1.0000   1.0000   1.0000   0.0000   0.0000
     0.0000   0.0000

          k =-0.0471-0.4243 0.6128 (  6119 PWs)   bands (ev):

   -14.3051 -14.2953 -14.1683 -14.1158 -14.1020 -14.0791 -14.0688 -14.0305
   -13.9026 -13.8929  -0.2982   0.5750   4.4232   5.1319   9.2093   9.2133
     9.3042  10.7407

     occupation numbers 
     1.0000   1.0000   1.0000   1.0000   1.0000   1.0000   1.0000   1.0000
     1.0000   1.0000   1.0000   1.0000   1.0000   1.0000   0.0000   0.0000
     0.0000   0.0000

          k = 0.0000-0.3771 0.5657 (  6125 PWs)   bands (ev):

   -14.3055 -14.2943 -14.1712 -14.1124 -14.0994 -14.0884 -14.0648 -14.0283
   -13.9036 -13.8928  -0.4785   0.7746   4.3596   5.2819   9.2106   9.2136
     9.3900  11.0318

     occupation numbers 
     1.0000   1.0000   1.0000   1.0000   1.0000   1.0000   1.0000   1.0000
     1.0000   1.0000   1.0000   1.0000   1.0000   1.0000   0.0000   0.0000
     0.0000   0.0000

          k =-0.0471-0.5185 0.7071 (  6117 PWs)   bands (ev):

   -14.2973 -14.2965 -14.1732 -14.1478 -14.0960 -14.0713 -14.0503 -14.0261
   -13.9013 -13.9005  -0.1873   0.4378   4.8027   4.9270   9.0776   9.1742
     9.2148   9.2207

     occupation numbers 
     1.0000   1.0000   1.0000   1.0000   1.0000   1.0000   1.0000   1.0000
     1.0000   1.0000   1.0000   1.0000   1.0000   1.0000   0.0000   0.0000
     0.0000   0.0000

          k = 0.0000-0.4714 0.6600 (  6117 PWs)   bands (ev):

   -14.3023 -14.2966 -14.1626 -14.1405 -14.0891 -14.0806 -14.0562 -14.0357
   -13.9010 -13.8954  -0.0189   0.2761   4.5836   4.9565   9.1886   9.2127
     9.2249   9.9161

     occupation numbers 
     1.0000   1.0000   1.0000   1.0000   1.0000   1.0000   1.0000   1.0000
     1.0000   1.0000   1.0000   1.0000   1.0000   1.0000   0.0000   0.0000
     0.0000   0.0000

          k =-0.1414-0.4243 0.7071 (  6141 PWs)   bands (ev):

   -14.3014 -14.2952 -14.1773 -14.1204 -14.1053 -14.0856 -14.0521 -14.0236
   -13.9029 -13.8972  -0.6336   0.9559   4.5301   5.1978   9.2115   9.2139
     9.8447  10.0231

     occupation numbers 
     1.0000   1.0000   1.0000   1.0000   1.0000   1.0000   1.0000   1.0000
     1.0000   1.0000   1.0000   1.0000   1.0000   1.0000   0.0000   0.0000
     0.0000   0.0000

          k =-0.0943-0.3771 0.6600 (  6127 PWs)   bands (ev):

   -14.3044 -14.2970 -14.1651 -14.1136 -14.1063 -14.0810 -14.0649 -14.0335
   -13.9009 -13.8937  -0.3685   0.6582   4.4516   5.0570   9.2116   9.2139
     9.8896  10.4933

     occupation numbers 
     1.0000   1.0000   1.0000   1.0000   1.0000   1.0000   1.0000   1.0000
     1.0000   1.0000   1.0000   1.0000   1.0000   1.0000   0.0000   0.0000
     0.0000   0.0000

          k =-0.0471-0.4243 0.7071 (  6115 PWs)   bands (ev):

   -14.3021 -14.2998 -14.1566 -14.1322 -14.0980 -14.0749 -14.0622 -14.0408
   -13.8980 -13.8957  -0.1297   0.4049   4.5977   4.8224   9.2116   9.2139
     9.9802   9.9829

     occupation numbers 
     1.0000   1.0000   1.0000   1.0000   1.0000   1.0000   1.0000   1.0000
     1.0000   1.0000   1.0000   1.0000   1.0000   1.0000   0.0000   0.0000
     0.0000   0.0000

          k =-0.0000-0.3771 0.6600 (  6109 PWs)   bands (ev):

   -14.3041 -14.2999 -14.1519 -14.1273 -14.0958 -14.0799 -14.0654 -14.0443
   -13.8979 -13.8937  -0.0705   0.3492   4.5155   4.8336   9.2117   9.2140
    10.0375  10.6855

     occupation numbers 
     1.0000   1.0000   1.0000   1.0000   1.0000   1.0000   1.0000   1.0000
     1.0000   1.0000   1.0000   1.0000   1.0000   1.0000   0.0000   0.0000
     0.0000   0.0000

     the Fermi energy is     7.3131 ev

!    total energy              =    -256.22150183 Ry
     Harris-Foulkes estimate   =    -256.22150158 Ry
     estimated scf accuracy    <       0.00000085 Ry

     The total energy is the sum of the following terms:

     one-electron contribution =    -137.80111183 Ry
     hartree contribution      =      79.81749667 Ry
     xc contribution           =     -31.45822455 Ry
     ewald contribution        =    -166.77966192 Ry
     smearing contrib. (-TS)   =      -0.00000020 Ry

     convergence has been achieved in   4 iterations

     Writing output data file Sn.save
 
     init_run     :      1.13s CPU      1.44s WALL (       1 calls)
     electrons    :     21.62s CPU     24.32s WALL (       1 calls)

     Called by init_run:
     wfcinit      :      0.96s CPU      1.16s WALL (       1 calls)
     potinit      :      0.02s CPU      0.02s WALL (       1 calls)

     Called by electrons:
     c_bands      :     19.39s CPU     21.99s WALL (       5 calls)
     sum_band     :      2.19s CPU      2.24s WALL (       5 calls)
     v_of_rho     :      0.03s CPU      0.04s WALL (       5 calls)
     v_h          :      0.00s CPU      0.00s WALL (       5 calls)
     v_xc         :      0.03s CPU      0.04s WALL (       5 calls)
     mix_rho      :      0.00s CPU      0.00s WALL (       5 calls)

     Called by c_bands:
     init_us_2    :      0.14s CPU      0.16s WALL (    1320 calls)
     cegterg      :     18.59s CPU     21.12s WALL (     600 calls)

     Called by sum_band:

     Called by *egterg:
     h_psi        :     15.71s CPU     18.14s WALL (    3239 calls)
     g_psi        :      0.07s CPU      0.07s WALL (    2519 calls)
     cdiaghg      :      2.08s CPU      2.20s WALL (    2999 calls)
     cegterg:over :      0.62s CPU      0.68s WALL (    2519 calls)
     cegterg:upda :      0.25s CPU      0.26s WALL (    2519 calls)
     cegterg:last :      0.13s CPU      0.13s WALL (     840 calls)

     Called by h_psi:
     h_psi:vloc   :     15.07s CPU     17.41s WALL (    3239 calls)
     h_psi:vnl    :      0.59s CPU      0.68s WALL (    3239 calls)
     add_vuspsi   :      0.19s CPU      0.22s WALL (    3239 calls)

     General routines
     calbec       :      0.39s CPU      0.44s WALL (    3239 calls)
     fft          :      0.02s CPU      0.04s WALL (      56 calls)
     fftw         :     15.78s CPU     18.01s WALL (   90672 calls)
     davcio       :      0.01s CPU      0.08s WALL (     120 calls)
 
     Parallel routines
     fft_scatter  :      6.58s CPU      7.52s WALL (   90728 calls)
 
     PWSCF        :    22.91s CPU        26.21s WALL

 
   This run was terminated on:  12:19:38   2Mar2020            

=------------------------------------------------------------------------------=
   JOB DONE.
=------------------------------------------------------------------------------=
