
     Program PWSCF v.5.4.0 starts on 17Mar2020 at 11:39: 9 

     This program is part of the open-source Quantum ESPRESSO suite
     for quantum simulation of materials; please cite
         "P. Giannozzi et al., J. Phys.:Condens. Matter 21 395502 (2009);
          URL http://www.quantum-espresso.org", 
     in publications or presentations arising from this work. More details at
     http://www.quantum-espresso.org/quote

     Parallel version (MPI & OpenMP), running on      16 processor cores
     Number of MPI processes:                16
     Threads/MPI process:                     1
     R & G space division:  proc/nbgrp/npool/nimage =      16
     Waiting for input...
     Reading input from standard input
Warning: card &IONS ignored
Warning: card / ignored
Warning: card &CELL ignored
Warning: card / ignored

     Current dimensions of program PWSCF are:
     Max number of different atomic species (ntypx) = 10
     Max number of k-points (npk) =  40000
     Max angular momentum in pseudopotentials (lmaxx) =  3
               file Sn.pbe-dn-kjpaw_psl.1.0.0.UPF: wavefunction(s)  5S 5P 4D renormalized
     Message from routine setup:
     At least one non s.o. pseudo

     Subspace diagonalization in iterative solution of the eigenvalue problem:
     a serial algorithm will be used

 
     Parallelization info
     --------------------
     sticks:   dense  smooth     PW     G-vecs:    dense   smooth      PW
     Min         141     141     40                 4469     4469     676
     Max         142     142     41                 4472     4472     679
     Sum        2263    2263    649                71537    71537   10849
 

     Title: 
     Sn                                                                         


     bravais-lattice index     =            0
     lattice parameter (alat)  =       8.9127  a.u.
     unit-cell volume          =     500.6268 (a.u.)^3
     number of atoms/cell      =            2
     number of atomic types    =            1
     number of electrons       =        28.00
     number of Kohn-Sham states=           36
     kinetic-energy cutoff     =     104.0000  Ry
     charge density cutoff     =     416.0000  Ry
     convergence threshold     =      1.0E-06
     mixing beta               =       0.7000
     number of iterations used =            8  plain     mixing
     Exchange-correlation      =  SLA  PW   PBX  PBC ( 1  4  3  4 0 0)
     Non magnetic calculation with spin-orbit


     celldm(1)=   8.912709  celldm(2)=   0.000000  celldm(3)=   0.000000
     celldm(4)=   0.000000  celldm(5)=   0.000000  celldm(6)=   0.000000

     crystal axes: (cart. coord. in units of alat)
               a(1) = (   0.000000   0.707107   0.707107 )  
               a(2) = (   0.707107   0.000000   0.707107 )  
               a(3) = (   0.707107   0.707107   0.000000 )  

     reciprocal axes: (cart. coord. in units 2 pi/alat)
               b(1) = ( -0.707107  0.707107  0.707107 )  
               b(2) = (  0.707107 -0.707107  0.707107 )  
               b(3) = (  0.707107  0.707107 -0.707107 )  


     PseudoPot. # 1 for Sn read from file:
     ../PseudopotentialDatabase/Sn.pbe-dn-kjpaw_psl.1.0.0.UPF
     MD5 check sum: 67f11dec737d427557dc41ea34975807
     Pseudo is Projector augmented-wave + core cor, Zval = 14.0
     Generated using "atomic" code by A. Dal Corso  v.6.3
     Shape of augmentation charge: PSQ
     Using radial grid of 1243 points,  6 beta functions with: 
                l(1) =   0
                l(2) =   0
                l(3) =   1
                l(4) =   1
                l(5) =   2
                l(6) =   2
     Q(r) pseudized with 0 coefficients 


     atomic species   valence    mass     pseudopotential
        Sn            14.00   118.71000     Sn( 1.00)

     48 Sym. Ops., with inversion, found (24 have fractional translation)


                                    s                        frac. trans.

      isym =  1     identity                                     

 cryst.   s( 1) = (     1          0          0      )
                  (     0          1          0      )
                  (     0          0          1      )

 cart.    s( 1) = (  1.0000000  0.0000000  0.0000000 )
                  (  0.0000000  1.0000000  0.0000000 )
                  (  0.0000000  0.0000000  1.0000000 )


      isym =  2     180 deg rotation - cart. axis [0,0,1]        

 cryst.   s( 2) = (     0          1         -1      )
                  (     1          0         -1      )
                  (     0          0         -1      )

 cart.    s( 2) = ( -1.0000000  0.0000000  0.0000000 )
                  (  0.0000000 -1.0000000  0.0000000 )
                  (  0.0000000  0.0000000  1.0000000 )


      isym =  3     180 deg rotation - cart. axis [0,1,0]        

 cryst.   s( 3) = (     0         -1          1      )
                  (     0         -1          0      )
                  (     1         -1          0      )

 cart.    s( 3) = ( -1.0000000  0.0000000  0.0000000 )
                  (  0.0000000  1.0000000  0.0000000 )
                  (  0.0000000  0.0000000 -1.0000000 )


      isym =  4     180 deg rotation - cart. axis [1,0,0]        

 cryst.   s( 4) = (    -1          0          0      )
                  (    -1          0          1      )
                  (    -1          1          0      )

 cart.    s( 4) = (  1.0000000  0.0000000  0.0000000 )
                  (  0.0000000 -1.0000000  0.0000000 )
                  (  0.0000000  0.0000000 -1.0000000 )


      isym =  5     180 deg rotation - cart. axis [1,1,0]        

 cryst.   s( 5) = (    -1          0          1      )    f =( -0.2500000 )
                  (     0         -1          1      )       ( -0.2500000 )
                  (     0          0          1      )       ( -0.2500000 )

 cart.    s( 5) = (  0.0000000  1.0000000  0.0000000 )    f =( -0.3535534 )
                  (  1.0000000  0.0000000  0.0000000 )       ( -0.3535534 )
                  (  0.0000000  0.0000000 -1.0000000 )       ( -0.3535534 )


      isym =  6     180 deg rotation - cart. axis [1,-1,0]       

 cryst.   s( 6) = (     0         -1          0      )    f =( -0.2500000 )
                  (    -1          0          0      )       ( -0.2500000 )
                  (     0          0         -1      )       ( -0.2500000 )

 cart.    s( 6) = (  0.0000000 -1.0000000  0.0000000 )    f =( -0.3535534 )
                  ( -1.0000000  0.0000000  0.0000000 )       ( -0.3535534 )
                  (  0.0000000  0.0000000 -1.0000000 )       ( -0.3535534 )


      isym =  7      90 deg rotation - cart. axis [0,0,-1]       

 cryst.   s( 7) = (     0          1          0      )    f =( -0.2500000 )
                  (     0          1         -1      )       ( -0.2500000 )
                  (    -1          1          0      )       ( -0.2500000 )

 cart.    s( 7) = (  0.0000000  1.0000000  0.0000000 )    f =( -0.3535534 )
                  ( -1.0000000  0.0000000  0.0000000 )       ( -0.3535534 )
                  (  0.0000000  0.0000000  1.0000000 )       ( -0.3535534 )


      isym =  8      90 deg rotation - cart. axis [0,0,1]        

 cryst.   s( 8) = (     1          0         -1      )    f =( -0.2500000 )
                  (     1          0          0      )       ( -0.2500000 )
                  (     1         -1          0      )       ( -0.2500000 )

 cart.    s( 8) = (  0.0000000 -1.0000000  0.0000000 )    f =( -0.3535534 )
                  (  1.0000000  0.0000000  0.0000000 )       ( -0.3535534 )
                  (  0.0000000  0.0000000  1.0000000 )       ( -0.3535534 )


      isym =  9     180 deg rotation - cart. axis [1,0,1]        

 cryst.   s( 9) = (    -1          1          0      )    f =( -0.2500000 )
                  (     0          1          0      )       ( -0.2500000 )
                  (     0          1         -1      )       ( -0.2500000 )

 cart.    s( 9) = (  0.0000000  0.0000000  1.0000000 )    f =( -0.3535534 )
                  (  0.0000000 -1.0000000  0.0000000 )       ( -0.3535534 )
                  (  1.0000000  0.0000000  0.0000000 )       ( -0.3535534 )


      isym = 10     180 deg rotation - cart. axis [-1,0,1]       

 cryst.   s(10) = (     0          0         -1      )    f =( -0.2500000 )
                  (     0         -1          0      )       ( -0.2500000 )
                  (    -1          0          0      )       ( -0.2500000 )

 cart.    s(10) = (  0.0000000  0.0000000 -1.0000000 )    f =( -0.3535534 )
                  (  0.0000000 -1.0000000  0.0000000 )       ( -0.3535534 )
                  ( -1.0000000  0.0000000  0.0000000 )       ( -0.3535534 )


      isym = 11      90 deg rotation - cart. axis [0,1,0]        

 cryst.   s(11) = (     0          0          1      )    f =( -0.2500000 )
                  (    -1          0          1      )       ( -0.2500000 )
                  (     0         -1          1      )       ( -0.2500000 )

 cart.    s(11) = (  0.0000000  0.0000000  1.0000000 )    f =( -0.3535534 )
                  (  0.0000000  1.0000000  0.0000000 )       ( -0.3535534 )
                  ( -1.0000000  0.0000000  0.0000000 )       ( -0.3535534 )


      isym = 12      90 deg rotation - cart. axis [0,-1,0]       

 cryst.   s(12) = (     1         -1          0      )    f =( -0.2500000 )
                  (     1          0         -1      )       ( -0.2500000 )
                  (     1          0          0      )       ( -0.2500000 )

 cart.    s(12) = (  0.0000000  0.0000000 -1.0000000 )    f =( -0.3535534 )
                  (  0.0000000  1.0000000  0.0000000 )       ( -0.3535534 )
                  (  1.0000000  0.0000000  0.0000000 )       ( -0.3535534 )


      isym = 13     180 deg rotation - cart. axis [0,1,1]        

 cryst.   s(13) = (     1          0          0      )    f =( -0.2500000 )
                  (     1         -1          0      )       ( -0.2500000 )
                  (     1          0         -1      )       ( -0.2500000 )

 cart.    s(13) = ( -1.0000000  0.0000000  0.0000000 )    f =( -0.3535534 )
                  (  0.0000000  0.0000000  1.0000000 )       ( -0.3535534 )
                  (  0.0000000  1.0000000  0.0000000 )       ( -0.3535534 )


      isym = 14     180 deg rotation - cart. axis [0,1,-1]       

 cryst.   s(14) = (    -1          0          0      )    f =( -0.2500000 )
                  (     0          0         -1      )       ( -0.2500000 )
                  (     0         -1          0      )       ( -0.2500000 )

 cart.    s(14) = ( -1.0000000  0.0000000  0.0000000 )    f =( -0.3535534 )
                  (  0.0000000  0.0000000 -1.0000000 )       ( -0.3535534 )
                  (  0.0000000 -1.0000000  0.0000000 )       ( -0.3535534 )


      isym = 15      90 deg rotation - cart. axis [-1,0,0]       

 cryst.   s(15) = (     0         -1          1      )    f =( -0.2500000 )
                  (     0          0          1      )       ( -0.2500000 )
                  (    -1          0          1      )       ( -0.2500000 )

 cart.    s(15) = (  1.0000000  0.0000000  0.0000000 )    f =( -0.3535534 )
                  (  0.0000000  0.0000000  1.0000000 )       ( -0.3535534 )
                  (  0.0000000 -1.0000000  0.0000000 )       ( -0.3535534 )


      isym = 16      90 deg rotation - cart. axis [1,0,0]        

 cryst.   s(16) = (     0          1         -1      )    f =( -0.2500000 )
                  (    -1          1          0      )       ( -0.2500000 )
                  (     0          1          0      )       ( -0.2500000 )

 cart.    s(16) = (  1.0000000  0.0000000  0.0000000 )    f =( -0.3535534 )
                  (  0.0000000  0.0000000 -1.0000000 )       ( -0.3535534 )
                  (  0.0000000  1.0000000  0.0000000 )       ( -0.3535534 )


      isym = 17     120 deg rotation - cart. axis [-1,-1,-1]     

 cryst.   s(17) = (     0          0          1      )
                  (     1          0          0      )
                  (     0          1          0      )

 cart.    s(17) = (  0.0000000  1.0000000  0.0000000 )
                  (  0.0000000  0.0000000  1.0000000 )
                  (  1.0000000  0.0000000  0.0000000 )


      isym = 18     120 deg rotation - cart. axis [-1,1,1]       

 cryst.   s(18) = (     1         -1          0      )
                  (     0         -1          1      )
                  (     0         -1          0      )

 cart.    s(18) = (  0.0000000 -1.0000000  0.0000000 )
                  (  0.0000000  0.0000000  1.0000000 )
                  ( -1.0000000  0.0000000  0.0000000 )


      isym = 19     120 deg rotation - cart. axis [1,1,-1]       

 cryst.   s(19) = (    -1          1          0      )
                  (    -1          0          0      )
                  (    -1          0          1      )

 cart.    s(19) = (  0.0000000  1.0000000  0.0000000 )
                  (  0.0000000  0.0000000 -1.0000000 )
                  ( -1.0000000  0.0000000  0.0000000 )


      isym = 20     120 deg rotation - cart. axis [1,-1,1]       

 cryst.   s(20) = (     0          0         -1      )
                  (     0          1         -1      )
                  (     1          0         -1      )

 cart.    s(20) = (  0.0000000 -1.0000000  0.0000000 )
                  (  0.0000000  0.0000000 -1.0000000 )
                  (  1.0000000  0.0000000  0.0000000 )


      isym = 21     120 deg rotation - cart. axis [1,1,1]        

 cryst.   s(21) = (     0          1          0      )
                  (     0          0          1      )
                  (     1          0          0      )

 cart.    s(21) = (  0.0000000  0.0000000  1.0000000 )
                  (  1.0000000  0.0000000  0.0000000 )
                  (  0.0000000  1.0000000  0.0000000 )


      isym = 22     120 deg rotation - cart. axis [-1,1,-1]      

 cryst.   s(22) = (    -1          0          1      )
                  (    -1          1          0      )
                  (    -1          0          0      )

 cart.    s(22) = (  0.0000000  0.0000000  1.0000000 )
                  ( -1.0000000  0.0000000  0.0000000 )
                  (  0.0000000 -1.0000000  0.0000000 )


      isym = 23     120 deg rotation - cart. axis [1,-1,-1]      

 cryst.   s(23) = (     1          0         -1      )
                  (     0          0         -1      )
                  (     0          1         -1      )

 cart.    s(23) = (  0.0000000  0.0000000 -1.0000000 )
                  ( -1.0000000  0.0000000  0.0000000 )
                  (  0.0000000  1.0000000  0.0000000 )


      isym = 24     120 deg rotation - cart. axis [-1,-1,1]      

 cryst.   s(24) = (     0         -1          0      )
                  (     1         -1          0      )
                  (     0         -1          1      )

 cart.    s(24) = (  0.0000000  0.0000000 -1.0000000 )
                  (  1.0000000  0.0000000  0.0000000 )
                  (  0.0000000 -1.0000000  0.0000000 )


      isym = 25     inversion                                    

 cryst.   s(25) = (    -1          0          0      )    f =( -0.2500000 )
                  (     0         -1          0      )       ( -0.2500000 )
                  (     0          0         -1      )       ( -0.2500000 )

 cart.    s(25) = ( -1.0000000  0.0000000  0.0000000 )    f =( -0.3535534 )
                  (  0.0000000 -1.0000000  0.0000000 )       ( -0.3535534 )
                  (  0.0000000  0.0000000 -1.0000000 )       ( -0.3535534 )


      isym = 26     inv. 180 deg rotation - cart. axis [0,0,1]   

 cryst.   s(26) = (     0         -1          1      )    f =( -0.2500000 )
                  (    -1          0          1      )       ( -0.2500000 )
                  (     0          0          1      )       ( -0.2500000 )

 cart.    s(26) = (  1.0000000  0.0000000  0.0000000 )    f =( -0.3535534 )
                  (  0.0000000  1.0000000  0.0000000 )       ( -0.3535534 )
                  (  0.0000000  0.0000000 -1.0000000 )       ( -0.3535534 )


      isym = 27     inv. 180 deg rotation - cart. axis [0,1,0]   

 cryst.   s(27) = (     0          1         -1      )    f =( -0.2500000 )
                  (     0          1          0      )       ( -0.2500000 )
                  (    -1          1          0      )       ( -0.2500000 )

 cart.    s(27) = (  1.0000000  0.0000000  0.0000000 )    f =( -0.3535534 )
                  (  0.0000000 -1.0000000  0.0000000 )       ( -0.3535534 )
                  (  0.0000000  0.0000000  1.0000000 )       ( -0.3535534 )


      isym = 28     inv. 180 deg rotation - cart. axis [1,0,0]   

 cryst.   s(28) = (     1          0          0      )    f =( -0.2500000 )
                  (     1          0         -1      )       ( -0.2500000 )
                  (     1         -1          0      )       ( -0.2500000 )

 cart.    s(28) = ( -1.0000000  0.0000000  0.0000000 )    f =( -0.3535534 )
                  (  0.0000000  1.0000000  0.0000000 )       ( -0.3535534 )
                  (  0.0000000  0.0000000  1.0000000 )       ( -0.3535534 )


      isym = 29     inv. 180 deg rotation - cart. axis [1,1,0]   

 cryst.   s(29) = (     1          0         -1      )
                  (     0          1         -1      )
                  (     0          0         -1      )

 cart.    s(29) = (  0.0000000 -1.0000000  0.0000000 )
                  ( -1.0000000  0.0000000  0.0000000 )
                  (  0.0000000  0.0000000  1.0000000 )


      isym = 30     inv. 180 deg rotation - cart. axis [1,-1,0]  

 cryst.   s(30) = (     0          1          0      )
                  (     1          0          0      )
                  (     0          0          1      )

 cart.    s(30) = (  0.0000000  1.0000000  0.0000000 )
                  (  1.0000000  0.0000000  0.0000000 )
                  (  0.0000000  0.0000000  1.0000000 )


      isym = 31     inv.  90 deg rotation - cart. axis [0,0,-1]  

 cryst.   s(31) = (     0         -1          0      )
                  (     0         -1          1      )
                  (     1         -1          0      )

 cart.    s(31) = (  0.0000000 -1.0000000  0.0000000 )
                  (  1.0000000  0.0000000  0.0000000 )
                  (  0.0000000  0.0000000 -1.0000000 )


      isym = 32     inv.  90 deg rotation - cart. axis [0,0,1]   

 cryst.   s(32) = (    -1          0          1      )
                  (    -1          0          0      )
                  (    -1          1          0      )

 cart.    s(32) = (  0.0000000  1.0000000  0.0000000 )
                  ( -1.0000000  0.0000000  0.0000000 )
                  (  0.0000000  0.0000000 -1.0000000 )


      isym = 33     inv. 180 deg rotation - cart. axis [1,0,1]   

 cryst.   s(33) = (     1         -1          0      )
                  (     0         -1          0      )
                  (     0         -1          1      )

 cart.    s(33) = (  0.0000000  0.0000000 -1.0000000 )
                  (  0.0000000  1.0000000  0.0000000 )
                  ( -1.0000000  0.0000000  0.0000000 )


      isym = 34     inv. 180 deg rotation - cart. axis [-1,0,1]  

 cryst.   s(34) = (     0          0          1      )
                  (     0          1          0      )
                  (     1          0          0      )

 cart.    s(34) = (  0.0000000  0.0000000  1.0000000 )
                  (  0.0000000  1.0000000  0.0000000 )
                  (  1.0000000  0.0000000  0.0000000 )


      isym = 35     inv.  90 deg rotation - cart. axis [0,1,0]   

 cryst.   s(35) = (     0          0         -1      )
                  (     1          0         -1      )
                  (     0          1         -1      )

 cart.    s(35) = (  0.0000000  0.0000000 -1.0000000 )
                  (  0.0000000 -1.0000000  0.0000000 )
                  (  1.0000000  0.0000000  0.0000000 )


      isym = 36     inv.  90 deg rotation - cart. axis [0,-1,0]  

 cryst.   s(36) = (    -1          1          0      )
                  (    -1          0          1      )
                  (    -1          0          0      )

 cart.    s(36) = (  0.0000000  0.0000000  1.0000000 )
                  (  0.0000000 -1.0000000  0.0000000 )
                  ( -1.0000000  0.0000000  0.0000000 )


      isym = 37     inv. 180 deg rotation - cart. axis [0,1,1]   

 cryst.   s(37) = (    -1          0          0      )
                  (    -1          1          0      )
                  (    -1          0          1      )

 cart.    s(37) = (  1.0000000  0.0000000  0.0000000 )
                  (  0.0000000  0.0000000 -1.0000000 )
                  (  0.0000000 -1.0000000  0.0000000 )


      isym = 38     inv. 180 deg rotation - cart. axis [0,1,-1]  

 cryst.   s(38) = (     1          0          0      )
                  (     0          0          1      )
                  (     0          1          0      )

 cart.    s(38) = (  1.0000000  0.0000000  0.0000000 )
                  (  0.0000000  0.0000000  1.0000000 )
                  (  0.0000000  1.0000000  0.0000000 )


      isym = 39     inv.  90 deg rotation - cart. axis [-1,0,0]  

 cryst.   s(39) = (     0          1         -1      )
                  (     0          0         -1      )
                  (     1          0         -1      )

 cart.    s(39) = ( -1.0000000  0.0000000  0.0000000 )
                  (  0.0000000  0.0000000 -1.0000000 )
                  (  0.0000000  1.0000000  0.0000000 )


      isym = 40     inv.  90 deg rotation - cart. axis [1,0,0]   

 cryst.   s(40) = (     0         -1          1      )
                  (     1         -1          0      )
                  (     0         -1          0      )

 cart.    s(40) = ( -1.0000000  0.0000000  0.0000000 )
                  (  0.0000000  0.0000000  1.0000000 )
                  (  0.0000000 -1.0000000  0.0000000 )


      isym = 41     inv. 120 deg rotation - cart. axis [-1,-1,-1]

 cryst.   s(41) = (     0          0         -1      )    f =( -0.2500000 )
                  (    -1          0          0      )       ( -0.2500000 )
                  (     0         -1          0      )       ( -0.2500000 )

 cart.    s(41) = (  0.0000000 -1.0000000  0.0000000 )    f =( -0.3535534 )
                  (  0.0000000  0.0000000 -1.0000000 )       ( -0.3535534 )
                  ( -1.0000000  0.0000000  0.0000000 )       ( -0.3535534 )


      isym = 42     inv. 120 deg rotation - cart. axis [-1,1,1]  

 cryst.   s(42) = (    -1          1          0      )    f =( -0.2500000 )
                  (     0          1         -1      )       ( -0.2500000 )
                  (     0          1          0      )       ( -0.2500000 )

 cart.    s(42) = (  0.0000000  1.0000000  0.0000000 )    f =( -0.3535534 )
                  (  0.0000000  0.0000000 -1.0000000 )       ( -0.3535534 )
                  (  1.0000000  0.0000000  0.0000000 )       ( -0.3535534 )


      isym = 43     inv. 120 deg rotation - cart. axis [1,1,-1]  

 cryst.   s(43) = (     1         -1          0      )    f =( -0.2500000 )
                  (     1          0          0      )       ( -0.2500000 )
                  (     1          0         -1      )       ( -0.2500000 )

 cart.    s(43) = (  0.0000000 -1.0000000  0.0000000 )    f =( -0.3535534 )
                  (  0.0000000  0.0000000  1.0000000 )       ( -0.3535534 )
                  (  1.0000000  0.0000000  0.0000000 )       ( -0.3535534 )


      isym = 44     inv. 120 deg rotation - cart. axis [1,-1,1]  

 cryst.   s(44) = (     0          0          1      )    f =( -0.2500000 )
                  (     0         -1          1      )       ( -0.2500000 )
                  (    -1          0          1      )       ( -0.2500000 )

 cart.    s(44) = (  0.0000000  1.0000000  0.0000000 )    f =( -0.3535534 )
                  (  0.0000000  0.0000000  1.0000000 )       ( -0.3535534 )
                  ( -1.0000000  0.0000000  0.0000000 )       ( -0.3535534 )


      isym = 45     inv. 120 deg rotation - cart. axis [1,1,1]   

 cryst.   s(45) = (     0         -1          0      )    f =( -0.2500000 )
                  (     0          0         -1      )       ( -0.2500000 )
                  (    -1          0          0      )       ( -0.2500000 )

 cart.    s(45) = (  0.0000000  0.0000000 -1.0000000 )    f =( -0.3535534 )
                  ( -1.0000000  0.0000000  0.0000000 )       ( -0.3535534 )
                  (  0.0000000 -1.0000000  0.0000000 )       ( -0.3535534 )


      isym = 46     inv. 120 deg rotation - cart. axis [-1,1,-1] 

 cryst.   s(46) = (     1          0         -1      )    f =( -0.2500000 )
                  (     1         -1          0      )       ( -0.2500000 )
                  (     1          0          0      )       ( -0.2500000 )

 cart.    s(46) = (  0.0000000  0.0000000 -1.0000000 )    f =( -0.3535534 )
                  (  1.0000000  0.0000000  0.0000000 )       ( -0.3535534 )
                  (  0.0000000  1.0000000  0.0000000 )       ( -0.3535534 )


      isym = 47     inv. 120 deg rotation - cart. axis [1,-1,-1] 

 cryst.   s(47) = (    -1          0          1      )    f =( -0.2500000 )
                  (     0          0          1      )       ( -0.2500000 )
                  (     0         -1          1      )       ( -0.2500000 )

 cart.    s(47) = (  0.0000000  0.0000000  1.0000000 )    f =( -0.3535534 )
                  (  1.0000000  0.0000000  0.0000000 )       ( -0.3535534 )
                  (  0.0000000 -1.0000000  0.0000000 )       ( -0.3535534 )


      isym = 48     inv. 120 deg rotation - cart. axis [-1,-1,1] 

 cryst.   s(48) = (     0          1          0      )    f =( -0.2500000 )
                  (    -1          1          0      )       ( -0.2500000 )
                  (     0          1         -1      )       ( -0.2500000 )

 cart.    s(48) = (  0.0000000  0.0000000  1.0000000 )    f =( -0.3535534 )
                  ( -1.0000000  0.0000000  0.0000000 )       ( -0.3535534 )
                  (  0.0000000  1.0000000  0.0000000 )       ( -0.3535534 )


   Cartesian axes

     site n.     atom                  positions (alat units)
         1           Sn  tau(   1) = (   0.0000000   0.0000000   0.0000000  )
         2           Sn  tau(   2) = (   0.3535534   0.3535534   0.3535534  )

   Crystallographic axes

     site n.     atom                  positions (cryst. coord.)
         1           Sn  tau(   1) = (  0.0000000  0.0000000  0.0000000  )
         2           Sn  tau(   2) = (  0.2500000  0.2500000  0.2500000  )

     number of k points=   145  gaussian smearing, width (Ry)=  0.0001
                       cart. coord. in units 2pi/alat
        k(    1) = (   0.0000000   0.0000000   0.0000000), wk =   0.0002441
        k(    2) = (   0.0441942   0.0441942  -0.0441942), wk =   0.0019531
        k(    3) = (   0.0883883   0.0883883  -0.0883883), wk =   0.0019531
        k(    4) = (   0.1325825   0.1325825  -0.1325825), wk =   0.0019531
        k(    5) = (   0.1767767   0.1767767  -0.1767767), wk =   0.0019531
        k(    6) = (   0.2209709   0.2209709  -0.2209709), wk =   0.0019531
        k(    7) = (   0.2651650   0.2651650  -0.2651650), wk =   0.0019531
        k(    8) = (   0.3093592   0.3093592  -0.3093592), wk =   0.0019531
        k(    9) = (  -0.3535534  -0.3535534   0.3535534), wk =   0.0009766
        k(   10) = (   0.0883883   0.0000000   0.0000000), wk =   0.0014648
        k(   11) = (   0.1325825   0.0441942  -0.0441942), wk =   0.0058594
        k(   12) = (   0.1767767   0.0883883  -0.0883883), wk =   0.0058594
        k(   13) = (   0.2209709   0.1325825  -0.1325825), wk =   0.0058594
        k(   14) = (   0.2651650   0.1767767  -0.1767767), wk =   0.0058594
        k(   15) = (   0.3093592   0.2209709  -0.2209709), wk =   0.0058594
        k(   16) = (   0.3535534   0.2651650  -0.2651650), wk =   0.0058594
        k(   17) = (  -0.3093592  -0.3977476   0.3977476), wk =   0.0058594
        k(   18) = (  -0.2651650  -0.3535534   0.3535534), wk =   0.0058594
        k(   19) = (  -0.2209709  -0.3093592   0.3093592), wk =   0.0058594
        k(   20) = (  -0.1767767  -0.2651650   0.2651650), wk =   0.0058594
        k(   21) = (  -0.1325825  -0.2209709   0.2209709), wk =   0.0058594
        k(   22) = (  -0.0883883  -0.1767767   0.1767767), wk =   0.0058594
        k(   23) = (  -0.0441942  -0.1325825   0.1325825), wk =   0.0058594
        k(   24) = (   0.0000000  -0.0883883   0.0883883), wk =   0.0029297
        k(   25) = (   0.1767767   0.0000000   0.0000000), wk =   0.0014648
        k(   26) = (   0.2209709   0.0441942  -0.0441942), wk =   0.0058594
        k(   27) = (   0.2651650   0.0883883  -0.0883883), wk =   0.0058594
        k(   28) = (   0.3093592   0.1325825  -0.1325825), wk =   0.0058594
        k(   29) = (   0.3535534   0.1767767  -0.1767767), wk =   0.0058594
        k(   30) = (   0.3977476   0.2209709  -0.2209709), wk =   0.0058594
        k(   31) = (  -0.2651650  -0.4419417   0.4419417), wk =   0.0058594
        k(   32) = (  -0.2209709  -0.3977476   0.3977476), wk =   0.0058594
        k(   33) = (  -0.1767767  -0.3535534   0.3535534), wk =   0.0058594
        k(   34) = (  -0.1325825  -0.3093592   0.3093592), wk =   0.0058594
        k(   35) = (  -0.0883883  -0.2651650   0.2651650), wk =   0.0058594
        k(   36) = (  -0.0441942  -0.2209709   0.2209709), wk =   0.0058594
        k(   37) = (   0.0000000  -0.1767767   0.1767767), wk =   0.0029297
        k(   38) = (   0.2651650   0.0000000   0.0000000), wk =   0.0014648
        k(   39) = (   0.3093592   0.0441942  -0.0441942), wk =   0.0058594
        k(   40) = (   0.3535534   0.0883883  -0.0883883), wk =   0.0058594
        k(   41) = (   0.3977476   0.1325825  -0.1325825), wk =   0.0058594
        k(   42) = (   0.4419417   0.1767767  -0.1767767), wk =   0.0058594
        k(   43) = (  -0.2209709  -0.4861359   0.4861359), wk =   0.0058594
        k(   44) = (  -0.1767767  -0.4419417   0.4419417), wk =   0.0058594
        k(   45) = (  -0.1325825  -0.3977476   0.3977476), wk =   0.0058594
        k(   46) = (  -0.0883883  -0.3535534   0.3535534), wk =   0.0058594
        k(   47) = (  -0.0441942  -0.3093592   0.3093592), wk =   0.0058594
        k(   48) = (   0.0000000  -0.2651650   0.2651650), wk =   0.0029297
        k(   49) = (   0.3535534   0.0000000   0.0000000), wk =   0.0014648
        k(   50) = (   0.3977476   0.0441942  -0.0441942), wk =   0.0058594
        k(   51) = (   0.4419417   0.0883883  -0.0883883), wk =   0.0058594
        k(   52) = (   0.4861359   0.1325825  -0.1325825), wk =   0.0058594
        k(   53) = (  -0.1767767  -0.5303301   0.5303301), wk =   0.0058594
        k(   54) = (  -0.1325825  -0.4861359   0.4861359), wk =   0.0058594
        k(   55) = (  -0.0883883  -0.4419417   0.4419417), wk =   0.0058594
        k(   56) = (  -0.0441942  -0.3977476   0.3977476), wk =   0.0058594
        k(   57) = (   0.0000000  -0.3535534   0.3535534), wk =   0.0029297
        k(   58) = (   0.4419417   0.0000000   0.0000000), wk =   0.0014648
        k(   59) = (   0.4861359   0.0441942  -0.0441942), wk =   0.0058594
        k(   60) = (   0.5303301   0.0883883  -0.0883883), wk =   0.0058594
        k(   61) = (  -0.1325825  -0.5745243   0.5745243), wk =   0.0058594
        k(   62) = (  -0.0883883  -0.5303301   0.5303301), wk =   0.0058594
        k(   63) = (  -0.0441942  -0.4861359   0.4861359), wk =   0.0058594
        k(   64) = (   0.0000000  -0.4419417   0.4419417), wk =   0.0029297
        k(   65) = (   0.5303301   0.0000000   0.0000000), wk =   0.0014648
        k(   66) = (   0.5745243   0.0441942  -0.0441942), wk =   0.0058594
        k(   67) = (  -0.0883883  -0.6187184   0.6187184), wk =   0.0058594
        k(   68) = (  -0.0441942  -0.5745243   0.5745243), wk =   0.0058594
        k(   69) = (   0.0000000  -0.5303301   0.5303301), wk =   0.0029297
        k(   70) = (   0.6187184   0.0000000   0.0000000), wk =   0.0014648
        k(   71) = (  -0.0441942  -0.6629126   0.6629126), wk =   0.0058594
        k(   72) = (   0.0000000  -0.6187184   0.6187184), wk =   0.0029297
        k(   73) = (  -0.7071068   0.0000000   0.0000000), wk =   0.0007324
        k(   74) = (   0.1767767   0.0883883   0.0000000), wk =   0.0058594
        k(   75) = (   0.2209709   0.1325825  -0.0441942), wk =   0.0117188
        k(   76) = (   0.2651650   0.1767767  -0.0883883), wk =   0.0117188
        k(   77) = (   0.3093592   0.2209709  -0.1325825), wk =   0.0117188
        k(   78) = (   0.3535534   0.2651650  -0.1767767), wk =   0.0117188
        k(   79) = (  -0.3093592  -0.3977476   0.4861359), wk =   0.0117188
        k(   80) = (  -0.2651650  -0.3535534   0.4419417), wk =   0.0058594
        k(   81) = (   0.2651650   0.0883883   0.0000000), wk =   0.0058594
        k(   82) = (   0.3093592   0.1325825  -0.0441942), wk =   0.0117188
        k(   83) = (   0.3535534   0.1767767  -0.0883883), wk =   0.0117188
        k(   84) = (   0.3977476   0.2209709  -0.1325825), wk =   0.0117188
        k(   85) = (  -0.2651650  -0.4419417   0.5303301), wk =   0.0117188
        k(   86) = (  -0.2209709  -0.3977476   0.4861359), wk =   0.0117188
        k(   87) = (  -0.1767767  -0.3535534   0.4419417), wk =   0.0117188
        k(   88) = (  -0.1325825  -0.3093592   0.3977476), wk =   0.0117188
        k(   89) = (  -0.0883883  -0.2651650   0.3535534), wk =   0.0117188
        k(   90) = (  -0.0441942  -0.2209709   0.3093592), wk =   0.0117188
        k(   91) = (   0.0000000  -0.1767767   0.2651650), wk =   0.0058594
        k(   92) = (   0.3535534   0.0883883   0.0000000), wk =   0.0058594
        k(   93) = (   0.3977476   0.1325825  -0.0441942), wk =   0.0117188
        k(   94) = (   0.4419417   0.1767767  -0.0883883), wk =   0.0117188
        k(   95) = (  -0.2209709  -0.4861359   0.5745243), wk =   0.0117188
        k(   96) = (  -0.1767767  -0.4419417   0.5303301), wk =   0.0117188
        k(   97) = (  -0.1325825  -0.3977476   0.4861359), wk =   0.0117188
        k(   98) = (  -0.0883883  -0.3535534   0.4419417), wk =   0.0117188
        k(   99) = (  -0.0441942  -0.3093592   0.3977476), wk =   0.0117188
        k(  100) = (   0.0000000  -0.2651650   0.3535534), wk =   0.0058594
        k(  101) = (   0.4419417   0.0883883   0.0000000), wk =   0.0058594
        k(  102) = (   0.4861359   0.1325825  -0.0441942), wk =   0.0117188
        k(  103) = (  -0.1767767  -0.5303301   0.6187184), wk =   0.0117188
        k(  104) = (  -0.1325825  -0.4861359   0.5745243), wk =   0.0117188
        k(  105) = (  -0.0883883  -0.4419417   0.5303301), wk =   0.0117188
        k(  106) = (  -0.0441942  -0.3977476   0.4861359), wk =   0.0117188
        k(  107) = (   0.0000000  -0.3535534   0.4419417), wk =   0.0058594
        k(  108) = (   0.5303301   0.0883883   0.0000000), wk =   0.0058594
        k(  109) = (  -0.1325825  -0.5745243   0.6629126), wk =   0.0117188
        k(  110) = (  -0.0883883  -0.5303301   0.6187184), wk =   0.0117188
        k(  111) = (  -0.0441942  -0.4861359   0.5745243), wk =   0.0117188
        k(  112) = (   0.0000000  -0.4419417   0.5303301), wk =   0.0058594
        k(  113) = (  -0.0883883  -0.6187184   0.7071068), wk =   0.0058594
        k(  114) = (  -0.0441942  -0.5745243   0.6629126), wk =   0.0117188
        k(  115) = (  -0.0000000  -0.5303301   0.6187184), wk =   0.0058594
        k(  116) = (  -0.7071068   0.0883883   0.0000000), wk =   0.0029297
        k(  117) = (   0.3535534   0.1767767   0.0000000), wk =   0.0058594
        k(  118) = (   0.3977476   0.2209709  -0.0441942), wk =   0.0117188
        k(  119) = (  -0.2651650  -0.4419417   0.6187184), wk =   0.0117188
        k(  120) = (  -0.2209709  -0.3977476   0.5745243), wk =   0.0117188
        k(  121) = (  -0.1767767  -0.3535534   0.5303301), wk =   0.0058594
        k(  122) = (   0.4419417   0.1767767   0.0000000), wk =   0.0058594
        k(  123) = (  -0.2209709  -0.4861359   0.6629126), wk =   0.0117188
        k(  124) = (  -0.1767767  -0.4419417   0.6187184), wk =   0.0117188
        k(  125) = (  -0.1325825  -0.3977476   0.5745243), wk =   0.0117188
        k(  126) = (  -0.0883883  -0.3535534   0.5303301), wk =   0.0117188
        k(  127) = (  -0.0441942  -0.3093592   0.4861359), wk =   0.0117188
        k(  128) = (   0.0000000  -0.2651650   0.4419417), wk =   0.0058594
        k(  129) = (  -0.1767767  -0.5303301   0.7071068), wk =   0.0058594
        k(  130) = (  -0.1325825  -0.4861359   0.6629126), wk =   0.0117188
        k(  131) = (  -0.0883883  -0.4419417   0.6187184), wk =   0.0117188
        k(  132) = (  -0.0441942  -0.3977476   0.5745243), wk =   0.0117188
        k(  133) = (   0.0000000  -0.3535534   0.5303301), wk =   0.0058594
        k(  134) = (  -0.0883883  -0.5303301   0.7071068), wk =   0.0058594
        k(  135) = (  -0.0441942  -0.4861359   0.6629126), wk =   0.0117188
        k(  136) = (   0.0000000  -0.4419417   0.6187184), wk =   0.0058594
        k(  137) = (  -0.7071068   0.1767767   0.0000000), wk =   0.0029297
        k(  138) = (  -0.1767767  -0.4419417   0.7071068), wk =   0.0058594
        k(  139) = (  -0.1325825  -0.3977476   0.6629126), wk =   0.0117188
        k(  140) = (  -0.0883883  -0.3535534   0.6187184), wk =   0.0058594
        k(  141) = (  -0.0883883  -0.4419417   0.7071068), wk =   0.0058594
        k(  142) = (  -0.0441942  -0.3977476   0.6629126), wk =   0.0117188
        k(  143) = (  -0.0000000  -0.3535534   0.6187184), wk =   0.0058594
        k(  144) = (  -0.7071068   0.2651650   0.0000000), wk =   0.0029297
        k(  145) = (  -0.7071068   0.3535534   0.0000000), wk =   0.0014648

                       cryst. coord.
        k(    1) = (   0.0000000   0.0000000   0.0000000), wk =   0.0002441
        k(    2) = (   0.0000000   0.0000000   0.0625000), wk =   0.0019531
        k(    3) = (   0.0000000   0.0000000   0.1250000), wk =   0.0019531
        k(    4) = (   0.0000000   0.0000000   0.1875000), wk =   0.0019531
        k(    5) = (   0.0000000   0.0000000   0.2500000), wk =   0.0019531
        k(    6) = (   0.0000000   0.0000000   0.3125000), wk =   0.0019531
        k(    7) = (   0.0000000   0.0000000   0.3750000), wk =   0.0019531
        k(    8) = (   0.0000000   0.0000000   0.4375000), wk =   0.0019531
        k(    9) = (   0.0000000   0.0000000  -0.5000000), wk =   0.0009766
        k(   10) = (   0.0000000   0.0625000   0.0625000), wk =   0.0014648
        k(   11) = (   0.0000000   0.0625000   0.1250000), wk =   0.0058594
        k(   12) = (   0.0000000   0.0625000   0.1875000), wk =   0.0058594
        k(   13) = (   0.0000000   0.0625000   0.2500000), wk =   0.0058594
        k(   14) = (   0.0000000   0.0625000   0.3125000), wk =   0.0058594
        k(   15) = (   0.0000000   0.0625000   0.3750000), wk =   0.0058594
        k(   16) = (   0.0000000   0.0625000   0.4375000), wk =   0.0058594
        k(   17) = (   0.0000000   0.0625000  -0.5000000), wk =   0.0058594
        k(   18) = (   0.0000000   0.0625000  -0.4375000), wk =   0.0058594
        k(   19) = (   0.0000000   0.0625000  -0.3750000), wk =   0.0058594
        k(   20) = (   0.0000000   0.0625000  -0.3125000), wk =   0.0058594
        k(   21) = (   0.0000000   0.0625000  -0.2500000), wk =   0.0058594
        k(   22) = (   0.0000000   0.0625000  -0.1875000), wk =   0.0058594
        k(   23) = (   0.0000000   0.0625000  -0.1250000), wk =   0.0058594
        k(   24) = (   0.0000000   0.0625000  -0.0625000), wk =   0.0029297
        k(   25) = (   0.0000000   0.1250000   0.1250000), wk =   0.0014648
        k(   26) = (   0.0000000   0.1250000   0.1875000), wk =   0.0058594
        k(   27) = (   0.0000000   0.1250000   0.2500000), wk =   0.0058594
        k(   28) = (   0.0000000   0.1250000   0.3125000), wk =   0.0058594
        k(   29) = (   0.0000000   0.1250000   0.3750000), wk =   0.0058594
        k(   30) = (   0.0000000   0.1250000   0.4375000), wk =   0.0058594
        k(   31) = (   0.0000000   0.1250000  -0.5000000), wk =   0.0058594
        k(   32) = (   0.0000000   0.1250000  -0.4375000), wk =   0.0058594
        k(   33) = (   0.0000000   0.1250000  -0.3750000), wk =   0.0058594
        k(   34) = (   0.0000000   0.1250000  -0.3125000), wk =   0.0058594
        k(   35) = (   0.0000000   0.1250000  -0.2500000), wk =   0.0058594
        k(   36) = (   0.0000000   0.1250000  -0.1875000), wk =   0.0058594
        k(   37) = (   0.0000000   0.1250000  -0.1250000), wk =   0.0029297
        k(   38) = (   0.0000000   0.1875000   0.1875000), wk =   0.0014648
        k(   39) = (   0.0000000   0.1875000   0.2500000), wk =   0.0058594
        k(   40) = (   0.0000000   0.1875000   0.3125000), wk =   0.0058594
        k(   41) = (   0.0000000   0.1875000   0.3750000), wk =   0.0058594
        k(   42) = (   0.0000000   0.1875000   0.4375000), wk =   0.0058594
        k(   43) = (   0.0000000   0.1875000  -0.5000000), wk =   0.0058594
        k(   44) = (   0.0000000   0.1875000  -0.4375000), wk =   0.0058594
        k(   45) = (   0.0000000   0.1875000  -0.3750000), wk =   0.0058594
        k(   46) = (   0.0000000   0.1875000  -0.3125000), wk =   0.0058594
        k(   47) = (   0.0000000   0.1875000  -0.2500000), wk =   0.0058594
        k(   48) = (   0.0000000   0.1875000  -0.1875000), wk =   0.0029297
        k(   49) = (   0.0000000   0.2500000   0.2500000), wk =   0.0014648
        k(   50) = (   0.0000000   0.2500000   0.3125000), wk =   0.0058594
        k(   51) = (   0.0000000   0.2500000   0.3750000), wk =   0.0058594
        k(   52) = (   0.0000000   0.2500000   0.4375000), wk =   0.0058594
        k(   53) = (   0.0000000   0.2500000  -0.5000000), wk =   0.0058594
        k(   54) = (   0.0000000   0.2500000  -0.4375000), wk =   0.0058594
        k(   55) = (   0.0000000   0.2500000  -0.3750000), wk =   0.0058594
        k(   56) = (   0.0000000   0.2500000  -0.3125000), wk =   0.0058594
        k(   57) = (   0.0000000   0.2500000  -0.2500000), wk =   0.0029297
        k(   58) = (   0.0000000   0.3125000   0.3125000), wk =   0.0014648
        k(   59) = (   0.0000000   0.3125000   0.3750000), wk =   0.0058594
        k(   60) = (   0.0000000   0.3125000   0.4375000), wk =   0.0058594
        k(   61) = (   0.0000000   0.3125000  -0.5000000), wk =   0.0058594
        k(   62) = (   0.0000000   0.3125000  -0.4375000), wk =   0.0058594
        k(   63) = (   0.0000000   0.3125000  -0.3750000), wk =   0.0058594
        k(   64) = (   0.0000000   0.3125000  -0.3125000), wk =   0.0029297
        k(   65) = (   0.0000000   0.3750000   0.3750000), wk =   0.0014648
        k(   66) = (   0.0000000   0.3750000   0.4375000), wk =   0.0058594
        k(   67) = (   0.0000000   0.3750000  -0.5000000), wk =   0.0058594
        k(   68) = (   0.0000000   0.3750000  -0.4375000), wk =   0.0058594
        k(   69) = (   0.0000000   0.3750000  -0.3750000), wk =   0.0029297
        k(   70) = (   0.0000000   0.4375000   0.4375000), wk =   0.0014648
        k(   71) = (   0.0000000   0.4375000  -0.5000000), wk =   0.0058594
        k(   72) = (   0.0000000   0.4375000  -0.4375000), wk =   0.0029297
        k(   73) = (   0.0000000  -0.5000000  -0.5000000), wk =   0.0007324
        k(   74) = (   0.0625000   0.1250000   0.1875000), wk =   0.0058594
        k(   75) = (   0.0625000   0.1250000   0.2500000), wk =   0.0117188
        k(   76) = (   0.0625000   0.1250000   0.3125000), wk =   0.0117188
        k(   77) = (   0.0625000   0.1250000   0.3750000), wk =   0.0117188
        k(   78) = (   0.0625000   0.1250000   0.4375000), wk =   0.0117188
        k(   79) = (   0.0625000   0.1250000  -0.5000000), wk =   0.0117188
        k(   80) = (   0.0625000   0.1250000  -0.4375000), wk =   0.0058594
        k(   81) = (   0.0625000   0.1875000   0.2500000), wk =   0.0058594
        k(   82) = (   0.0625000   0.1875000   0.3125000), wk =   0.0117188
        k(   83) = (   0.0625000   0.1875000   0.3750000), wk =   0.0117188
        k(   84) = (   0.0625000   0.1875000   0.4375000), wk =   0.0117188
        k(   85) = (   0.0625000   0.1875000  -0.5000000), wk =   0.0117188
        k(   86) = (   0.0625000   0.1875000  -0.4375000), wk =   0.0117188
        k(   87) = (   0.0625000   0.1875000  -0.3750000), wk =   0.0117188
        k(   88) = (   0.0625000   0.1875000  -0.3125000), wk =   0.0117188
        k(   89) = (   0.0625000   0.1875000  -0.2500000), wk =   0.0117188
        k(   90) = (   0.0625000   0.1875000  -0.1875000), wk =   0.0117188
        k(   91) = (   0.0625000   0.1875000  -0.1250000), wk =   0.0058594
        k(   92) = (   0.0625000   0.2500000   0.3125000), wk =   0.0058594
        k(   93) = (   0.0625000   0.2500000   0.3750000), wk =   0.0117188
        k(   94) = (   0.0625000   0.2500000   0.4375000), wk =   0.0117188
        k(   95) = (   0.0625000   0.2500000  -0.5000000), wk =   0.0117188
        k(   96) = (   0.0625000   0.2500000  -0.4375000), wk =   0.0117188
        k(   97) = (   0.0625000   0.2500000  -0.3750000), wk =   0.0117188
        k(   98) = (   0.0625000   0.2500000  -0.3125000), wk =   0.0117188
        k(   99) = (   0.0625000   0.2500000  -0.2500000), wk =   0.0117188
        k(  100) = (   0.0625000   0.2500000  -0.1875000), wk =   0.0058594
        k(  101) = (   0.0625000   0.3125000   0.3750000), wk =   0.0058594
        k(  102) = (   0.0625000   0.3125000   0.4375000), wk =   0.0117188
        k(  103) = (   0.0625000   0.3125000  -0.5000000), wk =   0.0117188
        k(  104) = (   0.0625000   0.3125000  -0.4375000), wk =   0.0117188
        k(  105) = (   0.0625000   0.3125000  -0.3750000), wk =   0.0117188
        k(  106) = (   0.0625000   0.3125000  -0.3125000), wk =   0.0117188
        k(  107) = (   0.0625000   0.3125000  -0.2500000), wk =   0.0058594
        k(  108) = (   0.0625000   0.3750000   0.4375000), wk =   0.0058594
        k(  109) = (   0.0625000   0.3750000  -0.5000000), wk =   0.0117188
        k(  110) = (   0.0625000   0.3750000  -0.4375000), wk =   0.0117188
        k(  111) = (   0.0625000   0.3750000  -0.3750000), wk =   0.0117188
        k(  112) = (   0.0625000   0.3750000  -0.3125000), wk =   0.0058594
        k(  113) = (   0.0625000   0.4375000  -0.5000000), wk =   0.0058594
        k(  114) = (   0.0625000   0.4375000  -0.4375000), wk =   0.0117188
        k(  115) = (   0.0625000   0.4375000  -0.3750000), wk =   0.0058594
        k(  116) = (   0.0625000  -0.5000000  -0.4375000), wk =   0.0029297
        k(  117) = (   0.1250000   0.2500000   0.3750000), wk =   0.0058594
        k(  118) = (   0.1250000   0.2500000   0.4375000), wk =   0.0117188
        k(  119) = (   0.1250000   0.2500000  -0.5000000), wk =   0.0117188
        k(  120) = (   0.1250000   0.2500000  -0.4375000), wk =   0.0117188
        k(  121) = (   0.1250000   0.2500000  -0.3750000), wk =   0.0058594
        k(  122) = (   0.1250000   0.3125000   0.4375000), wk =   0.0058594
        k(  123) = (   0.1250000   0.3125000  -0.5000000), wk =   0.0117188
        k(  124) = (   0.1250000   0.3125000  -0.4375000), wk =   0.0117188
        k(  125) = (   0.1250000   0.3125000  -0.3750000), wk =   0.0117188
        k(  126) = (   0.1250000   0.3125000  -0.3125000), wk =   0.0117188
        k(  127) = (   0.1250000   0.3125000  -0.2500000), wk =   0.0117188
        k(  128) = (   0.1250000   0.3125000  -0.1875000), wk =   0.0058594
        k(  129) = (   0.1250000   0.3750000  -0.5000000), wk =   0.0058594
        k(  130) = (   0.1250000   0.3750000  -0.4375000), wk =   0.0117188
        k(  131) = (   0.1250000   0.3750000  -0.3750000), wk =   0.0117188
        k(  132) = (   0.1250000   0.3750000  -0.3125000), wk =   0.0117188
        k(  133) = (   0.1250000   0.3750000  -0.2500000), wk =   0.0058594
        k(  134) = (   0.1250000   0.4375000  -0.4375000), wk =   0.0058594
        k(  135) = (   0.1250000   0.4375000  -0.3750000), wk =   0.0117188
        k(  136) = (   0.1250000   0.4375000  -0.3125000), wk =   0.0058594
        k(  137) = (   0.1250000  -0.5000000  -0.3750000), wk =   0.0029297
        k(  138) = (   0.1875000   0.3750000  -0.4375000), wk =   0.0058594
        k(  139) = (   0.1875000   0.3750000  -0.3750000), wk =   0.0117188
        k(  140) = (   0.1875000   0.3750000  -0.3125000), wk =   0.0058594
        k(  141) = (   0.1875000   0.4375000  -0.3750000), wk =   0.0058594
        k(  142) = (   0.1875000   0.4375000  -0.3125000), wk =   0.0117188
        k(  143) = (   0.1875000   0.4375000  -0.2500000), wk =   0.0058594
        k(  144) = (   0.1875000  -0.5000000  -0.3125000), wk =   0.0029297
        k(  145) = (   0.2500000  -0.5000000  -0.2500000), wk =   0.0014648

     Dense  grid:    71537 G-vectors     FFT dimensions: (  60,  60,  60)

     Largest allocated arrays     est. size (Mb)     dimensions
        Kohn-Sham Wavefunctions         0.63 Mb     (    1152,   36)
        NL pseudopotentials             0.32 Mb     (     576,   36)
        Each V/rho on FFT grid          0.22 Mb     (   14400)
        Each G-vector array             0.03 Mb     (    4472)
        G-vector shells                 0.00 Mb     (     545)
     Largest temporary arrays     est. size (Mb)     dimensions
        Auxiliary wavefunctions         2.53 Mb     (    1152,  144)
        Each subspace H/S matrix        0.32 Mb     (     144,  144)
        Each <psi_i|beta_j> matrix      0.04 Mb     (      36,   2,   36)
        Arrays for rho mixing           1.76 Mb     (   14400,    8)

     Initial potential from superposition of free atoms

     starting charge   27.99723, renormalised to   28.00000
     Starting wfc are   36 randomized atomic wfcs
     Checking if some PAW data can be deallocated... 

     total cpu time spent up to now is        7.4 secs

     Self-consistent Calculation

     iteration #  1     ecut=   104.00 Ry     beta=0.70
     Davidson diagonalization with overlap
     ethr =  1.00E-02,  avg # of iterations =  3.5

     Threshold (ethr) on eigenvalues was too large:
     Diagonalizing with lowered threshold

     Davidson diagonalization with overlap
     ethr =  6.60E-05,  avg # of iterations =  3.4

     total cpu time spent up to now is       51.7 secs

     total energy              =    -884.12283975 Ry
     Harris-Foulkes estimate   =    -884.12614852 Ry
     estimated scf accuracy    <       0.02228871 Ry

     iteration #  2     ecut=   104.00 Ry     beta=0.70
     Davidson diagonalization with overlap
     ethr =  7.96E-05,  avg # of iterations =  1.0

     total cpu time spent up to now is       69.2 secs

     total energy              =    -884.12369731 Ry
     Harris-Foulkes estimate   =    -884.12376528 Ry
     estimated scf accuracy    <       0.00157205 Ry

     iteration #  3     ecut=   104.00 Ry     beta=0.70
     Davidson diagonalization with overlap
     ethr =  5.61E-06,  avg # of iterations =  2.6

     total cpu time spent up to now is       93.4 secs

     total energy              =    -884.12394082 Ry
     Harris-Foulkes estimate   =    -884.12396852 Ry
     estimated scf accuracy    <       0.00006010 Ry

     iteration #  4     ecut=   104.00 Ry     beta=0.70
     Davidson diagonalization with overlap
     ethr =  2.15E-07,  avg # of iterations =  2.0

     total cpu time spent up to now is      116.6 secs

     total energy              =    -884.12396025 Ry
     Harris-Foulkes estimate   =    -884.12395853 Ry
     estimated scf accuracy    <       0.00000421 Ry

     iteration #  5     ecut=   104.00 Ry     beta=0.70
     Davidson diagonalization with overlap
     ethr =  1.50E-08,  avg # of iterations =  2.0

     total cpu time spent up to now is      136.0 secs

     End of self-consistent calculation

          k = 0.0000 0.0000 0.0000 (  8873 PWs)   bands (ev):

   -14.6627 -14.6627 -14.6627 -14.6627 -14.6627 -14.6627 -14.6148 -14.6148
   -14.6148 -14.6148 -14.3662 -14.3662 -14.3662 -14.3662 -14.3661 -14.3661
   -14.3661 -14.3661 -14.3661 -14.3661  -3.1870  -3.1870   5.6999   5.6999
     6.9820   6.9820   6.9820   6.9820   6.9820   6.9820   9.0472   9.0472
     9.0472   9.0472   9.0472   9.0472

     occupation numbers 
     1.0000   1.0000   1.0000   1.0000   1.0000   1.0000   1.0000   1.0000
     1.0000   1.0000   1.0000   1.0000   1.0000   1.0000   1.0000   1.0000
     1.0000   1.0000   1.0000   1.0000   1.0000   1.0000   1.0000   1.0000
     0.0000   0.0000   0.0000   0.0000   0.0000   0.0000   0.0000   0.0000
     0.0000   0.0000   0.0000   0.0000

          k = 0.0442 0.0442-0.0442 (  8987 PWs)   bands (ev):

   -14.6653 -14.6653 -14.6653 -14.6653 -14.6619 -14.6619 -14.6114 -14.6114
   -14.6114 -14.6114 -14.3769 -14.3769 -14.3769 -14.3769 -14.3671 -14.3671
   -14.3560 -14.3560 -14.3560 -14.3560  -3.1523  -3.1523   5.3055   5.3055
     6.9096   6.9096   6.9096   6.9096   7.1638   7.1638   9.1420   9.1420
     9.1420   9.1420   9.1761   9.1761

     occupation numbers 
     1.0000   1.0000   1.0000   1.0000   1.0000   1.0000   1.0000   1.0000
     1.0000   1.0000   1.0000   1.0000   1.0000   1.0000   1.0000   1.0000
     1.0000   1.0000   1.0000   1.0000   1.0000   1.0000   1.0000   1.0000
     0.0243   0.0243   0.0243   0.0243   0.0000   0.0000   0.0000   0.0000
     0.0000   0.0000   0.0000   0.0000

          k = 0.0884 0.0884-0.0884 (  9008 PWs)   bands (ev):

   -14.6712 -14.6712 -14.6712 -14.6712 -14.6596 -14.6596 -14.6031 -14.6031
   -14.6031 -14.6031 -14.3875 -14.3875 -14.3875 -14.3875 -14.3699 -14.3699
   -14.3470 -14.3470 -14.3470 -14.3470  -3.0488  -3.0488   4.5452   4.5452
     6.7323   6.7323   6.7323   6.7323   7.2936   7.2936   9.3760   9.3760
     9.3760   9.3760   9.6081   9.6081

     occupation numbers 
     1.0000   1.0000   1.0000   1.0000   1.0000   1.0000   1.0000   1.0000
     1.0000   1.0000   1.0000   1.0000   1.0000   1.0000   1.0000   1.0000
     1.0000   1.0000   1.0000   1.0000   1.0000   1.0000   1.0000   1.0000
     1.0000   1.0000   1.0000   1.0000   0.0000   0.0000   0.0000   0.0000
     0.0000   0.0000   0.0000   0.0000

          k = 0.1326 0.1326-0.1326 (  8999 PWs)   bands (ev):

   -14.6776 -14.6776 -14.6776 -14.6776 -14.6560 -14.6560 -14.5931 -14.5931
   -14.5931 -14.5931 -14.3974 -14.3974 -14.3974 -14.3974 -14.3741 -14.3741
   -14.3393 -14.3393 -14.3393 -14.3393  -2.8796  -2.8796   3.7159   3.7159
     6.5176   6.5176   6.5176   6.5176   7.2304   7.2304   9.6514   9.6514
     9.6514   9.6514  10.2880  10.2880

     occupation numbers 
     1.0000   1.0000   1.0000   1.0000   1.0000   1.0000   1.0000   1.0000
     1.0000   1.0000   1.0000   1.0000   1.0000   1.0000   1.0000   1.0000
     1.0000   1.0000   1.0000   1.0000   1.0000   1.0000   1.0000   1.0000
     1.0000   1.0000   1.0000   1.0000   0.0000   0.0000   0.0000   0.0000
     0.0000   0.0000   0.0000   0.0000

          k = 0.1768 0.1768-0.1768 (  8970 PWs)   bands (ev):

   -14.6830 -14.6830 -14.6830 -14.6830 -14.6516 -14.6516 -14.5837 -14.5837
   -14.5837 -14.5837 -14.4059 -14.4059 -14.4059 -14.4059 -14.3792 -14.3792
   -14.3332 -14.3332 -14.3332 -14.3332  -2.6509  -2.6509   2.9046   2.9046
     6.3110   6.3110   6.3110   6.3110   7.0906   7.0906   9.8820   9.8820
     9.8820   9.8820  11.0966  11.0966

     occupation numbers 
     1.0000   1.0000   1.0000   1.0000   1.0000   1.0000   1.0000   1.0000
     1.0000   1.0000   1.0000   1.0000   1.0000   1.0000   1.0000   1.0000
     1.0000   1.0000   1.0000   1.0000   1.0000   1.0000   1.0000   1.0000
     1.0000   1.0000   1.0000   1.0000   0.0000   0.0000   0.0000   0.0000
     0.0000   0.0000   0.0000   0.0000

          k = 0.2210 0.2210-0.2210 (  8970 PWs)   bands (ev):

   -14.6871 -14.6871 -14.6871 -14.6871 -14.6472 -14.6472 -14.5761 -14.5761
   -14.5761 -14.5761 -14.4124 -14.4124 -14.4124 -14.4124 -14.3845 -14.3845
   -14.3286 -14.3286 -14.3286 -14.3286  -2.3760  -2.3760   2.1568   2.1568
     6.1363   6.1363   6.1363   6.1363   6.9489   6.9489  10.0219  10.0219
    10.0219  10.0219  11.9612  11.9612

     occupation numbers 
     1.0000   1.0000   1.0000   1.0000   1.0000   1.0000   1.0000   1.0000
     1.0000   1.0000   1.0000   1.0000   1.0000   1.0000   1.0000   1.0000
     1.0000   1.0000   1.0000   1.0000   1.0000   1.0000   1.0000   1.0000
     1.0000   1.0000   1.0000   1.0000   0.0000   0.0000   0.0000   0.0000
     0.0000   0.0000   0.0000   0.0000

          k = 0.2652 0.2652-0.2652 (  8964 PWs)   bands (ev):

   -14.6899 -14.6899 -14.6899 -14.6899 -14.6433 -14.6433 -14.5707 -14.5707
   -14.5707 -14.5707 -14.4167 -14.4167 -14.4167 -14.4167 -14.3890 -14.3890
   -14.3256 -14.3256 -14.3256 -14.3256  -2.0827  -2.0827   1.5170   1.5170
     6.0056   6.0056   6.0056   6.0056   6.8362   6.8362  10.0791  10.0791
    10.0791  10.0791  12.6231  12.6231

     occupation numbers 
     1.0000   1.0000   1.0000   1.0000   1.0000   1.0000   1.0000   1.0000
     1.0000   1.0000   1.0000   1.0000   1.0000   1.0000   1.0000   1.0000
     1.0000   1.0000   1.0000   1.0000   1.0000   1.0000   1.0000   1.0000
     1.0000   1.0000   1.0000   1.0000   1.0000   1.0000   0.0000   0.0000
     0.0000   0.0000   0.0000   0.0000

          k = 0.3094 0.3094-0.3094 (  8943 PWs)   bands (ev):

   -14.6914 -14.6914 -14.6914 -14.6914 -14.6407 -14.6407 -14.5676 -14.5676
   -14.5676 -14.5676 -14.4191 -14.4191 -14.4191 -14.4191 -14.3921 -14.3921
   -14.3238 -14.3238 -14.3238 -14.3238  -1.8313  -1.8313   1.0545   1.0545
     5.9252   5.9252   5.9252   5.9252   6.7654   6.7654  10.0916  10.0916
    10.0916  10.0916  12.6474  12.6474

     occupation numbers 
     1.0000   1.0000   1.0000   1.0000   1.0000   1.0000   1.0000   1.0000
     1.0000   1.0000   1.0000   1.0000   1.0000   1.0000   1.0000   1.0000
     1.0000   1.0000   1.0000   1.0000   1.0000   1.0000   1.0000   1.0000
     1.0000   1.0000   1.0000   1.0000   1.0000   1.0000   0.0000   0.0000
     0.0000   0.0000   0.0000   0.0000

          k =-0.3536-0.3536 0.3536 (  8928 PWs)   bands (ev):

   -14.6918 -14.6918 -14.6918 -14.6918 -14.6397 -14.6397 -14.5666 -14.5666
   -14.5666 -14.5666 -14.4198 -14.4198 -14.4198 -14.4198 -14.3932 -14.3932
   -14.3233 -14.3233 -14.3233 -14.3233  -1.7250  -1.7250   0.8774   0.8774
     5.8981   5.8981   5.8981   5.8981   6.7413   6.7413  10.0919  10.0919
    10.0919  10.0919  12.6222  12.6222

     occupation numbers 
     1.0000   1.0000   1.0000   1.0000   1.0000   1.0000   1.0000   1.0000
     1.0000   1.0000   1.0000   1.0000   1.0000   1.0000   1.0000   1.0000
     1.0000   1.0000   1.0000   1.0000   1.0000   1.0000   1.0000   1.0000
     1.0000   1.0000   1.0000   1.0000   1.0000   1.0000   0.0000   0.0000
     0.0000   0.0000   0.0000   0.0000

          k = 0.0884 0.0000 0.0000 (  8993 PWs)   bands (ev):

   -14.6650 -14.6650 -14.6646 -14.6646 -14.6646 -14.6646 -14.6124 -14.6124
   -14.6078 -14.6078 -14.3860 -14.3860 -14.3686 -14.3686 -14.3636 -14.3636
   -14.3636 -14.3636 -14.3520 -14.3520  -3.1406  -3.1406   5.2255   5.2255
     6.7770   6.7770   6.7770   6.7770   7.4372   7.4372   8.9022   8.9022
     9.3117   9.3117   9.3117   9.3117

     occupation numbers 
     1.0000   1.0000   1.0000   1.0000   1.0000   1.0000   1.0000   1.0000
     1.0000   1.0000   1.0000   1.0000   1.0000   1.0000   1.0000   1.0000
     1.0000   1.0000   1.0000   1.0000   1.0000   1.0000   1.0000   1.0000
     1.0000   1.0000   1.0000   1.0000   0.0000   0.0000   0.0000   0.0000
     0.0000   0.0000   0.0000   0.0000

          k = 0.1326 0.0442-0.0442 (  8988 PWs)   bands (ev):

   -14.6711 -14.6711 -14.6684 -14.6684 -14.6624 -14.6624 -14.6072 -14.6072
   -14.5992 -14.5992 -14.3973 -14.3973 -14.3775 -14.3775 -14.3638 -14.3638
   -14.3551 -14.3551 -14.3450 -14.3450  -3.0598  -3.0598   4.6618   4.6618
     6.5692   6.5692   6.6004   6.6004   7.6899   7.6899   8.9009   8.9009
     9.5946   9.5946   9.6682   9.6682

     occupation numbers 
     1.0000   1.0000   1.0000   1.0000   1.0000   1.0000   1.0000   1.0000
     1.0000   1.0000   1.0000   1.0000   1.0000   1.0000   1.0000   1.0000
     1.0000   1.0000   1.0000   1.0000   1.0000   1.0000   1.0000   1.0000
     1.0000   1.0000   1.0000   1.0000   0.0000   0.0000   0.0000   0.0000
     0.0000   0.0000   0.0000   0.0000

          k = 0.1768 0.0884-0.0884 (  8991 PWs)   bands (ev):

   -14.6783 -14.6783 -14.6741 -14.6741 -14.6584 -14.6584 -14.5986 -14.5986
   -14.5888 -14.5888 -14.4081 -14.4081 -14.3876 -14.3876 -14.3678 -14.3678
   -14.3463 -14.3463 -14.3372 -14.3372  -2.9121  -2.9121   3.9085   3.9085
     6.3470   6.3470   6.3831   6.3831   7.7084   7.7084   9.1278   9.1278
     9.9003   9.9003  10.2195  10.2195

     occupation numbers 
     1.0000   1.0000   1.0000   1.0000   1.0000   1.0000   1.0000   1.0000
     1.0000   1.0000   1.0000   1.0000   1.0000   1.0000   1.0000   1.0000
     1.0000   1.0000   1.0000   1.0000   1.0000   1.0000   1.0000   1.0000
     1.0000   1.0000   1.0000   1.0000   0.0000   0.0000   0.0000   0.0000
     0.0000   0.0000   0.0000   0.0000

          k = 0.2210 0.1326-0.1326 (  8978 PWs)   bands (ev):

   -14.6849 -14.6849 -14.6799 -14.6799 -14.6530 -14.6530 -14.5893 -14.5893
   -14.5787 -14.5787 -14.4171 -14.4171 -14.3970 -14.3970 -14.3739 -14.3739
   -14.3389 -14.3389 -14.3303 -14.3303  -2.7023  -2.7023   3.1206   3.1206
     6.1426   6.1426   6.1468   6.1468   7.5936   7.5936   9.4403   9.4403
    10.1479  10.1479  10.8640  10.8640

     occupation numbers 
     1.0000   1.0000   1.0000   1.0000   1.0000   1.0000   1.0000   1.0000
     1.0000   1.0000   1.0000   1.0000   1.0000   1.0000   1.0000   1.0000
     1.0000   1.0000   1.0000   1.0000   1.0000   1.0000   1.0000   1.0000
     1.0000   1.0000   1.0000   1.0000   0.0000   0.0000   0.0000   0.0000
     0.0000   0.0000   0.0000   0.0000

          k = 0.2652 0.1768-0.1768 (  8983 PWs)   bands (ev):

   -14.6901 -14.6901 -14.6847 -14.6847 -14.6471 -14.6471 -14.5807 -14.5807
   -14.5705 -14.5705 -14.4235 -14.4235 -14.4052 -14.4052 -14.3810 -14.3810
   -14.3328 -14.3328 -14.3249 -14.3249  -2.4407  -2.4407   2.3671   2.3671
     5.9174   5.9174   5.9876   5.9876   7.4484   7.4484   9.7011   9.7011
    10.2863  10.2863  11.5426  11.5426

     occupation numbers 
     1.0000   1.0000   1.0000   1.0000   1.0000   1.0000   1.0000   1.0000
     1.0000   1.0000   1.0000   1.0000   1.0000   1.0000   1.0000   1.0000
     1.0000   1.0000   1.0000   1.0000   1.0000   1.0000   1.0000   1.0000
     1.0000   1.0000   1.0000   1.0000   0.0000   0.0000   0.0000   0.0000
     0.0000   0.0000   0.0000   0.0000

          k = 0.3094 0.2210-0.2210 (  8974 PWs)   bands (ev):

   -14.6937 -14.6937 -14.6883 -14.6883 -14.6414 -14.6414 -14.5736 -14.5736
   -14.5653 -14.5653 -14.4266 -14.4266 -14.4120 -14.4120 -14.3881 -14.3881
   -14.3282 -14.3282 -14.3211 -14.3211  -2.1486  -2.1486   1.6969   1.6969
     5.7290   5.7290   5.8793   5.8793   7.3189   7.3189   9.8604   9.8604
    10.3182  10.3182  12.2112  12.2113

     occupation numbers 
     1.0000   1.0000   1.0000   1.0000   1.0000   1.0000   1.0000   1.0000
     1.0000   1.0000   1.0000   1.0000   1.0000   1.0000   1.0000   1.0000
     1.0000   1.0000   1.0000   1.0000   1.0000   1.0000   1.0000   1.0000
     1.0000   1.0000   1.0000   1.0000   0.0000   0.0000   0.0000   0.0000
     0.0000   0.0000   0.0000   0.0000

          k = 0.3536 0.2652-0.2652 (  8952 PWs)   bands (ev):

   -14.6958 -14.6958 -14.6909 -14.6909 -14.6369 -14.6369 -14.5682 -14.5682
   -14.5632 -14.5632 -14.4265 -14.4265 -14.4174 -14.4174 -14.3941 -14.3941
   -14.3247 -14.3247 -14.3190 -14.3190  -1.8731  -1.8731   1.1710   1.1710
     5.5886   5.5886   5.8262   5.8262   7.2246   7.2246   9.9474   9.9474
    10.2851  10.2851  12.6430  12.6430

     occupation numbers 
     1.0000   1.0000   1.0000   1.0000   1.0000   1.0000   1.0000   1.0000
     1.0000   1.0000   1.0000   1.0000   1.0000   1.0000   1.0000   1.0000
     1.0000   1.0000   1.0000   1.0000   1.0000   1.0000   1.0000   1.0000
     1.0000   1.0000   1.0000   1.0000   0.0000   0.0000   0.0000   0.0000
     0.0000   0.0000   0.0000   0.0000

          k =-0.3094-0.3977 0.3977 (  8940 PWs)   bands (ev):

   -14.6963 -14.6963 -14.6925 -14.6925 -14.6344 -14.6344 -14.5645 -14.5645
   -14.5638 -14.5638 -14.4238 -14.4238 -14.4216 -14.4216 -14.3978 -14.3978
   -14.3224 -14.3224 -14.3186 -14.3186  -1.7053  -1.7053   0.8882   0.8882
     5.5019   5.5019   5.8299   5.8299   7.1737   7.1737  10.0083  10.0083
    10.2275  10.2275  12.7363  12.7363

     occupation numbers 
     1.0000   1.0000   1.0000   1.0000   1.0000   1.0000   1.0000   1.0000
     1.0000   1.0000   1.0000   1.0000   1.0000   1.0000   1.0000   1.0000
     1.0000   1.0000   1.0000   1.0000   1.0000   1.0000   1.0000   1.0000
     1.0000   1.0000   1.0000   1.0000   0.0000   0.0000   0.0000   0.0000
     0.0000   0.0000   0.0000   0.0000

          k =-0.2652-0.3536 0.3536 (  8942 PWs)   bands (ev):

   -14.6955 -14.6955 -14.6932 -14.6932 -14.6345 -14.6345 -14.5664 -14.5664
   -14.5628 -14.5628 -14.4242 -14.4242 -14.4199 -14.4199 -14.3983 -14.3983
   -14.3214 -14.3214 -14.3200 -14.3200  -1.7423  -1.7423   0.9485   0.9485
     5.4726   5.4726   5.8893   5.8893   7.1694   7.1694  10.0681  10.0681
    10.1651  10.1651  12.7492  12.7492

     occupation numbers 
     1.0000   1.0000   1.0000   1.0000   1.0000   1.0000   1.0000   1.0000
     1.0000   1.0000   1.0000   1.0000   1.0000   1.0000   1.0000   1.0000
     1.0000   1.0000   1.0000   1.0000   1.0000   1.0000   1.0000   1.0000
     1.0000   1.0000   1.0000   1.0000   0.0000   0.0000   0.0000   0.0000
     0.0000   0.0000   0.0000   0.0000

          k =-0.2210-0.3094 0.3094 (  8956 PWs)   bands (ev):

   -14.6932 -14.6932 -14.6927 -14.6927 -14.6371 -14.6371 -14.5706 -14.5706
   -14.5635 -14.5635 -14.4248 -14.4248 -14.4159 -14.4159 -14.3948 -14.3948
   -14.3229 -14.3229 -14.3216 -14.3216  -1.9590  -1.9590   1.3262   1.3262
     5.5031   5.5031   6.0013   6.0013   7.2111   7.2111  10.0944  10.0944
    10.1237  10.1237  12.6360  12.6360

     occupation numbers 
     1.0000   1.0000   1.0000   1.0000   1.0000   1.0000   1.0000   1.0000
     1.0000   1.0000   1.0000   1.0000   1.0000   1.0000   1.0000   1.0000
     1.0000   1.0000   1.0000   1.0000   1.0000   1.0000   1.0000   1.0000
     1.0000   1.0000   1.0000   1.0000   0.0000   0.0000   0.0000   0.0000
     0.0000   0.0000   0.0000   0.0000

          k =-0.1768-0.2652 0.2652 (  8985 PWs)   bands (ev):

   -14.6910 -14.6910 -14.6897 -14.6897 -14.6418 -14.6418 -14.5763 -14.5763
   -14.5672 -14.5672 -14.4226 -14.4226 -14.4115 -14.4115 -14.3881 -14.3881
   -14.3275 -14.3275 -14.3233 -14.3233  -2.2478  -2.2478   1.9089   1.9089
     5.5948   5.5948   6.1602   6.1602   7.2942   7.2942   9.9908   9.9908
    10.1410  10.1411  12.0653  12.0653

     occupation numbers 
     1.0000   1.0000   1.0000   1.0000   1.0000   1.0000   1.0000   1.0000
     1.0000   1.0000   1.0000   1.0000   1.0000   1.0000   1.0000   1.0000
     1.0000   1.0000   1.0000   1.0000   1.0000   1.0000   1.0000   1.0000
     1.0000   1.0000   1.0000   1.0000   0.0000   0.0000   0.0000   0.0000
     0.0000   0.0000   0.0000   0.0000

          k =-0.1326-0.2210 0.2210 (  8971 PWs)   bands (ev):

   -14.6878 -14.6878 -14.6848 -14.6848 -14.6476 -14.6476 -14.5834 -14.5834
   -14.5740 -14.5740 -14.4174 -14.4174 -14.4060 -14.4060 -14.3801 -14.3801
   -14.3337 -14.3337 -14.3266 -14.3266  -2.5332  -2.5332   2.6114   2.6114
     5.7482   5.7482   6.3561   6.3561   7.4069   7.4069   9.8232   9.8232
    10.0528  10.0528  11.3356  11.3356

     occupation numbers 
     1.0000   1.0000   1.0000   1.0000   1.0000   1.0000   1.0000   1.0000
     1.0000   1.0000   1.0000   1.0000   1.0000   1.0000   1.0000   1.0000
     1.0000   1.0000   1.0000   1.0000   1.0000   1.0000   1.0000   1.0000
     1.0000   1.0000   1.0000   1.0000   0.0000   0.0000   0.0000   0.0000
     0.0000   0.0000   0.0000   0.0000

          k =-0.0884-0.1768 0.1768 (  8981 PWs)   bands (ev):

   -14.6829 -14.6829 -14.6787 -14.6787 -14.6535 -14.6535 -14.5918 -14.5918
   -14.5834 -14.5834 -14.4093 -14.4093 -14.3988 -14.3988 -14.3721 -14.3721
   -14.3414 -14.3414 -14.3317 -14.3317  -2.7791  -2.7791   3.3790   3.3790
     5.9629   5.9629   6.5714   6.5714   7.5199   7.5199   9.5874   9.5874
     9.7969   9.7969  10.6813  10.6813

     occupation numbers 
     1.0000   1.0000   1.0000   1.0000   1.0000   1.0000   1.0000   1.0000
     1.0000   1.0000   1.0000   1.0000   1.0000   1.0000   1.0000   1.0000
     1.0000   1.0000   1.0000   1.0000   1.0000   1.0000   1.0000   1.0000
     1.0000   1.0000   1.0000   1.0000   0.0000   0.0000   0.0000   0.0000
     0.0000   0.0000   0.0000   0.0000

          k =-0.0442-0.1326 0.1326 (  8997 PWs)   bands (ev):

   -14.6768 -14.6768 -14.6720 -14.6720 -14.6586 -14.6586 -14.6007 -14.6007
   -14.5941 -14.5941 -14.3993 -14.3993 -14.3903 -14.3903 -14.3652 -14.3652
   -14.3504 -14.3504 -14.3384 -14.3384  -2.9689  -2.9689   4.1578   4.1578
     6.2383   6.2383   6.7735   6.7735   7.5636   7.5636   9.3334   9.3334
     9.4403   9.4403  10.1103  10.1103

     occupation numbers 
     1.0000   1.0000   1.0000   1.0000   1.0000   1.0000   1.0000   1.0000
     1.0000   1.0000   1.0000   1.0000   1.0000   1.0000   1.0000   1.0000
     1.0000   1.0000   1.0000   1.0000   1.0000   1.0000   1.0000   1.0000
     1.0000   1.0000   1.0000   1.0000   0.0000   0.0000   0.0000   0.0000
     0.0000   0.0000   0.0000   0.0000

          k = 0.0000-0.0884 0.0884 (  8989 PWs)   bands (ev):

   -14.6703 -14.6703 -14.6665 -14.6665 -14.6617 -14.6617 -14.6082 -14.6082
   -14.6043 -14.6043 -14.3882 -14.3882 -14.3813 -14.3813 -14.3610 -14.3610
   -14.3592 -14.3592 -14.3467 -14.3467  -3.0945  -3.0945   4.8605   4.8605
     6.5732   6.5732   6.9069   6.9069   7.4240   7.4240   9.1545   9.1545
     9.1930   9.1930   9.5884   9.5884

     occupation numbers 
     1.0000   1.0000   1.0000   1.0000   1.0000   1.0000   1.0000   1.0000
     1.0000   1.0000   1.0000   1.0000   1.0000   1.0000   1.0000   1.0000
     1.0000   1.0000   1.0000   1.0000   1.0000   1.0000   1.0000   1.0000
     1.0000   1.0000   0.8010   0.8010   0.0000   0.0000   0.0000   0.0000
     0.0000   0.0000   0.0000   0.0000

          k = 0.1768 0.0000 0.0000 (  8993 PWs)   bands (ev):

   -14.6697 -14.6697 -14.6697 -14.6697 -14.6682 -14.6682 -14.6052 -14.6052
   -14.5903 -14.5903 -14.4106 -14.4106 -14.3755 -14.3755 -14.3566 -14.3566
   -14.3566 -14.3566 -14.3440 -14.3440  -3.0017  -3.0017   4.4123   4.4123
     6.3469   6.3469   6.3469   6.3469   8.1582   8.1582   8.5815   8.5815
     9.9184   9.9184   9.9184   9.9184

     occupation numbers 
     1.0000   1.0000   1.0000   1.0000   1.0000   1.0000   1.0000   1.0000
     1.0000   1.0000   1.0000   1.0000   1.0000   1.0000   1.0000   1.0000
     1.0000   1.0000   1.0000   1.0000   1.0000   1.0000   1.0000   1.0000
     1.0000   1.0000   1.0000   1.0000   0.0000   0.0000   0.0000   0.0000
     0.0000   0.0000   0.0000   0.0000

          k = 0.2210 0.0442-0.0442 (  8998 PWs)   bands (ev):

   -14.6774 -14.6774 -14.6740 -14.6740 -14.6639 -14.6639 -14.5985 -14.5985
   -14.5792 -14.5792 -14.4235 -14.4235 -14.3832 -14.3832 -14.3571 -14.3571
   -14.3496 -14.3496 -14.3384 -14.3384  -2.8758  -2.8758   3.8693   3.8693
     6.1038   6.1038   6.1197   6.1197   8.3410   8.3410   8.5764   8.5764
    10.2648  10.2648  10.3466  10.3466

     occupation numbers 
     1.0000   1.0000   1.0000   1.0000   1.0000   1.0000   1.0000   1.0000
     1.0000   1.0000   1.0000   1.0000   1.0000   1.0000   1.0000   1.0000
     1.0000   1.0000   1.0000   1.0000   1.0000   1.0000   1.0000   1.0000
     1.0000   1.0000   1.0000   1.0000   0.0000   0.0000   0.0000   0.0000
     0.0000   0.0000   0.0000   0.0000

          k = 0.2652 0.0884-0.0884 (  8984 PWs)   bands (ev):

   -14.6857 -14.6857 -14.6794 -14.6794 -14.6568 -14.6568 -14.5897 -14.5897
   -14.5681 -14.5681 -14.4345 -14.4345 -14.3929 -14.3929 -14.3641 -14.3641
   -14.3416 -14.3416 -14.3299 -14.3299  -2.6859  -2.6859   3.1936   3.1936
     5.8234   5.8234   5.9205   5.9205   8.2675   8.2675   8.8701   8.8701
    10.5540  10.5540  10.7812  10.7812

     occupation numbers 
     1.0000   1.0000   1.0000   1.0000   1.0000   1.0000   1.0000   1.0000
     1.0000   1.0000   1.0000   1.0000   1.0000   1.0000   1.0000   1.0000
     1.0000   1.0000   1.0000   1.0000   1.0000   1.0000   1.0000   1.0000
     1.0000   1.0000   1.0000   1.0000   0.0000   0.0000   0.0000   0.0000
     0.0000   0.0000   0.0000   0.0000

          k = 0.3094 0.1326-0.1326 (  8975 PWs)   bands (ev):

   -14.6930 -14.6930 -14.6844 -14.6844 -14.6482 -14.6482 -14.5806 -14.5806
   -14.5590 -14.5590 -14.4424 -14.4424 -14.4025 -14.4025 -14.3737 -14.3737
   -14.3345 -14.3345 -14.3221 -14.3221  -2.4398  -2.4398   2.4920   2.4920
     5.5402   5.5402   5.7671   5.7671   8.1260   8.1260   9.2540   9.2540
    10.7231  10.7231  11.1031  11.1031

     occupation numbers 
     1.0000   1.0000   1.0000   1.0000   1.0000   1.0000   1.0000   1.0000
     1.0000   1.0000   1.0000   1.0000   1.0000   1.0000   1.0000   1.0000
     1.0000   1.0000   1.0000   1.0000   1.0000   1.0000   1.0000   1.0000
     1.0000   1.0000   1.0000   1.0000   0.0000   0.0000   0.0000   0.0000
     0.0000   0.0000   0.0000   0.0000

          k = 0.3536 0.1768-0.1768 (  8990 PWs)   bands (ev):

   -14.6988 -14.6988 -14.6886 -14.6886 -14.6390 -14.6390 -14.5721 -14.5721
   -14.5534 -14.5534 -14.4462 -14.4462 -14.4114 -14.4114 -14.3844 -14.3844
   -14.3285 -14.3285 -14.3158 -14.3158  -2.1538  -2.1538   1.8311   1.8311
     5.2891   5.2891   5.6690   5.6690   7.9831   7.9831   9.5793   9.5793
    10.7602  10.7602  11.4621  11.4621

     occupation numbers 
     1.0000   1.0000   1.0000   1.0000   1.0000   1.0000   1.0000   1.0000
     1.0000   1.0000   1.0000   1.0000   1.0000   1.0000   1.0000   1.0000
     1.0000   1.0000   1.0000   1.0000   1.0000   1.0000   1.0000   1.0000
     1.0000   1.0000   1.0000   1.0000   0.0000   0.0000   0.0000   0.0000
     0.0000   0.0000   0.0000   0.0000

          k = 0.3977 0.2210-0.2210 (  8974 PWs)   bands (ev):

   -14.7028 -14.7028 -14.6919 -14.6919 -14.6307 -14.6307 -14.5646 -14.5646
   -14.5519 -14.5519 -14.4452 -14.4452 -14.4195 -14.4195 -14.3946 -14.3946
   -14.3238 -14.3238 -14.3116 -14.3116  -1.8636  -1.8636   1.2731   1.2731
     5.0880   5.0880   5.6304   5.6304   7.8669   7.8669   9.7789   9.7789
    10.7049  10.7049  11.9802  11.9802

     occupation numbers 
     1.0000   1.0000   1.0000   1.0000   1.0000   1.0000   1.0000   1.0000
     1.0000   1.0000   1.0000   1.0000   1.0000   1.0000   1.0000   1.0000
     1.0000   1.0000   1.0000   1.0000   1.0000   1.0000   1.0000   1.0000
     1.0000   1.0000   1.0000   1.0000   0.0000   0.0000   0.0000   0.0000
     0.0000   0.0000   0.0000   0.0000

          k =-0.2652-0.4419 0.4419 (  8951 PWs)   bands (ev):

   -14.7047 -14.7047 -14.6944 -14.6944 -14.6245 -14.6245 -14.5586 -14.5586
   -14.5543 -14.5543 -14.4396 -14.4396 -14.4266 -14.4266 -14.4030 -14.4030
   -14.3202 -14.3202 -14.3096 -14.3096  -1.6453  -1.6453   0.9079   0.9079
     4.9459   4.9459   5.6524   5.6524   7.7902   7.7902   9.8983   9.8983
    10.6054  10.6054  12.5489  12.5489

     occupation numbers 
     1.0000   1.0000   1.0000   1.0000   1.0000   1.0000   1.0000   1.0000
     1.0000   1.0000   1.0000   1.0000   1.0000   1.0000   1.0000   1.0000
     1.0000   1.0000   1.0000   1.0000   1.0000   1.0000   1.0000   1.0000
     1.0000   1.0000   1.0000   1.0000   0.0000   0.0000   0.0000   0.0000
     0.0000   0.0000   0.0000   0.0000

          k =-0.2210-0.3977 0.3977 (  8952 PWs)   bands (ev):

   -14.7046 -14.7046 -14.6959 -14.6959 -14.6218 -14.6218 -14.5594 -14.5594
   -14.5543 -14.5543 -14.4322 -14.4322 -14.4305 -14.4305 -14.4085 -14.4085
   -14.3180 -14.3180 -14.3101 -14.3101  -1.6099  -1.6099   0.8527   0.8527
     4.8690   4.8690   5.7333   5.7333   7.7577   7.7577   9.9977   9.9977
    10.4900  10.4900  12.8554  12.8554

     occupation numbers 
     1.0000   1.0000   1.0000   1.0000   1.0000   1.0000   1.0000   1.0000
     1.0000   1.0000   1.0000   1.0000   1.0000   1.0000   1.0000   1.0000
     1.0000   1.0000   1.0000   1.0000   1.0000   1.0000   1.0000   1.0000
     1.0000   1.0000   1.0000   1.0000   0.0000   0.0000   0.0000   0.0000
     0.0000   0.0000   0.0000   0.0000

          k =-0.1768-0.3536 0.3536 (  8958 PWs)   bands (ev):

   -14.7024 -14.7024 -14.6962 -14.6962 -14.6234 -14.6234 -14.5658 -14.5658
   -14.5529 -14.5529 -14.4352 -14.4352 -14.4202 -14.4202 -14.4095 -14.4095
   -14.3172 -14.3172 -14.3133 -14.3133  -1.7819  -1.7819   1.1320   1.1320
     4.8626   4.8626   5.8685   5.8685   7.7685   7.7685  10.0990  10.0990
    10.3615  10.3615  12.6001  12.6001

     occupation numbers 
     1.0000   1.0000   1.0000   1.0000   1.0000   1.0000   1.0000   1.0000
     1.0000   1.0000   1.0000   1.0000   1.0000   1.0000   1.0000   1.0000
     1.0000   1.0000   1.0000   1.0000   1.0000   1.0000   1.0000   1.0000
     1.0000   1.0000   1.0000   1.0000   0.0000   0.0000   0.0000   0.0000
     0.0000   0.0000   0.0000   0.0000

          k =-0.1326-0.3094 0.3094 (  8975 PWs)   bands (ev):

   -14.6981 -14.6981 -14.6953 -14.6953 -14.6289 -14.6289 -14.5727 -14.5727
   -14.5553 -14.5553 -14.4346 -14.4346 -14.4147 -14.4147 -14.4012 -14.4012
   -14.3188 -14.3188 -14.3180 -14.3180  -2.0599  -2.0599   1.6388   1.6388
     4.9332   4.9332   6.0499   6.0499   7.8151   7.8151  10.1795  10.1795
    10.2016  10.2016  11.9472  11.9472

     occupation numbers 
     1.0000   1.0000   1.0000   1.0000   1.0000   1.0000   1.0000   1.0000
     1.0000   1.0000   1.0000   1.0000   1.0000   1.0000   1.0000   1.0000
     1.0000   1.0000   1.0000   1.0000   1.0000   1.0000   1.0000   1.0000
     1.0000   1.0000   1.0000   1.0000   0.0000   0.0000   0.0000   0.0000
     0.0000   0.0000   0.0000   0.0000

          k =-0.0884-0.2652 0.2652 (  8982 PWs)   bands (ev):

   -14.6928 -14.6928 -14.6922 -14.6922 -14.6371 -14.6371 -14.5797 -14.5797
   -14.5617 -14.5617 -14.4299 -14.4299 -14.4109 -14.4109 -14.3882 -14.3882
   -14.3267 -14.3267 -14.3205 -14.3205  -2.3523  -2.3523   2.2667   2.2667
     5.0902   5.0902   6.2635   6.2635   7.8791   7.8791   9.9869   9.9869
    10.1467  10.1467  11.3377  11.3377

     occupation numbers 
     1.0000   1.0000   1.0000   1.0000   1.0000   1.0000   1.0000   1.0000
     1.0000   1.0000   1.0000   1.0000   1.0000   1.0000   1.0000   1.0000
     1.0000   1.0000   1.0000   1.0000   1.0000   1.0000   1.0000   1.0000
     1.0000   1.0000   1.0000   1.0000   0.0000   0.0000   0.0000   0.0000
     0.0000   0.0000   0.0000   0.0000

          k =-0.0442-0.2210 0.2210 (  8975 PWs)   bands (ev):

   -14.6887 -14.6887 -14.6849 -14.6849 -14.6461 -14.6461 -14.5871 -14.5871
   -14.5714 -14.5714 -14.4217 -14.4217 -14.4054 -14.4054 -14.3755 -14.3755
   -14.3364 -14.3364 -14.3248 -14.3248  -2.6133  -2.6133   2.9425   2.9425
     5.3484   5.3484   6.4858   6.4858   7.9160   7.9160   9.7241   9.7241
     9.8868   9.8868  10.9546  10.9546

     occupation numbers 
     1.0000   1.0000   1.0000   1.0000   1.0000   1.0000   1.0000   1.0000
     1.0000   1.0000   1.0000   1.0000   1.0000   1.0000   1.0000   1.0000
     1.0000   1.0000   1.0000   1.0000   1.0000   1.0000   1.0000   1.0000
     1.0000   1.0000   1.0000   1.0000   0.0000   0.0000   0.0000   0.0000
     0.0000   0.0000   0.0000   0.0000

          k = 0.0000-0.1768 0.1768 (  8999 PWs)   bands (ev):

   -14.6831 -14.6831 -14.6774 -14.6774 -14.6539 -14.6539 -14.5945 -14.5945
   -14.5828 -14.5828 -14.4111 -14.4111 -14.3982 -14.3982 -14.3657 -14.3657
   -14.3467 -14.3467 -14.3309 -14.3309  -2.8221  -2.8221   3.5980   3.5980
     5.7287   5.7287   6.6757   6.6757   7.8351   7.8351   9.4742   9.4742
     9.5720   9.5720  10.6139  10.6139

     occupation numbers 
[...]

     occupation numbers 
     1.0000   1.0000   1.0000   1.0000   1.0000   1.0000   1.0000   1.0000
     1.0000   1.0000   1.0000   1.0000   1.0000   1.0000   1.0000   1.0000
     1.0000   1.0000   1.0000   1.0000   1.0000   1.0000   1.0000   1.0000
     1.0000   1.0000   1.0000   1.0000   0.0000   0.0000   0.0000   0.0000
     0.0000   0.0000   0.0000   0.0000

          k =-0.1326-0.3977 0.5745 (  8953 PWs)   bands (ev):

   -14.7187 -14.7187 -14.7060 -14.7060 -14.5929 -14.5929 -14.5329 -14.5329
   -14.5123 -14.5123 -14.4900 -14.4900 -14.4557 -14.4557 -14.4243 -14.4243
   -14.3064 -14.3064 -14.2939 -14.2939  -1.1390  -1.1390   0.5117   0.5117
     4.0325   4.0325   4.9937   4.9937   8.8405   8.8405  10.0819  10.0819
    11.3595  11.3595  12.0452  12.0452

     occupation numbers 
     1.0000   1.0000   1.0000   1.0000   1.0000   1.0000   1.0000   1.0000
     1.0000   1.0000   1.0000   1.0000   1.0000   1.0000   1.0000   1.0000
     1.0000   1.0000   1.0000   1.0000   1.0000   1.0000   1.0000   1.0000
     1.0000   1.0000   1.0000   1.0000   0.0000   0.0000   0.0000   0.0000
     0.0000   0.0000   0.0000   0.0000

          k =-0.0884-0.3536 0.5303 (  8951 PWs)   bands (ev):

   -14.7186 -14.7186 -14.7060 -14.7060 -14.5924 -14.5924 -14.5358 -14.5358
   -14.5138 -14.5138 -14.4859 -14.4859 -14.4550 -14.4550 -14.4254 -14.4254
   -14.3063 -14.3063 -14.2942 -14.2942  -1.1936  -1.1936   0.5809   0.5809
     3.9994   3.9994   5.0628   5.0628   8.8859   8.8859  10.0734  10.0734
    11.4235  11.4235  12.0064  12.0064

     occupation numbers 
     1.0000   1.0000   1.0000   1.0000   1.0000   1.0000   1.0000   1.0000
     1.0000   1.0000   1.0000   1.0000   1.0000   1.0000   1.0000   1.0000
     1.0000   1.0000   1.0000   1.0000   1.0000   1.0000   1.0000   1.0000
     1.0000   1.0000   1.0000   1.0000   0.0000   0.0000   0.0000   0.0000
     0.0000   0.0000   0.0000   0.0000

          k =-0.0442-0.3094 0.4861 (  8959 PWs)   bands (ev):

   -14.7152 -14.7152 -14.7050 -14.7050 -14.5993 -14.5993 -14.5463 -14.5463
   -14.5161 -14.5161 -14.4835 -14.4835 -14.4420 -14.4420 -14.4210 -14.4210
   -14.3074 -14.3074 -14.2983 -14.2983  -1.4373  -1.4373   0.9003   0.9003
     4.0707   4.0707   5.2053   5.2053   8.9379   8.9379   9.9578   9.9578
    10.8451  10.8451  12.2330  12.2330

     occupation numbers 
     1.0000   1.0000   1.0000   1.0000   1.0000   1.0000   1.0000   1.0000
     1.0000   1.0000   1.0000   1.0000   1.0000   1.0000   1.0000   1.0000
     1.0000   1.0000   1.0000   1.0000   1.0000   1.0000   1.0000   1.0000
     1.0000   1.0000   1.0000   1.0000   0.0000   0.0000   0.0000   0.0000
     0.0000   0.0000   0.0000   0.0000

          k = 0.0000-0.2652 0.4419 (  8970 PWs)   bands (ev):

   -14.7091 -14.7091 -14.7027 -14.7027 -14.6121 -14.6121 -14.5571 -14.5571
   -14.5236 -14.5236 -14.4774 -14.4774 -14.4271 -14.4271 -14.4104 -14.4104
   -14.3101 -14.3101 -14.3058 -14.3058  -1.7354  -1.7354   1.3196   1.3196
     4.2655   4.2655   5.3957   5.3957   8.9375   8.9375   9.6035   9.6035
    10.6685  10.6685  12.0066  12.0066

     occupation numbers 
     1.0000   1.0000   1.0000   1.0000   1.0000   1.0000   1.0000   1.0000
     1.0000   1.0000   1.0000   1.0000   1.0000   1.0000   1.0000   1.0000
     1.0000   1.0000   1.0000   1.0000   1.0000   1.0000   1.0000   1.0000
     1.0000   1.0000   1.0000   1.0000   0.0000   0.0000   0.0000   0.0000
     0.0000   0.0000   0.0000   0.0000

          k =-0.1768-0.5303 0.7071 (  8939 PWs)   bands (ev):

   -14.7073 -14.7073 -14.7055 -14.7055 -14.6157 -14.6157 -14.5375 -14.5375
   -14.5183 -14.5183 -14.4925 -14.4925 -14.4435 -14.4435 -14.3999 -14.3999
   -14.3074 -14.3074 -14.3061 -14.3061  -1.4440  -1.4440   0.9380   0.9380
     4.4361   4.4361   4.8667   4.8667   8.5820   8.5820   8.9376   8.9376
    11.3568  11.3568  12.9678  12.9678

     occupation numbers 
     1.0000   1.0000   1.0000   1.0000   1.0000   1.0000   1.0000   1.0000
     1.0000   1.0000   1.0000   1.0000   1.0000   1.0000   1.0000   1.0000
     1.0000   1.0000   1.0000   1.0000   1.0000   1.0000   1.0000   1.0000
     1.0000   1.0000   1.0000   1.0000   0.0000   0.0000   0.0000   0.0000
     0.0000   0.0000   0.0000   0.0000

          k =-0.1326-0.4861 0.6629 (  8966 PWs)   bands (ev):

   -14.7141 -14.7141 -14.7079 -14.7079 -14.5984 -14.5984 -14.5273 -14.5273
   -14.5231 -14.5231 -14.4863 -14.4863 -14.4558 -14.4558 -14.4172 -14.4172
   -14.3045 -14.3045 -14.2983 -14.2983  -1.1401  -1.1401   0.5539   0.5539
     4.2063   4.2063   4.7452   4.7452   8.7481   8.7481   9.4124   9.4124
    11.1820  11.1820  12.9210  12.9210

     occupation numbers 
     1.0000   1.0000   1.0000   1.0000   1.0000   1.0000   1.0000   1.0000
     1.0000   1.0000   1.0000   1.0000   1.0000   1.0000   1.0000   1.0000
     1.0000   1.0000   1.0000   1.0000   1.0000   1.0000   1.0000   1.0000
     1.0000   1.0000   1.0000   1.0000   0.0000   0.0000   0.0000   0.0000
     0.0000   0.0000   0.0000   0.0000

          k =-0.0884-0.4419 0.6187 (  8950 PWs)   bands (ev):

   -14.7191 -14.7191 -14.7088 -14.7088 -14.5858 -14.5858 -14.5229 -14.5229
   -14.5154 -14.5154 -14.4884 -14.4884 -14.4669 -14.4669 -14.4290 -14.4290
   -14.3031 -14.3031 -14.2929 -14.2929  -0.9021  -0.9021   0.2783   0.2783
     4.0084   4.0084   4.7357   4.7357   8.8033   8.8033  10.1395  10.1395
    11.0785  11.0785  12.3413  12.3413

     occupation numbers 
     1.0000   1.0000   1.0000   1.0000   1.0000   1.0000   1.0000   1.0000
     1.0000   1.0000   1.0000   1.0000   1.0000   1.0000   1.0000   1.0000
     1.0000   1.0000   1.0000   1.0000   1.0000   1.0000   1.0000   1.0000
     1.0000   1.0000   1.0000   1.0000   0.0000   0.0000   0.0000   0.0000
     0.0000   0.0000   0.0000   0.0000

          k =-0.0442-0.3977 0.5745 (  8956 PWs)   bands (ev):

   -14.7210 -14.7210 -14.7088 -14.7088 -14.5826 -14.5826 -14.5195 -14.5195
   -14.5069 -14.5069 -14.4963 -14.4963 -14.4713 -14.4713 -14.4319 -14.4319
   -14.3030 -14.3030 -14.2911 -14.2911  -0.9042  -0.9042   0.2832   0.2832
     3.8957   3.8957   4.8246   4.8246   8.8804   8.8804  10.6079  10.6079
    11.2948  11.2948  11.6120  11.6120

     occupation numbers 
     1.0000   1.0000   1.0000   1.0000   1.0000   1.0000   1.0000   1.0000
     1.0000   1.0000   1.0000   1.0000   1.0000   1.0000   1.0000   1.0000
     1.0000   1.0000   1.0000   1.0000   1.0000   1.0000   1.0000   1.0000
     1.0000   1.0000   1.0000   1.0000   0.0000   0.0000   0.0000   0.0000
     0.0000   0.0000   0.0000   0.0000

          k = 0.0000-0.3536 0.5303 (  8950 PWs)   bands (ev):

   -14.7196 -14.7196 -14.7077 -14.7077 -14.5877 -14.5877 -14.5315 -14.5315
   -14.5041 -14.5041 -14.4959 -14.4959 -14.4607 -14.4607 -14.4285 -14.4285
   -14.3043 -14.3043 -14.2930 -14.2930  -1.1397  -1.1397   0.5523   0.5523
     3.9081   3.9081   4.9902   4.9902   8.9588   8.9588  10.4660  10.4660
    10.9178  10.9178  12.0975  12.0975

     occupation numbers 
     1.0000   1.0000   1.0000   1.0000   1.0000   1.0000   1.0000   1.0000
     1.0000   1.0000   1.0000   1.0000   1.0000   1.0000   1.0000   1.0000
     1.0000   1.0000   1.0000   1.0000   1.0000   1.0000   1.0000   1.0000
     1.0000   1.0000   1.0000   1.0000   0.0000   0.0000   0.0000   0.0000
     0.0000   0.0000   0.0000   0.0000

          k =-0.0884-0.5303 0.7071 (  8961 PWs)   bands (ev):

   -14.7108 -14.7108 -14.7096 -14.7096 -14.5966 -14.5966 -14.5470 -14.5470
   -14.5145 -14.5145 -14.4663 -14.4663 -14.4659 -14.4659 -14.4182 -14.4182
   -14.3023 -14.3023 -14.3012 -14.3012  -0.9175  -0.9175   0.2864   0.2864
     4.3626   4.3626   4.5767   4.5767   8.5504   8.5504   8.7587   8.7587
    12.0305  12.0305  13.2566  13.2566

     occupation numbers 
     1.0000   1.0000   1.0000   1.0000   1.0000   1.0000   1.0000   1.0000
     1.0000   1.0000   1.0000   1.0000   1.0000   1.0000   1.0000   1.0000
     1.0000   1.0000   1.0000   1.0000   1.0000   1.0000   1.0000   1.0000
     1.0000   1.0000   1.0000   1.0000   0.0000   0.0000   0.0000   0.0000
     0.0000   0.0000   0.0000   0.0000

          k =-0.0442-0.4861 0.6629 (  8953 PWs)   bands (ev):

   -14.7164 -14.7164 -14.7107 -14.7107 -14.5798 -14.5798 -14.5478 -14.5478
   -14.5040 -14.5040 -14.4790 -14.4790 -14.4639 -14.4639 -14.4341 -14.4341
   -14.3009 -14.3009 -14.2952 -14.2952  -0.6338  -0.6338  -0.0136  -0.0136
     4.1525   4.1525   4.5353   4.5353   8.6956   8.6956   9.3600   9.3600
    11.8478  11.8478  12.5583  12.5583

     occupation numbers 
     1.0000   1.0000   1.0000   1.0000   1.0000   1.0000   1.0000   1.0000
     1.0000   1.0000   1.0000   1.0000   1.0000   1.0000   1.0000   1.0000
     1.0000   1.0000   1.0000   1.0000   1.0000   1.0000   1.0000   1.0000
     1.0000   1.0000   1.0000   1.0000   0.0000   0.0000   0.0000   0.0000
     0.0000   0.0000   0.0000   0.0000

          k = 0.0000-0.4419 0.6187 (  8946 PWs)   bands (ev):

   -14.7203 -14.7203 -14.7103 -14.7103 -14.5769 -14.5769 -14.5317 -14.5317
   -14.5031 -14.5031 -14.4831 -14.4831 -14.4773 -14.4773 -14.4365 -14.4365
   -14.3012 -14.3012 -14.2914 -14.2914  -0.6360  -0.6360  -0.0022  -0.0022
     3.9596   3.9596   4.6399   4.6399   8.7830   8.7830  10.1779  10.1779
    11.6894  11.6894  11.7006  11.7006

     occupation numbers 
     1.0000   1.0000   1.0000   1.0000   1.0000   1.0000   1.0000   1.0000
     1.0000   1.0000   1.0000   1.0000   1.0000   1.0000   1.0000   1.0000
     1.0000   1.0000   1.0000   1.0000   1.0000   1.0000   1.0000   1.0000
     1.0000   1.0000   1.0000   1.0000   0.0000   0.0000   0.0000   0.0000
     0.0000   0.0000   0.0000   0.0000

          k =-0.7071 0.1768 0.0000 (  8952 PWs)   bands (ev):

   -14.7115 -14.7115 -14.7115 -14.7115 -14.5734 -14.5734 -14.5734 -14.5734
   -14.4904 -14.4904 -14.4904 -14.4904 -14.4406 -14.4406 -14.4406 -14.4406
   -14.2999 -14.2999 -14.2999 -14.2999  -0.3365  -0.3365  -0.3365  -0.3365
     4.4083   4.4083   4.4083   4.4083   8.6136   8.6136   8.6136   8.6136
    12.7528  12.7528  12.7528  12.7528

     occupation numbers 
     1.0000   1.0000   1.0000   1.0000   1.0000   1.0000   1.0000   1.0000
     1.0000   1.0000   1.0000   1.0000   1.0000   1.0000   1.0000   1.0000
     1.0000   1.0000   1.0000   1.0000   1.0000   1.0000   1.0000   1.0000
     1.0000   1.0000   1.0000   1.0000   0.0000   0.0000   0.0000   0.0000
     0.0000   0.0000   0.0000   0.0000

          k =-0.1768-0.4419 0.7071 (  8968 PWs)   bands (ev):

   -14.7142 -14.7142 -14.7080 -14.7080 -14.5978 -14.5978 -14.5378 -14.5378
   -14.5047 -14.5047 -14.5007 -14.5007 -14.4474 -14.4474 -14.4196 -14.4196
   -14.3044 -14.3044 -14.2989 -14.2989  -1.3103  -1.3103   0.7652   0.7652
     4.1274   4.1274   4.9029   4.9029   9.3369   9.3369   9.4670   9.4670
    10.6220  10.6220  12.6973  12.6973

     occupation numbers 
     1.0000   1.0000   1.0000   1.0000   1.0000   1.0000   1.0000   1.0000
     1.0000   1.0000   1.0000   1.0000   1.0000   1.0000   1.0000   1.0000
     1.0000   1.0000   1.0000   1.0000   1.0000   1.0000   1.0000   1.0000
     1.0000   1.0000   1.0000   1.0000   0.0000   0.0000   0.0000   0.0000
     0.0000   0.0000   0.0000   0.0000

          k =-0.1326-0.3977 0.6629 (  8948 PWs)   bands (ev):

   -14.7185 -14.7185 -14.7101 -14.7101 -14.5841 -14.5841 -14.5273 -14.5273
   -14.5097 -14.5097 -14.4944 -14.4944 -14.4616 -14.4616 -14.4311 -14.4311
   -14.3020 -14.3020 -14.2938 -14.2938  -1.0268  -1.0268   0.4262   0.4262
     4.0001   4.0001   4.7475   4.7475   9.3622   9.3622   9.9600   9.9600
    10.7335  10.7335  12.2274  12.2274

     occupation numbers 
     1.0000   1.0000   1.0000   1.0000   1.0000   1.0000   1.0000   1.0000
     1.0000   1.0000   1.0000   1.0000   1.0000   1.0000   1.0000   1.0000
     1.0000   1.0000   1.0000   1.0000   1.0000   1.0000   1.0000   1.0000
     1.0000   1.0000   1.0000   1.0000   0.0000   0.0000   0.0000   0.0000
     0.0000   0.0000   0.0000   0.0000

          k =-0.0884-0.3536 0.6187 (  8940 PWs)   bands (ev):

   -14.7201 -14.7201 -14.7107 -14.7107 -14.5788 -14.5788 -14.5234 -14.5234
   -14.5077 -14.5077 -14.4951 -14.4951 -14.4681 -14.4681 -14.4353 -14.4353
   -14.3013 -14.3013 -14.2919 -14.2919  -0.8888  -0.8888   0.2687   0.2687
     3.9596   3.9596   4.6906   4.6906   9.3618   9.3618  10.0840  10.0840
    11.2565  11.2565  11.5471  11.5471

     occupation numbers 
     1.0000   1.0000   1.0000   1.0000   1.0000   1.0000   1.0000   1.0000
     1.0000   1.0000   1.0000   1.0000   1.0000   1.0000   1.0000   1.0000
     1.0000   1.0000   1.0000   1.0000   1.0000   1.0000   1.0000   1.0000
     1.0000   1.0000   1.0000   1.0000   0.0000   0.0000   0.0000   0.0000
     0.0000   0.0000   0.0000   0.0000

          k =-0.0884-0.4419 0.7071 (  8942 PWs)   bands (ev):

   -14.7165 -14.7165 -14.7128 -14.7128 -14.5793 -14.5793 -14.5317 -14.5317
   -14.5160 -14.5160 -14.4770 -14.4770 -14.4697 -14.4697 -14.4347 -14.4347
   -14.2990 -14.2990 -14.2954 -14.2954  -0.8341  -0.8341   0.2162   0.2162
     4.1177   4.1177   4.5092   4.5092   9.4083   9.4083   9.4515   9.4515
    11.0025  11.0025  12.3958  12.3958

     occupation numbers 
     1.0000   1.0000   1.0000   1.0000   1.0000   1.0000   1.0000   1.0000
     1.0000   1.0000   1.0000   1.0000   1.0000   1.0000   1.0000   1.0000
     1.0000   1.0000   1.0000   1.0000   1.0000   1.0000   1.0000   1.0000
     1.0000   1.0000   1.0000   1.0000   0.0000   0.0000   0.0000   0.0000
     0.0000   0.0000   0.0000   0.0000

          k =-0.0442-0.3977 0.6629 (  8939 PWs)   bands (ev):

   -14.7192 -14.7192 -14.7140 -14.7140 -14.5669 -14.5669 -14.5333 -14.5333
   -14.5069 -14.5069 -14.4828 -14.4828 -14.4735 -14.4735 -14.4451 -14.4451
   -14.2976 -14.2976 -14.2925 -14.2925  -0.6142  -0.6142  -0.0131  -0.0131
     4.0361   4.0361   4.4289   4.4289   9.4886   9.4886  10.1599  10.1599
    10.9220  10.9220  11.5379  11.5379

     occupation numbers 
     1.0000   1.0000   1.0000   1.0000   1.0000   1.0000   1.0000   1.0000
     1.0000   1.0000   1.0000   1.0000   1.0000   1.0000   1.0000   1.0000
     1.0000   1.0000   1.0000   1.0000   1.0000   1.0000   1.0000   1.0000
     1.0000   1.0000   1.0000   1.0000   0.0000   0.0000   0.0000   0.0000
     0.0000   0.0000   0.0000   0.0000

          k =-0.0000-0.3536 0.6187 (  8944 PWs)   bands (ev):

   -14.7200 -14.7200 -14.7130 -14.7130 -14.5707 -14.5707 -14.5231 -14.5231
   -14.5132 -14.5132 -14.4821 -14.4821 -14.4777 -14.4777 -14.4417 -14.4417
   -14.2987 -14.2987 -14.2918 -14.2918  -0.7362  -0.7362   0.1169   0.1169
     3.9708   3.9708   4.5329   4.5329   9.5395   9.5395  10.3410  10.3410
    10.8112  10.8112  11.4421  11.4421

     occupation numbers 
     1.0000   1.0000   1.0000   1.0000   1.0000   1.0000   1.0000   1.0000
     1.0000   1.0000   1.0000   1.0000   1.0000   1.0000   1.0000   1.0000
     1.0000   1.0000   1.0000   1.0000   1.0000   1.0000   1.0000   1.0000
     1.0000   1.0000   1.0000   1.0000   0.0000   0.0000   0.0000   0.0000
     0.0000   0.0000   0.0000   0.0000

          k =-0.7071 0.2652 0.0000 (  8946 PWs)   bands (ev):

   -14.7159 -14.7159 -14.7159 -14.7159 -14.5570 -14.5570 -14.5570 -14.5570
   -14.4929 -14.4929 -14.4929 -14.4929 -14.4544 -14.4544 -14.4544 -14.4544
   -14.2957 -14.2957 -14.2957 -14.2957  -0.3206  -0.3206  -0.3206  -0.3206
     4.2443   4.2443   4.2443   4.2443   9.4194   9.4194   9.4194   9.4194
    11.6717  11.6717  11.6717  11.6717

     occupation numbers 
     1.0000   1.0000   1.0000   1.0000   1.0000   1.0000   1.0000   1.0000
     1.0000   1.0000   1.0000   1.0000   1.0000   1.0000   1.0000   1.0000
     1.0000   1.0000   1.0000   1.0000   1.0000   1.0000   1.0000   1.0000
     1.0000   1.0000   1.0000   1.0000   0.0000   0.0000   0.0000   0.0000
     0.0000   0.0000   0.0000   0.0000

          k =-0.7071 0.3536 0.0000 (  8940 PWs)   bands (ev):

   -14.7176 -14.7176 -14.7176 -14.7176 -14.5487 -14.5487 -14.5487 -14.5487
   -14.4952 -14.4952 -14.4952 -14.4952 -14.4604 -14.4604 -14.4604 -14.4604
   -14.2940 -14.2940 -14.2940 -14.2940  -0.3140  -0.3140  -0.3140  -0.3140
     4.1820   4.1820   4.1820   4.1820  10.0854  10.0854  10.0854  10.0854
    10.9090  10.9090  10.9090  10.9090

     occupation numbers 
     1.0000   1.0000   1.0000   1.0000   1.0000   1.0000   1.0000   1.0000
     1.0000   1.0000   1.0000   1.0000   1.0000   1.0000   1.0000   1.0000
     1.0000   1.0000   1.0000   1.0000   1.0000   1.0000   1.0000   1.0000
     1.0000   1.0000   1.0000   1.0000   0.0000   0.0000   0.0000   0.0000
     0.0000   0.0000   0.0000   0.0000

     the Fermi energy is     6.9077 ev

!    total energy              =    -884.12396099 Ry
     Harris-Foulkes estimate   =    -884.12396085 Ry
     estimated scf accuracy    <       0.00000012 Ry

     total all-electron energy =    -24709.379534 Ry

     The total energy is the sum of the following terms:

     one-electron contribution =    -154.08842276 Ry
     hartree contribution      =      95.64205541 Ry
     xc contribution           =     -96.23716484 Ry
     ewald contribution        =    -167.52979533 Ry
     one-center paw contrib.   =    -561.91063331 Ry
     smearing contrib. (-TS)   =      -0.00000015 Ry

     convergence has been achieved in   5 iterations

     Writing output data file Sn.save
 
     init_run     :      5.81s CPU      6.89s WALL (       1 calls)
     electrons    :    109.01s CPU    128.78s WALL (       1 calls)

     Called by init_run:
     wfcinit      :      5.50s CPU      6.48s WALL (       1 calls)
     potinit      :      0.08s CPU      0.10s WALL (       1 calls)

     Called by electrons:
     c_bands      :     92.54s CPU    109.18s WALL (       6 calls)
     sum_band     :     16.00s CPU     18.92s WALL (       6 calls)
     v_of_rho     :      0.05s CPU      0.06s WALL (       6 calls)
     v_h          :      0.00s CPU      0.00s WALL (       6 calls)
     v_xc         :      0.05s CPU      0.06s WALL (       6 calls)
     newd         :      0.09s CPU      0.12s WALL (       6 calls)
     PAW_pot      :      0.37s CPU      0.43s WALL (       6 calls)
     mix_rho      :      0.02s CPU      0.04s WALL (       6 calls)

     Called by c_bands:
     init_us_2    :      0.30s CPU      0.42s WALL (    1885 calls)
     cegterg      :     89.30s CPU    105.64s WALL (     870 calls)

     Called by sum_band:
     sum_band:bec :      0.05s CPU      0.06s WALL (     870 calls)
     addusdens    :      0.09s CPU      0.13s WALL (       6 calls)

     Called by *egterg:
     h_psi        :     76.05s CPU     88.97s WALL (    3106 calls)
     s_psi        :      1.25s CPU      1.27s WALL (    3106 calls)
     g_psi        :      0.34s CPU      0.35s WALL (    2091 calls)
     cdiaghg      :      6.27s CPU      6.34s WALL (    2816 calls)
     cegterg:over :      3.51s CPU      3.54s WALL (    2091 calls)
     cegterg:upda :      2.24s CPU      2.26s WALL (    2091 calls)
     cegterg:last :      0.93s CPU      0.94s WALL (     870 calls)

     Called by h_psi:
     h_psi:vloc   :     72.84s CPU     85.52s WALL (    3106 calls)
     h_psi:vnl    :      2.88s CPU      3.07s WALL (    3106 calls)
     add_vuspsi   :      1.34s CPU      1.39s WALL (    3106 calls)

     General routines
     calbec       :      2.06s CPU      2.27s WALL (    3976 calls)
     fft          :      0.06s CPU      0.08s WALL (     116 calls)
     fftw         :     79.29s CPU     93.40s WALL (  394392 calls)
     davcio       :      0.05s CPU      0.41s WALL (     145 calls)
 
     Parallel routines
     fft_scatter  :     33.12s CPU     38.94s WALL (  394508 calls)

     PAW routines
     PAW_pot      :      0.37s CPU      0.43s WALL (       6 calls)
     PAW_symme    :      0.01s CPU      0.01s WALL (      12 calls)
 
     PWSCF        :  1m55.50s CPU     2m16.93s WALL

 
   This run was terminated on:  11:41:26  17Mar2020            

=------------------------------------------------------------------------------=
   JOB DONE.
=------------------------------------------------------------------------------=
