
     Program PWSCF v.5.4.0 starts on 16Mar2020 at 22:54:39 

     This program is part of the open-source Quantum ESPRESSO suite
     for quantum simulation of materials; please cite
         "P. Giannozzi et al., J. Phys.:Condens. Matter 21 395502 (2009);
          URL http://www.quantum-espresso.org", 
     in publications or presentations arising from this work. More details at
     http://www.quantum-espresso.org/quote

     Parallel version (MPI & OpenMP), running on      16 processor cores
     Number of MPI processes:                16
     Threads/MPI process:                     1
     R & G space division:  proc/nbgrp/npool/nimage =      16
     Waiting for input...
     Reading input from standard input
Warning: card &IONS ignored
Warning: card / ignored
Warning: card &CELL ignored
Warning: card / ignored

     Current dimensions of program PWSCF are:
     Max number of different atomic species (ntypx) = 10
     Max number of k-points (npk) =  40000
     Max angular momentum in pseudopotentials (lmaxx) =  3
               file Sn.pbe-dn-kjpaw_psl.1.0.0.UPF: wavefunction(s)  5S 5P 4D renormalized
     Message from routine setup:
     At least one non s.o. pseudo

     Subspace diagonalization in iterative solution of the eigenvalue problem:
     a serial algorithm will be used

 
     Parallelization info
     --------------------
     sticks:   dense  smooth     PW     G-vecs:    dense   smooth      PW
     Min         102     102     29                 2742     2742     427
     Max         103     103     30                 2746     2746     430
     Sum        1639    1639    475                43895    43895    6855
 

     Title: 
     Sn                                                                         


     bravais-lattice index     =            0
     lattice parameter (alat)  =       8.9127  a.u.
     unit-cell volume          =     500.6268 (a.u.)^3
     number of atoms/cell      =            2
     number of atomic types    =            1
     number of electrons       =        28.00
     number of Kohn-Sham states=           36
     kinetic-energy cutoff     =      75.0000  Ry
     charge density cutoff     =     300.0000  Ry
     convergence threshold     =      1.0E-06
     mixing beta               =       0.7000
     number of iterations used =            8  plain     mixing
     Exchange-correlation      =  SLA  PW   PBX  PBC ( 1  4  3  4 0 0)
     Non magnetic calculation with spin-orbit


     celldm(1)=   8.912709  celldm(2)=   0.000000  celldm(3)=   0.000000
     celldm(4)=   0.000000  celldm(5)=   0.000000  celldm(6)=   0.000000

     crystal axes: (cart. coord. in units of alat)
               a(1) = (   0.000000   0.707107   0.707107 )  
               a(2) = (   0.707107   0.000000   0.707107 )  
               a(3) = (   0.707107   0.707107   0.000000 )  

     reciprocal axes: (cart. coord. in units 2 pi/alat)
               b(1) = ( -0.707107  0.707107  0.707107 )  
               b(2) = (  0.707107 -0.707107  0.707107 )  
               b(3) = (  0.707107  0.707107 -0.707107 )  


     PseudoPot. # 1 for Sn read from file:
     ../PseudopotentialDatabase/Sn.pbe-dn-kjpaw_psl.1.0.0.UPF
     MD5 check sum: 67f11dec737d427557dc41ea34975807
     Pseudo is Projector augmented-wave + core cor, Zval = 14.0
     Generated using "atomic" code by A. Dal Corso  v.6.3
     Shape of augmentation charge: PSQ
     Using radial grid of 1243 points,  6 beta functions with: 
                l(1) =   0
                l(2) =   0
                l(3) =   1
                l(4) =   1
                l(5) =   2
                l(6) =   2
     Q(r) pseudized with 0 coefficients 


     atomic species   valence    mass     pseudopotential
        Sn            14.00   118.71000     Sn( 1.00)

     24 Sym. Ops. (no inversion) found
          (note: 24 additional sym.ops. were found but ignored
           their fractional translations are incommensurate with FFT grid)

                                    s                        frac. trans.

      isym =  1     identity                                     

 cryst.   s( 1) = (     1          0          0      )
                  (     0          1          0      )
                  (     0          0          1      )

 cart.    s( 1) = (  1.0000000  0.0000000  0.0000000 )
                  (  0.0000000  1.0000000  0.0000000 )
                  (  0.0000000  0.0000000  1.0000000 )


      isym =  2     180 deg rotation - cart. axis [0,0,1]        

 cryst.   s( 2) = (     0          1         -1      )
                  (     1          0         -1      )
                  (     0          0         -1      )

 cart.    s( 2) = ( -1.0000000  0.0000000  0.0000000 )
                  (  0.0000000 -1.0000000  0.0000000 )
                  (  0.0000000  0.0000000  1.0000000 )


      isym =  3     180 deg rotation - cart. axis [0,1,0]        

 cryst.   s( 3) = (     0         -1          1      )
                  (     0         -1          0      )
                  (     1         -1          0      )

 cart.    s( 3) = ( -1.0000000  0.0000000  0.0000000 )
                  (  0.0000000  1.0000000  0.0000000 )
                  (  0.0000000  0.0000000 -1.0000000 )


      isym =  4     180 deg rotation - cart. axis [1,0,0]        

 cryst.   s( 4) = (    -1          0          0      )
                  (    -1          0          1      )
                  (    -1          1          0      )

 cart.    s( 4) = (  1.0000000  0.0000000  0.0000000 )
                  (  0.0000000 -1.0000000  0.0000000 )
                  (  0.0000000  0.0000000 -1.0000000 )


      isym =  5     120 deg rotation - cart. axis [-1,-1,-1]     

 cryst.   s( 5) = (     0          0          1      )
                  (     1          0          0      )
                  (     0          1          0      )

 cart.    s( 5) = (  0.0000000  1.0000000  0.0000000 )
                  (  0.0000000  0.0000000  1.0000000 )
                  (  1.0000000  0.0000000  0.0000000 )


      isym =  6     120 deg rotation - cart. axis [-1,1,1]       

 cryst.   s( 6) = (     1         -1          0      )
                  (     0         -1          1      )
                  (     0         -1          0      )

 cart.    s( 6) = (  0.0000000 -1.0000000  0.0000000 )
                  (  0.0000000  0.0000000  1.0000000 )
                  ( -1.0000000  0.0000000  0.0000000 )


      isym =  7     120 deg rotation - cart. axis [1,1,-1]       

 cryst.   s( 7) = (    -1          1          0      )
                  (    -1          0          0      )
                  (    -1          0          1      )

 cart.    s( 7) = (  0.0000000  1.0000000  0.0000000 )
                  (  0.0000000  0.0000000 -1.0000000 )
                  ( -1.0000000  0.0000000  0.0000000 )


      isym =  8     120 deg rotation - cart. axis [1,-1,1]       

 cryst.   s( 8) = (     0          0         -1      )
                  (     0          1         -1      )
                  (     1          0         -1      )

 cart.    s( 8) = (  0.0000000 -1.0000000  0.0000000 )
                  (  0.0000000  0.0000000 -1.0000000 )
                  (  1.0000000  0.0000000  0.0000000 )


      isym =  9     120 deg rotation - cart. axis [1,1,1]        

 cryst.   s( 9) = (     0          1          0      )
                  (     0          0          1      )
                  (     1          0          0      )

 cart.    s( 9) = (  0.0000000  0.0000000  1.0000000 )
                  (  1.0000000  0.0000000  0.0000000 )
                  (  0.0000000  1.0000000  0.0000000 )


      isym = 10     120 deg rotation - cart. axis [-1,1,-1]      

 cryst.   s(10) = (    -1          0          1      )
                  (    -1          1          0      )
                  (    -1          0          0      )

 cart.    s(10) = (  0.0000000  0.0000000  1.0000000 )
                  ( -1.0000000  0.0000000  0.0000000 )
                  (  0.0000000 -1.0000000  0.0000000 )


      isym = 11     120 deg rotation - cart. axis [1,-1,-1]      

 cryst.   s(11) = (     1          0         -1      )
                  (     0          0         -1      )
                  (     0          1         -1      )

 cart.    s(11) = (  0.0000000  0.0000000 -1.0000000 )
                  ( -1.0000000  0.0000000  0.0000000 )
                  (  0.0000000  1.0000000  0.0000000 )


      isym = 12     120 deg rotation - cart. axis [-1,-1,1]      

 cryst.   s(12) = (     0         -1          0      )
                  (     1         -1          0      )
                  (     0         -1          1      )

 cart.    s(12) = (  0.0000000  0.0000000 -1.0000000 )
                  (  1.0000000  0.0000000  0.0000000 )
                  (  0.0000000 -1.0000000  0.0000000 )


      isym = 13     inv. 180 deg rotation - cart. axis [1,1,0]   

 cryst.   s(13) = (     1          0         -1      )
                  (     0          1         -1      )
                  (     0          0         -1      )

 cart.    s(13) = (  0.0000000 -1.0000000  0.0000000 )
                  ( -1.0000000  0.0000000  0.0000000 )
                  (  0.0000000  0.0000000  1.0000000 )


      isym = 14     inv. 180 deg rotation - cart. axis [1,-1,0]  

 cryst.   s(14) = (     0          1          0      )
                  (     1          0          0      )
                  (     0          0          1      )

 cart.    s(14) = (  0.0000000  1.0000000  0.0000000 )
                  (  1.0000000  0.0000000  0.0000000 )
                  (  0.0000000  0.0000000  1.0000000 )


      isym = 15     inv.  90 deg rotation - cart. axis [0,0,-1]  

 cryst.   s(15) = (     0         -1          0      )
                  (     0         -1          1      )
                  (     1         -1          0      )

 cart.    s(15) = (  0.0000000 -1.0000000  0.0000000 )
                  (  1.0000000  0.0000000  0.0000000 )
                  (  0.0000000  0.0000000 -1.0000000 )


      isym = 16     inv.  90 deg rotation - cart. axis [0,0,1]   

 cryst.   s(16) = (    -1          0          1      )
                  (    -1          0          0      )
                  (    -1          1          0      )

 cart.    s(16) = (  0.0000000  1.0000000  0.0000000 )
                  ( -1.0000000  0.0000000  0.0000000 )
                  (  0.0000000  0.0000000 -1.0000000 )


      isym = 17     inv. 180 deg rotation - cart. axis [1,0,1]   

 cryst.   s(17) = (     1         -1          0      )
                  (     0         -1          0      )
                  (     0         -1          1      )

 cart.    s(17) = (  0.0000000  0.0000000 -1.0000000 )
                  (  0.0000000  1.0000000  0.0000000 )
                  ( -1.0000000  0.0000000  0.0000000 )


      isym = 18     inv. 180 deg rotation - cart. axis [-1,0,1]  

 cryst.   s(18) = (     0          0          1      )
                  (     0          1          0      )
                  (     1          0          0      )

 cart.    s(18) = (  0.0000000  0.0000000  1.0000000 )
                  (  0.0000000  1.0000000  0.0000000 )
                  (  1.0000000  0.0000000  0.0000000 )


      isym = 19     inv.  90 deg rotation - cart. axis [0,1,0]   

 cryst.   s(19) = (     0          0         -1      )
                  (     1          0         -1      )
                  (     0          1         -1      )

 cart.    s(19) = (  0.0000000  0.0000000 -1.0000000 )
                  (  0.0000000 -1.0000000  0.0000000 )
                  (  1.0000000  0.0000000  0.0000000 )


      isym = 20     inv.  90 deg rotation - cart. axis [0,-1,0]  

 cryst.   s(20) = (    -1          1          0      )
                  (    -1          0          1      )
                  (    -1          0          0      )

 cart.    s(20) = (  0.0000000  0.0000000  1.0000000 )
                  (  0.0000000 -1.0000000  0.0000000 )
                  ( -1.0000000  0.0000000  0.0000000 )


      isym = 21     inv. 180 deg rotation - cart. axis [0,1,1]   

 cryst.   s(21) = (    -1          0          0      )
                  (    -1          1          0      )
                  (    -1          0          1      )

 cart.    s(21) = (  1.0000000  0.0000000  0.0000000 )
                  (  0.0000000  0.0000000 -1.0000000 )
                  (  0.0000000 -1.0000000  0.0000000 )


      isym = 22     inv. 180 deg rotation - cart. axis [0,1,-1]  

 cryst.   s(22) = (     1          0          0      )
                  (     0          0          1      )
                  (     0          1          0      )

 cart.    s(22) = (  1.0000000  0.0000000  0.0000000 )
                  (  0.0000000  0.0000000  1.0000000 )
                  (  0.0000000  1.0000000  0.0000000 )


      isym = 23     inv.  90 deg rotation - cart. axis [-1,0,0]  

 cryst.   s(23) = (     0          1         -1      )
                  (     0          0         -1      )
                  (     1          0         -1      )

 cart.    s(23) = ( -1.0000000  0.0000000  0.0000000 )
                  (  0.0000000  0.0000000 -1.0000000 )
                  (  0.0000000  1.0000000  0.0000000 )


      isym = 24     inv.  90 deg rotation - cart. axis [1,0,0]   

 cryst.   s(24) = (     0         -1          1      )
                  (     1         -1          0      )
                  (     0         -1          0      )

 cart.    s(24) = ( -1.0000000  0.0000000  0.0000000 )
                  (  0.0000000  0.0000000  1.0000000 )
                  (  0.0000000 -1.0000000  0.0000000 )


   Cartesian axes

     site n.     atom                  positions (alat units)
         1           Sn  tau(   1) = (   0.0000000   0.0000000   0.0000000  )
         2           Sn  tau(   2) = (   0.3535534   0.3535534   0.3535534  )

   Crystallographic axes

     site n.     atom                  positions (cryst. coord.)
         1           Sn  tau(   1) = (  0.0000000  0.0000000  0.0000000  )
         2           Sn  tau(   2) = (  0.2500000  0.2500000  0.2500000  )

     number of k points=   145  gaussian smearing, width (Ry)=  0.0001
                       cart. coord. in units 2pi/alat
        k(    1) = (   0.0000000   0.0000000   0.0000000), wk =   0.0002441
        k(    2) = (   0.0441942   0.0441942  -0.0441942), wk =   0.0019531
        k(    3) = (   0.0883883   0.0883883  -0.0883883), wk =   0.0019531
        k(    4) = (   0.1325825   0.1325825  -0.1325825), wk =   0.0019531
        k(    5) = (   0.1767767   0.1767767  -0.1767767), wk =   0.0019531
        k(    6) = (   0.2209709   0.2209709  -0.2209709), wk =   0.0019531
        k(    7) = (   0.2651650   0.2651650  -0.2651650), wk =   0.0019531
        k(    8) = (   0.3093592   0.3093592  -0.3093592), wk =   0.0019531
        k(    9) = (  -0.3535534  -0.3535534   0.3535534), wk =   0.0009766
        k(   10) = (   0.0883883   0.0000000   0.0000000), wk =   0.0014648
        k(   11) = (   0.1325825   0.0441942  -0.0441942), wk =   0.0058594
        k(   12) = (   0.1767767   0.0883883  -0.0883883), wk =   0.0058594
        k(   13) = (   0.2209709   0.1325825  -0.1325825), wk =   0.0058594
        k(   14) = (   0.2651650   0.1767767  -0.1767767), wk =   0.0058594
        k(   15) = (   0.3093592   0.2209709  -0.2209709), wk =   0.0058594
        k(   16) = (   0.3535534   0.2651650  -0.2651650), wk =   0.0058594
        k(   17) = (  -0.3093592  -0.3977476   0.3977476), wk =   0.0058594
        k(   18) = (  -0.2651650  -0.3535534   0.3535534), wk =   0.0058594
        k(   19) = (  -0.2209709  -0.3093592   0.3093592), wk =   0.0058594
        k(   20) = (  -0.1767767  -0.2651650   0.2651650), wk =   0.0058594
        k(   21) = (  -0.1325825  -0.2209709   0.2209709), wk =   0.0058594
        k(   22) = (  -0.0883883  -0.1767767   0.1767767), wk =   0.0058594
        k(   23) = (  -0.0441942  -0.1325825   0.1325825), wk =   0.0058594
        k(   24) = (   0.0000000  -0.0883883   0.0883883), wk =   0.0029297
        k(   25) = (   0.1767767   0.0000000   0.0000000), wk =   0.0014648
        k(   26) = (   0.2209709   0.0441942  -0.0441942), wk =   0.0058594
        k(   27) = (   0.2651650   0.0883883  -0.0883883), wk =   0.0058594
        k(   28) = (   0.3093592   0.1325825  -0.1325825), wk =   0.0058594
        k(   29) = (   0.3535534   0.1767767  -0.1767767), wk =   0.0058594
        k(   30) = (   0.3977476   0.2209709  -0.2209709), wk =   0.0058594
        k(   31) = (  -0.2651650  -0.4419417   0.4419417), wk =   0.0058594
        k(   32) = (  -0.2209709  -0.3977476   0.3977476), wk =   0.0058594
        k(   33) = (  -0.1767767  -0.3535534   0.3535534), wk =   0.0058594
        k(   34) = (  -0.1325825  -0.3093592   0.3093592), wk =   0.0058594
        k(   35) = (  -0.0883883  -0.2651650   0.2651650), wk =   0.0058594
        k(   36) = (  -0.0441942  -0.2209709   0.2209709), wk =   0.0058594
        k(   37) = (   0.0000000  -0.1767767   0.1767767), wk =   0.0029297
        k(   38) = (   0.2651650   0.0000000   0.0000000), wk =   0.0014648
        k(   39) = (   0.3093592   0.0441942  -0.0441942), wk =   0.0058594
        k(   40) = (   0.3535534   0.0883883  -0.0883883), wk =   0.0058594
        k(   41) = (   0.3977476   0.1325825  -0.1325825), wk =   0.0058594
        k(   42) = (   0.4419417   0.1767767  -0.1767767), wk =   0.0058594
        k(   43) = (  -0.2209709  -0.4861359   0.4861359), wk =   0.0058594
        k(   44) = (  -0.1767767  -0.4419417   0.4419417), wk =   0.0058594
        k(   45) = (  -0.1325825  -0.3977476   0.3977476), wk =   0.0058594
        k(   46) = (  -0.0883883  -0.3535534   0.3535534), wk =   0.0058594
        k(   47) = (  -0.0441942  -0.3093592   0.3093592), wk =   0.0058594
        k(   48) = (   0.0000000  -0.2651650   0.2651650), wk =   0.0029297
        k(   49) = (   0.3535534   0.0000000   0.0000000), wk =   0.0014648
        k(   50) = (   0.3977476   0.0441942  -0.0441942), wk =   0.0058594
        k(   51) = (   0.4419417   0.0883883  -0.0883883), wk =   0.0058594
        k(   52) = (   0.4861359   0.1325825  -0.1325825), wk =   0.0058594
        k(   53) = (  -0.1767767  -0.5303301   0.5303301), wk =   0.0058594
        k(   54) = (  -0.1325825  -0.4861359   0.4861359), wk =   0.0058594
        k(   55) = (  -0.0883883  -0.4419417   0.4419417), wk =   0.0058594
        k(   56) = (  -0.0441942  -0.3977476   0.3977476), wk =   0.0058594
        k(   57) = (   0.0000000  -0.3535534   0.3535534), wk =   0.0029297
        k(   58) = (   0.4419417   0.0000000   0.0000000), wk =   0.0014648
        k(   59) = (   0.4861359   0.0441942  -0.0441942), wk =   0.0058594
        k(   60) = (   0.5303301   0.0883883  -0.0883883), wk =   0.0058594
        k(   61) = (  -0.1325825  -0.5745243   0.5745243), wk =   0.0058594
        k(   62) = (  -0.0883883  -0.5303301   0.5303301), wk =   0.0058594
        k(   63) = (  -0.0441942  -0.4861359   0.4861359), wk =   0.0058594
        k(   64) = (   0.0000000  -0.4419417   0.4419417), wk =   0.0029297
        k(   65) = (   0.5303301   0.0000000   0.0000000), wk =   0.0014648
        k(   66) = (   0.5745243   0.0441942  -0.0441942), wk =   0.0058594
        k(   67) = (  -0.0883883  -0.6187184   0.6187184), wk =   0.0058594
        k(   68) = (  -0.0441942  -0.5745243   0.5745243), wk =   0.0058594
        k(   69) = (   0.0000000  -0.5303301   0.5303301), wk =   0.0029297
        k(   70) = (   0.6187184   0.0000000   0.0000000), wk =   0.0014648
        k(   71) = (  -0.0441942  -0.6629126   0.6629126), wk =   0.0058594
        k(   72) = (   0.0000000  -0.6187184   0.6187184), wk =   0.0029297
        k(   73) = (  -0.7071068   0.0000000   0.0000000), wk =   0.0007324
        k(   74) = (   0.1767767   0.0883883   0.0000000), wk =   0.0058594
        k(   75) = (   0.2209709   0.1325825  -0.0441942), wk =   0.0117188
        k(   76) = (   0.2651650   0.1767767  -0.0883883), wk =   0.0117188
        k(   77) = (   0.3093592   0.2209709  -0.1325825), wk =   0.0117188
        k(   78) = (   0.3535534   0.2651650  -0.1767767), wk =   0.0117188
        k(   79) = (  -0.3093592  -0.3977476   0.4861359), wk =   0.0117188
        k(   80) = (  -0.2651650  -0.3535534   0.4419417), wk =   0.0058594
        k(   81) = (   0.2651650   0.0883883   0.0000000), wk =   0.0058594
        k(   82) = (   0.3093592   0.1325825  -0.0441942), wk =   0.0117188
        k(   83) = (   0.3535534   0.1767767  -0.0883883), wk =   0.0117188
        k(   84) = (   0.3977476   0.2209709  -0.1325825), wk =   0.0117188
        k(   85) = (  -0.2651650  -0.4419417   0.5303301), wk =   0.0117188
        k(   86) = (  -0.2209709  -0.3977476   0.4861359), wk =   0.0117188
        k(   87) = (  -0.1767767  -0.3535534   0.4419417), wk =   0.0117188
        k(   88) = (  -0.1325825  -0.3093592   0.3977476), wk =   0.0117188
        k(   89) = (  -0.0883883  -0.2651650   0.3535534), wk =   0.0117188
        k(   90) = (  -0.0441942  -0.2209709   0.3093592), wk =   0.0117188
        k(   91) = (   0.0000000  -0.1767767   0.2651650), wk =   0.0058594
        k(   92) = (   0.3535534   0.0883883   0.0000000), wk =   0.0058594
        k(   93) = (   0.3977476   0.1325825  -0.0441942), wk =   0.0117188
        k(   94) = (   0.4419417   0.1767767  -0.0883883), wk =   0.0117188
        k(   95) = (  -0.2209709  -0.4861359   0.5745243), wk =   0.0117188
        k(   96) = (  -0.1767767  -0.4419417   0.5303301), wk =   0.0117188
        k(   97) = (  -0.1325825  -0.3977476   0.4861359), wk =   0.0117188
        k(   98) = (  -0.0883883  -0.3535534   0.4419417), wk =   0.0117188
        k(   99) = (  -0.0441942  -0.3093592   0.3977476), wk =   0.0117188
        k(  100) = (   0.0000000  -0.2651650   0.3535534), wk =   0.0058594
        k(  101) = (   0.4419417   0.0883883   0.0000000), wk =   0.0058594
        k(  102) = (   0.4861359   0.1325825  -0.0441942), wk =   0.0117188
        k(  103) = (  -0.1767767  -0.5303301   0.6187184), wk =   0.0117188
        k(  104) = (  -0.1325825  -0.4861359   0.5745243), wk =   0.0117188
        k(  105) = (  -0.0883883  -0.4419417   0.5303301), wk =   0.0117188
        k(  106) = (  -0.0441942  -0.3977476   0.4861359), wk =   0.0117188
        k(  107) = (   0.0000000  -0.3535534   0.4419417), wk =   0.0058594
        k(  108) = (   0.5303301   0.0883883   0.0000000), wk =   0.0058594
        k(  109) = (  -0.1325825  -0.5745243   0.6629126), wk =   0.0117188
        k(  110) = (  -0.0883883  -0.5303301   0.6187184), wk =   0.0117188
        k(  111) = (  -0.0441942  -0.4861359   0.5745243), wk =   0.0117188
        k(  112) = (   0.0000000  -0.4419417   0.5303301), wk =   0.0058594
        k(  113) = (  -0.0883883  -0.6187184   0.7071068), wk =   0.0058594
        k(  114) = (  -0.0441942  -0.5745243   0.6629126), wk =   0.0117188
        k(  115) = (  -0.0000000  -0.5303301   0.6187184), wk =   0.0058594
        k(  116) = (  -0.7071068   0.0883883   0.0000000), wk =   0.0029297
        k(  117) = (   0.3535534   0.1767767   0.0000000), wk =   0.0058594
        k(  118) = (   0.3977476   0.2209709  -0.0441942), wk =   0.0117188
        k(  119) = (  -0.2651650  -0.4419417   0.6187184), wk =   0.0117188
        k(  120) = (  -0.2209709  -0.3977476   0.5745243), wk =   0.0117188
        k(  121) = (  -0.1767767  -0.3535534   0.5303301), wk =   0.0058594
        k(  122) = (   0.4419417   0.1767767   0.0000000), wk =   0.0058594
        k(  123) = (  -0.2209709  -0.4861359   0.6629126), wk =   0.0117188
        k(  124) = (  -0.1767767  -0.4419417   0.6187184), wk =   0.0117188
        k(  125) = (  -0.1325825  -0.3977476   0.5745243), wk =   0.0117188
        k(  126) = (  -0.0883883  -0.3535534   0.5303301), wk =   0.0117188
        k(  127) = (  -0.0441942  -0.3093592   0.4861359), wk =   0.0117188
        k(  128) = (   0.0000000  -0.2651650   0.4419417), wk =   0.0058594
        k(  129) = (  -0.1767767  -0.5303301   0.7071068), wk =   0.0058594
        k(  130) = (  -0.1325825  -0.4861359   0.6629126), wk =   0.0117188
        k(  131) = (  -0.0883883  -0.4419417   0.6187184), wk =   0.0117188
        k(  132) = (  -0.0441942  -0.3977476   0.5745243), wk =   0.0117188
        k(  133) = (   0.0000000  -0.3535534   0.5303301), wk =   0.0058594
        k(  134) = (  -0.0883883  -0.5303301   0.7071068), wk =   0.0058594
        k(  135) = (  -0.0441942  -0.4861359   0.6629126), wk =   0.0117188
        k(  136) = (   0.0000000  -0.4419417   0.6187184), wk =   0.0058594
        k(  137) = (  -0.7071068   0.1767767   0.0000000), wk =   0.0029297
        k(  138) = (  -0.1767767  -0.4419417   0.7071068), wk =   0.0058594
        k(  139) = (  -0.1325825  -0.3977476   0.6629126), wk =   0.0117188
        k(  140) = (  -0.0883883  -0.3535534   0.6187184), wk =   0.0058594
        k(  141) = (  -0.0883883  -0.4419417   0.7071068), wk =   0.0058594
        k(  142) = (  -0.0441942  -0.3977476   0.6629126), wk =   0.0117188
        k(  143) = (  -0.0000000  -0.3535534   0.6187184), wk =   0.0058594
        k(  144) = (  -0.7071068   0.2651650   0.0000000), wk =   0.0029297
        k(  145) = (  -0.7071068   0.3535534   0.0000000), wk =   0.0014648

                       cryst. coord.
        k(    1) = (   0.0000000   0.0000000   0.0000000), wk =   0.0002441
        k(    2) = (   0.0000000   0.0000000   0.0625000), wk =   0.0019531
        k(    3) = (   0.0000000   0.0000000   0.1250000), wk =   0.0019531
        k(    4) = (   0.0000000   0.0000000   0.1875000), wk =   0.0019531
        k(    5) = (   0.0000000   0.0000000   0.2500000), wk =   0.0019531
        k(    6) = (   0.0000000   0.0000000   0.3125000), wk =   0.0019531
        k(    7) = (   0.0000000   0.0000000   0.3750000), wk =   0.0019531
        k(    8) = (   0.0000000   0.0000000   0.4375000), wk =   0.0019531
        k(    9) = (   0.0000000   0.0000000  -0.5000000), wk =   0.0009766
        k(   10) = (   0.0000000   0.0625000   0.0625000), wk =   0.0014648
        k(   11) = (   0.0000000   0.0625000   0.1250000), wk =   0.0058594
        k(   12) = (   0.0000000   0.0625000   0.1875000), wk =   0.0058594
        k(   13) = (   0.0000000   0.0625000   0.2500000), wk =   0.0058594
        k(   14) = (   0.0000000   0.0625000   0.3125000), wk =   0.0058594
        k(   15) = (   0.0000000   0.0625000   0.3750000), wk =   0.0058594
        k(   16) = (   0.0000000   0.0625000   0.4375000), wk =   0.0058594
        k(   17) = (   0.0000000   0.0625000  -0.5000000), wk =   0.0058594
        k(   18) = (   0.0000000   0.0625000  -0.4375000), wk =   0.0058594
        k(   19) = (   0.0000000   0.0625000  -0.3750000), wk =   0.0058594
        k(   20) = (   0.0000000   0.0625000  -0.3125000), wk =   0.0058594
        k(   21) = (   0.0000000   0.0625000  -0.2500000), wk =   0.0058594
        k(   22) = (   0.0000000   0.0625000  -0.1875000), wk =   0.0058594
        k(   23) = (   0.0000000   0.0625000  -0.1250000), wk =   0.0058594
        k(   24) = (   0.0000000   0.0625000  -0.0625000), wk =   0.0029297
        k(   25) = (   0.0000000   0.1250000   0.1250000), wk =   0.0014648
        k(   26) = (   0.0000000   0.1250000   0.1875000), wk =   0.0058594
        k(   27) = (   0.0000000   0.1250000   0.2500000), wk =   0.0058594
        k(   28) = (   0.0000000   0.1250000   0.3125000), wk =   0.0058594
        k(   29) = (   0.0000000   0.1250000   0.3750000), wk =   0.0058594
        k(   30) = (   0.0000000   0.1250000   0.4375000), wk =   0.0058594
        k(   31) = (   0.0000000   0.1250000  -0.5000000), wk =   0.0058594
        k(   32) = (   0.0000000   0.1250000  -0.4375000), wk =   0.0058594
        k(   33) = (   0.0000000   0.1250000  -0.3750000), wk =   0.0058594
        k(   34) = (   0.0000000   0.1250000  -0.3125000), wk =   0.0058594
        k(   35) = (   0.0000000   0.1250000  -0.2500000), wk =   0.0058594
        k(   36) = (   0.0000000   0.1250000  -0.1875000), wk =   0.0058594
        k(   37) = (   0.0000000   0.1250000  -0.1250000), wk =   0.0029297
        k(   38) = (   0.0000000   0.1875000   0.1875000), wk =   0.0014648
        k(   39) = (   0.0000000   0.1875000   0.2500000), wk =   0.0058594
        k(   40) = (   0.0000000   0.1875000   0.3125000), wk =   0.0058594
        k(   41) = (   0.0000000   0.1875000   0.3750000), wk =   0.0058594
        k(   42) = (   0.0000000   0.1875000   0.4375000), wk =   0.0058594
        k(   43) = (   0.0000000   0.1875000  -0.5000000), wk =   0.0058594
        k(   44) = (   0.0000000   0.1875000  -0.4375000), wk =   0.0058594
        k(   45) = (   0.0000000   0.1875000  -0.3750000), wk =   0.0058594
        k(   46) = (   0.0000000   0.1875000  -0.3125000), wk =   0.0058594
        k(   47) = (   0.0000000   0.1875000  -0.2500000), wk =   0.0058594
        k(   48) = (   0.0000000   0.1875000  -0.1875000), wk =   0.0029297
        k(   49) = (   0.0000000   0.2500000   0.2500000), wk =   0.0014648
        k(   50) = (   0.0000000   0.2500000   0.3125000), wk =   0.0058594
        k(   51) = (   0.0000000   0.2500000   0.3750000), wk =   0.0058594
        k(   52) = (   0.0000000   0.2500000   0.4375000), wk =   0.0058594
        k(   53) = (   0.0000000   0.2500000  -0.5000000), wk =   0.0058594
        k(   54) = (   0.0000000   0.2500000  -0.4375000), wk =   0.0058594
        k(   55) = (   0.0000000   0.2500000  -0.3750000), wk =   0.0058594
        k(   56) = (   0.0000000   0.2500000  -0.3125000), wk =   0.0058594
        k(   57) = (   0.0000000   0.2500000  -0.2500000), wk =   0.0029297
        k(   58) = (   0.0000000   0.3125000   0.3125000), wk =   0.0014648
        k(   59) = (   0.0000000   0.3125000   0.3750000), wk =   0.0058594
        k(   60) = (   0.0000000   0.3125000   0.4375000), wk =   0.0058594
        k(   61) = (   0.0000000   0.3125000  -0.5000000), wk =   0.0058594
        k(   62) = (   0.0000000   0.3125000  -0.4375000), wk =   0.0058594
        k(   63) = (   0.0000000   0.3125000  -0.3750000), wk =   0.0058594
        k(   64) = (   0.0000000   0.3125000  -0.3125000), wk =   0.0029297
        k(   65) = (   0.0000000   0.3750000   0.3750000), wk =   0.0014648
        k(   66) = (   0.0000000   0.3750000   0.4375000), wk =   0.0058594
        k(   67) = (   0.0000000   0.3750000  -0.5000000), wk =   0.0058594
        k(   68) = (   0.0000000   0.3750000  -0.4375000), wk =   0.0058594
        k(   69) = (   0.0000000   0.3750000  -0.3750000), wk =   0.0029297
        k(   70) = (   0.0000000   0.4375000   0.4375000), wk =   0.0014648
        k(   71) = (   0.0000000   0.4375000  -0.5000000), wk =   0.0058594
        k(   72) = (   0.0000000   0.4375000  -0.4375000), wk =   0.0029297
        k(   73) = (   0.0000000  -0.5000000  -0.5000000), wk =   0.0007324
        k(   74) = (   0.0625000   0.1250000   0.1875000), wk =   0.0058594
        k(   75) = (   0.0625000   0.1250000   0.2500000), wk =   0.0117188
        k(   76) = (   0.0625000   0.1250000   0.3125000), wk =   0.0117188
        k(   77) = (   0.0625000   0.1250000   0.3750000), wk =   0.0117188
        k(   78) = (   0.0625000   0.1250000   0.4375000), wk =   0.0117188
        k(   79) = (   0.0625000   0.1250000  -0.5000000), wk =   0.0117188
        k(   80) = (   0.0625000   0.1250000  -0.4375000), wk =   0.0058594
        k(   81) = (   0.0625000   0.1875000   0.2500000), wk =   0.0058594
        k(   82) = (   0.0625000   0.1875000   0.3125000), wk =   0.0117188
        k(   83) = (   0.0625000   0.1875000   0.3750000), wk =   0.0117188
        k(   84) = (   0.0625000   0.1875000   0.4375000), wk =   0.0117188
        k(   85) = (   0.0625000   0.1875000  -0.5000000), wk =   0.0117188
        k(   86) = (   0.0625000   0.1875000  -0.4375000), wk =   0.0117188
        k(   87) = (   0.0625000   0.1875000  -0.3750000), wk =   0.0117188
        k(   88) = (   0.0625000   0.1875000  -0.3125000), wk =   0.0117188
        k(   89) = (   0.0625000   0.1875000  -0.2500000), wk =   0.0117188
        k(   90) = (   0.0625000   0.1875000  -0.1875000), wk =   0.0117188
        k(   91) = (   0.0625000   0.1875000  -0.1250000), wk =   0.0058594
        k(   92) = (   0.0625000   0.2500000   0.3125000), wk =   0.0058594
        k(   93) = (   0.0625000   0.2500000   0.3750000), wk =   0.0117188
        k(   94) = (   0.0625000   0.2500000   0.4375000), wk =   0.0117188
        k(   95) = (   0.0625000   0.2500000  -0.5000000), wk =   0.0117188
        k(   96) = (   0.0625000   0.2500000  -0.4375000), wk =   0.0117188
        k(   97) = (   0.0625000   0.2500000  -0.3750000), wk =   0.0117188
        k(   98) = (   0.0625000   0.2500000  -0.3125000), wk =   0.0117188
        k(   99) = (   0.0625000   0.2500000  -0.2500000), wk =   0.0117188
        k(  100) = (   0.0625000   0.2500000  -0.1875000), wk =   0.0058594
        k(  101) = (   0.0625000   0.3125000   0.3750000), wk =   0.0058594
        k(  102) = (   0.0625000   0.3125000   0.4375000), wk =   0.0117188
        k(  103) = (   0.0625000   0.3125000  -0.5000000), wk =   0.0117188
        k(  104) = (   0.0625000   0.3125000  -0.4375000), wk =   0.0117188
        k(  105) = (   0.0625000   0.3125000  -0.3750000), wk =   0.0117188
        k(  106) = (   0.0625000   0.3125000  -0.3125000), wk =   0.0117188
        k(  107) = (   0.0625000   0.3125000  -0.2500000), wk =   0.0058594
        k(  108) = (   0.0625000   0.3750000   0.4375000), wk =   0.0058594
        k(  109) = (   0.0625000   0.3750000  -0.5000000), wk =   0.0117188
        k(  110) = (   0.0625000   0.3750000  -0.4375000), wk =   0.0117188
        k(  111) = (   0.0625000   0.3750000  -0.3750000), wk =   0.0117188
        k(  112) = (   0.0625000   0.3750000  -0.3125000), wk =   0.0058594
        k(  113) = (   0.0625000   0.4375000  -0.5000000), wk =   0.0058594
        k(  114) = (   0.0625000   0.4375000  -0.4375000), wk =   0.0117188
        k(  115) = (   0.0625000   0.4375000  -0.3750000), wk =   0.0058594
        k(  116) = (   0.0625000  -0.5000000  -0.4375000), wk =   0.0029297
        k(  117) = (   0.1250000   0.2500000   0.3750000), wk =   0.0058594
        k(  118) = (   0.1250000   0.2500000   0.4375000), wk =   0.0117188
        k(  119) = (   0.1250000   0.2500000  -0.5000000), wk =   0.0117188
        k(  120) = (   0.1250000   0.2500000  -0.4375000), wk =   0.0117188
        k(  121) = (   0.1250000   0.2500000  -0.3750000), wk =   0.0058594
        k(  122) = (   0.1250000   0.3125000   0.4375000), wk =   0.0058594
        k(  123) = (   0.1250000   0.3125000  -0.5000000), wk =   0.0117188
        k(  124) = (   0.1250000   0.3125000  -0.4375000), wk =   0.0117188
        k(  125) = (   0.1250000   0.3125000  -0.3750000), wk =   0.0117188
        k(  126) = (   0.1250000   0.3125000  -0.3125000), wk =   0.0117188
        k(  127) = (   0.1250000   0.3125000  -0.2500000), wk =   0.0117188
        k(  128) = (   0.1250000   0.3125000  -0.1875000), wk =   0.0058594
        k(  129) = (   0.1250000   0.3750000  -0.5000000), wk =   0.0058594
        k(  130) = (   0.1250000   0.3750000  -0.4375000), wk =   0.0117188
        k(  131) = (   0.1250000   0.3750000  -0.3750000), wk =   0.0117188
        k(  132) = (   0.1250000   0.3750000  -0.3125000), wk =   0.0117188
        k(  133) = (   0.1250000   0.3750000  -0.2500000), wk =   0.0058594
        k(  134) = (   0.1250000   0.4375000  -0.4375000), wk =   0.0058594
        k(  135) = (   0.1250000   0.4375000  -0.3750000), wk =   0.0117188
        k(  136) = (   0.1250000   0.4375000  -0.3125000), wk =   0.0058594
        k(  137) = (   0.1250000  -0.5000000  -0.3750000), wk =   0.0029297
        k(  138) = (   0.1875000   0.3750000  -0.4375000), wk =   0.0058594
        k(  139) = (   0.1875000   0.3750000  -0.3750000), wk =   0.0117188
        k(  140) = (   0.1875000   0.3750000  -0.3125000), wk =   0.0058594
        k(  141) = (   0.1875000   0.4375000  -0.3750000), wk =   0.0058594
        k(  142) = (   0.1875000   0.4375000  -0.3125000), wk =   0.0117188
        k(  143) = (   0.1875000   0.4375000  -0.2500000), wk =   0.0058594
        k(  144) = (   0.1875000  -0.5000000  -0.3125000), wk =   0.0029297
        k(  145) = (   0.2500000  -0.5000000  -0.2500000), wk =   0.0014648

     Dense  grid:    43895 G-vectors     FFT dimensions: (  50,  50,  50)

     Largest allocated arrays     est. size (Mb)     dimensions
        Kohn-Sham Wavefunctions         0.38 Mb     (     700,   36)
        NL pseudopotentials             0.19 Mb     (     350,   36)
        Each V/rho on FFT grid          0.15 Mb     (   10000)
        Each G-vector array             0.02 Mb     (    2746)
        G-vector shells                 0.00 Mb     (     371)
     Largest temporary arrays     est. size (Mb)     dimensions
        Auxiliary wavefunctions         1.54 Mb     (     700,  144)
        Each subspace H/S matrix        0.32 Mb     (     144,  144)
        Each <psi_i|beta_j> matrix      0.04 Mb     (      36,   2,   36)
        Arrays for rho mixing           1.22 Mb     (   10000,    8)

     Check: negative/imaginary core charge=   -0.000001    0.000000

     Initial potential from superposition of free atoms

     starting charge   27.99723, renormalised to   28.00000
     Starting wfc are   36 randomized atomic wfcs
     Checking if some PAW data can be deallocated... 

     total cpu time spent up to now is       14.3 secs

     Self-consistent Calculation

     iteration #  1     ecut=    75.00 Ry     beta=0.70
     Davidson diagonalization with overlap
     ethr =  1.00E-02,  avg # of iterations =  3.5

     Threshold (ethr) on eigenvalues was too large:
     Diagonalizing with lowered threshold

     Davidson diagonalization with overlap
     ethr =  6.62E-05,  avg # of iterations =  3.3

     total cpu time spent up to now is       98.1 secs

     total energy              =    -884.12129231 Ry
     Harris-Foulkes estimate   =    -884.12469925 Ry
     estimated scf accuracy    <       0.02229251 Ry

     iteration #  2     ecut=    75.00 Ry     beta=0.70
     Davidson diagonalization with overlap
     ethr =  7.96E-05,  avg # of iterations =  1.0

     total cpu time spent up to now is      130.4 secs

     total energy              =    -884.12217302 Ry
     Harris-Foulkes estimate   =    -884.12223763 Ry
     estimated scf accuracy    <       0.00159893 Ry

     iteration #  3     ecut=    75.00 Ry     beta=0.70
     Davidson diagonalization with overlap
     ethr =  5.71E-06,  avg # of iterations =  2.6

     total cpu time spent up to now is      176.5 secs

     total energy              =    -884.12243213 Ry
     Harris-Foulkes estimate   =    -884.12246275 Ry
     estimated scf accuracy    <       0.00006821 Ry

     iteration #  4     ecut=    75.00 Ry     beta=0.70
     Davidson diagonalization with overlap
     ethr =  2.44E-07,  avg # of iterations =  2.0

     total cpu time spent up to now is      220.4 secs

     total energy              =    -884.12245348 Ry
     Harris-Foulkes estimate   =    -884.12245176 Ry
     estimated scf accuracy    <       0.00000469 Ry

     iteration #  5     ecut=    75.00 Ry     beta=0.70
     Davidson diagonalization with overlap
     ethr =  1.68E-08,  avg # of iterations =  2.0

     total cpu time spent up to now is      256.5 secs

     End of self-consistent calculation

          k = 0.0000 0.0000 0.0000 (  5577 PWs)   bands (ev):

   -14.6621 -14.6621 -14.6621 -14.6621 -14.6621 -14.6621 -14.6143 -14.6143
   -14.6143 -14.6143 -14.3656 -14.3656 -14.3656 -14.3656 -14.3654 -14.3654
   -14.3654 -14.3654 -14.3654 -14.3654  -3.1871  -3.1871   5.6997   5.6997
     6.9820   6.9820   6.9820   6.9820   6.9820   6.9820   9.0473   9.0473
     9.0473   9.0473   9.0473   9.0473

     occupation numbers 
     1.0000   1.0000   1.0000   1.0000   1.0000   1.0000   1.0000   1.0000
     1.0000   1.0000   1.0000   1.0000   1.0000   1.0000   1.0000   1.0000
     1.0000   1.0000   1.0000   1.0000   1.0000   1.0000   1.0000   1.0000
     0.0000   0.0000   0.0000   0.0000   0.0000   0.0000   0.0000   0.0000
     0.0000   0.0000   0.0000   0.0000

          k = 0.0442 0.0442-0.0442 (  5552 PWs)   bands (ev):

   -14.6647 -14.6647 -14.6647 -14.6647 -14.6613 -14.6613 -14.6108 -14.6108
   -14.6108 -14.6108 -14.3762 -14.3762 -14.3762 -14.3762 -14.3663 -14.3663
   -14.3553 -14.3553 -14.3553 -14.3553  -3.1523  -3.1523   5.3053   5.3053
     6.9096   6.9096   6.9096   6.9096   7.1637   7.1637   9.1420   9.1420
     9.1420   9.1420   9.1762   9.1762

     occupation numbers 
     1.0000   1.0000   1.0000   1.0000   1.0000   1.0000   1.0000   1.0000
     1.0000   1.0000   1.0000   1.0000   1.0000   1.0000   1.0000   1.0000
     1.0000   1.0000   1.0000   1.0000   1.0000   1.0000   1.0000   1.0000
     0.0242   0.0242   0.0242   0.0242   0.0000   0.0000   0.0000   0.0000
     0.0000   0.0000   0.0000   0.0000

          k = 0.0884 0.0884-0.0884 (  5510 PWs)   bands (ev):

   -14.6705 -14.6705 -14.6705 -14.6705 -14.6589 -14.6589 -14.6024 -14.6024
   -14.6024 -14.6024 -14.3868 -14.3868 -14.3868 -14.3868 -14.3692 -14.3692
   -14.3462 -14.3462 -14.3462 -14.3462  -3.0489  -3.0489   4.5451   4.5451
     6.7322   6.7322   6.7322   6.7322   7.2935   7.2935   9.3761   9.3761
     9.3761   9.3761   9.6081   9.6081

     occupation numbers 
     1.0000   1.0000   1.0000   1.0000   1.0000   1.0000   1.0000   1.0000
     1.0000   1.0000   1.0000   1.0000   1.0000   1.0000   1.0000   1.0000
     1.0000   1.0000   1.0000   1.0000   1.0000   1.0000   1.0000   1.0000
     1.0000   1.0000   1.0000   1.0000   0.0000   0.0000   0.0000   0.0000
     0.0000   0.0000   0.0000   0.0000

          k = 0.1326 0.1326-0.1326 (  5498 PWs)   bands (ev):

   -14.6769 -14.6769 -14.6769 -14.6769 -14.6553 -14.6553 -14.5925 -14.5925
   -14.5925 -14.5925 -14.3967 -14.3967 -14.3967 -14.3967 -14.3734 -14.3734
   -14.3386 -14.3386 -14.3386 -14.3386  -2.8797  -2.8797   3.7158   3.7158
     6.5176   6.5176   6.5176   6.5176   7.2303   7.2303   9.6514   9.6514
     9.6514   9.6514  10.2880  10.2880

     occupation numbers 
     1.0000   1.0000   1.0000   1.0000   1.0000   1.0000   1.0000   1.0000
     1.0000   1.0000   1.0000   1.0000   1.0000   1.0000   1.0000   1.0000
     1.0000   1.0000   1.0000   1.0000   1.0000   1.0000   1.0000   1.0000
     1.0000   1.0000   1.0000   1.0000   0.0000   0.0000   0.0000   0.0000
     0.0000   0.0000   0.0000   0.0000

          k = 0.1768 0.1768-0.1768 (  5492 PWs)   bands (ev):

   -14.6823 -14.6823 -14.6823 -14.6823 -14.6510 -14.6510 -14.5831 -14.5831
   -14.5831 -14.5831 -14.4051 -14.4051 -14.4051 -14.4051 -14.3785 -14.3785
   -14.3324 -14.3324 -14.3324 -14.3324  -2.6510  -2.6510   2.9045   2.9045
     6.3110   6.3110   6.3110   6.3110   7.0906   7.0906   9.8821   9.8821
     9.8821   9.8821  11.0966  11.0966

     occupation numbers 
     1.0000   1.0000   1.0000   1.0000   1.0000   1.0000   1.0000   1.0000
     1.0000   1.0000   1.0000   1.0000   1.0000   1.0000   1.0000   1.0000
     1.0000   1.0000   1.0000   1.0000   1.0000   1.0000   1.0000   1.0000
     1.0000   1.0000   1.0000   1.0000   0.0000   0.0000   0.0000   0.0000
     0.0000   0.0000   0.0000   0.0000

          k = 0.2210 0.2210-0.2210 (  5489 PWs)   bands (ev):

   -14.6865 -14.6865 -14.6865 -14.6865 -14.6466 -14.6466 -14.5754 -14.5754
   -14.5754 -14.5754 -14.4116 -14.4116 -14.4116 -14.4116 -14.3837 -14.3837
   -14.3279 -14.3279 -14.3279 -14.3279  -2.3761  -2.3761   2.1567   2.1567
     6.1363   6.1363   6.1363   6.1363   6.9488   6.9488  10.0220  10.0220
    10.0220  10.0220  11.9611  11.9611

     occupation numbers 
     1.0000   1.0000   1.0000   1.0000   1.0000   1.0000   1.0000   1.0000
     1.0000   1.0000   1.0000   1.0000   1.0000   1.0000   1.0000   1.0000
     1.0000   1.0000   1.0000   1.0000   1.0000   1.0000   1.0000   1.0000
     1.0000   1.0000   1.0000   1.0000   0.0000   0.0000   0.0000   0.0000
     0.0000   0.0000   0.0000   0.0000

          k = 0.2652 0.2652-0.2652 (  5492 PWs)   bands (ev):

   -14.6892 -14.6892 -14.6892 -14.6892 -14.6427 -14.6427 -14.5701 -14.5701
   -14.5701 -14.5701 -14.4160 -14.4160 -14.4160 -14.4160 -14.3883 -14.3883
   -14.3249 -14.3249 -14.3249 -14.3249  -2.0828  -2.0828   1.5169   1.5169
     6.0056   6.0056   6.0056   6.0056   6.8362   6.8362  10.0791  10.0791
    10.0791  10.0791  12.6232  12.6232

     occupation numbers 
     1.0000   1.0000   1.0000   1.0000   1.0000   1.0000   1.0000   1.0000
     1.0000   1.0000   1.0000   1.0000   1.0000   1.0000   1.0000   1.0000
     1.0000   1.0000   1.0000   1.0000   1.0000   1.0000   1.0000   1.0000
     1.0000   1.0000   1.0000   1.0000   1.0000   1.0000   0.0000   0.0000
     0.0000   0.0000   0.0000   0.0000

          k = 0.3094 0.3094-0.3094 (  5492 PWs)   bands (ev):

   -14.6907 -14.6907 -14.6907 -14.6907 -14.6401 -14.6401 -14.5670 -14.5670
   -14.5670 -14.5670 -14.4183 -14.4183 -14.4183 -14.4183 -14.3914 -14.3914
   -14.3231 -14.3231 -14.3231 -14.3231  -1.8314  -1.8314   1.0544   1.0544
     5.9252   5.9252   5.9252   5.9252   6.7653   6.7653  10.0917  10.0917
    10.0917  10.0917  12.6476  12.6476

     occupation numbers 
     1.0000   1.0000   1.0000   1.0000   1.0000   1.0000   1.0000   1.0000
     1.0000   1.0000   1.0000   1.0000   1.0000   1.0000   1.0000   1.0000
     1.0000   1.0000   1.0000   1.0000   1.0000   1.0000   1.0000   1.0000
     1.0000   1.0000   1.0000   1.0000   1.0000   1.0000   0.0000   0.0000
     0.0000   0.0000   0.0000   0.0000

          k =-0.3536-0.3536 0.3536 (  5480 PWs)   bands (ev):

   -14.6912 -14.6912 -14.6912 -14.6912 -14.6391 -14.6391 -14.5660 -14.5660
   -14.5660 -14.5660 -14.4191 -14.4191 -14.4191 -14.4191 -14.3925 -14.3925
   -14.3226 -14.3226 -14.3226 -14.3226  -1.7251  -1.7251   0.8773   0.8773
     5.8981   5.8981   5.8981   5.8981   6.7413   6.7413  10.0920  10.0920
    10.0920  10.0920  12.6225  12.6225

     occupation numbers 
     1.0000   1.0000   1.0000   1.0000   1.0000   1.0000   1.0000   1.0000
     1.0000   1.0000   1.0000   1.0000   1.0000   1.0000   1.0000   1.0000
     1.0000   1.0000   1.0000   1.0000   1.0000   1.0000   1.0000   1.0000
     1.0000   1.0000   1.0000   1.0000   1.0000   1.0000   0.0000   0.0000
     0.0000   0.0000   0.0000   0.0000

          k = 0.0884 0.0000 0.0000 (  5533 PWs)   bands (ev):

   -14.6643 -14.6643 -14.6639 -14.6639 -14.6639 -14.6639 -14.6118 -14.6118
   -14.6072 -14.6072 -14.3853 -14.3853 -14.3679 -14.3679 -14.3628 -14.3628
   -14.3628 -14.3628 -14.3513 -14.3513  -3.1407  -3.1407   5.2253   5.2253
     6.7770   6.7770   6.7770   6.7770   7.4371   7.4371   8.9023   8.9023
     9.3118   9.3118   9.3118   9.3118

     occupation numbers 
     1.0000   1.0000   1.0000   1.0000   1.0000   1.0000   1.0000   1.0000
     1.0000   1.0000   1.0000   1.0000   1.0000   1.0000   1.0000   1.0000
     1.0000   1.0000   1.0000   1.0000   1.0000   1.0000   1.0000   1.0000
     1.0000   1.0000   1.0000   1.0000   0.0000   0.0000   0.0000   0.0000
     0.0000   0.0000   0.0000   0.0000

          k = 0.1326 0.0442-0.0442 (  5513 PWs)   bands (ev):

   -14.6704 -14.6704 -14.6677 -14.6677 -14.6618 -14.6618 -14.6066 -14.6066
   -14.5986 -14.5986 -14.3966 -14.3966 -14.3768 -14.3768 -14.3631 -14.3631
   -14.3544 -14.3544 -14.3442 -14.3442  -3.0599  -3.0599   4.6617   4.6617
     6.5692   6.5692   6.6004   6.6004   7.6898   7.6898   8.9010   8.9010
     9.5946   9.5946   9.6682   9.6682

     occupation numbers 
     1.0000   1.0000   1.0000   1.0000   1.0000   1.0000   1.0000   1.0000
     1.0000   1.0000   1.0000   1.0000   1.0000   1.0000   1.0000   1.0000
     1.0000   1.0000   1.0000   1.0000   1.0000   1.0000   1.0000   1.0000
     1.0000   1.0000   1.0000   1.0000   0.0000   0.0000   0.0000   0.0000
     0.0000   0.0000   0.0000   0.0000

          k = 0.1768 0.0884-0.0884 (  5496 PWs)   bands (ev):

   -14.6776 -14.6776 -14.6735 -14.6735 -14.6577 -14.6577 -14.5980 -14.5980
   -14.5881 -14.5881 -14.4073 -14.4073 -14.3869 -14.3869 -14.3671 -14.3671
   -14.3456 -14.3456 -14.3365 -14.3365  -2.9122  -2.9122   3.9084   3.9084
     6.3470   6.3470   6.3831   6.3831   7.7083   7.7083   9.1279   9.1279
     9.9003   9.9003  10.2194  10.2195

     occupation numbers 
     1.0000   1.0000   1.0000   1.0000   1.0000   1.0000   1.0000   1.0000
     1.0000   1.0000   1.0000   1.0000   1.0000   1.0000   1.0000   1.0000
     1.0000   1.0000   1.0000   1.0000   1.0000   1.0000   1.0000   1.0000
     1.0000   1.0000   1.0000   1.0000   0.0000   0.0000   0.0000   0.0000
     0.0000   0.0000   0.0000   0.0000

          k = 0.2210 0.1326-0.1326 (  5489 PWs)   bands (ev):

   -14.6842 -14.6842 -14.6792 -14.6792 -14.6524 -14.6524 -14.5886 -14.5886
   -14.5780 -14.5780 -14.4163 -14.4163 -14.3963 -14.3963 -14.3732 -14.3732
   -14.3381 -14.3381 -14.3296 -14.3296  -2.7024  -2.7024   3.1205   3.1205
     6.1426   6.1426   6.1467   6.1467   7.5936   7.5936   9.4404   9.4404
    10.1479  10.1479  10.8639  10.8640

     occupation numbers 
     1.0000   1.0000   1.0000   1.0000   1.0000   1.0000   1.0000   1.0000
     1.0000   1.0000   1.0000   1.0000   1.0000   1.0000   1.0000   1.0000
     1.0000   1.0000   1.0000   1.0000   1.0000   1.0000   1.0000   1.0000
     1.0000   1.0000   1.0000   1.0000   0.0000   0.0000   0.0000   0.0000
     0.0000   0.0000   0.0000   0.0000

          k = 0.2652 0.1768-0.1768 (  5491 PWs)   bands (ev):

   -14.6894 -14.6894 -14.6840 -14.6840 -14.6465 -14.6465 -14.5801 -14.5801
   -14.5699 -14.5699 -14.4227 -14.4227 -14.4044 -14.4044 -14.3803 -14.3803
   -14.3321 -14.3321 -14.3241 -14.3241  -2.4407  -2.4407   2.3670   2.3670
     5.9174   5.9174   5.9876   5.9876   7.4483   7.4483   9.7011   9.7011
    10.2863  10.2863  11.5425  11.5426

     occupation numbers 
     1.0000   1.0000   1.0000   1.0000   1.0000   1.0000   1.0000   1.0000
     1.0000   1.0000   1.0000   1.0000   1.0000   1.0000   1.0000   1.0000
     1.0000   1.0000   1.0000   1.0000   1.0000   1.0000   1.0000   1.0000
     1.0000   1.0000   1.0000   1.0000   0.0000   0.0000   0.0000   0.0000
     0.0000   0.0000   0.0000   0.0000

          k = 0.3094 0.2210-0.2210 (  5493 PWs)   bands (ev):

   -14.6931 -14.6931 -14.6877 -14.6877 -14.6408 -14.6408 -14.5730 -14.5730
   -14.5647 -14.5647 -14.4259 -14.4259 -14.4112 -14.4112 -14.3874 -14.3874
   -14.3274 -14.3274 -14.3203 -14.3203  -2.1487  -2.1487   1.6968   1.6968
     5.7290   5.7290   5.8792   5.8792   7.3189   7.3189   9.8605   9.8605
    10.3183  10.3183  12.2113  12.2113

     occupation numbers 
     1.0000   1.0000   1.0000   1.0000   1.0000   1.0000   1.0000   1.0000
     1.0000   1.0000   1.0000   1.0000   1.0000   1.0000   1.0000   1.0000
     1.0000   1.0000   1.0000   1.0000   1.0000   1.0000   1.0000   1.0000
     1.0000   1.0000   1.0000   1.0000   0.0000   0.0000   0.0000   0.0000
     0.0000   0.0000   0.0000   0.0000

          k = 0.3536 0.2652-0.2652 (  5497 PWs)   bands (ev):

   -14.6951 -14.6951 -14.6903 -14.6903 -14.6363 -14.6363 -14.5676 -14.5676
   -14.5626 -14.5626 -14.4257 -14.4257 -14.4167 -14.4167 -14.3933 -14.3933
   -14.3240 -14.3240 -14.3183 -14.3183  -1.8731  -1.8731   1.1709   1.1709
     5.5886   5.5886   5.8262   5.8262   7.2245   7.2245   9.9475   9.9475
    10.2851  10.2851  12.6432  12.6432

     occupation numbers 
     1.0000   1.0000   1.0000   1.0000   1.0000   1.0000   1.0000   1.0000
     1.0000   1.0000   1.0000   1.0000   1.0000   1.0000   1.0000   1.0000
     1.0000   1.0000   1.0000   1.0000   1.0000   1.0000   1.0000   1.0000
     1.0000   1.0000   1.0000   1.0000   0.0000   0.0000   0.0000   0.0000
     0.0000   0.0000   0.0000   0.0000

          k =-0.3094-0.3977 0.3977 (  5502 PWs)   bands (ev):

   -14.6957 -14.6957 -14.6919 -14.6919 -14.6338 -14.6338 -14.5639 -14.5639
   -14.5632 -14.5632 -14.4231 -14.4231 -14.4208 -14.4208 -14.3971 -14.3971
   -14.3218 -14.3218 -14.3179 -14.3179  -1.7054  -1.7054   0.8882   0.8882
     5.5019   5.5019   5.8299   5.8299   7.1736   7.1736  10.0084  10.0084
    10.2275  10.2275  12.7365  12.7366

     occupation numbers 
     1.0000   1.0000   1.0000   1.0000   1.0000   1.0000   1.0000   1.0000
     1.0000   1.0000   1.0000   1.0000   1.0000   1.0000   1.0000   1.0000
     1.0000   1.0000   1.0000   1.0000   1.0000   1.0000   1.0000   1.0000
     1.0000   1.0000   1.0000   1.0000   0.0000   0.0000   0.0000   0.0000
     0.0000   0.0000   0.0000   0.0000

          k =-0.2652-0.3536 0.3536 (  5502 PWs)   bands (ev):

   -14.6948 -14.6948 -14.6926 -14.6926 -14.6339 -14.6339 -14.5658 -14.5658
   -14.5622 -14.5622 -14.4235 -14.4235 -14.4192 -14.4192 -14.3976 -14.3976
   -14.3207 -14.3207 -14.3193 -14.3193  -1.7423  -1.7423   0.9484   0.9484
     5.4726   5.4726   5.8893   5.8893   7.1693   7.1693  10.0681  10.0681
    10.1652  10.1652  12.7494  12.7494

     occupation numbers 
     1.0000   1.0000   1.0000   1.0000   1.0000   1.0000   1.0000   1.0000
     1.0000   1.0000   1.0000   1.0000   1.0000   1.0000   1.0000   1.0000
     1.0000   1.0000   1.0000   1.0000   1.0000   1.0000   1.0000   1.0000
     1.0000   1.0000   1.0000   1.0000   0.0000   0.0000   0.0000   0.0000
     0.0000   0.0000   0.0000   0.0000

          k =-0.2210-0.3094 0.3094 (  5489 PWs)   bands (ev):

   -14.6926 -14.6926 -14.6921 -14.6921 -14.6365 -14.6365 -14.5700 -14.5700
   -14.5629 -14.5629 -14.4241 -14.4241 -14.4151 -14.4151 -14.3940 -14.3940
   -14.3222 -14.3222 -14.3209 -14.3209  -1.9591  -1.9591   1.3261   1.3261
     5.5031   5.5031   6.0013   6.0013   7.2110   7.2110  10.0944  10.0944
    10.1237  10.1237  12.6361  12.6361

     occupation numbers 
     1.0000   1.0000   1.0000   1.0000   1.0000   1.0000   1.0000   1.0000
     1.0000   1.0000   1.0000   1.0000   1.0000   1.0000   1.0000   1.0000
     1.0000   1.0000   1.0000   1.0000   1.0000   1.0000   1.0000   1.0000
     1.0000   1.0000   1.0000   1.0000   0.0000   0.0000   0.0000   0.0000
     0.0000   0.0000   0.0000   0.0000

          k =-0.1768-0.2652 0.2652 (  5479 PWs)   bands (ev):

   -14.6903 -14.6903 -14.6890 -14.6890 -14.6412 -14.6412 -14.5756 -14.5756
   -14.5666 -14.5666 -14.4219 -14.4219 -14.4108 -14.4108 -14.3874 -14.3874
   -14.3268 -14.3268 -14.3225 -14.3225  -2.2479  -2.2479   1.9088   1.9088
     5.5948   5.5948   6.1602   6.1602   7.2942   7.2942   9.9909   9.9909
    10.1411  10.1411  12.0652  12.0653

     occupation numbers 
     1.0000   1.0000   1.0000   1.0000   1.0000   1.0000   1.0000   1.0000
     1.0000   1.0000   1.0000   1.0000   1.0000   1.0000   1.0000   1.0000
     1.0000   1.0000   1.0000   1.0000   1.0000   1.0000   1.0000   1.0000
     1.0000   1.0000   1.0000   1.0000   0.0000   0.0000   0.0000   0.0000
     0.0000   0.0000   0.0000   0.0000

          k =-0.1326-0.2210 0.2210 (  5477 PWs)   bands (ev):

   -14.6871 -14.6871 -14.6841 -14.6841 -14.6470 -14.6470 -14.5828 -14.5828
   -14.5734 -14.5734 -14.4166 -14.4166 -14.4052 -14.4052 -14.3794 -14.3794
   -14.3329 -14.3329 -14.3259 -14.3259  -2.5332  -2.5332   2.6113   2.6113
     5.7482   5.7482   6.3561   6.3561   7.4069   7.4069   9.8232   9.8232
    10.0528  10.0528  11.3356  11.3356

     occupation numbers 
     1.0000   1.0000   1.0000   1.0000   1.0000   1.0000   1.0000   1.0000
     1.0000   1.0000   1.0000   1.0000   1.0000   1.0000   1.0000   1.0000
     1.0000   1.0000   1.0000   1.0000   1.0000   1.0000   1.0000   1.0000
     1.0000   1.0000   1.0000   1.0000   0.0000   0.0000   0.0000   0.0000
     0.0000   0.0000   0.0000   0.0000

          k =-0.0884-0.1768 0.1768 (  5491 PWs)   bands (ev):

   -14.6823 -14.6823 -14.6781 -14.6781 -14.6528 -14.6528 -14.5912 -14.5912
   -14.5828 -14.5828 -14.4086 -14.4086 -14.3981 -14.3981 -14.3714 -14.3714
   -14.3406 -14.3406 -14.3309 -14.3309  -2.7791  -2.7791   3.3788   3.3788
     5.9630   5.9630   6.5714   6.5714   7.5198   7.5198   9.5874   9.5874
     9.7969   9.7969  10.6813  10.6813

     occupation numbers 
     1.0000   1.0000   1.0000   1.0000   1.0000   1.0000   1.0000   1.0000
     1.0000   1.0000   1.0000   1.0000   1.0000   1.0000   1.0000   1.0000
     1.0000   1.0000   1.0000   1.0000   1.0000   1.0000   1.0000   1.0000
     1.0000   1.0000   1.0000   1.0000   0.0000   0.0000   0.0000   0.0000
     0.0000   0.0000   0.0000   0.0000

          k =-0.0442-0.1326 0.1326 (  5505 PWs)   bands (ev):

   -14.6762 -14.6762 -14.6714 -14.6714 -14.6579 -14.6579 -14.6001 -14.6001
   -14.5934 -14.5934 -14.3986 -14.3986 -14.3896 -14.3896 -14.3645 -14.3645
   -14.3497 -14.3497 -14.3377 -14.3377  -2.9689  -2.9689   4.1577   4.1577
     6.2383   6.2383   6.7735   6.7735   7.5635   7.5635   9.3334   9.3334
     9.4404   9.4404  10.1103  10.1103

     occupation numbers 
     1.0000   1.0000   1.0000   1.0000   1.0000   1.0000   1.0000   1.0000
     1.0000   1.0000   1.0000   1.0000   1.0000   1.0000   1.0000   1.0000
     1.0000   1.0000   1.0000   1.0000   1.0000   1.0000   1.0000   1.0000
     1.0000   1.0000   1.0000   1.0000   0.0000   0.0000   0.0000   0.0000
     0.0000   0.0000   0.0000   0.0000

          k = 0.0000-0.0884 0.0884 (  5511 PWs)   bands (ev):

   -14.6697 -14.6697 -14.6658 -14.6658 -14.6611 -14.6611 -14.6076 -14.6076
   -14.6036 -14.6036 -14.3875 -14.3875 -14.3806 -14.3806 -14.3603 -14.3603
   -14.3584 -14.3584 -14.3459 -14.3459  -3.0946  -3.0946   4.8603   4.8603
     6.5732   6.5732   6.9069   6.9069   7.4239   7.4239   9.1545   9.1545
     9.1931   9.1931   9.5884   9.5884

     occupation numbers 
     1.0000   1.0000   1.0000   1.0000   1.0000   1.0000   1.0000   1.0000
     1.0000   1.0000   1.0000   1.0000   1.0000   1.0000   1.0000   1.0000
     1.0000   1.0000   1.0000   1.0000   1.0000   1.0000   1.0000   1.0000
     1.0000   1.0000   0.8011   0.8011   0.0000   0.0000   0.0000   0.0000
     0.0000   0.0000   0.0000   0.0000

          k = 0.1768 0.0000 0.0000 (  5501 PWs)   bands (ev):

   -14.6690 -14.6690 -14.6690 -14.6690 -14.6675 -14.6675 -14.6046 -14.6046
   -14.5897 -14.5897 -14.4099 -14.4099 -14.3748 -14.3748 -14.3558 -14.3558
   -14.3558 -14.3558 -14.3432 -14.3432  -3.0018  -3.0018   4.4121   4.4121
     6.3469   6.3469   6.3469   6.3469   8.1580   8.1580   8.5816   8.5816
     9.9184   9.9184   9.9184   9.9184

     occupation numbers 
     1.0000   1.0000   1.0000   1.0000   1.0000   1.0000   1.0000   1.0000
     1.0000   1.0000   1.0000   1.0000   1.0000   1.0000   1.0000   1.0000
     1.0000   1.0000   1.0000   1.0000   1.0000   1.0000   1.0000   1.0000
     1.0000   1.0000   1.0000   1.0000   0.0000   0.0000   0.0000   0.0000
     0.0000   0.0000   0.0000   0.0000

          k = 0.2210 0.0442-0.0442 (  5495 PWs)   bands (ev):

   -14.6767 -14.6767 -14.6734 -14.6734 -14.6632 -14.6632 -14.5979 -14.5979
   -14.5785 -14.5785 -14.4227 -14.4227 -14.3825 -14.3825 -14.3564 -14.3564
   -14.3489 -14.3489 -14.3376 -14.3376  -2.8759  -2.8759   3.8691   3.8691
     6.1038   6.1038   6.1197   6.1197   8.3409   8.3409   8.5765   8.5765
    10.2648  10.2648  10.3465  10.3465

     occupation numbers 
     1.0000   1.0000   1.0000   1.0000   1.0000   1.0000   1.0000   1.0000
     1.0000   1.0000   1.0000   1.0000   1.0000   1.0000   1.0000   1.0000
     1.0000   1.0000   1.0000   1.0000   1.0000   1.0000   1.0000   1.0000
     1.0000   1.0000   1.0000   1.0000   0.0000   0.0000   0.0000   0.0000
     0.0000   0.0000   0.0000   0.0000

          k = 0.2652 0.0884-0.0884 (  5487 PWs)   bands (ev):

   -14.6850 -14.6850 -14.6787 -14.6787 -14.6562 -14.6562 -14.5891 -14.5891
   -14.5675 -14.5675 -14.4337 -14.4337 -14.3922 -14.3922 -14.3633 -14.3633
   -14.3409 -14.3409 -14.3292 -14.3292  -2.6860  -2.6860   3.1934   3.1934
     5.8234   5.8234   5.9205   5.9205   8.2674   8.2674   8.8702   8.8702
    10.5540  10.5540  10.7812  10.7812

     occupation numbers 
     1.0000   1.0000   1.0000   1.0000   1.0000   1.0000   1.0000   1.0000
     1.0000   1.0000   1.0000   1.0000   1.0000   1.0000   1.0000   1.0000
     1.0000   1.0000   1.0000   1.0000   1.0000   1.0000   1.0000   1.0000
     1.0000   1.0000   1.0000   1.0000   0.0000   0.0000   0.0000   0.0000
     0.0000   0.0000   0.0000   0.0000

          k = 0.3094 0.1326-0.1326 (  5489 PWs)   bands (ev):

   -14.6924 -14.6924 -14.6837 -14.6837 -14.6475 -14.6475 -14.5800 -14.5800
   -14.5584 -14.5584 -14.4416 -14.4416 -14.4017 -14.4017 -14.3730 -14.3730
   -14.3338 -14.3338 -14.3214 -14.3214  -2.4399  -2.4399   2.4918   2.4918
     5.5402   5.5402   5.7671   5.7671   8.1259   8.1259   9.2541   9.2541
    10.7231  10.7231  11.1032  11.1032

     occupation numbers 
     1.0000   1.0000   1.0000   1.0000   1.0000   1.0000   1.0000   1.0000
     1.0000   1.0000   1.0000   1.0000   1.0000   1.0000   1.0000   1.0000
     1.0000   1.0000   1.0000   1.0000   1.0000   1.0000   1.0000   1.0000
     1.0000   1.0000   1.0000   1.0000   0.0000   0.0000   0.0000   0.0000
     0.0000   0.0000   0.0000   0.0000

          k = 0.3536 0.1768-0.1768 (  5494 PWs)   bands (ev):

   -14.6982 -14.6982 -14.6880 -14.6880 -14.6384 -14.6384 -14.5715 -14.5715
   -14.5528 -14.5528 -14.4454 -14.4454 -14.4107 -14.4107 -14.3836 -14.3836
   -14.3278 -14.3278 -14.3151 -14.3151  -2.1539  -2.1539   1.8310   1.8310
     5.2891   5.2891   5.6690   5.6690   7.9830   7.9830   9.5793   9.5793
    10.7602  10.7602  11.4622  11.4622

     occupation numbers 
     1.0000   1.0000   1.0000   1.0000   1.0000   1.0000   1.0000   1.0000
     1.0000   1.0000   1.0000   1.0000   1.0000   1.0000   1.0000   1.0000
     1.0000   1.0000   1.0000   1.0000   1.0000   1.0000   1.0000   1.0000
     1.0000   1.0000   1.0000   1.0000   0.0000   0.0000   0.0000   0.0000
     0.0000   0.0000   0.0000   0.0000

          k = 0.3977 0.2210-0.2210 (  5497 PWs)   bands (ev):

   -14.7021 -14.7021 -14.6913 -14.6913 -14.6300 -14.6300 -14.5640 -14.5640
   -14.5513 -14.5513 -14.4444 -14.4444 -14.4188 -14.4188 -14.3938 -14.3938
   -14.3231 -14.3231 -14.3108 -14.3108  -1.8637  -1.8637   1.2731   1.2731
     5.0880   5.0880   5.6304   5.6304   7.8668   7.8668   9.7789   9.7789
    10.7049  10.7049  11.9803  11.9803

     occupation numbers 
     1.0000   1.0000   1.0000   1.0000   1.0000   1.0000   1.0000   1.0000
     1.0000   1.0000   1.0000   1.0000   1.0000   1.0000   1.0000   1.0000
     1.0000   1.0000   1.0000   1.0000   1.0000   1.0000   1.0000   1.0000
     1.0000   1.0000   1.0000   1.0000   0.0000   0.0000   0.0000   0.0000
     0.0000   0.0000   0.0000   0.0000

          k =-0.2652-0.4419 0.4419 (  5498 PWs)   bands (ev):

   -14.7041 -14.7041 -14.6938 -14.6938 -14.6239 -14.6239 -14.5580 -14.5580
   -14.5537 -14.5537 -14.4388 -14.4388 -14.4259 -14.4259 -14.4022 -14.4022
   -14.3195 -14.3195 -14.3089 -14.3089  -1.6454  -1.6454   0.9079   0.9079
     4.9459   4.9459   5.6524   5.6524   7.7902   7.7902   9.8983   9.8983
    10.6055  10.6055  12.5490  12.5490

     occupation numbers 
     1.0000   1.0000   1.0000   1.0000   1.0000   1.0000   1.0000   1.0000
     1.0000   1.0000   1.0000   1.0000   1.0000   1.0000   1.0000   1.0000
     1.0000   1.0000   1.0000   1.0000   1.0000   1.0000   1.0000   1.0000
     1.0000   1.0000   1.0000   1.0000   0.0000   0.0000   0.0000   0.0000
     0.0000   0.0000   0.0000   0.0000

          k =-0.2210-0.3977 0.3977 (  5507 PWs)   bands (ev):

   -14.7040 -14.7040 -14.6952 -14.6952 -14.6212 -14.6212 -14.5588 -14.5588
   -14.5538 -14.5538 -14.4314 -14.4314 -14.4297 -14.4297 -14.4078 -14.4078
   -14.3173 -14.3173 -14.3095 -14.3095  -1.6100  -1.6100   0.8526   0.8526
     4.8690   4.8690   5.7333   5.7333   7.7577   7.7577   9.9978   9.9978
    10.4901  10.4901  12.8555  12.8555

     occupation numbers 
     1.0000   1.0000   1.0000   1.0000   1.0000   1.0000   1.0000   1.0000
     1.0000   1.0000   1.0000   1.0000   1.0000   1.0000   1.0000   1.0000
     1.0000   1.0000   1.0000   1.0000   1.0000   1.0000   1.0000   1.0000
     1.0000   1.0000   1.0000   1.0000   0.0000   0.0000   0.0000   0.0000
     0.0000   0.0000   0.0000   0.0000

          k =-0.1768-0.3536 0.3536 (  5489 PWs)   bands (ev):

   -14.7017 -14.7017 -14.6956 -14.6956 -14.6228 -14.6228 -14.5652 -14.5652
   -14.5524 -14.5524 -14.4344 -14.4344 -14.4195 -14.4195 -14.4087 -14.4087
   -14.3165 -14.3165 -14.3125 -14.3125  -1.7820  -1.7820   1.1320   1.1320
     4.8626   4.8626   5.8685   5.8685   7.7684   7.7684  10.0991  10.0991
    10.3615  10.3615  12.6001  12.6001

     occupation numbers 
     1.0000   1.0000   1.0000   1.0000   1.0000   1.0000   1.0000   1.0000
     1.0000   1.0000   1.0000   1.0000   1.0000   1.0000   1.0000   1.0000
     1.0000   1.0000   1.0000   1.0000   1.0000   1.0000   1.0000   1.0000
     1.0000   1.0000   1.0000   1.0000   0.0000   0.0000   0.0000   0.0000
     0.0000   0.0000   0.0000   0.0000

          k =-0.1326-0.3094 0.3094 (  5480 PWs)   bands (ev):

   -14.6975 -14.6975 -14.6946 -14.6946 -14.6283 -14.6283 -14.5721 -14.5721
   -14.5547 -14.5547 -14.4338 -14.4338 -14.4140 -14.4140 -14.4004 -14.4004
   -14.3181 -14.3181 -14.3173 -14.3173  -2.0600  -2.0600   1.6387   1.6387
     4.9332   4.9332   6.0499   6.0499   7.8150   7.8150  10.1795  10.1795
    10.2016  10.2016  11.9472  11.9472

     occupation numbers 
     1.0000   1.0000   1.0000   1.0000   1.0000   1.0000   1.0000   1.0000
     1.0000   1.0000   1.0000   1.0000   1.0000   1.0000   1.0000   1.0000
     1.0000   1.0000   1.0000   1.0000   1.0000   1.0000   1.0000   1.0000
     1.0000   1.0000   1.0000   1.0000   0.0000   0.0000   0.0000   0.0000
     0.0000   0.0000   0.0000   0.0000

          k =-0.0884-0.2652 0.2652 (  5475 PWs)   bands (ev):

   -14.6921 -14.6921 -14.6915 -14.6915 -14.6364 -14.6364 -14.5791 -14.5791
   -14.5611 -14.5611 -14.4291 -14.4291 -14.4102 -14.4102 -14.3874 -14.3874
   -14.3260 -14.3260 -14.3198 -14.3198  -2.3524  -2.3524   2.2666   2.2666
     5.0902   5.0902   6.2635   6.2635   7.8790   7.8790   9.9870   9.9870
    10.1467  10.1467  11.3377  11.3377

     occupation numbers 
     1.0000   1.0000   1.0000   1.0000   1.0000   1.0000   1.0000   1.0000
     1.0000   1.0000   1.0000   1.0000   1.0000   1.0000   1.0000   1.0000
     1.0000   1.0000   1.0000   1.0000   1.0000   1.0000   1.0000   1.0000
     1.0000   1.0000   1.0000   1.0000   0.0000   0.0000   0.0000   0.0000
     0.0000   0.0000   0.0000   0.0000

          k =-0.0442-0.2210 0.2210 (  5491 PWs)   bands (ev):

   -14.6880 -14.6880 -14.6842 -14.6842 -14.6454 -14.6454 -14.5865 -14.5865
   -14.5708 -14.5708 -14.4209 -14.4209 -14.4047 -14.4047 -14.3748 -14.3748
   -14.3357 -14.3357 -14.3241 -14.3241  -2.6134  -2.6134   2.9423   2.9423
     5.3484   5.3484   6.4857   6.4857   7.9159   7.9159   9.7241   9.7242
     9.8868   9.8868  10.9546  10.9546

     occupation numbers 
     1.0000   1.0000   1.0000   1.0000   1.0000   1.0000   1.0000   1.0000
     1.0000   1.0000   1.0000   1.0000   1.0000   1.0000   1.0000   1.0000
     1.0000   1.0000   1.0000   1.0000   1.0000   1.0000   1.0000   1.0000
     1.0000   1.0000   1.0000   1.0000   0.0000   0.0000   0.0000   0.0000
     0.0000   0.0000   0.0000   0.0000

          k = 0.0000-0.1768 0.1768 (  5493 PWs)   bands (ev):

   -14.6825 -14.6825 -14.6767 -14.6767 -14.6533 -14.6533 -14.5939 -14.5939
   -14.5822 -14.5822 -14.4103 -14.4103 -14.3975 -14.3975 -14.3649 -14.3649
   -14.3459 -14.3459 -14.3302 -14.3302  -2.8222  -2.8222   3.5978   3.5978
     5.7287   5.7287   6.6757   6.6757   7.8349   7.8349   9.4742   9.4742
     9.5720   9.5721  10.6139  10.6139

     occupation numbers 
     1.0000   1.0000   1.0000   1.0000   1.0000   1.0000   1.0000   1.0000
     1.0000   1.0000   1.0000   1.0000   1.0000   1.0000   1.0000   1.0000
     1.0000   1.0000   1.0000   1.0000   1.0000   1.0000   1.0000   1.0000
     1.0000   1.0000   1.0000   1.0000   0.0000   0.0000   0.0000   0.0000
     0.0000   0.0000   0.0000   0.0000

          k = 0.2652 0.0000 0.0000 (  5509 PWs)   bands (ev):

   -14.6763 -14.6763 -14.6763 -14.6763 -14.6676 -14.6676 -14.5928 -14.5928
   -14.5662 -14.5662 -14.4382 -14.4382 -14.3860 -14.3860 -14.3457 -14.3457
   -14.3457 -14.3457 -14.3417 -14.3417  -2.7716  -2.7716   3.5571   3.5571
     5.8883   5.8883   5.8883   5.8883   8.2400   8.2400   8.7207   8.7207
    10.6659  10.6659  10.6659  10.6659

     occupation numbers 
     1.0000   1.0000   1.0000   1.0000   1.0000   1.0000   1.0000   1.0000
     1.0000   1.0000   1.0000   1.0000   1.0000   1.0000   1.0000   1.0000
     1.0000   1.0000   1.0000   1.0000   1.0000   1.0000   1.0000   1.0000
     1.0000   1.0000   1.0000   1.0000   0.0000   0.0000   0.0000   0.0000
     0.0000   0.0000   0.0000   0.0000

          k = 0.3094 0.0442-0.0442 (  5493 PWs)   bands (ev):

   -14.6837 -14.6837 -14.6808 -14.6808 -14.6616 -14.6616 -14.5847 -14.5847
   -14.5537 -14.5537 -14.4521 -14.4521 -14.3943 -14.3943 -14.3522 -14.3522
   -14.3392 -14.3392 -14.3326 -14.3326  -2.6020  -2.6020   3.0523   3.0523
     5.6289   5.6289   5.6853   5.6853   8.2251   8.2251   8.8229   8.8229
    10.9941  10.9941  11.0225  11.0225

     occupation numbers 
     1.0000   1.0000   1.0000   1.0000   1.0000   1.0000   1.0000   1.0000
     1.0000   1.0000   1.0000   1.0000   1.0000   1.0000   1.0000   1.0000
     1.0000   1.0000   1.0000   1.0000   1.0000   1.0000   1.0000   1.0000
     1.0000   1.0000   1.0000   1.0000   0.0000   0.0000   0.0000   0.0000
     0.0000   0.0000   0.0000   0.0000

          k = 0.3536 0.0884-0.0884 (  5499 PWs)   bands (ev):

   -14.6926 -14.6926 -14.6855 -14.6855 -14.6512 -14.6512 -14.5754 -14.5754
   -14.5429 -14.5429 -14.4629 -14.4629 -14.4041 -14.4041 -14.3641 -14.3641
   -14.3322 -14.3322 -14.3219 -14.3219  -2.3729  -2.3729   2.4608   2.4608
     5.3092   5.3092   5.5295   5.5295   8.3188   8.3188   8.9682   8.9682
    11.0638  11.0638  11.2579  11.2579

     occupation numbers 
     1.0000   1.0000   1.0000   1.0000   1.0000   1.0000   1.0000   1.0000
     1.0000   1.0000   1.0000   1.0000   1.0000   1.0000   1.0000   1.0000
     1.0000   1.0000   1.0000   1.0000   1.0000   1.0000   1.0000   1.0000
     1.0000   1.0000   1.0000   1.0000   0.0000   0.0000   0.0000   0.0000
     0.0000   0.0000   0.0000   0.0000

          k = 0.3977 0.1326-0.1326 (  5487 PWs)   bands (ev):

   -14.7006 -14.7006 -14.6898 -14.6898 -14.6391 -14.6391 -14.5659 -14.5659
   -14.5356 -14.5356 -14.4692 -14.4692 -14.4142 -14.4142 -14.3777 -14.3777
   -14.3259 -14.3259 -14.3128 -14.3128  -2.0966  -2.0966   1.8590   1.8590
     4.9907   4.9907   5.4309   5.4309   8.2888   8.2888   9.3516   9.3516
    11.0700  11.0700  11.3362  11.3362

     occupation numbers 
     1.0000   1.0000   1.0000   1.0000   1.0000   1.0000   1.0000   1.0000
     1.0000   1.0000   1.0000   1.0000   1.0000   1.0000   1.0000   1.0000
     1.0000   1.0000   1.0000   1.0000   1.0000   1.0000   1.0000   1.0000
     1.0000   1.0000   1.0000   1.0000   0.0000   0.0000   0.0000   0.0000
     0.0000   0.0000   0.0000   0.0000

          k = 0.4419 0.1768-0.1768 (  5492 PWs)   bands (ev):

   -14.7069 -14.7069 -14.6934 -14.6934 -14.6269 -14.6269 -14.5570 -14.5570
   -14.5333 -14.5333 -14.4697 -14.4697 -14.4241 -14.4241 -14.3915 -14.3915
   -14.3206 -14.3206 -14.3057 -14.3057  -1.7999  -1.7999   1.3110   1.3110
     4.7169   4.7169   5.3944   5.3944   8.2115   8.2115   9.7689   9.7689
    11.2477  11.2477  11.2866  11.2866

     occupation numbers 
     1.0000   1.0000   1.0000   1.0000   1.0000   1.0000   1.0000   1.0000
     1.0000   1.0000   1.0000   1.0000   1.0000   1.0000   1.0000   1.0000
     1.0000   1.0000   1.0000   1.0000   1.0000   1.0000   1.0000   1.0000
     1.0000   1.0000   1.0000   1.0000   0.0000   0.0000   0.0000   0.0000
     0.0000   0.0000   0.0000   0.0000

          k =-0.2210-0.4861 0.4861 (  5487 PWs)   bands (ev):

   -14.7109 -14.7109 -14.6962 -14.6962 -14.6166 -14.6166 -14.5490 -14.5490
   -14.5364 -14.5364 -14.4643 -14.4643 -14.4334 -14.4334 -14.4034 -14.4034
   -14.3165 -14.3165 -14.3013 -14.3013  -1.5430  -1.5430   0.8985   0.8985
     4.5085   4.5085   5.4214   5.4214   8.1532   8.1532  10.0267  10.0267
    11.1648  11.1648  11.7272  11.7273

     occupation numbers 
     1.0000   1.0000   1.0000   1.0000   1.0000   1.0000   1.0000   1.0000
     1.0000   1.0000   1.0000   1.0000   1.0000   1.0000   1.0000   1.0000
     1.0000   1.0000   1.0000   1.0000   1.0000   1.0000   1.0000   1.0000
     1.0000   1.0000   1.0000   1.0000   0.0000   0.0000   0.0000   0.0000
     0.0000   0.0000   0.0000   0.0000

          k =-0.1768-0.4419 0.4419 (  5478 PWs)   bands (ev):

   -14.7124 -14.7124 -14.6981 -14.6981 -14.6100 -14.6100 -14.5439 -14.5439
   -14.5427 -14.5427 -14.4537 -14.4537 -14.4412 -14.4412 -14.4118 -14.4118
   -14.3137 -14.3137 -14.2999 -14.2999  -1.4379  -1.4379   0.7439   0.7439
     4.3770   4.3770   5.5102   5.5102   8.1314   8.1314  10.1613  10.1613
    11.0080  11.0080  12.3641  12.3641

     occupation numbers 
     1.0000   1.0000   1.0000   1.0000   1.0000   1.0000   1.0000   1.0000
     1.0000   1.0000   1.0000   1.0000   1.0000   1.0000   1.0000   1.0000
     1.0000   1.0000   1.0000   1.0000   1.0000   1.0000   1.0000   1.0000
     1.0000   1.0000   1.0000   1.0000   0.0000   0.0000   0.0000   0.0000
     0.0000   0.0000   0.0000   0.0000

          k =-0.1326-0.3977 0.3977 (  5487 PWs)   bands (ev):

   -14.7111 -14.7111 -14.6989 -14.6989 -14.6086 -14.6086 -14.5541 -14.5541
   -14.5396 -14.5396 -14.4461 -14.4461 -14.4390 -14.4390 -14.4163 -14.4163
   -14.3124 -14.3124 -14.3018 -14.3018  -1.5573  -1.5573   0.9211   0.9211
     4.3323   4.3323   5.6556   5.6556   8.1454   8.1454  10.2700  10.2700
    10.8246  10.8246  12.4729  12.4730

     occupation numbers 
     1.0000   1.0000   1.0000   1.0000   1.0000   1.0000   1.0000   1.0000
     1.0000   1.0000   1.0000   1.0000   1.0000   1.0000   1.0000   1.0000
     1.0000   1.0000   1.0000   1.0000   1.0000   1.0000   1.0000   1.0000
     1.0000   1.0000   1.0000   1.0000   0.0000   0.0000   0.0000   0.0000
     0.0000   0.0000   0.0000   0.0000

          k =-0.0884-0.3536 0.3536 (  5484 PWs)   bands (ev):

   -14.7072 -14.7072 -14.6984 -14.6984 -14.6129 -14.6129 -14.5644 -14.5644
   -14.5413 -14.5413 -14.4464 -14.4464 -14.4218 -14.4218 -14.4172 -14.4172
   -14.3128 -14.3128 -14.3070 -14.3070  -1.8192  -1.8192   1.3401   1.3401
     4.3867   4.3867   5.8483   5.8483   8.1814   8.1814  10.3793  10.3793
    10.5994  10.5994  11.8035  11.8035

     occupation numbers 
     1.0000   1.0000   1.0000   1.0000   1.0000   1.0000   1.0000   1.0000
     1.0000   1.0000   1.0000   1.0000   1.0000   1.0000   1.0000   1.0000
     1.0000   1.0000   1.0000   1.0000   1.0000   1.0000   1.0000   1.0000
     1.0000   1.0000   1.0000   1.0000   0.0000   0.0000   0.0000   0.0000
     0.0000   0.0000   0.0000   0.0000

          k =-0.0442-0.3094 0.3094 (  5477 PWs)   bands (ev):

   -14.7008 -14.7008 -14.6964 -14.6964 -14.6223 -14.6223 -14.5731 -14.5731
   -14.5480 -14.5480 -14.4414 -14.4414 -14.4152 -14.4152 -14.4038 -14.4038
   -14.3151 -14.3151 -14.3148 -14.3148  -2.1150  -2.1150   1.8722   1.8722
     4.5588   4.5588   6.0721   6.0721   8.2062   8.2062  10.3167  10.3167
    10.4104  10.4104  11.1901  11.1901

     occupation numbers 
     1.0000   1.0000   1.0000   1.0000   1.0000   1.0000   1.0000   1.0000
     1.0000   1.0000   1.0000   1.0000   1.0000   1.0000   1.0000   1.0000
     1.0000   1.0000   1.0000   1.0000   1.0000   1.0000   1.0000   1.0000
     1.0000   1.0000   1.0000   1.0000   0.0000   0.0000   0.0000   0.0000
     0.0000   0.0000   0.0000   0.0000

          k = 0.0000-0.2652 0.2652 (  5496 PWs)   bands (ev):

   -14.6929 -14.6929 -14.6927 -14.6927 -14.6342 -14.6342 -14.5803 -14.5803
   -14.5585 -14.5585 -14.4324 -14.4324 -14.4108 -14.4108 -14.3873 -14.3873
   -14.3254 -14.3254 -14.3186 -14.3186  -2.3881  -2.3881   2.4275   2.4275
     4.8731   4.8731   6.2995   6.2995   8.1493   8.1493   9.9995   9.9995
    10.1539  10.1539  11.0003  11.0003

     occupation numbers 
     1.0000   1.0000   1.0000   1.0000   1.0000   1.0000   1.0000   1.0000
     1.0000   1.0000   1.0000   1.0000   1.0000   1.0000   1.0000   1.0000
     1.0000   1.0000   1.0000   1.0000   1.0000   1.0000   1.0000   1.0000
     1.0000   1.0000   1.0000   1.0000   0.0000   0.0000   0.0000   0.0000
     0.0000   0.0000   0.0000   0.0000

          k = 0.3536 0.0000 0.0000 (  5457 PWs)   bands (ev):

   -14.6844 -14.6844 -14.6844 -14.6844 -14.6628 -14.6628 -14.5771 -14.5771
   -14.5391 -14.5391 -14.4691 -14.4691 -14.4011 -14.4011 -14.3467 -14.3467
   -14.3343 -14.3343 -14.3343 -14.3343  -2.4521  -2.4521   2.7082   2.7082
     5.4759   5.4759   5.4759   5.4759   7.9546   7.9546   8.8888   8.8888
    11.4723  11.4723  11.4723  11.4723

     occupation numbers 
     1.0000   1.0000   1.0000   1.0000   1.0000   1.0000   1.0000   1.0000
     1.0000   1.0000   1.0000   1.0000   1.0000   1.0000   1.0000   1.0000
     1.0000   1.0000   1.0000   1.0000   1.0000   1.0000   1.0000   1.0000
     1.0000   1.0000   1.0000   1.0000   0.0000   0.0000   0.0000   0.0000
     0.0000   0.0000   0.0000   0.0000

          k = 0.3977 0.0442-0.0442 (  5485 PWs)   bands (ev):

   -14.6911 -14.6911 -14.6885 -14.6885 -14.6548 -14.6548 -14.5677 -14.5677
   -14.5260 -14.5260 -14.4833 -14.4833 -14.4106 -14.4106 -14.3569 -14.3569
   -14.3282 -14.3282 -14.3245 -14.3245  -2.2407  -2.2407   2.2418   2.2418
     5.2251   5.2251   5.3125   5.3125   7.9786   7.9786   8.8543   8.8543
    11.6120  11.6120  11.8139  11.8139

     occupation numbers 
     1.0000   1.0000   1.0000   1.0000   1.0000   1.0000   1.0000   1.0000
     1.0000   1.0000   1.0000   1.0000   1.0000   1.0000   1.0000   1.0000
     1.0000   1.0000   1.0000   1.0000   1.0000   1.0000   1.0000   1.0000
     1.0000   1.0000   1.0000   1.0000   0.0000   0.0000   0.0000   0.0000
     0.0000   0.0000   0.0000   0.0000

          k = 0.4419 0.0884-0.0884 (  5496 PWs)   bands (ev):

   -14.6999 -14.6999 -14.6925 -14.6925 -14.6415 -14.6415 -14.5576 -14.5576
   -14.5162 -14.5162 -14.4929 -14.4929 -14.4211 -14.4211 -14.3720 -14.3720
   -14.3224 -14.3224 -14.3137 -14.3137  -1.9768  -1.9768   1.7290   1.7290
     4.8880   4.8880   5.2065   5.2065   8.1247   8.1247   8.9883   8.9883
    11.4814  11.4815  11.9781  11.9781

     occupation numbers 
     1.0000   1.0000   1.0000   1.0000   1.0000   1.0000   1.0000   1.0000
     1.0000   1.0000   1.0000   1.0000   1.0000   1.0000   1.0000   1.0000
     1.0000   1.0000   1.0000   1.0000   1.0000   1.0000   1.0000   1.0000
     1.0000   1.0000   1.0000   1.0000   0.0000   0.0000   0.0000   0.0000
     0.0000   0.0000   0.0000   0.0000

          k = 0.4861 0.1326-0.1326 (  5499 PWs)   bands (ev):

   -14.7080 -14.7080 -14.6959 -14.6959 -14.6265 -14.6265 -14.5475 -14.5475
   -14.5127 -14.5127 -14.4955 -14.4955 -14.4321 -14.4321 -14.3884 -14.3884
   -14.3173 -14.3173 -14.3044 -14.3044  -1.6799  -1.6799   1.2287   1.2287
     4.5496   4.5496   5.1638   5.1638   8.1672   8.1672   9.4484   9.4484
    11.3557  11.3557  11.9685  11.9685

     occupation numbers 
     1.0000   1.0000   1.0000   1.0000   1.0000   1.0000   1.0000   1.0000
     1.0000   1.0000   1.0000   1.0000   1.0000   1.0000   1.0000   1.0000
     1.0000   1.0000   1.0000   1.0000   1.0000   1.0000   1.0000   1.0000
     1.0000   1.0000   1.0000   1.0000   0.0000   0.0000   0.0000   0.0000
     0.0000   0.0000   0.0000   0.0000

          k =-0.1768-0.5303 0.5303 (  5486 PWs)   bands (ev):

   -14.7142 -14.7142 -14.6987 -14.6987 -14.6128 -14.6128 -14.5380 -14.5380
   -14.5150 -14.5150 -14.4917 -14.4917 -14.4428 -14.4428 -14.4033 -14.4033
   -14.3133 -14.3133 -14.2975 -14.2975  -1.3959  -1.3959   0.8090   0.8090
     4.2668   4.2668   5.1863   5.1863   8.1635   8.1635  10.0687  10.0687
    11.3383  11.3383  11.8441  11.8441

     occupation numbers 
     1.0000   1.0000   1.0000   1.0000   1.0000   1.0000   1.0000   1.0000
     1.0000   1.0000   1.0000   1.0000   1.0000   1.0000   1.0000   1.0000
[...]

     occupation numbers 
     1.0000   1.0000   1.0000   1.0000   1.0000   1.0000   1.0000   1.0000
     1.0000   1.0000   1.0000   1.0000   1.0000   1.0000   1.0000   1.0000
     1.0000   1.0000   1.0000   1.0000   1.0000   1.0000   1.0000   1.0000
     1.0000   1.0000   1.0000   1.0000   0.0000   0.0000   0.0000   0.0000
     0.0000   0.0000   0.0000   0.0000

          k =-0.1326-0.3977 0.5745 (  5486 PWs)   bands (ev):

   -14.7180 -14.7180 -14.7054 -14.7054 -14.5923 -14.5923 -14.5323 -14.5323
   -14.5120 -14.5120 -14.4890 -14.4890 -14.4549 -14.4549 -14.4236 -14.4236
   -14.3057 -14.3057 -14.2932 -14.2932  -1.1391  -1.1391   0.5116   0.5116
     4.0325   4.0325   4.9937   4.9937   8.8405   8.8405  10.0819  10.0819
    11.3596  11.3596  12.0452  12.0452

     occupation numbers 
     1.0000   1.0000   1.0000   1.0000   1.0000   1.0000   1.0000   1.0000
     1.0000   1.0000   1.0000   1.0000   1.0000   1.0000   1.0000   1.0000
     1.0000   1.0000   1.0000   1.0000   1.0000   1.0000   1.0000   1.0000
     1.0000   1.0000   1.0000   1.0000   0.0000   0.0000   0.0000   0.0000
     0.0000   0.0000   0.0000   0.0000

          k =-0.0884-0.3536 0.5303 (  5490 PWs)   bands (ev):

   -14.7179 -14.7179 -14.7054 -14.7054 -14.5918 -14.5918 -14.5352 -14.5352
   -14.5134 -14.5134 -14.4849 -14.4849 -14.4542 -14.4542 -14.4247 -14.4247
   -14.3055 -14.3055 -14.2935 -14.2935  -1.1937  -1.1937   0.5808   0.5808
     3.9994   3.9994   5.0628   5.0628   8.8858   8.8858  10.0735  10.0735
    11.4235  11.4235  12.0063  12.0063

     occupation numbers 
     1.0000   1.0000   1.0000   1.0000   1.0000   1.0000   1.0000   1.0000
     1.0000   1.0000   1.0000   1.0000   1.0000   1.0000   1.0000   1.0000
     1.0000   1.0000   1.0000   1.0000   1.0000   1.0000   1.0000   1.0000
     1.0000   1.0000   1.0000   1.0000   0.0000   0.0000   0.0000   0.0000
     0.0000   0.0000   0.0000   0.0000

          k =-0.0442-0.3094 0.4861 (  5490 PWs)   bands (ev):

   -14.7146 -14.7146 -14.7044 -14.7044 -14.5987 -14.5987 -14.5457 -14.5457
   -14.5157 -14.5157 -14.4825 -14.4825 -14.4412 -14.4412 -14.4203 -14.4203
   -14.3067 -14.3067 -14.2976 -14.2976  -1.4374  -1.4374   0.9002   0.9002
     4.0707   4.0707   5.2053   5.2053   8.9378   8.9378   9.9579   9.9579
    10.8452  10.8452  12.2330  12.2330

     occupation numbers 
     1.0000   1.0000   1.0000   1.0000   1.0000   1.0000   1.0000   1.0000
     1.0000   1.0000   1.0000   1.0000   1.0000   1.0000   1.0000   1.0000
     1.0000   1.0000   1.0000   1.0000   1.0000   1.0000   1.0000   1.0000
     1.0000   1.0000   1.0000   1.0000   0.0000   0.0000   0.0000   0.0000
     0.0000   0.0000   0.0000   0.0000

          k = 0.0000-0.2652 0.4419 (  5490 PWs)   bands (ev):

   -14.7085 -14.7085 -14.7020 -14.7020 -14.6115 -14.6115 -14.5565 -14.5565
   -14.5232 -14.5232 -14.4766 -14.4766 -14.4264 -14.4264 -14.4097 -14.4097
   -14.3094 -14.3094 -14.3051 -14.3051  -1.7355  -1.7355   1.3195   1.3195
     4.2656   4.2656   5.3957   5.3957   8.9374   8.9374   9.6035   9.6035
    10.6687  10.6687  12.0065  12.0065

     occupation numbers 
     1.0000   1.0000   1.0000   1.0000   1.0000   1.0000   1.0000   1.0000
     1.0000   1.0000   1.0000   1.0000   1.0000   1.0000   1.0000   1.0000
     1.0000   1.0000   1.0000   1.0000   1.0000   1.0000   1.0000   1.0000
     1.0000   1.0000   1.0000   1.0000   0.0000   0.0000   0.0000   0.0000
     0.0000   0.0000   0.0000   0.0000

          k =-0.1768-0.5303 0.7071 (  5518 PWs)   bands (ev):

   -14.7067 -14.7067 -14.7049 -14.7049 -14.6151 -14.6151 -14.5369 -14.5369
   -14.5180 -14.5180 -14.4916 -14.4916 -14.4428 -14.4428 -14.3992 -14.3992
   -14.3067 -14.3067 -14.3054 -14.3054  -1.4441  -1.4441   0.9379   0.9379
     4.4361   4.4361   4.8668   4.8668   8.5821   8.5821   8.9376   8.9376
    11.3569  11.3569  12.9677  12.9677

     occupation numbers 
     1.0000   1.0000   1.0000   1.0000   1.0000   1.0000   1.0000   1.0000
     1.0000   1.0000   1.0000   1.0000   1.0000   1.0000   1.0000   1.0000
     1.0000   1.0000   1.0000   1.0000   1.0000   1.0000   1.0000   1.0000
     1.0000   1.0000   1.0000   1.0000   0.0000   0.0000   0.0000   0.0000
     0.0000   0.0000   0.0000   0.0000

          k =-0.1326-0.4861 0.6629 (  5487 PWs)   bands (ev):

   -14.7135 -14.7135 -14.7072 -14.7072 -14.5978 -14.5978 -14.5268 -14.5268
   -14.5226 -14.5226 -14.4855 -14.4855 -14.4550 -14.4550 -14.4165 -14.4165
   -14.3038 -14.3038 -14.2976 -14.2976  -1.1402  -1.1402   0.5538   0.5538
     4.2064   4.2064   4.7452   4.7452   8.7481   8.7481   9.4124   9.4124
    11.1821  11.1821  12.9210  12.9210

     occupation numbers 
     1.0000   1.0000   1.0000   1.0000   1.0000   1.0000   1.0000   1.0000
     1.0000   1.0000   1.0000   1.0000   1.0000   1.0000   1.0000   1.0000
     1.0000   1.0000   1.0000   1.0000   1.0000   1.0000   1.0000   1.0000
     1.0000   1.0000   1.0000   1.0000   0.0000   0.0000   0.0000   0.0000
     0.0000   0.0000   0.0000   0.0000

          k =-0.0884-0.4419 0.6187 (  5488 PWs)   bands (ev):

   -14.7185 -14.7185 -14.7082 -14.7082 -14.5852 -14.5852 -14.5224 -14.5224
   -14.5150 -14.5150 -14.4875 -14.4875 -14.4661 -14.4661 -14.4283 -14.4283
   -14.3024 -14.3024 -14.2922 -14.2922  -0.9022  -0.9022   0.2782   0.2782
     4.0085   4.0085   4.7357   4.7357   8.8034   8.8034  10.1395  10.1395
    11.0786  11.0786  12.3413  12.3413

     occupation numbers 
     1.0000   1.0000   1.0000   1.0000   1.0000   1.0000   1.0000   1.0000
     1.0000   1.0000   1.0000   1.0000   1.0000   1.0000   1.0000   1.0000
     1.0000   1.0000   1.0000   1.0000   1.0000   1.0000   1.0000   1.0000
     1.0000   1.0000   1.0000   1.0000   0.0000   0.0000   0.0000   0.0000
     0.0000   0.0000   0.0000   0.0000

          k =-0.0442-0.3977 0.5745 (  5496 PWs)   bands (ev):

   -14.7204 -14.7204 -14.7082 -14.7082 -14.5820 -14.5820 -14.5190 -14.5190
   -14.5068 -14.5068 -14.4951 -14.4951 -14.4705 -14.4705 -14.4312 -14.4312
   -14.3023 -14.3023 -14.2903 -14.2903  -0.9043  -0.9043   0.2831   0.2831
     3.8958   3.8958   4.8247   4.8247   8.8804   8.8804  10.6079  10.6079
    11.2949  11.2949  11.6121  11.6121

     occupation numbers 
     1.0000   1.0000   1.0000   1.0000   1.0000   1.0000   1.0000   1.0000
     1.0000   1.0000   1.0000   1.0000   1.0000   1.0000   1.0000   1.0000
     1.0000   1.0000   1.0000   1.0000   1.0000   1.0000   1.0000   1.0000
     1.0000   1.0000   1.0000   1.0000   0.0000   0.0000   0.0000   0.0000
     0.0000   0.0000   0.0000   0.0000

          k = 0.0000-0.3536 0.5303 (  5504 PWs)   bands (ev):

   -14.7190 -14.7190 -14.7070 -14.7070 -14.5871 -14.5871 -14.5310 -14.5310
   -14.5042 -14.5042 -14.4944 -14.4944 -14.4600 -14.4600 -14.4278 -14.4278
   -14.3036 -14.3036 -14.2923 -14.2923  -1.1398  -1.1398   0.5522   0.5522
     3.9082   3.9082   4.9902   4.9902   8.9588   8.9588  10.4660  10.4660
    10.9179  10.9179  12.0975  12.0975

     occupation numbers 
     1.0000   1.0000   1.0000   1.0000   1.0000   1.0000   1.0000   1.0000
     1.0000   1.0000   1.0000   1.0000   1.0000   1.0000   1.0000   1.0000
     1.0000   1.0000   1.0000   1.0000   1.0000   1.0000   1.0000   1.0000
     1.0000   1.0000   1.0000   1.0000   0.0000   0.0000   0.0000   0.0000
     0.0000   0.0000   0.0000   0.0000

          k =-0.0884-0.5303 0.7071 (  5493 PWs)   bands (ev):

   -14.7102 -14.7102 -14.7090 -14.7090 -14.5960 -14.5960 -14.5464 -14.5464
   -14.5140 -14.5140 -14.4655 -14.4655 -14.4651 -14.4651 -14.4174 -14.4174
   -14.3016 -14.3016 -14.3004 -14.3004  -0.9176  -0.9176   0.2863   0.2863
     4.3626   4.3626   4.5767   4.5767   8.5505   8.5505   8.7587   8.7587
    12.0305  12.0305  13.2565  13.2566

     occupation numbers 
     1.0000   1.0000   1.0000   1.0000   1.0000   1.0000   1.0000   1.0000
     1.0000   1.0000   1.0000   1.0000   1.0000   1.0000   1.0000   1.0000
     1.0000   1.0000   1.0000   1.0000   1.0000   1.0000   1.0000   1.0000
     1.0000   1.0000   1.0000   1.0000   0.0000   0.0000   0.0000   0.0000
     0.0000   0.0000   0.0000   0.0000

          k =-0.0442-0.4861 0.6629 (  5491 PWs)   bands (ev):

   -14.7158 -14.7158 -14.7101 -14.7101 -14.5792 -14.5792 -14.5472 -14.5472
   -14.5037 -14.5037 -14.4780 -14.4780 -14.4632 -14.4632 -14.4334 -14.4334
   -14.3002 -14.3002 -14.2945 -14.2945  -0.6339  -0.6339  -0.0137  -0.0137
     4.1526   4.1526   4.5353   4.5353   8.6957   8.6957   9.3600   9.3600
    11.8478  11.8479  12.5583  12.5583

     occupation numbers 
     1.0000   1.0000   1.0000   1.0000   1.0000   1.0000   1.0000   1.0000
     1.0000   1.0000   1.0000   1.0000   1.0000   1.0000   1.0000   1.0000
     1.0000   1.0000   1.0000   1.0000   1.0000   1.0000   1.0000   1.0000
     1.0000   1.0000   1.0000   1.0000   0.0000   0.0000   0.0000   0.0000
     0.0000   0.0000   0.0000   0.0000

          k = 0.0000-0.4419 0.6187 (  5504 PWs)   bands (ev):

   -14.7197 -14.7197 -14.7097 -14.7097 -14.5763 -14.5763 -14.5312 -14.5312
   -14.5028 -14.5028 -14.4821 -14.4821 -14.4765 -14.4765 -14.4358 -14.4358
   -14.3005 -14.3005 -14.2907 -14.2907  -0.6361  -0.6361  -0.0023  -0.0023
     3.9596   3.9596   4.6400   4.6400   8.7831   8.7831  10.1779  10.1779
    11.6894  11.6894  11.7007  11.7007

     occupation numbers 
     1.0000   1.0000   1.0000   1.0000   1.0000   1.0000   1.0000   1.0000
     1.0000   1.0000   1.0000   1.0000   1.0000   1.0000   1.0000   1.0000
     1.0000   1.0000   1.0000   1.0000   1.0000   1.0000   1.0000   1.0000
     1.0000   1.0000   1.0000   1.0000   0.0000   0.0000   0.0000   0.0000
     0.0000   0.0000   0.0000   0.0000

          k =-0.7071 0.1768 0.0000 (  5494 PWs)   bands (ev):

   -14.7109 -14.7109 -14.7109 -14.7109 -14.5733 -14.5733 -14.5722 -14.5722
   -14.4927 -14.4927 -14.4868 -14.4868 -14.4405 -14.4405 -14.4393 -14.4393
   -14.2992 -14.2992 -14.2992 -14.2992  -0.3374  -0.3374  -0.3358  -0.3358
     4.4083   4.4083   4.4084   4.4084   8.6136   8.6136   8.6138   8.6138
    12.7528  12.7528  12.7528  12.7528

     occupation numbers 
     1.0000   1.0000   1.0000   1.0000   1.0000   1.0000   1.0000   1.0000
     1.0000   1.0000   1.0000   1.0000   1.0000   1.0000   1.0000   1.0000
     1.0000   1.0000   1.0000   1.0000   1.0000   1.0000   1.0000   1.0000
     1.0000   1.0000   1.0000   1.0000   0.0000   0.0000   0.0000   0.0000
     0.0000   0.0000   0.0000   0.0000

          k =-0.1768-0.4419 0.7071 (  5488 PWs)   bands (ev):

   -14.7136 -14.7136 -14.7073 -14.7073 -14.5971 -14.5971 -14.5372 -14.5372
   -14.5055 -14.5055 -14.4986 -14.4986 -14.4466 -14.4466 -14.4189 -14.4189
   -14.3037 -14.3037 -14.2982 -14.2982  -1.3104  -1.3104   0.7651   0.7651
     4.1274   4.1274   4.9029   4.9029   9.3368   9.3368   9.4670   9.4670
    10.6222  10.6222  12.6972  12.6972

     occupation numbers 
     1.0000   1.0000   1.0000   1.0000   1.0000   1.0000   1.0000   1.0000
     1.0000   1.0000   1.0000   1.0000   1.0000   1.0000   1.0000   1.0000
     1.0000   1.0000   1.0000   1.0000   1.0000   1.0000   1.0000   1.0000
     1.0000   1.0000   1.0000   1.0000   0.0000   0.0000   0.0000   0.0000
     0.0000   0.0000   0.0000   0.0000

          k =-0.1326-0.3977 0.6629 (  5496 PWs)   bands (ev):

   -14.7179 -14.7179 -14.7094 -14.7094 -14.5835 -14.5835 -14.5268 -14.5268
   -14.5095 -14.5095 -14.4933 -14.4933 -14.4608 -14.4608 -14.4304 -14.4304
   -14.3013 -14.3013 -14.2931 -14.2931  -1.0268  -1.0268   0.4261   0.4261
     4.0001   4.0001   4.7475   4.7475   9.3621   9.3621   9.9600   9.9600
    10.7336  10.7336  12.2274  12.2274

     occupation numbers 
     1.0000   1.0000   1.0000   1.0000   1.0000   1.0000   1.0000   1.0000
     1.0000   1.0000   1.0000   1.0000   1.0000   1.0000   1.0000   1.0000
     1.0000   1.0000   1.0000   1.0000   1.0000   1.0000   1.0000   1.0000
     1.0000   1.0000   1.0000   1.0000   0.0000   0.0000   0.0000   0.0000
     0.0000   0.0000   0.0000   0.0000

          k =-0.0884-0.3536 0.6187 (  5492 PWs)   bands (ev):

   -14.7195 -14.7195 -14.7100 -14.7100 -14.5782 -14.5782 -14.5229 -14.5229
   -14.5075 -14.5075 -14.4939 -14.4939 -14.4673 -14.4673 -14.4346 -14.4346
   -14.3006 -14.3006 -14.2912 -14.2912  -0.8889  -0.8889   0.2686   0.2686
     3.9597   3.9597   4.6907   4.6907   9.3618   9.3618  10.0841  10.0841
    11.2565  11.2565  11.5472  11.5472

     occupation numbers 
     1.0000   1.0000   1.0000   1.0000   1.0000   1.0000   1.0000   1.0000
     1.0000   1.0000   1.0000   1.0000   1.0000   1.0000   1.0000   1.0000
     1.0000   1.0000   1.0000   1.0000   1.0000   1.0000   1.0000   1.0000
     1.0000   1.0000   1.0000   1.0000   0.0000   0.0000   0.0000   0.0000
     0.0000   0.0000   0.0000   0.0000

          k =-0.0884-0.4419 0.7071 (  5488 PWs)   bands (ev):

   -14.7159 -14.7159 -14.7122 -14.7122 -14.5787 -14.5787 -14.5312 -14.5312
   -14.5155 -14.5155 -14.4762 -14.4762 -14.4689 -14.4689 -14.4339 -14.4339
   -14.2983 -14.2983 -14.2947 -14.2947  -0.8342  -0.8342   0.2161   0.2161
     4.1177   4.1177   4.5092   4.5092   9.4084   9.4084   9.4515   9.4515
    11.0026  11.0026  12.3958  12.3958

     occupation numbers 
     1.0000   1.0000   1.0000   1.0000   1.0000   1.0000   1.0000   1.0000
     1.0000   1.0000   1.0000   1.0000   1.0000   1.0000   1.0000   1.0000
     1.0000   1.0000   1.0000   1.0000   1.0000   1.0000   1.0000   1.0000
     1.0000   1.0000   1.0000   1.0000   0.0000   0.0000   0.0000   0.0000
     0.0000   0.0000   0.0000   0.0000

          k =-0.0442-0.3977 0.6629 (  5487 PWs)   bands (ev):

   -14.7186 -14.7186 -14.7134 -14.7134 -14.5663 -14.5663 -14.5327 -14.5327
   -14.5066 -14.5066 -14.4818 -14.4818 -14.4727 -14.4727 -14.4443 -14.4443
   -14.2969 -14.2969 -14.2917 -14.2917  -0.6143  -0.6143  -0.0132  -0.0132
     4.0361   4.0361   4.4289   4.4289   9.4886   9.4886  10.1599  10.1599
    10.9221  10.9221  11.5379  11.5379

     occupation numbers 
     1.0000   1.0000   1.0000   1.0000   1.0000   1.0000   1.0000   1.0000
     1.0000   1.0000   1.0000   1.0000   1.0000   1.0000   1.0000   1.0000
     1.0000   1.0000   1.0000   1.0000   1.0000   1.0000   1.0000   1.0000
     1.0000   1.0000   1.0000   1.0000   0.0000   0.0000   0.0000   0.0000
     0.0000   0.0000   0.0000   0.0000

          k =-0.0000-0.3536 0.6187 (  5497 PWs)   bands (ev):

   -14.7194 -14.7194 -14.7124 -14.7124 -14.5701 -14.5701 -14.5226 -14.5226
   -14.5128 -14.5128 -14.4814 -14.4814 -14.4767 -14.4767 -14.4410 -14.4410
   -14.2980 -14.2980 -14.2911 -14.2911  -0.7363  -0.7363   0.1168   0.1168
     3.9708   3.9708   4.5329   4.5329   9.5395   9.5395  10.3410  10.3410
    10.8114  10.8114  11.4422  11.4422

     occupation numbers 
     1.0000   1.0000   1.0000   1.0000   1.0000   1.0000   1.0000   1.0000
     1.0000   1.0000   1.0000   1.0000   1.0000   1.0000   1.0000   1.0000
     1.0000   1.0000   1.0000   1.0000   1.0000   1.0000   1.0000   1.0000
     1.0000   1.0000   1.0000   1.0000   0.0000   0.0000   0.0000   0.0000
     0.0000   0.0000   0.0000   0.0000

          k =-0.7071 0.2652 0.0000 (  5490 PWs)   bands (ev):

   -14.7153 -14.7153 -14.7152 -14.7152 -14.5571 -14.5571 -14.5556 -14.5556
   -14.4952 -14.4952 -14.4894 -14.4894 -14.4544 -14.4544 -14.4529 -14.4529
   -14.2950 -14.2950 -14.2949 -14.2949  -0.3215  -0.3215  -0.3199  -0.3199
     4.2443   4.2443   4.2444   4.2444   9.4193   9.4193   9.4196   9.4196
    11.6717  11.6717  11.6718  11.6718

     occupation numbers 
     1.0000   1.0000   1.0000   1.0000   1.0000   1.0000   1.0000   1.0000
     1.0000   1.0000   1.0000   1.0000   1.0000   1.0000   1.0000   1.0000
     1.0000   1.0000   1.0000   1.0000   1.0000   1.0000   1.0000   1.0000
     1.0000   1.0000   1.0000   1.0000   0.0000   0.0000   0.0000   0.0000
     0.0000   0.0000   0.0000   0.0000

          k =-0.7071 0.3536 0.0000 (  5520 PWs)   bands (ev):

   -14.7170 -14.7170 -14.7169 -14.7169 -14.5490 -14.5490 -14.5471 -14.5471
   -14.4975 -14.4975 -14.4917 -14.4917 -14.4606 -14.4606 -14.4587 -14.4587
   -14.2934 -14.2934 -14.2933 -14.2933  -0.3149  -0.3149  -0.3133  -0.3133
     4.1820   4.1820   4.1821   4.1821  10.0851  10.0851  10.0857  10.0857
    10.9089  10.9089  10.9094  10.9094

     occupation numbers 
     1.0000   1.0000   1.0000   1.0000   1.0000   1.0000   1.0000   1.0000
     1.0000   1.0000   1.0000   1.0000   1.0000   1.0000   1.0000   1.0000
     1.0000   1.0000   1.0000   1.0000   1.0000   1.0000   1.0000   1.0000
     1.0000   1.0000   1.0000   1.0000   0.0000   0.0000   0.0000   0.0000
     0.0000   0.0000   0.0000   0.0000

     the Fermi energy is     6.9077 ev

!    total energy              =    -884.12245443 Ry
     Harris-Foulkes estimate   =    -884.12245442 Ry
     estimated scf accuracy    <       0.00000048 Ry

     total all-electron energy =    -24709.378027 Ry

     The total energy is the sum of the following terms:

     one-electron contribution =    -154.08750556 Ry
     hartree contribution      =      95.64240506 Ry
     xc contribution           =     -96.23728475 Ry
     ewald contribution        =    -167.52979533 Ry
     one-center paw contrib.   =    -561.91027370 Ry
     smearing contrib. (-TS)   =      -0.00000015 Ry

     convergence has been achieved in   5 iterations

     Writing output data file Sn.save
 
     init_run     :     12.07s CPU     13.46s WALL (       1 calls)
     electrons    :    227.49s CPU    242.26s WALL (       1 calls)

     Called by init_run:
     wfcinit      :     11.29s CPU     12.19s WALL (       1 calls)
     potinit      :      0.24s CPU      0.31s WALL (       1 calls)

     Called by electrons:
     c_bands      :    192.57s CPU    204.91s WALL (       6 calls)
     sum_band     :     34.20s CPU     36.49s WALL (       6 calls)
     v_of_rho     :      0.09s CPU      0.10s WALL (       6 calls)
     v_h          :      0.02s CPU      0.02s WALL (       6 calls)
     v_xc         :      0.07s CPU      0.08s WALL (       6 calls)
     newd         :      0.08s CPU      0.12s WALL (       6 calls)
     PAW_pot      :      0.72s CPU      0.82s WALL (       6 calls)
     mix_rho      :      0.02s CPU      0.05s WALL (       6 calls)

     Called by c_bands:
     init_us_2    :      0.32s CPU      0.39s WALL (    1885 calls)
     cegterg      :    189.41s CPU    201.45s WALL (     870 calls)

     Called by sum_band:
     sum_band:bec :      0.12s CPU      0.13s WALL (     870 calls)
     addusdens    :      0.10s CPU      0.13s WALL (       6 calls)

     Called by *egterg:
     h_psi        :    166.49s CPU    175.85s WALL (    3097 calls)
     s_psi        :      2.20s CPU      2.23s WALL (    3097 calls)
     g_psi        :      0.46s CPU      0.46s WALL (    2082 calls)
     cdiaghg      :     11.57s CPU     11.95s WALL (    2807 calls)
     cegterg:over :      7.81s CPU      7.85s WALL (    2082 calls)
     cegterg:upda :      3.74s CPU      3.76s WALL (    2082 calls)
     cegterg:last :      2.08s CPU      2.09s WALL (     870 calls)

     Called by h_psi:
     h_psi:vloc   :    160.01s CPU    169.20s WALL (    3097 calls)
     h_psi:vnl    :      6.10s CPU      6.23s WALL (    3097 calls)
     add_vuspsi   :      2.31s CPU      2.34s WALL (    3097 calls)

     General routines
     calbec       :      5.00s CPU      5.14s WALL (    3967 calls)
     fft          :      0.16s CPU      0.26s WALL (     116 calls)
     fftw         :    181.19s CPU    191.98s WALL (  394280 calls)
     davcio       :      0.04s CPU      0.61s WALL (     145 calls)
 
     Parallel routines
     fft_scatter  :    117.98s CPU    125.25s WALL (  394396 calls)

     PAW routines
     PAW_pot      :      0.72s CPU      0.82s WALL (       6 calls)
     PAW_symme    :      0.01s CPU      0.01s WALL (      12 calls)
 
     PWSCF        :  4m 1.95s CPU     4m19.11s WALL

 
   This run was terminated on:  22:58:58  16Mar2020            

=------------------------------------------------------------------------------=
   JOB DONE.
=------------------------------------------------------------------------------=
