
     Program PWSCF v.5.4.0 starts on  8Mar2020 at 23:42:24 

     This program is part of the open-source Quantum ESPRESSO suite
     for quantum simulation of materials; please cite
         "P. Giannozzi et al., J. Phys.:Condens. Matter 21 395502 (2009);
          URL http://www.quantum-espresso.org", 
     in publications or presentations arising from this work. More details at
     http://www.quantum-espresso.org/quote

     Parallel version (MPI & OpenMP), running on      16 processor cores
     Number of MPI processes:                16
     Threads/MPI process:                     1
     R & G space division:  proc/nbgrp/npool/nimage =      16
     Waiting for input...
     Reading input from standard input
Warning: card &IONS ignored
Warning: card / ignored
Warning: card &CELL ignored
Warning: card / ignored

     Current dimensions of program PWSCF are:
     Max number of different atomic species (ntypx) = 10
     Max number of k-points (npk) =  40000
     Max angular momentum in pseudopotentials (lmaxx) =  3
               file Sn.rel-pbe-dn-kjpaw_psl.1.0.0.UPF: wavefunction(s)  5S 5P 5P 4D 4D renormalized

     Subspace diagonalization in iterative solution of the eigenvalue problem:
     a serial algorithm will be used

 
     Parallelization info
     --------------------
     sticks:   dense  smooth     PW     G-vecs:    dense   smooth      PW
     Min          52      52     15                 1019     1019     168
     Max          53      53     16                 1023     1023     172
     Sum         847     847    253                16361    16361    2733
 

     Title: 
     Sn                                                                         


     bravais-lattice index     =            0
     lattice parameter (alat)  =       8.7524  a.u.
     unit-cell volume          =     474.0897 (a.u.)^3
     number of atoms/cell      =            2
     number of atomic types    =            1
     number of electrons       =        28.00
     number of Kohn-Sham states=           36
     kinetic-energy cutoff     =      40.0000  Ry
     charge density cutoff     =     160.0000  Ry
     convergence threshold     =      1.0E-06
     mixing beta               =       0.7000
     number of iterations used =            8  plain     mixing
     Exchange-correlation      =  SLA  PW   PBX  PBC ( 1  4  3  4 0 0)
     Non magnetic calculation with spin-orbit


     celldm(1)=   8.752360  celldm(2)=   0.000000  celldm(3)=   0.000000
     celldm(4)=   0.000000  celldm(5)=   0.000000  celldm(6)=   0.000000

     crystal axes: (cart. coord. in units of alat)
               a(1) = (   0.000000   0.707107   0.707107 )  
               a(2) = (   0.707107   0.000000   0.707107 )  
               a(3) = (   0.707107   0.707107   0.000000 )  

     reciprocal axes: (cart. coord. in units 2 pi/alat)
               b(1) = ( -0.707107  0.707107  0.707107 )  
               b(2) = (  0.707107 -0.707107  0.707107 )  
               b(3) = (  0.707107  0.707107 -0.707107 )  


     PseudoPot. # 1 for Sn read from file:
     ../PseudopotentialDatabase/Sn.rel-pbe-dn-kjpaw_psl.1.0.0.UPF
     MD5 check sum: 6bcaba2b82cf8d008985ef5bb9854e68
     Pseudo is Projector augmented-wave + core cor, Zval = 14.0
     Generated using "atomic" code by A. Dal Corso  v.6.3
     Shape of augmentation charge: PSQ
     Using radial grid of 1243 points, 10 beta functions with: 
                l(1) =   0
                l(2) =   0
                l(3) =   1
                l(4) =   1
                l(5) =   1
                l(6) =   1
                l(7) =   2
                l(8) =   2
                l(9) =   2
               l(10) =   2
     Q(r) pseudized with 0 coefficients 


     atomic species   valence    mass     pseudopotential
        Sn            14.00   118.71000     Sn( 1.00)

     48 Sym. Ops., with inversion, found (24 have fractional translation)


                                    s                        frac. trans.

      isym =  1     identity                                     

 cryst.   s( 1) = (     1          0          0      )
                  (     0          1          0      )
                  (     0          0          1      )

 cart.    s( 1) = (  1.0000000  0.0000000  0.0000000 )
                  (  0.0000000  1.0000000  0.0000000 )
                  (  0.0000000  0.0000000  1.0000000 )


      isym =  2     180 deg rotation - cart. axis [0,0,1]        

 cryst.   s( 2) = (     0          1         -1      )
                  (     1          0         -1      )
                  (     0          0         -1      )

 cart.    s( 2) = ( -1.0000000  0.0000000  0.0000000 )
                  (  0.0000000 -1.0000000  0.0000000 )
                  (  0.0000000  0.0000000  1.0000000 )


      isym =  3     180 deg rotation - cart. axis [0,1,0]        

 cryst.   s( 3) = (     0         -1          1      )
                  (     0         -1          0      )
                  (     1         -1          0      )

 cart.    s( 3) = ( -1.0000000  0.0000000  0.0000000 )
                  (  0.0000000  1.0000000  0.0000000 )
                  (  0.0000000  0.0000000 -1.0000000 )


      isym =  4     180 deg rotation - cart. axis [1,0,0]        

 cryst.   s( 4) = (    -1          0          0      )
                  (    -1          0          1      )
                  (    -1          1          0      )

 cart.    s( 4) = (  1.0000000  0.0000000  0.0000000 )
                  (  0.0000000 -1.0000000  0.0000000 )
                  (  0.0000000  0.0000000 -1.0000000 )


      isym =  5     180 deg rotation - cart. axis [1,1,0]        

 cryst.   s( 5) = (    -1          0          1      )    f =( -0.2500000 )
                  (     0         -1          1      )       ( -0.2500000 )
                  (     0          0          1      )       ( -0.2500000 )

 cart.    s( 5) = (  0.0000000  1.0000000  0.0000000 )    f =( -0.3535534 )
                  (  1.0000000  0.0000000  0.0000000 )       ( -0.3535534 )
                  (  0.0000000  0.0000000 -1.0000000 )       ( -0.3535534 )


      isym =  6     180 deg rotation - cart. axis [1,-1,0]       

 cryst.   s( 6) = (     0         -1          0      )    f =( -0.2500000 )
                  (    -1          0          0      )       ( -0.2500000 )
                  (     0          0         -1      )       ( -0.2500000 )

 cart.    s( 6) = (  0.0000000 -1.0000000  0.0000000 )    f =( -0.3535534 )
                  ( -1.0000000  0.0000000  0.0000000 )       ( -0.3535534 )
                  (  0.0000000  0.0000000 -1.0000000 )       ( -0.3535534 )


      isym =  7      90 deg rotation - cart. axis [0,0,-1]       

 cryst.   s( 7) = (     0          1          0      )    f =( -0.2500000 )
                  (     0          1         -1      )       ( -0.2500000 )
                  (    -1          1          0      )       ( -0.2500000 )

 cart.    s( 7) = (  0.0000000  1.0000000  0.0000000 )    f =( -0.3535534 )
                  ( -1.0000000  0.0000000  0.0000000 )       ( -0.3535534 )
                  (  0.0000000  0.0000000  1.0000000 )       ( -0.3535534 )


      isym =  8      90 deg rotation - cart. axis [0,0,1]        

 cryst.   s( 8) = (     1          0         -1      )    f =( -0.2500000 )
                  (     1          0          0      )       ( -0.2500000 )
                  (     1         -1          0      )       ( -0.2500000 )

 cart.    s( 8) = (  0.0000000 -1.0000000  0.0000000 )    f =( -0.3535534 )
                  (  1.0000000  0.0000000  0.0000000 )       ( -0.3535534 )
                  (  0.0000000  0.0000000  1.0000000 )       ( -0.3535534 )


      isym =  9     180 deg rotation - cart. axis [1,0,1]        

 cryst.   s( 9) = (    -1          1          0      )    f =( -0.2500000 )
                  (     0          1          0      )       ( -0.2500000 )
                  (     0          1         -1      )       ( -0.2500000 )

 cart.    s( 9) = (  0.0000000  0.0000000  1.0000000 )    f =( -0.3535534 )
                  (  0.0000000 -1.0000000  0.0000000 )       ( -0.3535534 )
                  (  1.0000000  0.0000000  0.0000000 )       ( -0.3535534 )


      isym = 10     180 deg rotation - cart. axis [-1,0,1]       

 cryst.   s(10) = (     0          0         -1      )    f =( -0.2500000 )
                  (     0         -1          0      )       ( -0.2500000 )
                  (    -1          0          0      )       ( -0.2500000 )

 cart.    s(10) = (  0.0000000  0.0000000 -1.0000000 )    f =( -0.3535534 )
                  (  0.0000000 -1.0000000  0.0000000 )       ( -0.3535534 )
                  ( -1.0000000  0.0000000  0.0000000 )       ( -0.3535534 )


      isym = 11      90 deg rotation - cart. axis [0,1,0]        

 cryst.   s(11) = (     0          0          1      )    f =( -0.2500000 )
                  (    -1          0          1      )       ( -0.2500000 )
                  (     0         -1          1      )       ( -0.2500000 )

 cart.    s(11) = (  0.0000000  0.0000000  1.0000000 )    f =( -0.3535534 )
                  (  0.0000000  1.0000000  0.0000000 )       ( -0.3535534 )
                  ( -1.0000000  0.0000000  0.0000000 )       ( -0.3535534 )


      isym = 12      90 deg rotation - cart. axis [0,-1,0]       

 cryst.   s(12) = (     1         -1          0      )    f =( -0.2500000 )
                  (     1          0         -1      )       ( -0.2500000 )
                  (     1          0          0      )       ( -0.2500000 )

 cart.    s(12) = (  0.0000000  0.0000000 -1.0000000 )    f =( -0.3535534 )
                  (  0.0000000  1.0000000  0.0000000 )       ( -0.3535534 )
                  (  1.0000000  0.0000000  0.0000000 )       ( -0.3535534 )


      isym = 13     180 deg rotation - cart. axis [0,1,1]        

 cryst.   s(13) = (     1          0          0      )    f =( -0.2500000 )
                  (     1         -1          0      )       ( -0.2500000 )
                  (     1          0         -1      )       ( -0.2500000 )

 cart.    s(13) = ( -1.0000000  0.0000000  0.0000000 )    f =( -0.3535534 )
                  (  0.0000000  0.0000000  1.0000000 )       ( -0.3535534 )
                  (  0.0000000  1.0000000  0.0000000 )       ( -0.3535534 )


      isym = 14     180 deg rotation - cart. axis [0,1,-1]       

 cryst.   s(14) = (    -1          0          0      )    f =( -0.2500000 )
                  (     0          0         -1      )       ( -0.2500000 )
                  (     0         -1          0      )       ( -0.2500000 )

 cart.    s(14) = ( -1.0000000  0.0000000  0.0000000 )    f =( -0.3535534 )
                  (  0.0000000  0.0000000 -1.0000000 )       ( -0.3535534 )
                  (  0.0000000 -1.0000000  0.0000000 )       ( -0.3535534 )


      isym = 15      90 deg rotation - cart. axis [-1,0,0]       

 cryst.   s(15) = (     0         -1          1      )    f =( -0.2500000 )
                  (     0          0          1      )       ( -0.2500000 )
                  (    -1          0          1      )       ( -0.2500000 )

 cart.    s(15) = (  1.0000000  0.0000000  0.0000000 )    f =( -0.3535534 )
                  (  0.0000000  0.0000000  1.0000000 )       ( -0.3535534 )
                  (  0.0000000 -1.0000000  0.0000000 )       ( -0.3535534 )


      isym = 16      90 deg rotation - cart. axis [1,0,0]        

 cryst.   s(16) = (     0          1         -1      )    f =( -0.2500000 )
                  (    -1          1          0      )       ( -0.2500000 )
                  (     0          1          0      )       ( -0.2500000 )

 cart.    s(16) = (  1.0000000  0.0000000  0.0000000 )    f =( -0.3535534 )
                  (  0.0000000  0.0000000 -1.0000000 )       ( -0.3535534 )
                  (  0.0000000  1.0000000  0.0000000 )       ( -0.3535534 )


      isym = 17     120 deg rotation - cart. axis [-1,-1,-1]     

 cryst.   s(17) = (     0          0          1      )
                  (     1          0          0      )
                  (     0          1          0      )

 cart.    s(17) = (  0.0000000  1.0000000  0.0000000 )
                  (  0.0000000  0.0000000  1.0000000 )
                  (  1.0000000  0.0000000  0.0000000 )


      isym = 18     120 deg rotation - cart. axis [-1,1,1]       

 cryst.   s(18) = (     1         -1          0      )
                  (     0         -1          1      )
                  (     0         -1          0      )

 cart.    s(18) = (  0.0000000 -1.0000000  0.0000000 )
                  (  0.0000000  0.0000000  1.0000000 )
                  ( -1.0000000  0.0000000  0.0000000 )


      isym = 19     120 deg rotation - cart. axis [1,1,-1]       

 cryst.   s(19) = (    -1          1          0      )
                  (    -1          0          0      )
                  (    -1          0          1      )

 cart.    s(19) = (  0.0000000  1.0000000  0.0000000 )
                  (  0.0000000  0.0000000 -1.0000000 )
                  ( -1.0000000  0.0000000  0.0000000 )


      isym = 20     120 deg rotation - cart. axis [1,-1,1]       

 cryst.   s(20) = (     0          0         -1      )
                  (     0          1         -1      )
                  (     1          0         -1      )

 cart.    s(20) = (  0.0000000 -1.0000000  0.0000000 )
                  (  0.0000000  0.0000000 -1.0000000 )
                  (  1.0000000  0.0000000  0.0000000 )


      isym = 21     120 deg rotation - cart. axis [1,1,1]        

 cryst.   s(21) = (     0          1          0      )
                  (     0          0          1      )
                  (     1          0          0      )

 cart.    s(21) = (  0.0000000  0.0000000  1.0000000 )
                  (  1.0000000  0.0000000  0.0000000 )
                  (  0.0000000  1.0000000  0.0000000 )


      isym = 22     120 deg rotation - cart. axis [-1,1,-1]      

 cryst.   s(22) = (    -1          0          1      )
                  (    -1          1          0      )
                  (    -1          0          0      )

 cart.    s(22) = (  0.0000000  0.0000000  1.0000000 )
                  ( -1.0000000  0.0000000  0.0000000 )
                  (  0.0000000 -1.0000000  0.0000000 )


      isym = 23     120 deg rotation - cart. axis [1,-1,-1]      

 cryst.   s(23) = (     1          0         -1      )
                  (     0          0         -1      )
                  (     0          1         -1      )

 cart.    s(23) = (  0.0000000  0.0000000 -1.0000000 )
                  ( -1.0000000  0.0000000  0.0000000 )
                  (  0.0000000  1.0000000  0.0000000 )


      isym = 24     120 deg rotation - cart. axis [-1,-1,1]      

 cryst.   s(24) = (     0         -1          0      )
                  (     1         -1          0      )
                  (     0         -1          1      )

 cart.    s(24) = (  0.0000000  0.0000000 -1.0000000 )
                  (  1.0000000  0.0000000  0.0000000 )
                  (  0.0000000 -1.0000000  0.0000000 )


      isym = 25     inversion                                    

 cryst.   s(25) = (    -1          0          0      )    f =( -0.2500000 )
                  (     0         -1          0      )       ( -0.2500000 )
                  (     0          0         -1      )       ( -0.2500000 )

 cart.    s(25) = ( -1.0000000  0.0000000  0.0000000 )    f =( -0.3535534 )
                  (  0.0000000 -1.0000000  0.0000000 )       ( -0.3535534 )
                  (  0.0000000  0.0000000 -1.0000000 )       ( -0.3535534 )


      isym = 26     inv. 180 deg rotation - cart. axis [0,0,1]   

 cryst.   s(26) = (     0         -1          1      )    f =( -0.2500000 )
                  (    -1          0          1      )       ( -0.2500000 )
                  (     0          0          1      )       ( -0.2500000 )

 cart.    s(26) = (  1.0000000  0.0000000  0.0000000 )    f =( -0.3535534 )
                  (  0.0000000  1.0000000  0.0000000 )       ( -0.3535534 )
                  (  0.0000000  0.0000000 -1.0000000 )       ( -0.3535534 )


      isym = 27     inv. 180 deg rotation - cart. axis [0,1,0]   

 cryst.   s(27) = (     0          1         -1      )    f =( -0.2500000 )
                  (     0          1          0      )       ( -0.2500000 )
                  (    -1          1          0      )       ( -0.2500000 )

 cart.    s(27) = (  1.0000000  0.0000000  0.0000000 )    f =( -0.3535534 )
                  (  0.0000000 -1.0000000  0.0000000 )       ( -0.3535534 )
                  (  0.0000000  0.0000000  1.0000000 )       ( -0.3535534 )


      isym = 28     inv. 180 deg rotation - cart. axis [1,0,0]   

 cryst.   s(28) = (     1          0          0      )    f =( -0.2500000 )
                  (     1          0         -1      )       ( -0.2500000 )
                  (     1         -1          0      )       ( -0.2500000 )

 cart.    s(28) = ( -1.0000000  0.0000000  0.0000000 )    f =( -0.3535534 )
                  (  0.0000000  1.0000000  0.0000000 )       ( -0.3535534 )
                  (  0.0000000  0.0000000  1.0000000 )       ( -0.3535534 )


      isym = 29     inv. 180 deg rotation - cart. axis [1,1,0]   

 cryst.   s(29) = (     1          0         -1      )
                  (     0          1         -1      )
                  (     0          0         -1      )

 cart.    s(29) = (  0.0000000 -1.0000000  0.0000000 )
                  ( -1.0000000  0.0000000  0.0000000 )
                  (  0.0000000  0.0000000  1.0000000 )


      isym = 30     inv. 180 deg rotation - cart. axis [1,-1,0]  

 cryst.   s(30) = (     0          1          0      )
                  (     1          0          0      )
                  (     0          0          1      )

 cart.    s(30) = (  0.0000000  1.0000000  0.0000000 )
                  (  1.0000000  0.0000000  0.0000000 )
                  (  0.0000000  0.0000000  1.0000000 )


      isym = 31     inv.  90 deg rotation - cart. axis [0,0,-1]  

 cryst.   s(31) = (     0         -1          0      )
                  (     0         -1          1      )
                  (     1         -1          0      )

 cart.    s(31) = (  0.0000000 -1.0000000  0.0000000 )
                  (  1.0000000  0.0000000  0.0000000 )
                  (  0.0000000  0.0000000 -1.0000000 )


      isym = 32     inv.  90 deg rotation - cart. axis [0,0,1]   

 cryst.   s(32) = (    -1          0          1      )
                  (    -1          0          0      )
                  (    -1          1          0      )

 cart.    s(32) = (  0.0000000  1.0000000  0.0000000 )
                  ( -1.0000000  0.0000000  0.0000000 )
                  (  0.0000000  0.0000000 -1.0000000 )


      isym = 33     inv. 180 deg rotation - cart. axis [1,0,1]   

 cryst.   s(33) = (     1         -1          0      )
                  (     0         -1          0      )
                  (     0         -1          1      )

 cart.    s(33) = (  0.0000000  0.0000000 -1.0000000 )
                  (  0.0000000  1.0000000  0.0000000 )
                  ( -1.0000000  0.0000000  0.0000000 )


      isym = 34     inv. 180 deg rotation - cart. axis [-1,0,1]  

 cryst.   s(34) = (     0          0          1      )
                  (     0          1          0      )
                  (     1          0          0      )

 cart.    s(34) = (  0.0000000  0.0000000  1.0000000 )
                  (  0.0000000  1.0000000  0.0000000 )
                  (  1.0000000  0.0000000  0.0000000 )


      isym = 35     inv.  90 deg rotation - cart. axis [0,1,0]   

 cryst.   s(35) = (     0          0         -1      )
                  (     1          0         -1      )
                  (     0          1         -1      )

 cart.    s(35) = (  0.0000000  0.0000000 -1.0000000 )
                  (  0.0000000 -1.0000000  0.0000000 )
                  (  1.0000000  0.0000000  0.0000000 )


      isym = 36     inv.  90 deg rotation - cart. axis [0,-1,0]  

 cryst.   s(36) = (    -1          1          0      )
                  (    -1          0          1      )
                  (    -1          0          0      )

 cart.    s(36) = (  0.0000000  0.0000000  1.0000000 )
                  (  0.0000000 -1.0000000  0.0000000 )
                  ( -1.0000000  0.0000000  0.0000000 )


      isym = 37     inv. 180 deg rotation - cart. axis [0,1,1]   

 cryst.   s(37) = (    -1          0          0      )
                  (    -1          1          0      )
                  (    -1          0          1      )

 cart.    s(37) = (  1.0000000  0.0000000  0.0000000 )
                  (  0.0000000  0.0000000 -1.0000000 )
                  (  0.0000000 -1.0000000  0.0000000 )


      isym = 38     inv. 180 deg rotation - cart. axis [0,1,-1]  

 cryst.   s(38) = (     1          0          0      )
                  (     0          0          1      )
                  (     0          1          0      )

 cart.    s(38) = (  1.0000000  0.0000000  0.0000000 )
                  (  0.0000000  0.0000000  1.0000000 )
                  (  0.0000000  1.0000000  0.0000000 )


      isym = 39     inv.  90 deg rotation - cart. axis [-1,0,0]  

 cryst.   s(39) = (     0          1         -1      )
                  (     0          0         -1      )
                  (     1          0         -1      )

 cart.    s(39) = ( -1.0000000  0.0000000  0.0000000 )
                  (  0.0000000  0.0000000 -1.0000000 )
                  (  0.0000000  1.0000000  0.0000000 )


      isym = 40     inv.  90 deg rotation - cart. axis [1,0,0]   

 cryst.   s(40) = (     0         -1          1      )
                  (     1         -1          0      )
                  (     0         -1          0      )

 cart.    s(40) = ( -1.0000000  0.0000000  0.0000000 )
                  (  0.0000000  0.0000000  1.0000000 )
                  (  0.0000000 -1.0000000  0.0000000 )


      isym = 41     inv. 120 deg rotation - cart. axis [-1,-1,-1]

 cryst.   s(41) = (     0          0         -1      )    f =( -0.2500000 )
                  (    -1          0          0      )       ( -0.2500000 )
                  (     0         -1          0      )       ( -0.2500000 )

 cart.    s(41) = (  0.0000000 -1.0000000  0.0000000 )    f =( -0.3535534 )
                  (  0.0000000  0.0000000 -1.0000000 )       ( -0.3535534 )
                  ( -1.0000000  0.0000000  0.0000000 )       ( -0.3535534 )


      isym = 42     inv. 120 deg rotation - cart. axis [-1,1,1]  

 cryst.   s(42) = (    -1          1          0      )    f =( -0.2500000 )
                  (     0          1         -1      )       ( -0.2500000 )
                  (     0          1          0      )       ( -0.2500000 )

 cart.    s(42) = (  0.0000000  1.0000000  0.0000000 )    f =( -0.3535534 )
                  (  0.0000000  0.0000000 -1.0000000 )       ( -0.3535534 )
                  (  1.0000000  0.0000000  0.0000000 )       ( -0.3535534 )


      isym = 43     inv. 120 deg rotation - cart. axis [1,1,-1]  

 cryst.   s(43) = (     1         -1          0      )    f =( -0.2500000 )
                  (     1          0          0      )       ( -0.2500000 )
                  (     1          0         -1      )       ( -0.2500000 )

 cart.    s(43) = (  0.0000000 -1.0000000  0.0000000 )    f =( -0.3535534 )
                  (  0.0000000  0.0000000  1.0000000 )       ( -0.3535534 )
                  (  1.0000000  0.0000000  0.0000000 )       ( -0.3535534 )


      isym = 44     inv. 120 deg rotation - cart. axis [1,-1,1]  

 cryst.   s(44) = (     0          0          1      )    f =( -0.2500000 )
                  (     0         -1          1      )       ( -0.2500000 )
                  (    -1          0          1      )       ( -0.2500000 )

 cart.    s(44) = (  0.0000000  1.0000000  0.0000000 )    f =( -0.3535534 )
                  (  0.0000000  0.0000000  1.0000000 )       ( -0.3535534 )
                  ( -1.0000000  0.0000000  0.0000000 )       ( -0.3535534 )


      isym = 45     inv. 120 deg rotation - cart. axis [1,1,1]   

 cryst.   s(45) = (     0         -1          0      )    f =( -0.2500000 )
                  (     0          0         -1      )       ( -0.2500000 )
                  (    -1          0          0      )       ( -0.2500000 )

 cart.    s(45) = (  0.0000000  0.0000000 -1.0000000 )    f =( -0.3535534 )
                  ( -1.0000000  0.0000000  0.0000000 )       ( -0.3535534 )
                  (  0.0000000 -1.0000000  0.0000000 )       ( -0.3535534 )


      isym = 46     inv. 120 deg rotation - cart. axis [-1,1,-1] 

 cryst.   s(46) = (     1          0         -1      )    f =( -0.2500000 )
                  (     1         -1          0      )       ( -0.2500000 )
                  (     1          0          0      )       ( -0.2500000 )

 cart.    s(46) = (  0.0000000  0.0000000 -1.0000000 )    f =( -0.3535534 )
                  (  1.0000000  0.0000000  0.0000000 )       ( -0.3535534 )
                  (  0.0000000  1.0000000  0.0000000 )       ( -0.3535534 )


      isym = 47     inv. 120 deg rotation - cart. axis [1,-1,-1] 

 cryst.   s(47) = (    -1          0          1      )    f =( -0.2500000 )
                  (     0          0          1      )       ( -0.2500000 )
                  (     0         -1          1      )       ( -0.2500000 )

 cart.    s(47) = (  0.0000000  0.0000000  1.0000000 )    f =( -0.3535534 )
                  (  1.0000000  0.0000000  0.0000000 )       ( -0.3535534 )
                  (  0.0000000 -1.0000000  0.0000000 )       ( -0.3535534 )


      isym = 48     inv. 120 deg rotation - cart. axis [-1,-1,1] 

 cryst.   s(48) = (     0          1          0      )    f =( -0.2500000 )
                  (    -1          1          0      )       ( -0.2500000 )
                  (     0          1         -1      )       ( -0.2500000 )

 cart.    s(48) = (  0.0000000  0.0000000  1.0000000 )    f =( -0.3535534 )
                  ( -1.0000000  0.0000000  0.0000000 )       ( -0.3535534 )
                  (  0.0000000  1.0000000  0.0000000 )       ( -0.3535534 )


   Cartesian axes

     site n.     atom                  positions (alat units)
         1           Sn  tau(   1) = (   0.0000000   0.0000000   0.0000000  )
         2           Sn  tau(   2) = (   0.3535534   0.3535534   0.3535534  )

   Crystallographic axes

     site n.     atom                  positions (cryst. coord.)
         1           Sn  tau(   1) = (  0.0000000  0.0000000  0.0000000  )
         2           Sn  tau(   2) = (  0.2500000  0.2500000  0.2500000  )

     number of k points=   165  gaussian smearing, width (Ry)=  0.0001
                       cart. coord. in units 2pi/alat
        k(    1) = (   0.0000000   0.0000000   0.0000000), wk =   0.0002035
        k(    2) = (   0.0415945   0.0415945  -0.0415945), wk =   0.0016283
        k(    3) = (   0.0831890   0.0831890  -0.0831890), wk =   0.0016283
        k(    4) = (   0.1247835   0.1247835  -0.1247835), wk =   0.0016283
        k(    5) = (   0.1663781   0.1663781  -0.1663781), wk =   0.0016283
        k(    6) = (   0.2079726   0.2079726  -0.2079726), wk =   0.0016283
        k(    7) = (   0.2495671   0.2495671  -0.2495671), wk =   0.0016283
        k(    8) = (   0.2911616   0.2911616  -0.2911616), wk =   0.0016283
        k(    9) = (   0.3327561   0.3327561  -0.3327561), wk =   0.0016283
        k(   10) = (   0.0831890   0.0000000   0.0000000), wk =   0.0012212
        k(   11) = (   0.1247835   0.0415945  -0.0415945), wk =   0.0048850
        k(   12) = (   0.1663781   0.0831890  -0.0831890), wk =   0.0048850
        k(   13) = (   0.2079726   0.1247835  -0.1247835), wk =   0.0048850
        k(   14) = (   0.2495671   0.1663781  -0.1663781), wk =   0.0048850
        k(   15) = (   0.2911616   0.2079726  -0.2079726), wk =   0.0048850
        k(   16) = (   0.3327561   0.2495671  -0.2495671), wk =   0.0048850
        k(   17) = (   0.3743506   0.2911616  -0.2911616), wk =   0.0048850
        k(   18) = (  -0.2911616  -0.3743506   0.3743506), wk =   0.0048850
        k(   19) = (  -0.2495671  -0.3327561   0.3327561), wk =   0.0048850
        k(   20) = (  -0.2079726  -0.2911616   0.2911616), wk =   0.0048850
        k(   21) = (  -0.1663781  -0.2495671   0.2495671), wk =   0.0048850
        k(   22) = (  -0.1247835  -0.2079726   0.2079726), wk =   0.0048850
        k(   23) = (  -0.0831890  -0.1663781   0.1663781), wk =   0.0048850
        k(   24) = (  -0.0415945  -0.1247835   0.1247835), wk =   0.0048850
        k(   25) = (  -0.0000000  -0.0831890   0.0831890), wk =   0.0024425
        k(   26) = (   0.1663781   0.0000000   0.0000000), wk =   0.0012212
        k(   27) = (   0.2079726   0.0415945  -0.0415945), wk =   0.0048850
        k(   28) = (   0.2495671   0.0831890  -0.0831890), wk =   0.0048850
        k(   29) = (   0.2911616   0.1247835  -0.1247835), wk =   0.0048850
        k(   30) = (   0.3327561   0.1663781  -0.1663781), wk =   0.0048850
        k(   31) = (   0.3743506   0.2079726  -0.2079726), wk =   0.0048850
        k(   32) = (   0.4159452   0.2495671  -0.2495671), wk =   0.0048850
        k(   33) = (  -0.2495671  -0.4159452   0.4159452), wk =   0.0048850
        k(   34) = (  -0.2079726  -0.3743506   0.3743506), wk =   0.0048850
        k(   35) = (  -0.1663781  -0.3327561   0.3327561), wk =   0.0048850
        k(   36) = (  -0.1247835  -0.2911616   0.2911616), wk =   0.0048850
        k(   37) = (  -0.0831890  -0.2495671   0.2495671), wk =   0.0048850
        k(   38) = (  -0.0415945  -0.2079726   0.2079726), wk =   0.0048850
        k(   39) = (  -0.0000000  -0.1663781   0.1663781), wk =   0.0024425
        k(   40) = (   0.2495671   0.0000000   0.0000000), wk =   0.0012212
        k(   41) = (   0.2911616   0.0415945  -0.0415945), wk =   0.0048850
        k(   42) = (   0.3327561   0.0831890  -0.0831890), wk =   0.0048850
        k(   43) = (   0.3743506   0.1247835  -0.1247835), wk =   0.0048850
        k(   44) = (   0.4159452   0.1663781  -0.1663781), wk =   0.0048850
        k(   45) = (   0.4575397   0.2079726  -0.2079726), wk =   0.0048850
        k(   46) = (  -0.2079726  -0.4575397   0.4575397), wk =   0.0048850
        k(   47) = (  -0.1663781  -0.4159452   0.4159452), wk =   0.0048850
        k(   48) = (  -0.1247835  -0.3743506   0.3743506), wk =   0.0048850
        k(   49) = (  -0.0831890  -0.3327561   0.3327561), wk =   0.0048850
        k(   50) = (  -0.0415945  -0.2911616   0.2911616), wk =   0.0048850
        k(   51) = (  -0.0000000  -0.2495671   0.2495671), wk =   0.0024425
        k(   52) = (   0.3327561   0.0000000   0.0000000), wk =   0.0012212
        k(   53) = (   0.3743506   0.0415945  -0.0415945), wk =   0.0048850
        k(   54) = (   0.4159452   0.0831890  -0.0831890), wk =   0.0048850
        k(   55) = (   0.4575397   0.1247835  -0.1247835), wk =   0.0048850
        k(   56) = (   0.4991342   0.1663781  -0.1663781), wk =   0.0048850
        k(   57) = (  -0.1663781  -0.4991342   0.4991342), wk =   0.0048850
        k(   58) = (  -0.1247835  -0.4575397   0.4575397), wk =   0.0048850
        k(   59) = (  -0.0831890  -0.4159452   0.4159452), wk =   0.0048850
        k(   60) = (  -0.0415945  -0.3743506   0.3743506), wk =   0.0048850
        k(   61) = (  -0.0000000  -0.3327561   0.3327561), wk =   0.0024425
        k(   62) = (   0.4159452   0.0000000   0.0000000), wk =   0.0012212
        k(   63) = (   0.4575397   0.0415945  -0.0415945), wk =   0.0048850
        k(   64) = (   0.4991342   0.0831890  -0.0831890), wk =   0.0048850
        k(   65) = (   0.5407287   0.1247835  -0.1247835), wk =   0.0048850
        k(   66) = (  -0.1247835  -0.5407287   0.5407287), wk =   0.0048850
        k(   67) = (  -0.0831890  -0.4991342   0.4991342), wk =   0.0048850
        k(   68) = (  -0.0415945  -0.4575397   0.4575397), wk =   0.0048850
        k(   69) = (   0.0000000  -0.4159452   0.4159452), wk =   0.0024425
        k(   70) = (   0.4991342   0.0000000   0.0000000), wk =   0.0012212
        k(   71) = (   0.5407287   0.0415945  -0.0415945), wk =   0.0048850
        k(   72) = (   0.5823232   0.0831890  -0.0831890), wk =   0.0048850
        k(   73) = (  -0.0831890  -0.5823232   0.5823232), wk =   0.0048850
        k(   74) = (  -0.0415945  -0.5407287   0.5407287), wk =   0.0048850
        k(   75) = (   0.0000000  -0.4991342   0.4991342), wk =   0.0024425
        k(   76) = (   0.5823232   0.0000000   0.0000000), wk =   0.0012212
        k(   77) = (   0.6239177   0.0415945  -0.0415945), wk =   0.0048850
        k(   78) = (  -0.0415945  -0.6239177   0.6239177), wk =   0.0048850
        k(   79) = (   0.0000000  -0.5823232   0.5823232), wk =   0.0024425
        k(   80) = (   0.6655123   0.0000000   0.0000000), wk =   0.0012212
        k(   81) = (   0.0000000  -0.6655123   0.6655123), wk =   0.0024425
        k(   82) = (   0.1663781   0.0831890  -0.0000000), wk =   0.0048850
        k(   83) = (   0.2079726   0.1247835  -0.0415945), wk =   0.0097700
        k(   84) = (   0.2495671   0.1663781  -0.0831890), wk =   0.0097700
        k(   85) = (   0.2911616   0.2079726  -0.1247835), wk =   0.0097700
        k(   86) = (   0.3327561   0.2495671  -0.1663781), wk =   0.0097700
        k(   87) = (   0.3743506   0.2911616  -0.2079726), wk =   0.0097700
        k(   88) = (  -0.2911616  -0.3743506   0.4575397), wk =   0.0097700
        k(   89) = (   0.2495671   0.0831890   0.0000000), wk =   0.0048850
        k(   90) = (   0.2911616   0.1247835  -0.0415945), wk =   0.0097700
        k(   91) = (   0.3327561   0.1663781  -0.0831890), wk =   0.0097700
        k(   92) = (   0.3743506   0.2079726  -0.1247835), wk =   0.0097700
        k(   93) = (   0.4159452   0.2495671  -0.1663781), wk =   0.0097700
        k(   94) = (  -0.2495671  -0.4159452   0.4991342), wk =   0.0097700
        k(   95) = (  -0.2079726  -0.3743506   0.4575397), wk =   0.0097700
        k(   96) = (  -0.1663781  -0.3327561   0.4159452), wk =   0.0097700
        k(   97) = (  -0.1247835  -0.2911616   0.3743506), wk =   0.0097700
        k(   98) = (  -0.0831890  -0.2495671   0.3327561), wk =   0.0097700
        k(   99) = (  -0.0415945  -0.2079726   0.2911616), wk =   0.0097700
        k(  100) = (   0.0000000  -0.1663781   0.2495671), wk =   0.0048850
        k(  101) = (   0.3327561   0.0831890   0.0000000), wk =   0.0048850
        k(  102) = (   0.3743506   0.1247835  -0.0415945), wk =   0.0097700
        k(  103) = (   0.4159452   0.1663781  -0.0831890), wk =   0.0097700
        k(  104) = (   0.4575397   0.2079726  -0.1247835), wk =   0.0097700
        k(  105) = (  -0.2079726  -0.4575397   0.5407287), wk =   0.0097700
        k(  106) = (  -0.1663781  -0.4159452   0.4991342), wk =   0.0097700
        k(  107) = (  -0.1247835  -0.3743506   0.4575397), wk =   0.0097700
        k(  108) = (  -0.0831890  -0.3327561   0.4159452), wk =   0.0097700
        k(  109) = (  -0.0415945  -0.2911616   0.3743506), wk =   0.0097700
        k(  110) = (  -0.0000000  -0.2495671   0.3327561), wk =   0.0048850
        k(  111) = (   0.4159452   0.0831890  -0.0000000), wk =   0.0048850
        k(  112) = (   0.4575397   0.1247835  -0.0415945), wk =   0.0097700
        k(  113) = (   0.4991342   0.1663781  -0.0831890), wk =   0.0097700
        k(  114) = (  -0.1663781  -0.4991342   0.5823232), wk =   0.0097700
        k(  115) = (  -0.1247835  -0.4575397   0.5407287), wk =   0.0097700
        k(  116) = (  -0.0831890  -0.4159452   0.4991342), wk =   0.0097700
        k(  117) = (  -0.0415945  -0.3743506   0.4575397), wk =   0.0097700
        k(  118) = (  -0.0000000  -0.3327561   0.4159452), wk =   0.0048850
        k(  119) = (   0.4991342   0.0831890   0.0000000), wk =   0.0048850
        k(  120) = (   0.5407287   0.1247835  -0.0415945), wk =   0.0097700
        k(  121) = (  -0.1247835  -0.5407287   0.6239177), wk =   0.0097700
        k(  122) = (  -0.0831890  -0.4991342   0.5823232), wk =   0.0097700
        k(  123) = (  -0.0415945  -0.4575397   0.5407287), wk =   0.0097700
        k(  124) = (   0.0000000  -0.4159452   0.4991342), wk =   0.0048850
        k(  125) = (   0.5823232   0.0831890   0.0000000), wk =   0.0048850
        k(  126) = (  -0.0831890  -0.5823232   0.6655123), wk =   0.0097700
        k(  127) = (  -0.0415945  -0.5407287   0.6239177), wk =   0.0097700
        k(  128) = (   0.0000000  -0.4991342   0.5823232), wk =   0.0048850
        k(  129) = (  -0.0415945  -0.6239177   0.7071068), wk =   0.0048850
        k(  130) = (   0.0000000  -0.5823232   0.6655123), wk =   0.0048850
        k(  131) = (   0.3327561   0.1663781  -0.0000000), wk =   0.0048850
        k(  132) = (   0.3743506   0.2079726  -0.0415945), wk =   0.0097700
        k(  133) = (   0.4159452   0.2495671  -0.0831890), wk =   0.0097700
        k(  134) = (  -0.2495671  -0.4159452   0.5823232), wk =   0.0097700
        k(  135) = (  -0.2079726  -0.3743506   0.5407287), wk =   0.0097700
        k(  136) = (   0.4159452   0.1663781   0.0000000), wk =   0.0048850
        k(  137) = (   0.4575397   0.2079726  -0.0415945), wk =   0.0097700
        k(  138) = (  -0.2079726  -0.4575397   0.6239177), wk =   0.0097700
        k(  139) = (  -0.1663781  -0.4159452   0.5823232), wk =   0.0097700
        k(  140) = (  -0.1247835  -0.3743506   0.5407287), wk =   0.0097700
        k(  141) = (  -0.0831890  -0.3327561   0.4991342), wk =   0.0097700
        k(  142) = (  -0.0415945  -0.2911616   0.4575397), wk =   0.0097700
        k(  143) = (  -0.0000000  -0.2495671   0.4159452), wk =   0.0048850
        k(  144) = (   0.4991342   0.1663781   0.0000000), wk =   0.0048850
        k(  145) = (  -0.1663781  -0.4991342   0.6655123), wk =   0.0097700
        k(  146) = (  -0.1247835  -0.4575397   0.6239177), wk =   0.0097700
        k(  147) = (  -0.0831890  -0.4159452   0.5823232), wk =   0.0097700
        k(  148) = (  -0.0415945  -0.3743506   0.5407287), wk =   0.0097700
        k(  149) = (   0.0000000  -0.3327561   0.4991342), wk =   0.0048850
        k(  150) = (  -0.1247835  -0.5407287   0.7071068), wk =   0.0048850
        k(  151) = (  -0.0831890  -0.4991342   0.6655123), wk =   0.0097700
        k(  152) = (  -0.0415945  -0.4575397   0.6239177), wk =   0.0097700
        k(  153) = (   0.0000000  -0.4159452   0.5823232), wk =   0.0048850
        k(  154) = (  -0.0415945  -0.5407287   0.7071068), wk =   0.0048850
        k(  155) = (   0.0000000  -0.4991342   0.6655123), wk =   0.0048850
        k(  156) = (  -0.2079726  -0.4575397   0.7071068), wk =   0.0048850
        k(  157) = (  -0.1663781  -0.4159452   0.6655123), wk =   0.0097700
        k(  158) = (  -0.1247835  -0.3743506   0.6239177), wk =   0.0097700
        k(  159) = (  -0.1247835  -0.4575397   0.7071068), wk =   0.0048850
        k(  160) = (  -0.0831890  -0.4159452   0.6655123), wk =   0.0097700
        k(  161) = (  -0.0415945  -0.3743506   0.6239177), wk =   0.0097700
        k(  162) = (  -0.0000000  -0.3327561   0.5823232), wk =   0.0048850
        k(  163) = (  -0.0415945  -0.4575397   0.7071068), wk =   0.0048850
        k(  164) = (   0.0000000  -0.4159452   0.6655123), wk =   0.0048850
        k(  165) = (  -0.0415945  -0.3743506   0.7071068), wk =   0.0048850

                       cryst. coord.
        k(    1) = (   0.0000000   0.0000000   0.0000000), wk =   0.0002035
        k(    2) = (   0.0000000   0.0000000   0.0588235), wk =   0.0016283
        k(    3) = (   0.0000000   0.0000000   0.1176471), wk =   0.0016283
        k(    4) = (   0.0000000   0.0000000   0.1764706), wk =   0.0016283
        k(    5) = (   0.0000000   0.0000000   0.2352941), wk =   0.0016283
        k(    6) = (   0.0000000   0.0000000   0.2941176), wk =   0.0016283
        k(    7) = (   0.0000000   0.0000000   0.3529412), wk =   0.0016283
        k(    8) = (   0.0000000   0.0000000   0.4117647), wk =   0.0016283
        k(    9) = (   0.0000000   0.0000000   0.4705882), wk =   0.0016283
        k(   10) = (   0.0000000   0.0588235   0.0588235), wk =   0.0012212
        k(   11) = (   0.0000000   0.0588235   0.1176471), wk =   0.0048850
        k(   12) = (   0.0000000   0.0588235   0.1764706), wk =   0.0048850
        k(   13) = (   0.0000000   0.0588235   0.2352941), wk =   0.0048850
        k(   14) = (   0.0000000   0.0588235   0.2941176), wk =   0.0048850
        k(   15) = (   0.0000000   0.0588235   0.3529412), wk =   0.0048850
        k(   16) = (   0.0000000   0.0588235   0.4117647), wk =   0.0048850
        k(   17) = (   0.0000000   0.0588235   0.4705882), wk =   0.0048850
        k(   18) = (   0.0000000   0.0588235  -0.4705882), wk =   0.0048850
        k(   19) = (   0.0000000   0.0588235  -0.4117647), wk =   0.0048850
        k(   20) = (   0.0000000   0.0588235  -0.3529412), wk =   0.0048850
        k(   21) = (   0.0000000   0.0588235  -0.2941176), wk =   0.0048850
        k(   22) = (   0.0000000   0.0588235  -0.2352941), wk =   0.0048850
        k(   23) = (   0.0000000   0.0588235  -0.1764706), wk =   0.0048850
        k(   24) = (   0.0000000   0.0588235  -0.1176471), wk =   0.0048850
        k(   25) = (   0.0000000   0.0588235  -0.0588235), wk =   0.0024425
        k(   26) = (   0.0000000   0.1176471   0.1176471), wk =   0.0012212
        k(   27) = (   0.0000000   0.1176471   0.1764706), wk =   0.0048850
        k(   28) = (   0.0000000   0.1176471   0.2352941), wk =   0.0048850
        k(   29) = (   0.0000000   0.1176471   0.2941176), wk =   0.0048850
        k(   30) = (   0.0000000   0.1176471   0.3529412), wk =   0.0048850
        k(   31) = (   0.0000000   0.1176471   0.4117647), wk =   0.0048850
        k(   32) = (   0.0000000   0.1176471   0.4705882), wk =   0.0048850
        k(   33) = (   0.0000000   0.1176471  -0.4705882), wk =   0.0048850
        k(   34) = (   0.0000000   0.1176471  -0.4117647), wk =   0.0048850
        k(   35) = (   0.0000000   0.1176471  -0.3529412), wk =   0.0048850
        k(   36) = (   0.0000000   0.1176471  -0.2941176), wk =   0.0048850
        k(   37) = (   0.0000000   0.1176471  -0.2352941), wk =   0.0048850
        k(   38) = (   0.0000000   0.1176471  -0.1764706), wk =   0.0048850
        k(   39) = (   0.0000000   0.1176471  -0.1176471), wk =   0.0024425
        k(   40) = (   0.0000000   0.1764706   0.1764706), wk =   0.0012212
        k(   41) = (   0.0000000   0.1764706   0.2352941), wk =   0.0048850
        k(   42) = (   0.0000000   0.1764706   0.2941176), wk =   0.0048850
        k(   43) = (   0.0000000   0.1764706   0.3529412), wk =   0.0048850
        k(   44) = (   0.0000000   0.1764706   0.4117647), wk =   0.0048850
        k(   45) = (   0.0000000   0.1764706   0.4705882), wk =   0.0048850
        k(   46) = (   0.0000000   0.1764706  -0.4705882), wk =   0.0048850
        k(   47) = (   0.0000000   0.1764706  -0.4117647), wk =   0.0048850
        k(   48) = (   0.0000000   0.1764706  -0.3529412), wk =   0.0048850
        k(   49) = (   0.0000000   0.1764706  -0.2941176), wk =   0.0048850
        k(   50) = (   0.0000000   0.1764706  -0.2352941), wk =   0.0048850
        k(   51) = (   0.0000000   0.1764706  -0.1764706), wk =   0.0024425
        k(   52) = (   0.0000000   0.2352941   0.2352941), wk =   0.0012212
        k(   53) = (   0.0000000   0.2352941   0.2941176), wk =   0.0048850
        k(   54) = (   0.0000000   0.2352941   0.3529412), wk =   0.0048850
        k(   55) = (   0.0000000   0.2352941   0.4117647), wk =   0.0048850
        k(   56) = (   0.0000000   0.2352941   0.4705882), wk =   0.0048850
        k(   57) = (   0.0000000   0.2352941  -0.4705882), wk =   0.0048850
        k(   58) = (   0.0000000   0.2352941  -0.4117647), wk =   0.0048850
        k(   59) = (   0.0000000   0.2352941  -0.3529412), wk =   0.0048850
        k(   60) = (   0.0000000   0.2352941  -0.2941176), wk =   0.0048850
        k(   61) = (   0.0000000   0.2352941  -0.2352941), wk =   0.0024425
        k(   62) = (   0.0000000   0.2941176   0.2941176), wk =   0.0012212
        k(   63) = (   0.0000000   0.2941176   0.3529412), wk =   0.0048850
        k(   64) = (   0.0000000   0.2941176   0.4117647), wk =   0.0048850
        k(   65) = (   0.0000000   0.2941176   0.4705882), wk =   0.0048850
        k(   66) = (   0.0000000   0.2941176  -0.4705882), wk =   0.0048850
        k(   67) = (   0.0000000   0.2941176  -0.4117647), wk =   0.0048850
        k(   68) = (   0.0000000   0.2941176  -0.3529412), wk =   0.0048850
        k(   69) = (   0.0000000   0.2941176  -0.2941176), wk =   0.0024425
        k(   70) = (   0.0000000   0.3529412   0.3529412), wk =   0.0012212
        k(   71) = (   0.0000000   0.3529412   0.4117647), wk =   0.0048850
        k(   72) = (   0.0000000   0.3529412   0.4705882), wk =   0.0048850
        k(   73) = (   0.0000000   0.3529412  -0.4705882), wk =   0.0048850
        k(   74) = (   0.0000000   0.3529412  -0.4117647), wk =   0.0048850
        k(   75) = (   0.0000000   0.3529412  -0.3529412), wk =   0.0024425
        k(   76) = (   0.0000000   0.4117647   0.4117647), wk =   0.0012212
        k(   77) = (   0.0000000   0.4117647   0.4705882), wk =   0.0048850
        k(   78) = (   0.0000000   0.4117647  -0.4705882), wk =   0.0048850
        k(   79) = (   0.0000000   0.4117647  -0.4117647), wk =   0.0024425
        k(   80) = (   0.0000000   0.4705882   0.4705882), wk =   0.0012212
        k(   81) = (   0.0000000   0.4705882  -0.4705882), wk =   0.0024425
        k(   82) = (   0.0588235   0.1176471   0.1764706), wk =   0.0048850
        k(   83) = (   0.0588235   0.1176471   0.2352941), wk =   0.0097700
        k(   84) = (   0.0588235   0.1176471   0.2941176), wk =   0.0097700
        k(   85) = (   0.0588235   0.1176471   0.3529412), wk =   0.0097700
        k(   86) = (   0.0588235   0.1176471   0.4117647), wk =   0.0097700
        k(   87) = (   0.0588235   0.1176471   0.4705882), wk =   0.0097700
        k(   88) = (   0.0588235   0.1176471  -0.4705882), wk =   0.0097700
        k(   89) = (   0.0588235   0.1764706   0.2352941), wk =   0.0048850
        k(   90) = (   0.0588235   0.1764706   0.2941176), wk =   0.0097700
        k(   91) = (   0.0588235   0.1764706   0.3529412), wk =   0.0097700
        k(   92) = (   0.0588235   0.1764706   0.4117647), wk =   0.0097700
        k(   93) = (   0.0588235   0.1764706   0.4705882), wk =   0.0097700
        k(   94) = (   0.0588235   0.1764706  -0.4705882), wk =   0.0097700
        k(   95) = (   0.0588235   0.1764706  -0.4117647), wk =   0.0097700
        k(   96) = (   0.0588235   0.1764706  -0.3529412), wk =   0.0097700
        k(   97) = (   0.0588235   0.1764706  -0.2941176), wk =   0.0097700
        k(   98) = (   0.0588235   0.1764706  -0.2352941), wk =   0.0097700
        k(   99) = (   0.0588235   0.1764706  -0.1764706), wk =   0.0097700
        k(  100) = (   0.0588235   0.1764706  -0.1176471), wk =   0.0048850
        k(  101) = (   0.0588235   0.2352941   0.2941176), wk =   0.0048850
        k(  102) = (   0.0588235   0.2352941   0.3529412), wk =   0.0097700
        k(  103) = (   0.0588235   0.2352941   0.4117647), wk =   0.0097700
        k(  104) = (   0.0588235   0.2352941   0.4705882), wk =   0.0097700
        k(  105) = (   0.0588235   0.2352941  -0.4705882), wk =   0.0097700
        k(  106) = (   0.0588235   0.2352941  -0.4117647), wk =   0.0097700
        k(  107) = (   0.0588235   0.2352941  -0.3529412), wk =   0.0097700
        k(  108) = (   0.0588235   0.2352941  -0.2941176), wk =   0.0097700
        k(  109) = (   0.0588235   0.2352941  -0.2352941), wk =   0.0097700
        k(  110) = (   0.0588235   0.2352941  -0.1764706), wk =   0.0048850
        k(  111) = (   0.0588235   0.2941176   0.3529412), wk =   0.0048850
        k(  112) = (   0.0588235   0.2941176   0.4117647), wk =   0.0097700
        k(  113) = (   0.0588235   0.2941176   0.4705882), wk =   0.0097700
        k(  114) = (   0.0588235   0.2941176  -0.4705882), wk =   0.0097700
        k(  115) = (   0.0588235   0.2941176  -0.4117647), wk =   0.0097700
        k(  116) = (   0.0588235   0.2941176  -0.3529412), wk =   0.0097700
        k(  117) = (   0.0588235   0.2941176  -0.2941176), wk =   0.0097700
        k(  118) = (   0.0588235   0.2941176  -0.2352941), wk =   0.0048850
        k(  119) = (   0.0588235   0.3529412   0.4117647), wk =   0.0048850
        k(  120) = (   0.0588235   0.3529412   0.4705882), wk =   0.0097700
        k(  121) = (   0.0588235   0.3529412  -0.4705882), wk =   0.0097700
        k(  122) = (   0.0588235   0.3529412  -0.4117647), wk =   0.0097700
        k(  123) = (   0.0588235   0.3529412  -0.3529412), wk =   0.0097700
        k(  124) = (   0.0588235   0.3529412  -0.2941176), wk =   0.0048850
        k(  125) = (   0.0588235   0.4117647   0.4705882), wk =   0.0048850
        k(  126) = (   0.0588235   0.4117647  -0.4705882), wk =   0.0097700
        k(  127) = (   0.0588235   0.4117647  -0.4117647), wk =   0.0097700
        k(  128) = (   0.0588235   0.4117647  -0.3529412), wk =   0.0048850
        k(  129) = (   0.0588235   0.4705882  -0.4705882), wk =   0.0048850
        k(  130) = (   0.0588235   0.4705882  -0.4117647), wk =   0.0048850
        k(  131) = (   0.1176471   0.2352941   0.3529412), wk =   0.0048850
        k(  132) = (   0.1176471   0.2352941   0.4117647), wk =   0.0097700
        k(  133) = (   0.1176471   0.2352941   0.4705882), wk =   0.0097700
        k(  134) = (   0.1176471   0.2352941  -0.4705882), wk =   0.0097700
        k(  135) = (   0.1176471   0.2352941  -0.4117647), wk =   0.0097700
        k(  136) = (   0.1176471   0.2941176   0.4117647), wk =   0.0048850
        k(  137) = (   0.1176471   0.2941176   0.4705882), wk =   0.0097700
        k(  138) = (   0.1176471   0.2941176  -0.4705882), wk =   0.0097700
        k(  139) = (   0.1176471   0.2941176  -0.4117647), wk =   0.0097700
        k(  140) = (   0.1176471   0.2941176  -0.3529412), wk =   0.0097700
        k(  141) = (   0.1176471   0.2941176  -0.2941176), wk =   0.0097700
        k(  142) = (   0.1176471   0.2941176  -0.2352941), wk =   0.0097700
        k(  143) = (   0.1176471   0.2941176  -0.1764706), wk =   0.0048850
        k(  144) = (   0.1176471   0.3529412   0.4705882), wk =   0.0048850
        k(  145) = (   0.1176471   0.3529412  -0.4705882), wk =   0.0097700
        k(  146) = (   0.1176471   0.3529412  -0.4117647), wk =   0.0097700
        k(  147) = (   0.1176471   0.3529412  -0.3529412), wk =   0.0097700
        k(  148) = (   0.1176471   0.3529412  -0.2941176), wk =   0.0097700
        k(  149) = (   0.1176471   0.3529412  -0.2352941), wk =   0.0048850
        k(  150) = (   0.1176471   0.4117647  -0.4705882), wk =   0.0048850
        k(  151) = (   0.1176471   0.4117647  -0.4117647), wk =   0.0097700
        k(  152) = (   0.1176471   0.4117647  -0.3529412), wk =   0.0097700
        k(  153) = (   0.1176471   0.4117647  -0.2941176), wk =   0.0048850
        k(  154) = (   0.1176471   0.4705882  -0.4117647), wk =   0.0048850
        k(  155) = (   0.1176471   0.4705882  -0.3529412), wk =   0.0048850
        k(  156) = (   0.1764706   0.3529412  -0.4705882), wk =   0.0048850
        k(  157) = (   0.1764706   0.3529412  -0.4117647), wk =   0.0097700
        k(  158) = (   0.1764706   0.3529412  -0.3529412), wk =   0.0097700
        k(  159) = (   0.1764706   0.4117647  -0.4117647), wk =   0.0048850
        k(  160) = (   0.1764706   0.4117647  -0.3529412), wk =   0.0097700
        k(  161) = (   0.1764706   0.4117647  -0.2941176), wk =   0.0097700
        k(  162) = (   0.1764706   0.4117647  -0.2352941), wk =   0.0048850
        k(  163) = (   0.1764706   0.4705882  -0.3529412), wk =   0.0048850
        k(  164) = (   0.1764706   0.4705882  -0.2941176), wk =   0.0048850
        k(  165) = (   0.2352941   0.4705882  -0.2941176), wk =   0.0048850

     Dense  grid:    16361 G-vectors     FFT dimensions: (  36,  36,  36)

     Largest allocated arrays     est. size (Mb)     dimensions
        Kohn-Sham Wavefunctions         0.15 Mb     (     268,   36)
        NL pseudopotentials             0.14 Mb     (     134,   68)
        Each V/rho on FFT grid          0.06 Mb     (    3888)
        Each G-vector array             0.01 Mb     (    1023)
        G-vector shells                 0.00 Mb     (     191)
     Largest temporary arrays     est. size (Mb)     dimensions
        Auxiliary wavefunctions         0.59 Mb     (     268,  144)
        Each subspace H/S matrix        0.32 Mb     (     144,  144)
        Each <psi_i|beta_j> matrix      0.07 Mb     (      68,   2,   36)
        Arrays for rho mixing           0.47 Mb     (    3888,    8)

     Check: negative/imaginary core charge=   -0.000003    0.000000

     Initial potential from superposition of free atoms

     starting charge   27.99781, renormalised to   28.00000
     Starting wfc are   36 randomized atomic wfcs
     Checking if some PAW data can be deallocated... 

     total cpu time spent up to now is        6.8 secs

     Self-consistent Calculation

     iteration #  1     ecut=    40.00 Ry     beta=0.70
     Davidson diagonalization with overlap
     ethr =  1.00E-02,  avg # of iterations =  3.5

     Threshold (ethr) on eigenvalues was too large:
     Diagonalizing with lowered threshold

     Davidson diagonalization with overlap
     ethr =  6.13E-05,  avg # of iterations =  3.4

     total cpu time spent up to now is       48.4 secs

     total energy              =    -885.82664376 Ry
     Harris-Foulkes estimate   =    -885.82849636 Ry
     estimated scf accuracy    <       0.02067051 Ry

     iteration #  2     ecut=    40.00 Ry     beta=0.70
     Davidson diagonalization with overlap
     ethr =  7.38E-05,  avg # of iterations =  1.0

     total cpu time spent up to now is       63.3 secs

     total energy              =    -885.82800719 Ry
     Harris-Foulkes estimate   =    -885.82807061 Ry
     estimated scf accuracy    <       0.00186705 Ry

     iteration #  3     ecut=    40.00 Ry     beta=0.70
     Davidson diagonalization with overlap
     ethr =  6.67E-06,  avg # of iterations =  2.2

     total cpu time spent up to now is       84.0 secs

     total energy              =    -885.82836598 Ry
     Harris-Foulkes estimate   =    -885.82839394 Ry
     estimated scf accuracy    <       0.00008499 Ry

     iteration #  4     ecut=    40.00 Ry     beta=0.70
     Davidson diagonalization with overlap
     ethr =  3.04E-07,  avg # of iterations =  2.1

     total cpu time spent up to now is      105.0 secs

     total energy              =    -885.82839355 Ry
     Harris-Foulkes estimate   =    -885.82839150 Ry
     estimated scf accuracy    <       0.00000487 Ry

     iteration #  5     ecut=    40.00 Ry     beta=0.70
     Davidson diagonalization with overlap
     ethr =  1.74E-08,  avg # of iterations =  2.0

     total cpu time spent up to now is      122.0 secs

     End of self-consistent calculation

          k = 0.0000 0.0000 0.0000 (  2085 PWs)   bands (ev):

   -14.5616 -14.5616 -14.5616 -14.5616 -14.4667 -14.4667 -14.4667 -14.4667
   -13.6499 -13.6499 -13.4488 -13.4488 -13.4488 -13.4488 -13.4042 -13.4042
   -13.4042 -13.4042 -13.2889 -13.2889  -2.8487  -2.8487   6.7546   6.7546
     7.1948   7.1948   7.8627   7.8627   7.8627   7.8627   9.4034   9.4034
     9.8757   9.8757   9.8757   9.8757

     occupation numbers 
     1.0000   1.0000   1.0000   1.0000   1.0000   1.0000   1.0000   1.0000
     1.0000   1.0000   1.0000   1.0000   1.0000   1.0000   1.0000   1.0000
     1.0000   1.0000   1.0000   1.0000   1.0000   1.0000   1.0000   1.0000
     1.0000   1.0000   0.0000   0.0000   0.0000   0.0000   0.0000   0.0000
     0.0000   0.0000   0.0000   0.0000

          k = 0.0416 0.0416-0.0416 (  2037 PWs)   bands (ev):

   -14.5553 -14.5553 -14.5539 -14.5539 -14.4615 -14.4615 -14.4595 -14.4595
   -13.6406 -13.6406 -13.4468 -13.4468 -13.4462 -13.4462 -13.3955 -13.3955
   -13.3948 -13.3948 -13.2820 -13.2820  -2.8161  -2.8161   6.2530   6.2530
     7.2723   7.2723   7.7896   7.7896   7.9875   7.9875   9.5586   9.5586
     9.9615   9.9615   9.9692   9.9692

     occupation numbers 
     1.0000   1.0000   1.0000   1.0000   1.0000   1.0000   1.0000   1.0000
     1.0000   1.0000   1.0000   1.0000   1.0000   1.0000   1.0000   1.0000
     1.0000   1.0000   1.0000   1.0000   1.0000   1.0000   1.0000   1.0000
     1.0000   1.0000   0.0000   0.0000   0.0000   0.0000   0.0000   0.0000
     0.0000   0.0000   0.0000   0.0000

          k = 0.0832 0.0832-0.0832 (  2028 PWs)   bands (ev):

   -14.5564 -14.5564 -14.5477 -14.5477 -14.4635 -14.4635 -14.4577 -14.4577
   -13.6336 -13.6336 -13.4579 -13.4579 -13.4529 -13.4529 -13.3847 -13.3847
   -13.3844 -13.3844 -13.2846 -13.2846  -2.7189  -2.7189   5.4414   5.4414
     7.1531   7.1531   7.6100   7.6100   8.0917   8.0917   9.8794   9.8794
    10.2002  10.2002  10.3272  10.3272

     occupation numbers 
     1.0000   1.0000   1.0000   1.0000   1.0000   1.0000   1.0000   1.0000
     1.0000   1.0000   1.0000   1.0000   1.0000   1.0000   1.0000   1.0000
     1.0000   1.0000   1.0000   1.0000   1.0000   1.0000   1.0000   1.0000
     1.0000   1.0000   1.0000   1.0000   0.0000   0.0000   0.0000   0.0000
     0.0000   0.0000   0.0000   0.0000

          k = 0.1248 0.1248-0.1248 (  2022 PWs)   bands (ev):

   -14.5562 -14.5562 -14.5434 -14.5434 -14.4661 -14.4661 -14.4549 -14.4549
   -13.6240 -13.6240 -13.4711 -13.4711 -13.4601 -13.4601 -13.3741 -13.3741
   -13.3739 -13.3739 -13.2883 -13.2883  -2.5595  -2.5595   4.5868   4.5868
     6.9512   6.9512   7.3907   7.3907   8.0337   8.0337  10.1634  10.1634
    10.4735  10.4735  10.9980  10.9980

     occupation numbers 
     1.0000   1.0000   1.0000   1.0000   1.0000   1.0000   1.0000   1.0000
     1.0000   1.0000   1.0000   1.0000   1.0000   1.0000   1.0000   1.0000
     1.0000   1.0000   1.0000   1.0000   1.0000   1.0000   1.0000   1.0000
     1.0000   1.0000   1.0000   1.0000   0.0000   0.0000   0.0000   0.0000
     0.0000   0.0000   0.0000   0.0000

          k = 0.1664 0.1664-0.1664 (  2021 PWs)   bands (ev):

   -14.5560 -14.5560 -14.5381 -14.5381 -14.4716 -14.4716 -14.4518 -14.4518
   -13.6121 -13.6121 -13.4856 -13.4856 -13.4671 -13.4671 -13.3646 -13.3646
   -13.3629 -13.3629 -13.2949 -13.2949  -2.3423  -2.3423   3.7531   3.7531
     6.7438   6.7438   7.1761   7.1761   7.9024   7.9024  10.4019  10.4019
    10.7045  10.7045  11.7938  11.7938

     occupation numbers 
     1.0000   1.0000   1.0000   1.0000   1.0000   1.0000   1.0000   1.0000
     1.0000   1.0000   1.0000   1.0000   1.0000   1.0000   1.0000   1.0000
     1.0000   1.0000   1.0000   1.0000   1.0000   1.0000   1.0000   1.0000
     1.0000   1.0000   1.0000   1.0000   0.0000   0.0000   0.0000   0.0000
     0.0000   0.0000   0.0000   0.0000

          k = 0.2080 0.2080-0.2080 (  2012 PWs)   bands (ev):

   -14.5573 -14.5573 -14.5287 -14.5287 -14.4766 -14.4766 -14.4478 -14.4478
   -13.5973 -13.5973 -13.4998 -13.4998 -13.4724 -13.4724 -13.3552 -13.3552
   -13.3517 -13.3517 -13.3016 -13.3016  -2.0769  -2.0769   2.9757   2.9757
     6.5609   6.5609   6.9895   6.9895   7.7630   7.7630  10.5648  10.5648
    10.8442  10.8442  12.6338  12.6338

     occupation numbers 
     1.0000   1.0000   1.0000   1.0000   1.0000   1.0000   1.0000   1.0000
     1.0000   1.0000   1.0000   1.0000   1.0000   1.0000   1.0000   1.0000
     1.0000   1.0000   1.0000   1.0000   1.0000   1.0000   1.0000   1.0000
     1.0000   1.0000   1.0000   1.0000   0.0000   0.0000   0.0000   0.0000
     0.0000   0.0000   0.0000   0.0000

          k = 0.2496 0.2496-0.2496 (  2024 PWs)   bands (ev):

   -14.5614 -14.5614 -14.5253 -14.5253 -14.4830 -14.4830 -14.4452 -14.4452
   -13.5856 -13.5856 -13.5151 -13.5151 -13.4801 -13.4801 -13.3504 -13.3504
   -13.3462 -13.3462 -13.3094 -13.3094  -1.7825  -1.7825   2.2883   2.2883
     6.4163   6.4163   6.8429   6.8429   7.6454   7.6454  10.6465  10.6465
    10.8970  10.8970  13.3272  13.3272

     occupation numbers 
     1.0000   1.0000   1.0000   1.0000   1.0000   1.0000   1.0000   1.0000
     1.0000   1.0000   1.0000   1.0000   1.0000   1.0000   1.0000   1.0000
     1.0000   1.0000   1.0000   1.0000   1.0000   1.0000   1.0000   1.0000
     1.0000   1.0000   1.0000   1.0000   0.0007   0.0007   0.0000   0.0000
     0.0000   0.0000   0.0000   0.0000

          k = 0.2912 0.2912-0.2912 (  2027 PWs)   bands (ev):

   -14.5623 -14.5623 -14.5211 -14.5211 -14.4879 -14.4879 -14.4435 -14.4435
   -13.5730 -13.5730 -13.5290 -13.5290 -13.4833 -13.4833 -13.3456 -13.3456
   -13.3393 -13.3393 -13.3154 -13.3154  -1.5002  -1.5002   1.7400   1.7400
     6.3170   6.3170   6.7426   6.7426   7.5625   7.5625  10.6736  10.6737
    10.9009  10.9009  13.3720  13.3721

     occupation numbers 
     1.0000   1.0000   1.0000   1.0000   1.0000   1.0000   1.0000   1.0000
     1.0000   1.0000   1.0000   1.0000   1.0000   1.0000   1.0000   1.0000
     1.0000   1.0000   1.0000   1.0000   1.0000   1.0000   1.0000   1.0000
     1.0000   1.0000   1.0000   1.0000   1.0000   1.0000   0.0000   0.0000
     0.0000   0.0000   0.0000   0.0000

          k = 0.3328 0.3328-0.3328 (  2021 PWs)   bands (ev):

   -14.5636 -14.5636 -14.5119 -14.5119 -14.4939 -14.4939 -14.4424 -14.4424
   -13.5574 -13.5574 -13.5417 -13.5417 -13.4856 -13.4856 -13.3423 -13.3423
   -13.3309 -13.3309 -13.3210 -13.3210  -1.3105  -1.3105   1.4163   1.4163
     6.2665   6.2665   6.6918   6.6918   7.5201   7.5201  10.6780  10.6780
    10.8931  10.8931  13.3202  13.3202

     occupation numbers 
     1.0000   1.0000   1.0000   1.0000   1.0000   1.0000   1.0000   1.0000
     1.0000   1.0000   1.0000   1.0000   1.0000   1.0000   1.0000   1.0000
     1.0000   1.0000   1.0000   1.0000   1.0000   1.0000   1.0000   1.0000
     1.0000   1.0000   1.0000   1.0000   1.0000   1.0000   0.0000   0.0000
     0.0000   0.0000   0.0000   0.0000

          k = 0.0832 0.0000 0.0000 (  2037 PWs)   bands (ev):

   -14.5550 -14.5550 -14.5542 -14.5542 -14.4615 -14.4615 -14.4601 -14.4601
   -13.6399 -13.6399 -13.4512 -13.4512 -13.4457 -13.4457 -13.3947 -13.3947
   -13.3922 -13.3922 -13.2825 -13.2825  -2.8052  -2.8052   6.1734   6.1734
     7.1986   7.1986   7.6104   7.6104   8.2501   8.2501   9.4838   9.4838
     9.9683   9.9683  10.1001  10.1001

     occupation numbers 
     1.0000   1.0000   1.0000   1.0000   1.0000   1.0000   1.0000   1.0000
     1.0000   1.0000   1.0000   1.0000   1.0000   1.0000   1.0000   1.0000
     1.0000   1.0000   1.0000   1.0000   1.0000   1.0000   1.0000   1.0000
     1.0000   1.0000   1.0000   1.0000   0.0000   0.0000   0.0000   0.0000
     0.0000   0.0000   0.0000   0.0000

          k = 0.1248 0.0416-0.0416 (  2027 PWs)   bands (ev):

   -14.5541 -14.5541 -14.5483 -14.5483 -14.4631 -14.4631 -14.4596 -14.4596
   -13.6330 -13.6330 -13.4601 -13.4601 -13.4503 -13.4503 -13.3881 -13.3881
   -13.3807 -13.3807 -13.2850 -13.2850  -2.7294  -2.7294   5.5737   5.5737
     7.0556   7.0556   7.4094   7.4094   8.4808   8.4808   9.5551   9.5551
    10.2490  10.2490  10.4003  10.4003

     occupation numbers 
     1.0000   1.0000   1.0000   1.0000   1.0000   1.0000   1.0000   1.0000
     1.0000   1.0000   1.0000   1.0000   1.0000   1.0000   1.0000   1.0000
     1.0000   1.0000   1.0000   1.0000   1.0000   1.0000   1.0000   1.0000
     1.0000   1.0000   1.0000   1.0000   0.0000   0.0000   0.0000   0.0000
     0.0000   0.0000   0.0000   0.0000

          k = 0.1664 0.0832-0.0832 (  2023 PWs)   bands (ev):

   -14.5550 -14.5550 -14.5446 -14.5446 -14.4654 -14.4654 -14.4572 -14.4572
   -13.6253 -13.6253 -13.4721 -13.4721 -13.4563 -13.4563 -13.3787 -13.3787
   -13.3715 -13.3715 -13.2882 -13.2882  -2.5904  -2.5904   4.7926   4.7926
     6.8493   6.8493   7.2004   7.2004   8.4863   8.4863   9.7894   9.7894
    10.5788  10.5788  10.9265  10.9265

     occupation numbers 
     1.0000   1.0000   1.0000   1.0000   1.0000   1.0000   1.0000   1.0000
     1.0000   1.0000   1.0000   1.0000   1.0000   1.0000   1.0000   1.0000
     1.0000   1.0000   1.0000   1.0000   1.0000   1.0000   1.0000   1.0000
     1.0000   1.0000   1.0000   1.0000   0.0000   0.0000   0.0000   0.0000
     0.0000   0.0000   0.0000   0.0000

          k = 0.2080 0.1248-0.1248 (  2023 PWs)   bands (ev):

   -14.5561 -14.5561 -14.5404 -14.5404 -14.4694 -14.4694 -14.4530 -14.4530
   -13.6145 -13.6145 -13.4857 -13.4857 -13.4633 -13.4633 -13.3720 -13.3720
   -13.3613 -13.3613 -13.2932 -13.2932  -2.3918  -2.3918   3.9814   3.9814
     6.6321   6.6321   6.9825   6.9825   8.3725   8.3725  10.0847  10.0847
    10.8414  10.8414  11.5729  11.5729

     occupation numbers 
     1.0000   1.0000   1.0000   1.0000   1.0000   1.0000   1.0000   1.0000
     1.0000   1.0000   1.0000   1.0000   1.0000   1.0000   1.0000   1.0000
     1.0000   1.0000   1.0000   1.0000   1.0000   1.0000   1.0000   1.0000
     1.0000   1.0000   1.0000   1.0000   0.0000   0.0000   0.0000   0.0000
     0.0000   0.0000   0.0000   0.0000

          k = 0.2496 0.1664-0.1664 (  2016 PWs)   bands (ev):

   -14.5576 -14.5576 -14.5321 -14.5321 -14.4744 -14.4744 -14.4486 -14.4486
   -13.6011 -13.6011 -13.4976 -13.4976 -13.4698 -13.4698 -13.3637 -13.3637
   -13.3501 -13.3501 -13.2989 -13.2989  -2.1410  -2.1410   3.2009   3.2009
     6.4346   6.4346   6.7853   6.7853   8.2280   8.2280  10.3399  10.3399
    10.9990  10.9990  12.2413  12.2413

     occupation numbers 
     1.0000   1.0000   1.0000   1.0000   1.0000   1.0000   1.0000   1.0000
     1.0000   1.0000   1.0000   1.0000   1.0000   1.0000   1.0000   1.0000
     1.0000   1.0000   1.0000   1.0000   1.0000   1.0000   1.0000   1.0000
     1.0000   1.0000   1.0000   1.0000   0.0000   0.0000   0.0000   0.0000
     0.0000   0.0000   0.0000   0.0000

          k = 0.2912 0.2080-0.2080 (  2020 PWs)   bands (ev):

   -14.5590 -14.5590 -14.5265 -14.5265 -14.4812 -14.4812 -14.4467 -14.4467
   -13.5882 -13.5882 -13.5113 -13.5113 -13.4761 -13.4761 -13.3598 -13.3598
   -13.3419 -13.3419 -13.3051 -13.3051  -1.8530  -1.8530   2.4904   2.4904
     6.2687   6.2687   6.6305   6.6305   8.0946   8.0946  10.5048  10.5048
    11.0478  11.0478  12.8876  12.8876

     occupation numbers 
     1.0000   1.0000   1.0000   1.0000   1.0000   1.0000   1.0000   1.0000
     1.0000   1.0000   1.0000   1.0000   1.0000   1.0000   1.0000   1.0000
     1.0000   1.0000   1.0000   1.0000   1.0000   1.0000   1.0000   1.0000
     1.0000   1.0000   1.0000   1.0000   0.0000   0.0000   0.0000   0.0000
     0.0000   0.0000   0.0000   0.0000

          k = 0.3328 0.2496-0.2496 (  2027 PWs)   bands (ev):

   -14.5610 -14.5610 -14.5222 -14.5222 -14.4873 -14.4873 -14.4448 -14.4448
   -13.5765 -13.5765 -13.5243 -13.5243 -13.4812 -13.4812 -13.3570 -13.3570
   -13.3355 -13.3355 -13.3104 -13.3104  -1.5597  -1.5597   1.8948   1.8948
     6.1403   6.1403   6.5295   6.5295   7.9909   7.9909  10.5934  10.5934
    11.0251  11.0251  13.3340  13.3340

     occupation numbers 
     1.0000   1.0000   1.0000   1.0000   1.0000   1.0000   1.0000   1.0000
     1.0000   1.0000   1.0000   1.0000   1.0000   1.0000   1.0000   1.0000
     1.0000   1.0000   1.0000   1.0000   1.0000   1.0000   1.0000   1.0000
     1.0000   1.0000   1.0000   1.0000   0.0000   0.0000   0.0000   0.0000
     0.0000   0.0000   0.0000   0.0000

          k = 0.3744 0.2912-0.2912 (  2027 PWs)   bands (ev):

   -14.5626 -14.5626 -14.5150 -14.5150 -14.4935 -14.4935 -14.4429 -14.4429
   -13.5624 -13.5624 -13.5365 -13.5365 -13.4851 -13.4851 -13.3543 -13.3543
   -13.3311 -13.3311 -13.3153 -13.3153  -1.3269  -1.3269   1.4871   1.4871
     6.0535   6.0535   6.4866   6.4866   7.9253   7.9253  10.6448  10.6448
    10.9756  10.9756  13.4362  13.4362

     occupation numbers 
     1.0000   1.0000   1.0000   1.0000   1.0000   1.0000   1.0000   1.0000
     1.0000   1.0000   1.0000   1.0000   1.0000   1.0000   1.0000   1.0000
     1.0000   1.0000   1.0000   1.0000   1.0000   1.0000   1.0000   1.0000
     1.0000   1.0000   1.0000   1.0000   0.0000   0.0000   0.0000   0.0000
     0.0000   0.0000   0.0000   0.0000

          k =-0.2912-0.3744 0.3744 (  2026 PWs)   bands (ev):

   -14.5640 -14.5640 -14.5121 -14.5121 -14.4957 -14.4957 -14.4427 -14.4427
   -13.5563 -13.5563 -13.5431 -13.5431 -13.4861 -13.4861 -13.3533 -13.3533
   -13.3283 -13.3283 -13.3158 -13.3158  -1.2563  -1.2563   1.3727   1.3727
     6.0124   6.0124   6.5018   6.5018   7.9013   7.9013  10.6840  10.6840
    10.9308  10.9308  13.4517  13.4517

     occupation numbers 
     1.0000   1.0000   1.0000   1.0000   1.0000   1.0000   1.0000   1.0000
     1.0000   1.0000   1.0000   1.0000   1.0000   1.0000   1.0000   1.0000
     1.0000   1.0000   1.0000   1.0000   1.0000   1.0000   1.0000   1.0000
     1.0000   1.0000   1.0000   1.0000   0.0000   0.0000   0.0000   0.0000
     0.0000   0.0000   0.0000   0.0000

          k =-0.2496-0.3328 0.3328 (  2022 PWs)   bands (ev):

   -14.5613 -14.5613 -14.5156 -14.5156 -14.4917 -14.4917 -14.4430 -14.4430
   -13.5664 -13.5664 -13.5322 -13.5322 -13.4829 -13.4829 -13.3542 -13.3542
   -13.3309 -13.3309 -13.3133 -13.3133  -1.3921  -1.3921   1.5966   1.5966
     6.0205   6.0205   6.5725   6.5725   7.9199   7.9199  10.7059  10.7059
    10.9111  10.9111  13.4614  13.4614

     occupation numbers 
     1.0000   1.0000   1.0000   1.0000   1.0000   1.0000   1.0000   1.0000
     1.0000   1.0000   1.0000   1.0000   1.0000   1.0000   1.0000   1.0000
     1.0000   1.0000   1.0000   1.0000   1.0000   1.0000   1.0000   1.0000
     1.0000   1.0000   1.0000   1.0000   0.0000   0.0000   0.0000   0.0000
     0.0000   0.0000   0.0000   0.0000

          k =-0.2080-0.2912 0.2912 (  2023 PWs)   bands (ev):

   -14.5607 -14.5607 -14.5231 -14.5231 -14.4853 -14.4853 -14.4443 -14.4443
   -13.5797 -13.5797 -13.5199 -13.5199 -13.4799 -13.4799 -13.3582 -13.3582
   -13.3362 -13.3362 -13.3094 -13.3094  -1.6554  -1.6554   2.0779   2.0779
     6.0804   6.0804   6.6940   6.6940   7.9792   7.9792  10.6816  10.6816
    10.9190  10.9190  13.3239  13.3239

     occupation numbers 
     1.0000   1.0000   1.0000   1.0000   1.0000   1.0000   1.0000   1.0000
     1.0000   1.0000   1.0000   1.0000   1.0000   1.0000   1.0000   1.0000
     1.0000   1.0000   1.0000   1.0000   1.0000   1.0000   1.0000   1.0000
     1.0000   1.0000   1.0000   1.0000   0.0000   0.0000   0.0000   0.0000
     0.0000   0.0000   0.0000   0.0000

          k =-0.1664-0.2496 0.2496 (  2017 PWs)   bands (ev):

   -14.5589 -14.5589 -14.5280 -14.5280 -14.4784 -14.4784 -14.4463 -14.4463
   -13.5918 -13.5918 -13.5073 -13.5073 -13.4740 -13.4740 -13.3616 -13.3616
   -13.3429 -13.3429 -13.3036 -13.3036  -1.9522  -1.9522   2.7178   2.7178
     6.1933   6.1933   6.8599   6.8599   8.0742   8.0742  10.5909  10.5909
    10.9070  10.9070  12.7433  12.7433

     occupation numbers 
     1.0000   1.0000   1.0000   1.0000   1.0000   1.0000   1.0000   1.0000
     1.0000   1.0000   1.0000   1.0000   1.0000   1.0000   1.0000   1.0000
     1.0000   1.0000   1.0000   1.0000   1.0000   1.0000   1.0000   1.0000
     1.0000   1.0000   1.0000   1.0000   0.0000   0.0000   0.0000   0.0000
     0.0000   0.0000   0.0000   0.0000

          k =-0.1248-0.2080 0.2080 (  2020 PWs)   bands (ev):

   -14.5572 -14.5572 -14.5357 -14.5357 -14.4730 -14.4730 -14.4501 -14.4501
   -13.6062 -13.6062 -13.4943 -13.4943 -13.4678 -13.4678 -13.3677 -13.3677
   -13.3525 -13.3525 -13.2970 -13.2970  -2.2301  -2.2301   3.4547   3.4547
     6.3591   6.3591   7.0599   7.0599   8.1925   8.1925  10.4222  10.4222
    10.7954  10.7954  12.0410  12.0410

     occupation numbers 
     1.0000   1.0000   1.0000   1.0000   1.0000   1.0000   1.0000   1.0000
     1.0000   1.0000   1.0000   1.0000   1.0000   1.0000   1.0000   1.0000
     1.0000   1.0000   1.0000   1.0000   1.0000   1.0000   1.0000   1.0000
     1.0000   1.0000   1.0000   1.0000   0.0000   0.0000   0.0000   0.0000
     0.0000   0.0000   0.0000   0.0000

          k =-0.0832-0.1664 0.1664 (  2020 PWs)   bands (ev):

   -14.5552 -14.5552 -14.5414 -14.5414 -14.4679 -14.4679 -14.4541 -14.4541
   -13.6180 -13.6180 -13.4799 -13.4799 -13.4611 -13.4611 -13.3750 -13.3750
   -13.3629 -13.3629 -13.2907 -13.2907  -2.4645  -2.4645   4.2467   4.2467
     6.5758   6.5758   7.2769   7.2769   8.3062   8.3062  10.1861  10.1861
    10.5329  10.5329  11.3938  11.3938

     occupation numbers 
     1.0000   1.0000   1.0000   1.0000   1.0000   1.0000   1.0000   1.0000
     1.0000   1.0000   1.0000   1.0000   1.0000   1.0000   1.0000   1.0000
     1.0000   1.0000   1.0000   1.0000   1.0000   1.0000   1.0000   1.0000
     1.0000   1.0000   1.0000   1.0000   0.0000   0.0000   0.0000   0.0000
     0.0000   0.0000   0.0000   0.0000

          k =-0.0416-0.1248 0.1248 (  2023 PWs)   bands (ev):

   -14.5547 -14.5547 -14.5458 -14.5458 -14.4647 -14.4647 -14.4574 -14.4574
   -13.6284 -13.6284 -13.4671 -13.4671 -13.4544 -13.4544 -13.3824 -13.3824
   -13.3735 -13.3735 -13.2869 -13.2869  -2.6438  -2.6438   5.0478   5.0478
     6.8371   6.8371   7.4820   7.4820   8.3523   8.3523   9.9258   9.9258
    10.1938  10.1938  10.8130  10.8130

     occupation numbers 
     1.0000   1.0000   1.0000   1.0000   1.0000   1.0000   1.0000   1.0000
     1.0000   1.0000   1.0000   1.0000   1.0000   1.0000   1.0000   1.0000
     1.0000   1.0000   1.0000   1.0000   1.0000   1.0000   1.0000   1.0000
     1.0000   1.0000   1.0000   1.0000   0.0000   0.0000   0.0000   0.0000
     0.0000   0.0000   0.0000   0.0000

          k =-0.0000-0.0832 0.0832 (  2025 PWs)   bands (ev):

   -14.5539 -14.5539 -14.5482 -14.5482 -14.4625 -14.4625 -14.4591 -14.4591
   -13.6346 -13.6346 -13.4552 -13.4552 -13.4488 -13.4488 -13.3889 -13.3889
   -13.3841 -13.3841 -13.2836 -13.2836  -2.7619  -2.7619   5.7766   5.7766
     7.1178   7.1178   7.6425   7.6425   8.2284   8.2284   9.6921   9.6921
     9.9807   9.9807  10.3040  10.3040

     occupation numbers 
     1.0000   1.0000   1.0000   1.0000   1.0000   1.0000   1.0000   1.0000
     1.0000   1.0000   1.0000   1.0000   1.0000   1.0000   1.0000   1.0000
     1.0000   1.0000   1.0000   1.0000   1.0000   1.0000   1.0000   1.0000
     1.0000   1.0000   0.4162   0.4162   0.0000   0.0000   0.0000   0.0000
     0.0000   0.0000   0.0000   0.0000

          k = 0.1664 0.0000 0.0000 (  2029 PWs)   bands (ev):

   -14.5529 -14.5529 -14.5518 -14.5518 -14.4633 -14.4633 -14.4589 -14.4589
   -13.6309 -13.6309 -13.4671 -13.4671 -13.4520 -13.4520 -13.3847 -13.3847
   -13.3798 -13.3798 -13.2856 -13.2856  -2.6749  -2.6749   5.3307   5.3307
     6.8597   6.8597   7.1216   7.1216   8.9579   8.9579   9.2614   9.2614
    10.5391  10.5391  10.6434  10.6434

     occupation numbers 
     1.0000   1.0000   1.0000   1.0000   1.0000   1.0000   1.0000   1.0000
     1.0000   1.0000   1.0000   1.0000   1.0000   1.0000   1.0000   1.0000
     1.0000   1.0000   1.0000   1.0000   1.0000   1.0000   1.0000   1.0000
     1.0000   1.0000   1.0000   1.0000   0.0000   0.0000   0.0000   0.0000
     0.0000   0.0000   0.0000   0.0000

          k = 0.2080 0.0416-0.0416 (  2023 PWs)   bands (ev):

   -14.5538 -14.5538 -14.5470 -14.5470 -14.4636 -14.4636 -14.4572 -14.4572
   -13.6230 -13.6230 -13.4771 -13.4771 -13.4554 -13.4554 -13.3787 -13.3787
   -13.3719 -13.3719 -13.2877 -13.2877  -2.5566  -2.5566   4.7732   4.7732
     6.6401   6.6401   6.8842   6.8842   9.0900   9.0900   9.3056   9.3056
    10.9074  10.9074  11.0424  11.0424

     occupation numbers 
     1.0000   1.0000   1.0000   1.0000   1.0000   1.0000   1.0000   1.0000
     1.0000   1.0000   1.0000   1.0000   1.0000   1.0000   1.0000   1.0000
     1.0000   1.0000   1.0000   1.0000   1.0000   1.0000   1.0000   1.0000
     1.0000   1.0000   1.0000   1.0000   0.0000   0.0000   0.0000   0.0000
     0.0000   0.0000   0.0000   0.0000

          k = 0.2496 0.0832-0.0832 (  2022 PWs)   bands (ev):

   -14.5546 -14.5546 -14.5417 -14.5417 -14.4690 -14.4690 -14.4538 -14.4538
   -13.6130 -13.6130 -13.4882 -13.4882 -13.4619 -13.4619 -13.3739 -13.3739
   -13.3601 -13.3601 -13.2924 -13.2924  -2.3773  -2.3773   4.0754   4.0754
     6.3976   6.3976   6.6624   6.6624   9.0187   9.0187   9.5708   9.5708
    11.2090  11.2090  11.4937  11.4937

     occupation numbers 
     1.0000   1.0000   1.0000   1.0000   1.0000   1.0000   1.0000   1.0000
     1.0000   1.0000   1.0000   1.0000   1.0000   1.0000   1.0000   1.0000
     1.0000   1.0000   1.0000   1.0000   1.0000   1.0000   1.0000   1.0000
     1.0000   1.0000   1.0000   1.0000   0.0000   0.0000   0.0000   0.0000
     0.0000   0.0000   0.0000   0.0000

          k = 0.2912 0.1248-0.1248 (  2025 PWs)   bands (ev):

   -14.5562 -14.5562 -14.5368 -14.5368 -14.4746 -14.4746 -14.4513 -14.4513
   -13.6019 -13.6019 -13.5007 -13.5007 -13.4680 -13.4680 -13.3717 -13.3717
   -13.3497 -13.3497 -13.2972 -13.2972  -2.1428  -2.1428   3.3474   3.3474
     6.1541   6.1541   6.4706   6.4706   8.8860   8.8860   9.9173   9.9173
    11.3981  11.3981  11.8333  11.8333

     occupation numbers 
     1.0000   1.0000   1.0000   1.0000   1.0000   1.0000   1.0000   1.0000
     1.0000   1.0000   1.0000   1.0000   1.0000   1.0000   1.0000   1.0000
     1.0000   1.0000   1.0000   1.0000   1.0000   1.0000   1.0000   1.0000
     1.0000   1.0000   1.0000   1.0000   0.0000   0.0000   0.0000   0.0000
     0.0000   0.0000   0.0000   0.0000

          k = 0.3328 0.1664-0.1664 (  2016 PWs)   bands (ev):

   -14.5563 -14.5563 -14.5291 -14.5291 -14.4791 -14.4791 -14.4466 -14.4466
   -13.5882 -13.5882 -13.5102 -13.5102 -13.4723 -13.4723 -13.3686 -13.3686
   -13.3390 -13.3390 -13.2993 -13.2993  -1.8645  -1.8645   2.6511   2.6511
     5.9267   5.9267   6.3334   6.3334   8.7432   8.7432  10.2269  10.2269
    11.4577  11.4577  12.1709  12.1709

     occupation numbers 
     1.0000   1.0000   1.0000   1.0000   1.0000   1.0000   1.0000   1.0000
     1.0000   1.0000   1.0000   1.0000   1.0000   1.0000   1.0000   1.0000
     1.0000   1.0000   1.0000   1.0000   1.0000   1.0000   1.0000   1.0000
     1.0000   1.0000   1.0000   1.0000   0.0000   0.0000   0.0000   0.0000
     0.0000   0.0000   0.0000   0.0000

          k = 0.3744 0.2080-0.2080 (  2021 PWs)   bands (ev):

   -14.5576 -14.5576 -14.5234 -14.5234 -14.4859 -14.4859 -14.4450 -14.4450
   -13.5765 -13.5765 -13.5204 -13.5204 -13.4770 -13.4770 -13.3688 -13.3688
   -13.3339 -13.3339 -13.3023 -13.3023  -1.5669  -1.5669   2.0362   2.0362
     5.7316   5.7316   6.2582   6.2582   8.6201   8.6201  10.4262  10.4263
    11.4193  11.4193  12.6411  12.6412

     occupation numbers 
     1.0000   1.0000   1.0000   1.0000   1.0000   1.0000   1.0000   1.0000
     1.0000   1.0000   1.0000   1.0000   1.0000   1.0000   1.0000   1.0000
     1.0000   1.0000   1.0000   1.0000   1.0000   1.0000   1.0000   1.0000
     1.0000   1.0000   1.0000   1.0000   0.0000   0.0000   0.0000   0.0000
     0.0000   0.0000   0.0000   0.0000

          k = 0.4159 0.2496-0.2496 (  2023 PWs)   bands (ev):

   -14.5591 -14.5591 -14.5182 -14.5182 -14.4918 -14.4918 -14.4427 -14.4427
   -13.5655 -13.5655 -13.5300 -13.5300 -13.4813 -13.4813 -13.3688 -13.3688
   -13.3303 -13.3303 -13.3035 -13.3035  -1.3022  -1.3022   1.5687   1.5687
     5.5806   5.5806   6.2444   6.2444   8.5311   8.5311  10.5418  10.5418
    11.3306  11.3306  13.1885  13.1885

     occupation numbers 
     1.0000   1.0000   1.0000   1.0000   1.0000   1.0000   1.0000   1.0000
     1.0000   1.0000   1.0000   1.0000   1.0000   1.0000   1.0000   1.0000
     1.0000   1.0000   1.0000   1.0000   1.0000   1.0000   1.0000   1.0000
     1.0000   1.0000   1.0000   1.0000   0.0000   0.0000   0.0000   0.0000
     0.0000   0.0000   0.0000   0.0000

          k =-0.2496-0.4159 0.4159 (  2022 PWs)   bands (ev):

   -14.5603 -14.5603 -14.5139 -14.5139 -14.4947 -14.4947 -14.4425 -14.4425
   -13.5583 -13.5583 -13.5358 -13.5358 -13.4830 -13.4830 -13.3688 -13.3688
   -13.3288 -13.3288 -13.3035 -13.3035  -1.1661  -1.1661   1.3514   1.3514
     5.4818   5.4818   6.2897   6.2897   8.4820   8.4820  10.6298  10.6298
[...]

     occupation numbers 
     1.0000   1.0000   1.0000   1.0000   1.0000   1.0000   1.0000   1.0000
     1.0000   1.0000   1.0000   1.0000   1.0000   1.0000   1.0000   1.0000
     1.0000   1.0000   1.0000   1.0000   1.0000   1.0000   1.0000   1.0000
     1.0000   1.0000   1.0000   1.0000   0.0000   0.0000   0.0000   0.0000
     0.0000   0.0000   0.0000   0.0000

          k =-0.1664-0.4991 0.6655 (  2027 PWs)   bands (ev):

   -14.5547 -14.5547 -14.5277 -14.5277 -14.4831 -14.4831 -14.4456 -14.4456
   -13.5647 -13.5647 -13.5237 -13.5237 -13.4684 -13.4684 -13.4085 -13.4085
   -13.3279 -13.3279 -13.2853 -13.2853  -0.8913  -0.8913   1.3793   1.3793
     4.7399   4.7399   5.3708   5.3708   9.3740   9.3740  10.0738  10.0738
    11.8632  11.8632  13.7646  13.7646

     occupation numbers 
     1.0000   1.0000   1.0000   1.0000   1.0000   1.0000   1.0000   1.0000
     1.0000   1.0000   1.0000   1.0000   1.0000   1.0000   1.0000   1.0000
     1.0000   1.0000   1.0000   1.0000   1.0000   1.0000   1.0000   1.0000
     1.0000   1.0000   1.0000   1.0000   0.0000   0.0000   0.0000   0.0000
     0.0000   0.0000   0.0000   0.0000

          k =-0.1248-0.4575 0.6239 (  2030 PWs)   bands (ev):

   -14.5564 -14.5564 -14.5255 -14.5255 -14.4865 -14.4865 -14.4433 -14.4433
   -13.5640 -13.5640 -13.5212 -13.5212 -13.4681 -13.4681 -13.4166 -13.4166
   -13.3276 -13.3276 -13.2816 -13.2816  -0.6103  -0.6103   1.0307   1.0307
     4.5223   4.5223   5.3205   5.3205   9.4345   9.4345  10.7350  10.7350
    11.7411  11.7411  13.4932  13.4932

     occupation numbers 
     1.0000   1.0000   1.0000   1.0000   1.0000   1.0000   1.0000   1.0000
     1.0000   1.0000   1.0000   1.0000   1.0000   1.0000   1.0000   1.0000
     1.0000   1.0000   1.0000   1.0000   1.0000   1.0000   1.0000   1.0000
     1.0000   1.0000   1.0000   1.0000   0.0000   0.0000   0.0000   0.0000
     0.0000   0.0000   0.0000   0.0000

          k =-0.0832-0.4159 0.5823 (  2029 PWs)   bands (ev):

   -14.5568 -14.5568 -14.5227 -14.5227 -14.4888 -14.4888 -14.4419 -14.4419
   -13.5644 -13.5644 -13.5178 -13.5178 -13.4671 -13.4671 -13.4205 -13.4205
   -13.3280 -13.3280 -13.2789 -13.2789  -0.4738  -0.4738   0.8727   0.8727
     4.3722   4.3722   5.3622   5.3622   9.5039   9.5039  11.2419  11.2419
    11.9232  11.9232  12.8635  12.8636

     occupation numbers 
     1.0000   1.0000   1.0000   1.0000   1.0000   1.0000   1.0000   1.0000
     1.0000   1.0000   1.0000   1.0000   1.0000   1.0000   1.0000   1.0000
     1.0000   1.0000   1.0000   1.0000   1.0000   1.0000   1.0000   1.0000
     1.0000   1.0000   1.0000   1.0000   0.0000   0.0000   0.0000   0.0000
     0.0000   0.0000   0.0000   0.0000

          k =-0.0416-0.3744 0.5407 (  2030 PWs)   bands (ev):

   -14.5581 -14.5581 -14.5215 -14.5215 -14.4906 -14.4906 -14.4412 -14.4412
   -13.5646 -13.5646 -13.5191 -13.5191 -13.4676 -13.4676 -13.4184 -13.4184
   -13.3289 -13.3289 -13.2799 -13.2799  -0.5944  -0.5944   1.0141   1.0141
     4.3214   4.3214   5.4832   5.4832   9.5958   9.5958  11.2689  11.2689
    12.0562  12.0562  12.6887  12.6888

     occupation numbers 
     1.0000   1.0000   1.0000   1.0000   1.0000   1.0000   1.0000   1.0000
     1.0000   1.0000   1.0000   1.0000   1.0000   1.0000   1.0000   1.0000
     1.0000   1.0000   1.0000   1.0000   1.0000   1.0000   1.0000   1.0000
     1.0000   1.0000   1.0000   1.0000   0.0000   0.0000   0.0000   0.0000
     0.0000   0.0000   0.0000   0.0000

          k = 0.0000-0.3328 0.4991 (  2020 PWs)   bands (ev):

   -14.5569 -14.5569 -14.5198 -14.5198 -14.4899 -14.4899 -14.4405 -14.4405
   -13.5651 -13.5651 -13.5197 -13.5197 -13.4685 -13.4685 -13.4096 -13.4096
   -13.3276 -13.3276 -13.2818 -13.2818  -0.8662  -0.8662   1.3372   1.3372
     4.3966   4.3966   5.6659   5.6659   9.6788   9.6788  11.0371  11.0371
    11.5627  11.5627  13.1764  13.1765

     occupation numbers 
     1.0000   1.0000   1.0000   1.0000   1.0000   1.0000   1.0000   1.0000
     1.0000   1.0000   1.0000   1.0000   1.0000   1.0000   1.0000   1.0000
     1.0000   1.0000   1.0000   1.0000   1.0000   1.0000   1.0000   1.0000
     1.0000   1.0000   1.0000   1.0000   0.0000   0.0000   0.0000   0.0000
     0.0000   0.0000   0.0000   0.0000

          k =-0.1248-0.5407 0.7071 (  2028 PWs)   bands (ev):

   -14.5520 -14.5520 -14.5310 -14.5310 -14.4795 -14.4795 -14.4482 -14.4482
   -13.5614 -13.5614 -13.5257 -13.5257 -13.4661 -13.4661 -13.4156 -13.4156
   -13.3236 -13.3236 -13.2860 -13.2860  -0.6894  -0.6894   1.1278   1.1278
     4.8631   4.8631   5.1882   5.1882   9.1153   9.1153   9.4840   9.4840
    12.6893  12.6893  14.2278  14.2278

     occupation numbers 
     1.0000   1.0000   1.0000   1.0000   1.0000   1.0000   1.0000   1.0000
     1.0000   1.0000   1.0000   1.0000   1.0000   1.0000   1.0000   1.0000
     1.0000   1.0000   1.0000   1.0000   1.0000   1.0000   1.0000   1.0000
     1.0000   1.0000   1.0000   1.0000   0.0000   0.0000   0.0000   0.0000
     0.0000   0.0000   0.0000   0.0000

          k =-0.0832-0.4991 0.6655 (  2030 PWs)   bands (ev):

   -14.5538 -14.5538 -14.5292 -14.5292 -14.4821 -14.4821 -14.4457 -14.4457
   -13.5624 -13.5624 -13.5215 -13.5215 -13.4617 -13.4617 -13.4256 -13.4256
   -13.3251 -13.3251 -13.2816 -13.2816  -0.3846  -0.3846   0.7827   0.7827
     4.6405   4.6405   5.1036   5.1036   9.2992   9.2992   9.9716   9.9716
    12.5022  12.5022  13.8408  13.8409

     occupation numbers 
     1.0000   1.0000   1.0000   1.0000   1.0000   1.0000   1.0000   1.0000
     1.0000   1.0000   1.0000   1.0000   1.0000   1.0000   1.0000   1.0000
     1.0000   1.0000   1.0000   1.0000   1.0000   1.0000   1.0000   1.0000
     1.0000   1.0000   1.0000   1.0000   0.0000   0.0000   0.0000   0.0000
     0.0000   0.0000   0.0000   0.0000

          k =-0.0416-0.4575 0.6239 (  2028 PWs)   bands (ev):

   -14.5554 -14.5554 -14.5255 -14.5255 -14.4853 -14.4853 -14.4424 -14.4424
   -13.5632 -13.5632 -13.5174 -13.5174 -13.4600 -13.4600 -13.4303 -13.4303
   -13.3256 -13.3256 -13.2777 -13.2777  -0.1947  -0.1947   0.5850   0.5850
     4.4228   4.4228   5.1503   5.1503   9.3834   9.3834  10.7412  10.7412
    12.3411  12.3411  13.0521  13.0521

     occupation numbers 
     1.0000   1.0000   1.0000   1.0000   1.0000   1.0000   1.0000   1.0000
     1.0000   1.0000   1.0000   1.0000   1.0000   1.0000   1.0000   1.0000
     1.0000   1.0000   1.0000   1.0000   1.0000   1.0000   1.0000   1.0000
     1.0000   1.0000   1.0000   1.0000   0.0000   0.0000   0.0000   0.0000
     0.0000   0.0000   0.0000   0.0000

          k = 0.0000-0.4159 0.5823 (  2036 PWs)   bands (ev):

   -14.5581 -14.5581 -14.5241 -14.5241 -14.4890 -14.4890 -14.4417 -14.4417
   -13.5650 -13.5650 -13.5185 -13.5185 -13.4630 -13.4630 -13.4284 -13.4284
   -13.3276 -13.3276 -13.2788 -13.2788  -0.3153  -0.3153   0.7185   0.7185
     4.3007   4.3007   5.2846   5.2846   9.4897   9.4897  11.5069  11.5069
    12.2292  12.2292  12.2890  12.2890

     occupation numbers 
     1.0000   1.0000   1.0000   1.0000   1.0000   1.0000   1.0000   1.0000
     1.0000   1.0000   1.0000   1.0000   1.0000   1.0000   1.0000   1.0000
     1.0000   1.0000   1.0000   1.0000   1.0000   1.0000   1.0000   1.0000
     1.0000   1.0000   1.0000   1.0000   0.0000   0.0000   0.0000   0.0000
     0.0000   0.0000   0.0000   0.0000

          k =-0.0416-0.5407 0.7071 (  2029 PWs)   bands (ev):

   -14.5511 -14.5511 -14.5317 -14.5317 -14.4783 -14.4783 -14.4489 -14.4489
   -13.5597 -13.5597 -13.5253 -13.5253 -13.4539 -13.4539 -13.4329 -13.4329
   -13.3212 -13.3212 -13.2844 -13.2844  -0.1264  -0.1264   0.4841   0.4841
     4.8281   4.8281   4.9954   4.9954   9.1300   9.1300   9.3056   9.3056
    13.4057  13.4057  14.0822  14.0822

     occupation numbers 
     1.0000   1.0000   1.0000   1.0000   1.0000   1.0000   1.0000   1.0000
     1.0000   1.0000   1.0000   1.0000   1.0000   1.0000   1.0000   1.0000
     1.0000   1.0000   1.0000   1.0000   1.0000   1.0000   1.0000   1.0000
     1.0000   1.0000   1.0000   1.0000   0.0000   0.0000   0.0000   0.0000
     0.0000   0.0000   0.0000   0.0000

          k = 0.0000-0.4991 0.6655 (  2032 PWs)   bands (ev):

   -14.5537 -14.5537 -14.5295 -14.5295 -14.4820 -14.4820 -14.4458 -14.4458
   -13.5619 -13.5619 -13.5214 -13.5214 -13.4538 -13.4538 -13.4367 -13.4367
   -13.3238 -13.3238 -13.2807 -13.2807   0.0631   0.0631   0.3051   0.3051
     4.6132   4.6132   5.0069   5.0069   9.2741   9.2741   9.9255   9.9255
    13.1506  13.1506  13.3035  13.3035

     occupation numbers 
     1.0000   1.0000   1.0000   1.0000   1.0000   1.0000   1.0000   1.0000
     1.0000   1.0000   1.0000   1.0000   1.0000   1.0000   1.0000   1.0000
     1.0000   1.0000   1.0000   1.0000   1.0000   1.0000   1.0000   1.0000
     1.0000   1.0000   1.0000   1.0000   0.0000   0.0000   0.0000   0.0000
     0.0000   0.0000   0.0000   0.0000

          k =-0.2080-0.4575 0.7071 (  2026 PWs)   bands (ev):

   -14.5572 -14.5572 -14.5256 -14.5256 -14.4854 -14.4854 -14.4435 -14.4435
   -13.5677 -13.5677 -13.5228 -13.5228 -13.4697 -13.4697 -13.4046 -13.4046
   -13.3291 -13.3291 -13.2852 -13.2852  -1.0528  -1.0528   1.5868   1.5868
     4.6597   4.6597   5.5704   5.5704   9.9283   9.9283  10.1652  10.1652
    11.3206  11.3206  13.4738  13.4738

     occupation numbers 
     1.0000   1.0000   1.0000   1.0000   1.0000   1.0000   1.0000   1.0000
     1.0000   1.0000   1.0000   1.0000   1.0000   1.0000   1.0000   1.0000
     1.0000   1.0000   1.0000   1.0000   1.0000   1.0000   1.0000   1.0000
     1.0000   1.0000   1.0000   1.0000   0.0000   0.0000   0.0000   0.0000
     0.0000   0.0000   0.0000   0.0000

          k =-0.1664-0.4159 0.6655 (  2029 PWs)   bands (ev):

   -14.5578 -14.5578 -14.5239 -14.5239 -14.4881 -14.4881 -14.4422 -14.4422
   -13.5652 -13.5652 -13.5213 -13.5213 -13.4682 -13.4682 -13.4138 -13.4138
   -13.3288 -13.3288 -13.2819 -13.2819  -0.7542  -0.7542   1.2077   1.2077
     4.4880   4.4880   5.4007   5.4007  10.0031  10.0031  10.5925  10.5925
    11.3734  11.3734  13.4022  13.4022

     occupation numbers 
     1.0000   1.0000   1.0000   1.0000   1.0000   1.0000   1.0000   1.0000
     1.0000   1.0000   1.0000   1.0000   1.0000   1.0000   1.0000   1.0000
     1.0000   1.0000   1.0000   1.0000   1.0000   1.0000   1.0000   1.0000
     1.0000   1.0000   1.0000   1.0000   0.0000   0.0000   0.0000   0.0000
     0.0000   0.0000   0.0000   0.0000

          k =-0.1248-0.3744 0.6239 (  2027 PWs)   bands (ev):

   -14.5573 -14.5573 -14.5222 -14.5222 -14.4890 -14.4890 -14.4410 -14.4410
   -13.5641 -13.5641 -13.5179 -13.5179 -13.4675 -13.4675 -13.4190 -13.4190
   -13.3282 -13.3282 -13.2789 -13.2789  -0.5328  -0.5328   0.9423   0.9423
     4.4066   4.4066   5.3057   5.3057  10.0057  10.0057  10.7412  10.7412
    11.9249  11.9249  12.7652  12.7652

     occupation numbers 
     1.0000   1.0000   1.0000   1.0000   1.0000   1.0000   1.0000   1.0000
     1.0000   1.0000   1.0000   1.0000   1.0000   1.0000   1.0000   1.0000
     1.0000   1.0000   1.0000   1.0000   1.0000   1.0000   1.0000   1.0000
     1.0000   1.0000   1.0000   1.0000   0.0000   0.0000   0.0000   0.0000
     0.0000   0.0000   0.0000   0.0000

          k =-0.1248-0.4575 0.7071 (  2026 PWs)   bands (ev):

   -14.5555 -14.5555 -14.5268 -14.5268 -14.4843 -14.4843 -14.4427 -14.4427
   -13.5635 -13.5635 -13.5203 -13.5203 -13.4653 -13.4653 -13.4193 -13.4193
   -13.3266 -13.3266 -13.2804 -13.2804  -0.5852  -0.5852   1.0228   1.0228
     4.5833   4.5833   5.1486   5.1486   9.9166   9.9166  10.1636  10.1636
    11.6744  11.6744  13.6692  13.6692

     occupation numbers 
     1.0000   1.0000   1.0000   1.0000   1.0000   1.0000   1.0000   1.0000
     1.0000   1.0000   1.0000   1.0000   1.0000   1.0000   1.0000   1.0000
     1.0000   1.0000   1.0000   1.0000   1.0000   1.0000   1.0000   1.0000
     1.0000   1.0000   1.0000   1.0000   0.0000   0.0000   0.0000   0.0000
     0.0000   0.0000   0.0000   0.0000

          k =-0.0832-0.4159 0.6655 (  2026 PWs)   bands (ev):

   -14.5559 -14.5559 -14.5246 -14.5246 -14.4864 -14.4864 -14.4409 -14.4409
   -13.5639 -13.5639 -13.5161 -13.5161 -13.4623 -13.4623 -13.4273 -13.4273
   -13.3266 -13.3266 -13.2769 -13.2769  -0.3122  -0.3122   0.7240   0.7240
     4.4641   4.4641   5.0283   5.0283  10.0727  10.0727  10.7689  10.7689
    11.5622  11.5622  12.9004  12.9004

     occupation numbers 
     1.0000   1.0000   1.0000   1.0000   1.0000   1.0000   1.0000   1.0000
     1.0000   1.0000   1.0000   1.0000   1.0000   1.0000   1.0000   1.0000
     1.0000   1.0000   1.0000   1.0000   1.0000   1.0000   1.0000   1.0000
     1.0000   1.0000   1.0000   1.0000   0.0000   0.0000   0.0000   0.0000
     0.0000   0.0000   0.0000   0.0000

          k =-0.0416-0.3744 0.6239 (  2018 PWs)   bands (ev):

   -14.5553 -14.5553 -14.5228 -14.5228 -14.4855 -14.4855 -14.4393 -14.4393
   -13.5633 -13.5633 -13.5136 -13.5136 -13.4599 -13.4599 -13.4277 -13.4277
   -13.3262 -13.3262 -13.2741 -13.2741  -0.2438  -0.2438   0.6534   0.6534
     4.3845   4.3845   5.0477   5.0477  10.1526  10.1526  11.1419  11.1419
    11.8158  11.8158  12.1398  12.1398

     occupation numbers 
     1.0000   1.0000   1.0000   1.0000   1.0000   1.0000   1.0000   1.0000
     1.0000   1.0000   1.0000   1.0000   1.0000   1.0000   1.0000   1.0000
     1.0000   1.0000   1.0000   1.0000   1.0000   1.0000   1.0000   1.0000
     1.0000   1.0000   1.0000   1.0000   0.0000   0.0000   0.0000   0.0000
     0.0000   0.0000   0.0000   0.0000

          k =-0.0000-0.3328 0.5823 (  2028 PWs)   bands (ev):

   -14.5575 -14.5575 -14.5239 -14.5239 -14.4880 -14.4880 -14.4404 -14.4404
   -13.5646 -13.5646 -13.5173 -13.5173 -13.4649 -13.4649 -13.4233 -13.4233
   -13.3276 -13.3276 -13.2778 -13.2778  -0.4560  -0.4560   0.8818   0.8818
     4.3816   4.3816   5.1848   5.1848  10.2067  10.2067  10.9537  10.9537
    11.4145  11.4145  12.7777  12.7777

     occupation numbers 
     1.0000   1.0000   1.0000   1.0000   1.0000   1.0000   1.0000   1.0000
     1.0000   1.0000   1.0000   1.0000   1.0000   1.0000   1.0000   1.0000
     1.0000   1.0000   1.0000   1.0000   1.0000   1.0000   1.0000   1.0000
     1.0000   1.0000   1.0000   1.0000   0.0000   0.0000   0.0000   0.0000
     0.0000   0.0000   0.0000   0.0000

          k =-0.0416-0.4575 0.7071 (  2028 PWs)   bands (ev):

   -14.5548 -14.5548 -14.5266 -14.5266 -14.4843 -14.4843 -14.4427 -14.4427
   -13.5630 -13.5630 -13.5176 -13.5176 -13.4564 -13.4564 -13.4353 -13.4353
   -13.3246 -13.3246 -13.2777 -13.2777  -0.0753  -0.0753   0.4665   0.4665
     4.6150   4.6150   4.8591   4.8591   9.9034   9.9034  10.0909  10.0909
    12.3129  12.3129  13.0578  13.0578

     occupation numbers 
     1.0000   1.0000   1.0000   1.0000   1.0000   1.0000   1.0000   1.0000
     1.0000   1.0000   1.0000   1.0000   1.0000   1.0000   1.0000   1.0000
     1.0000   1.0000   1.0000   1.0000   1.0000   1.0000   1.0000   1.0000
     1.0000   1.0000   1.0000   1.0000   0.0000   0.0000   0.0000   0.0000
     0.0000   0.0000   0.0000   0.0000

          k = 0.0000-0.4159 0.6655 (  2022 PWs)   bands (ev):

   -14.5548 -14.5548 -14.5243 -14.5243 -14.4850 -14.4850 -14.4402 -14.4402
   -13.5633 -13.5633 -13.5133 -13.5133 -13.4553 -13.4553 -13.4364 -13.4364
   -13.3252 -13.3252 -13.2741 -13.2741   0.0259   0.0259   0.3735   0.3735
     4.4895   4.4895   4.8663   4.8663  10.0675  10.0675  10.8015  10.8015
    12.1235  12.1235  12.2112  12.2112

     occupation numbers 
     1.0000   1.0000   1.0000   1.0000   1.0000   1.0000   1.0000   1.0000
     1.0000   1.0000   1.0000   1.0000   1.0000   1.0000   1.0000   1.0000
     1.0000   1.0000   1.0000   1.0000   1.0000   1.0000   1.0000   1.0000
     1.0000   1.0000   1.0000   1.0000   0.0000   0.0000   0.0000   0.0000
     0.0000   0.0000   0.0000   0.0000

          k =-0.0416-0.3744 0.7071 (  2020 PWs)   bands (ev):

   -14.5549 -14.5549 -14.5239 -14.5239 -14.4852 -14.4852 -14.4394 -14.4394
   -13.5634 -13.5634 -13.5121 -13.5121 -13.4565 -13.4565 -13.4348 -13.4348
   -13.3262 -13.3262 -13.2727 -13.2727  -0.0212  -0.0212   0.4298   0.4298
     4.4907   4.4907   4.8088   4.8088  10.6217  10.6217  10.9495  10.9495
    11.4951  11.4951  12.0393  12.0393

     occupation numbers 
     1.0000   1.0000   1.0000   1.0000   1.0000   1.0000   1.0000   1.0000
     1.0000   1.0000   1.0000   1.0000   1.0000   1.0000   1.0000   1.0000
     1.0000   1.0000   1.0000   1.0000   1.0000   1.0000   1.0000   1.0000
     1.0000   1.0000   1.0000   1.0000   0.0000   0.0000   0.0000   0.0000
     0.0000   0.0000   0.0000   0.0000

     the Fermi energy is     7.6423 ev

!    total energy              =    -885.82839437 Ry
     Harris-Foulkes estimate   =    -885.82839426 Ry
     estimated scf accuracy    <       0.00000010 Ry

     total all-electron energy =    -24716.528144 Ry

     The total energy is the sum of the following terms:

     one-electron contribution =    -148.92319905 Ry
     hartree contribution      =      93.71214384 Ry
     xc contribution           =     -96.16581449 Ry
     ewald contribution        =    -170.59904351 Ry
     one-center paw contrib.   =    -563.85248104 Ry
     smearing contrib. (-TS)   =      -0.00000014 Ry

     convergence has been achieved in   5 iterations

     Writing output data file Sn.save
 
     init_run     :      5.36s CPU      5.64s WALL (       1 calls)
     electrons    :    111.11s CPU    115.24s WALL (       1 calls)

     Called by init_run:
     wfcinit      :      4.75s CPU      4.95s WALL (       1 calls)
     potinit      :      0.23s CPU      0.24s WALL (       1 calls)

     Called by electrons:
     c_bands      :     93.29s CPU     96.84s WALL (       6 calls)
     sum_band     :     16.49s CPU     16.96s WALL (       6 calls)
     v_of_rho     :      0.05s CPU      0.05s WALL (       6 calls)
     v_h          :      0.00s CPU      0.01s WALL (       6 calls)
     v_xc         :      0.04s CPU      0.04s WALL (       6 calls)
     newd         :      0.32s CPU      0.34s WALL (       6 calls)
     PAW_pot      :      1.19s CPU      1.24s WALL (       6 calls)
     mix_rho      :      0.02s CPU      0.02s WALL (       6 calls)

     Called by c_bands:
     init_us_2    :      0.23s CPU      0.27s WALL (    2145 calls)
     cegterg      :     88.85s CPU     92.17s WALL (     990 calls)

     Called by sum_band:
     sum_band:bec :      3.19s CPU      3.21s WALL (     990 calls)
     addusdens    :      0.14s CPU      0.16s WALL (       6 calls)

     Called by *egterg:
     h_psi        :     66.09s CPU     68.33s WALL (    3503 calls)
     s_psi        :      2.85s CPU      2.88s WALL (    3503 calls)
     g_psi        :      0.20s CPU      0.20s WALL (    2348 calls)
     cdiaghg      :     12.95s CPU     13.15s WALL (    3173 calls)
     cegterg:over :      4.62s CPU      4.65s WALL (    2348 calls)
     cegterg:upda :      1.62s CPU      1.63s WALL (    2348 calls)
     cegterg:last :      0.93s CPU      0.94s WALL (     990 calls)

     Called by h_psi:
     h_psi:vloc   :     59.04s CPU     61.17s WALL (    3503 calls)
     h_psi:vnl    :      6.92s CPU      7.01s WALL (    3503 calls)
     add_vuspsi   :      3.24s CPU      3.27s WALL (    3503 calls)

     General routines
     calbec       :      4.85s CPU      4.95s WALL (    4493 calls)
     fft          :      0.10s CPU      0.10s WALL (     116 calls)
     fftw         :     66.26s CPU     68.63s WALL (  449492 calls)
     davcio       :      0.01s CPU      0.34s WALL (     165 calls)
 
     Parallel routines
     fft_scatter  :     40.91s CPU     42.60s WALL (  449608 calls)

     PAW routines
     PAW_pot      :      1.19s CPU      1.24s WALL (       6 calls)
     PAW_symme    :      0.04s CPU      0.04s WALL (      12 calls)
 
     PWSCF        :  1m57.83s CPU     2m 2.76s WALL

 
   This run was terminated on:  23:44:27   8Mar2020            

=------------------------------------------------------------------------------=
   JOB DONE.
=------------------------------------------------------------------------------=
