
     Program PWSCF v.5.4.0 starts on  2Mar2020 at 12:19:11 

     This program is part of the open-source Quantum ESPRESSO suite
     for quantum simulation of materials; please cite
         "P. Giannozzi et al., J. Phys.:Condens. Matter 21 395502 (2009);
          URL http://www.quantum-espresso.org", 
     in publications or presentations arising from this work. More details at
     http://www.quantum-espresso.org/quote

     Parallel version (MPI & OpenMP), running on      16 processor cores
     Number of MPI processes:                16
     Threads/MPI process:                     1
     R & G space division:  proc/nbgrp/npool/nimage =      16
     Waiting for input...
     Reading input from standard input
Warning: card &IONS ignored
Warning: card / ignored
Warning: card &CELL ignored
Warning: card / ignored

     Current dimensions of program PWSCF are:
     Max number of different atomic species (ntypx) = 10
     Max number of k-points (npk) =  40000
     Max angular momentum in pseudopotentials (lmaxx) =  3

     Subspace diagonalization in iterative solution of the eigenvalue problem:
     a serial algorithm will be used

 
     Parallelization info
     --------------------
     sticks:   dense  smooth     PW     G-vecs:    dense   smooth      PW
     Min         106     106     31                 2897     2897     451
     Max         107     107     32                 2898     2898     454
     Sum        1711    1711    499                46367    46367    7239
 

     Title: 
     Sn                                                                         


     bravais-lattice index     =            0
     lattice parameter (alat)  =       8.7924  a.u.
     unit-cell volume          =     480.6338 (a.u.)^3
     number of atoms/cell      =            2
     number of atomic types    =            1
     number of electrons       =        28.00
     number of Kohn-Sham states=           18
     kinetic-energy cutoff     =      80.0000  Ry
     charge density cutoff     =     320.0000  Ry
     convergence threshold     =      1.0E-06
     mixing beta               =       0.7000
     number of iterations used =            8  plain     mixing
     Exchange-correlation      = PBE ( 1  4  3  4 0 0)

     celldm(1)=   8.792447  celldm(2)=   0.000000  celldm(3)=   0.000000
     celldm(4)=   0.000000  celldm(5)=   0.000000  celldm(6)=   0.000000

     crystal axes: (cart. coord. in units of alat)
               a(1) = (   0.000000   0.707107   0.707107 )  
               a(2) = (   0.707107   0.000000   0.707107 )  
               a(3) = (   0.707107   0.707107   0.000000 )  

     reciprocal axes: (cart. coord. in units 2 pi/alat)
               b(1) = ( -0.707107  0.707107  0.707107 )  
               b(2) = (  0.707107 -0.707107  0.707107 )  
               b(3) = (  0.707107  0.707107 -0.707107 )  


     PseudoPot. # 1 for Sn read from file:
     ../PseudopotentialDatabase/Sn_ONCV_PBE-1.0.upf
     MD5 check sum: 4ecdb67ea6112684f1b2ae1cab9d4ca6
     Pseudo is Norm-conserving, Zval = 14.0
     Generated using ONCVPSP code by D. R. Hamann
     Using radial grid of  602 points,  6 beta functions with: 
                l(1) =   0
                l(2) =   0
                l(3) =   1
                l(4) =   1
                l(5) =   2
                l(6) =   2

     atomic species   valence    mass     pseudopotential
        Sn            14.00   118.71000     Sn( 1.00)

     24 Sym. Ops. (no inversion) found
          (note: 24 additional sym.ops. were found but ignored
           their fractional translations are incommensurate with FFT grid)

                                    s                        frac. trans.

      isym =  1     identity                                     

 cryst.   s( 1) = (     1          0          0      )
                  (     0          1          0      )
                  (     0          0          1      )

 cart.    s( 1) = (  1.0000000  0.0000000  0.0000000 )
                  (  0.0000000  1.0000000  0.0000000 )
                  (  0.0000000  0.0000000  1.0000000 )


      isym =  2     180 deg rotation - cart. axis [0,0,1]        

 cryst.   s( 2) = (     0          1         -1      )
                  (     1          0         -1      )
                  (     0          0         -1      )

 cart.    s( 2) = ( -1.0000000  0.0000000  0.0000000 )
                  (  0.0000000 -1.0000000  0.0000000 )
                  (  0.0000000  0.0000000  1.0000000 )


      isym =  3     180 deg rotation - cart. axis [0,1,0]        

 cryst.   s( 3) = (     0         -1          1      )
                  (     0         -1          0      )
                  (     1         -1          0      )

 cart.    s( 3) = ( -1.0000000  0.0000000  0.0000000 )
                  (  0.0000000  1.0000000  0.0000000 )
                  (  0.0000000  0.0000000 -1.0000000 )


      isym =  4     180 deg rotation - cart. axis [1,0,0]        

 cryst.   s( 4) = (    -1          0          0      )
                  (    -1          0          1      )
                  (    -1          1          0      )

 cart.    s( 4) = (  1.0000000  0.0000000  0.0000000 )
                  (  0.0000000 -1.0000000  0.0000000 )
                  (  0.0000000  0.0000000 -1.0000000 )


      isym =  5     120 deg rotation - cart. axis [-1,-1,-1]     

 cryst.   s( 5) = (     0          0          1      )
                  (     1          0          0      )
                  (     0          1          0      )

 cart.    s( 5) = (  0.0000000  1.0000000  0.0000000 )
                  (  0.0000000  0.0000000  1.0000000 )
                  (  1.0000000  0.0000000  0.0000000 )


      isym =  6     120 deg rotation - cart. axis [-1,1,1]       

 cryst.   s( 6) = (     1         -1          0      )
                  (     0         -1          1      )
                  (     0         -1          0      )

 cart.    s( 6) = (  0.0000000 -1.0000000  0.0000000 )
                  (  0.0000000  0.0000000  1.0000000 )
                  ( -1.0000000  0.0000000  0.0000000 )


      isym =  7     120 deg rotation - cart. axis [1,1,-1]       

 cryst.   s( 7) = (    -1          1          0      )
                  (    -1          0          0      )
                  (    -1          0          1      )

 cart.    s( 7) = (  0.0000000  1.0000000  0.0000000 )
                  (  0.0000000  0.0000000 -1.0000000 )
                  ( -1.0000000  0.0000000  0.0000000 )


      isym =  8     120 deg rotation - cart. axis [1,-1,1]       

 cryst.   s( 8) = (     0          0         -1      )
                  (     0          1         -1      )
                  (     1          0         -1      )

 cart.    s( 8) = (  0.0000000 -1.0000000  0.0000000 )
                  (  0.0000000  0.0000000 -1.0000000 )
                  (  1.0000000  0.0000000  0.0000000 )


      isym =  9     120 deg rotation - cart. axis [1,1,1]        

 cryst.   s( 9) = (     0          1          0      )
                  (     0          0          1      )
                  (     1          0          0      )

 cart.    s( 9) = (  0.0000000  0.0000000  1.0000000 )
                  (  1.0000000  0.0000000  0.0000000 )
                  (  0.0000000  1.0000000  0.0000000 )


      isym = 10     120 deg rotation - cart. axis [-1,1,-1]      

 cryst.   s(10) = (    -1          0          1      )
                  (    -1          1          0      )
                  (    -1          0          0      )

 cart.    s(10) = (  0.0000000  0.0000000  1.0000000 )
                  ( -1.0000000  0.0000000  0.0000000 )
                  (  0.0000000 -1.0000000  0.0000000 )


      isym = 11     120 deg rotation - cart. axis [1,-1,-1]      

 cryst.   s(11) = (     1          0         -1      )
                  (     0          0         -1      )
                  (     0          1         -1      )

 cart.    s(11) = (  0.0000000  0.0000000 -1.0000000 )
                  ( -1.0000000  0.0000000  0.0000000 )
                  (  0.0000000  1.0000000  0.0000000 )


      isym = 12     120 deg rotation - cart. axis [-1,-1,1]      

 cryst.   s(12) = (     0         -1          0      )
                  (     1         -1          0      )
                  (     0         -1          1      )

 cart.    s(12) = (  0.0000000  0.0000000 -1.0000000 )
                  (  1.0000000  0.0000000  0.0000000 )
                  (  0.0000000 -1.0000000  0.0000000 )


      isym = 13     inv. 180 deg rotation - cart. axis [1,1,0]   

 cryst.   s(13) = (     1          0         -1      )
                  (     0          1         -1      )
                  (     0          0         -1      )

 cart.    s(13) = (  0.0000000 -1.0000000  0.0000000 )
                  ( -1.0000000  0.0000000  0.0000000 )
                  (  0.0000000  0.0000000  1.0000000 )


      isym = 14     inv. 180 deg rotation - cart. axis [1,-1,0]  

 cryst.   s(14) = (     0          1          0      )
                  (     1          0          0      )
                  (     0          0          1      )

 cart.    s(14) = (  0.0000000  1.0000000  0.0000000 )
                  (  1.0000000  0.0000000  0.0000000 )
                  (  0.0000000  0.0000000  1.0000000 )


      isym = 15     inv.  90 deg rotation - cart. axis [0,0,-1]  

 cryst.   s(15) = (     0         -1          0      )
                  (     0         -1          1      )
                  (     1         -1          0      )

 cart.    s(15) = (  0.0000000 -1.0000000  0.0000000 )
                  (  1.0000000  0.0000000  0.0000000 )
                  (  0.0000000  0.0000000 -1.0000000 )


      isym = 16     inv.  90 deg rotation - cart. axis [0,0,1]   

 cryst.   s(16) = (    -1          0          1      )
                  (    -1          0          0      )
                  (    -1          1          0      )

 cart.    s(16) = (  0.0000000  1.0000000  0.0000000 )
                  ( -1.0000000  0.0000000  0.0000000 )
                  (  0.0000000  0.0000000 -1.0000000 )


      isym = 17     inv. 180 deg rotation - cart. axis [1,0,1]   

 cryst.   s(17) = (     1         -1          0      )
                  (     0         -1          0      )
                  (     0         -1          1      )

 cart.    s(17) = (  0.0000000  0.0000000 -1.0000000 )
                  (  0.0000000  1.0000000  0.0000000 )
                  ( -1.0000000  0.0000000  0.0000000 )


      isym = 18     inv. 180 deg rotation - cart. axis [-1,0,1]  

 cryst.   s(18) = (     0          0          1      )
                  (     0          1          0      )
                  (     1          0          0      )

 cart.    s(18) = (  0.0000000  0.0000000  1.0000000 )
                  (  0.0000000  1.0000000  0.0000000 )
                  (  1.0000000  0.0000000  0.0000000 )


      isym = 19     inv.  90 deg rotation - cart. axis [0,1,0]   

 cryst.   s(19) = (     0          0         -1      )
                  (     1          0         -1      )
                  (     0          1         -1      )

 cart.    s(19) = (  0.0000000  0.0000000 -1.0000000 )
                  (  0.0000000 -1.0000000  0.0000000 )
                  (  1.0000000  0.0000000  0.0000000 )


      isym = 20     inv.  90 deg rotation - cart. axis [0,-1,0]  

 cryst.   s(20) = (    -1          1          0      )
                  (    -1          0          1      )
                  (    -1          0          0      )

 cart.    s(20) = (  0.0000000  0.0000000  1.0000000 )
                  (  0.0000000 -1.0000000  0.0000000 )
                  ( -1.0000000  0.0000000  0.0000000 )


      isym = 21     inv. 180 deg rotation - cart. axis [0,1,1]   

 cryst.   s(21) = (    -1          0          0      )
                  (    -1          1          0      )
                  (    -1          0          1      )

 cart.    s(21) = (  1.0000000  0.0000000  0.0000000 )
                  (  0.0000000  0.0000000 -1.0000000 )
                  (  0.0000000 -1.0000000  0.0000000 )


      isym = 22     inv. 180 deg rotation - cart. axis [0,1,-1]  

 cryst.   s(22) = (     1          0          0      )
                  (     0          0          1      )
                  (     0          1          0      )

 cart.    s(22) = (  1.0000000  0.0000000  0.0000000 )
                  (  0.0000000  0.0000000  1.0000000 )
                  (  0.0000000  1.0000000  0.0000000 )


      isym = 23     inv.  90 deg rotation - cart. axis [-1,0,0]  

 cryst.   s(23) = (     0          1         -1      )
                  (     0          0         -1      )
                  (     1          0         -1      )

 cart.    s(23) = ( -1.0000000  0.0000000  0.0000000 )
                  (  0.0000000  0.0000000 -1.0000000 )
                  (  0.0000000  1.0000000  0.0000000 )


      isym = 24     inv.  90 deg rotation - cart. axis [1,0,0]   

 cryst.   s(24) = (     0         -1          1      )
                  (     1         -1          0      )
                  (     0         -1          0      )

 cart.    s(24) = ( -1.0000000  0.0000000  0.0000000 )
                  (  0.0000000  0.0000000  1.0000000 )
                  (  0.0000000 -1.0000000  0.0000000 )


   Cartesian axes

     site n.     atom                  positions (alat units)
         1           Sn  tau(   1) = (   0.0000000   0.0000000   0.0000000  )
         2           Sn  tau(   2) = (   0.3535534   0.3535534   0.3535534  )

   Crystallographic axes

     site n.     atom                  positions (cryst. coord.)
         1           Sn  tau(   1) = (  0.0000000  0.0000000  0.0000000  )
         2           Sn  tau(   2) = (  0.2500000  0.2500000  0.2500000  )

     number of k points=   120  gaussian smearing, width (Ry)=  0.0001
                       cart. coord. in units 2pi/alat
        k(    1) = (   0.0000000   0.0000000   0.0000000), wk =   0.0005926
        k(    2) = (   0.0471405   0.0471405  -0.0471405), wk =   0.0047407
        k(    3) = (   0.0942809   0.0942809  -0.0942809), wk =   0.0047407
        k(    4) = (   0.1414214   0.1414214  -0.1414214), wk =   0.0047407
        k(    5) = (   0.1885618   0.1885618  -0.1885618), wk =   0.0047407
        k(    6) = (   0.2357023   0.2357023  -0.2357023), wk =   0.0047407
        k(    7) = (   0.2828427   0.2828427  -0.2828427), wk =   0.0047407
        k(    8) = (   0.3299832   0.3299832  -0.3299832), wk =   0.0047407
        k(    9) = (   0.0942809   0.0000000   0.0000000), wk =   0.0035556
        k(   10) = (   0.1414214   0.0471405  -0.0471405), wk =   0.0142222
        k(   11) = (   0.1885618   0.0942809  -0.0942809), wk =   0.0142222
        k(   12) = (   0.2357023   0.1414214  -0.1414214), wk =   0.0142222
        k(   13) = (   0.2828427   0.1885618  -0.1885618), wk =   0.0142222
        k(   14) = (   0.3299832   0.2357023  -0.2357023), wk =   0.0142222
        k(   15) = (   0.3771236   0.2828427  -0.2828427), wk =   0.0142222
        k(   16) = (  -0.2828427  -0.3771236   0.3771236), wk =   0.0142222
        k(   17) = (  -0.2357023  -0.3299832   0.3299832), wk =   0.0142222
        k(   18) = (  -0.1885618  -0.2828427   0.2828427), wk =   0.0142222
        k(   19) = (  -0.1414214  -0.2357023   0.2357023), wk =   0.0142222
        k(   20) = (  -0.0942809  -0.1885618   0.1885618), wk =   0.0142222
        k(   21) = (  -0.0471405  -0.1414214   0.1414214), wk =   0.0142222
        k(   22) = (   0.0000000  -0.0942809   0.0942809), wk =   0.0071111
        k(   23) = (   0.1885618   0.0000000   0.0000000), wk =   0.0035556
        k(   24) = (   0.2357023   0.0471405  -0.0471405), wk =   0.0142222
        k(   25) = (   0.2828427   0.0942809  -0.0942809), wk =   0.0142222
        k(   26) = (   0.3299832   0.1414214  -0.1414214), wk =   0.0142222
        k(   27) = (   0.3771236   0.1885618  -0.1885618), wk =   0.0142222
        k(   28) = (   0.4242641   0.2357023  -0.2357023), wk =   0.0142222
        k(   29) = (  -0.2357023  -0.4242641   0.4242641), wk =   0.0142222
        k(   30) = (  -0.1885618  -0.3771236   0.3771236), wk =   0.0142222
        k(   31) = (  -0.1414214  -0.3299832   0.3299832), wk =   0.0142222
        k(   32) = (  -0.0942809  -0.2828427   0.2828427), wk =   0.0142222
        k(   33) = (  -0.0471405  -0.2357023   0.2357023), wk =   0.0142222
        k(   34) = (   0.0000000  -0.1885618   0.1885618), wk =   0.0071111
        k(   35) = (   0.2828427   0.0000000   0.0000000), wk =   0.0035556
        k(   36) = (   0.3299832   0.0471405  -0.0471405), wk =   0.0142222
        k(   37) = (   0.3771236   0.0942809  -0.0942809), wk =   0.0142222
        k(   38) = (   0.4242641   0.1414214  -0.1414214), wk =   0.0142222
        k(   39) = (   0.4714045   0.1885618  -0.1885618), wk =   0.0142222
        k(   40) = (  -0.1885618  -0.4714045   0.4714045), wk =   0.0142222
        k(   41) = (  -0.1414214  -0.4242641   0.4242641), wk =   0.0142222
        k(   42) = (  -0.0942809  -0.3771236   0.3771236), wk =   0.0142222
        k(   43) = (  -0.0471405  -0.3299832   0.3299832), wk =   0.0142222
        k(   44) = (   0.0000000  -0.2828427   0.2828427), wk =   0.0071111
        k(   45) = (   0.3771236   0.0000000   0.0000000), wk =   0.0035556
        k(   46) = (   0.4242641   0.0471405  -0.0471405), wk =   0.0142222
        k(   47) = (   0.4714045   0.0942809  -0.0942809), wk =   0.0142222
        k(   48) = (   0.5185450   0.1414214  -0.1414214), wk =   0.0142222
        k(   49) = (  -0.1414214  -0.5185450   0.5185450), wk =   0.0142222
        k(   50) = (  -0.0942809  -0.4714045   0.4714045), wk =   0.0142222
        k(   51) = (  -0.0471405  -0.4242641   0.4242641), wk =   0.0142222
        k(   52) = (  -0.0000000  -0.3771236   0.3771236), wk =   0.0071111
        k(   53) = (   0.4714045   0.0000000   0.0000000), wk =   0.0035556
        k(   54) = (   0.5185450   0.0471405  -0.0471405), wk =   0.0142222
        k(   55) = (   0.5656854   0.0942809  -0.0942809), wk =   0.0142222
        k(   56) = (  -0.0942809  -0.5656854   0.5656854), wk =   0.0142222
        k(   57) = (  -0.0471405  -0.5185450   0.5185450), wk =   0.0142222
        k(   58) = (  -0.0000000  -0.4714045   0.4714045), wk =   0.0071111
        k(   59) = (   0.5656854   0.0000000   0.0000000), wk =   0.0035556
        k(   60) = (   0.6128259   0.0471405  -0.0471405), wk =   0.0142222
        k(   61) = (  -0.0471405  -0.6128259   0.6128259), wk =   0.0142222
        k(   62) = (   0.0000000  -0.5656854   0.5656854), wk =   0.0071111
        k(   63) = (   0.6599663   0.0000000   0.0000000), wk =   0.0035556
        k(   64) = (   0.0000000  -0.6599663   0.6599663), wk =   0.0071111
        k(   65) = (   0.1885618   0.0942809  -0.0000000), wk =   0.0142222
        k(   66) = (   0.2357023   0.1414214  -0.0471405), wk =   0.0284444
        k(   67) = (   0.2828427   0.1885618  -0.0942809), wk =   0.0284444
        k(   68) = (   0.3299832   0.2357023  -0.1414214), wk =   0.0284444
        k(   69) = (   0.3771236   0.2828427  -0.1885618), wk =   0.0284444
        k(   70) = (  -0.2828427  -0.3771236   0.4714045), wk =   0.0284444
        k(   71) = (   0.2828427   0.0942809   0.0000000), wk =   0.0142222
        k(   72) = (   0.3299832   0.1414214  -0.0471405), wk =   0.0284444
        k(   73) = (   0.3771236   0.1885618  -0.0942809), wk =   0.0284444
        k(   74) = (   0.4242641   0.2357023  -0.1414214), wk =   0.0284444
        k(   75) = (  -0.2357023  -0.4242641   0.5185450), wk =   0.0284444
        k(   76) = (  -0.1885618  -0.3771236   0.4714045), wk =   0.0284444
        k(   77) = (  -0.1414214  -0.3299832   0.4242641), wk =   0.0284444
        k(   78) = (  -0.0942809  -0.2828427   0.3771236), wk =   0.0284444
        k(   79) = (  -0.0471405  -0.2357023   0.3299832), wk =   0.0284444
        k(   80) = (   0.0000000  -0.1885618   0.2828427), wk =   0.0142222
        k(   81) = (   0.3771236   0.0942809   0.0000000), wk =   0.0142222
        k(   82) = (   0.4242641   0.1414214  -0.0471405), wk =   0.0284444
        k(   83) = (   0.4714045   0.1885618  -0.0942809), wk =   0.0284444
        k(   84) = (  -0.1885618  -0.4714045   0.5656854), wk =   0.0284444
        k(   85) = (  -0.1414214  -0.4242641   0.5185450), wk =   0.0284444
        k(   86) = (  -0.0942809  -0.3771236   0.4714045), wk =   0.0284444
        k(   87) = (  -0.0471405  -0.3299832   0.4242641), wk =   0.0284444
        k(   88) = (   0.0000000  -0.2828427   0.3771236), wk =   0.0142222
        k(   89) = (   0.4714045   0.0942809  -0.0000000), wk =   0.0142222
        k(   90) = (   0.5185450   0.1414214  -0.0471405), wk =   0.0284444
        k(   91) = (  -0.1414214  -0.5185450   0.6128259), wk =   0.0284444
        k(   92) = (  -0.0942809  -0.4714045   0.5656854), wk =   0.0284444
        k(   93) = (  -0.0471405  -0.4242641   0.5185450), wk =   0.0284444
        k(   94) = (  -0.0000000  -0.3771236   0.4714045), wk =   0.0142222
        k(   95) = (   0.5656854   0.0942809   0.0000000), wk =   0.0142222
        k(   96) = (  -0.0942809  -0.5656854   0.6599663), wk =   0.0284444
        k(   97) = (  -0.0471405  -0.5185450   0.6128259), wk =   0.0284444
        k(   98) = (   0.0000000  -0.4714045   0.5656854), wk =   0.0142222
        k(   99) = (  -0.0471405  -0.6128259   0.7071068), wk =   0.0142222
        k(  100) = (   0.0000000  -0.5656854   0.6599663), wk =   0.0142222
        k(  101) = (   0.3771236   0.1885618  -0.0000000), wk =   0.0142222
        k(  102) = (   0.4242641   0.2357023  -0.0471405), wk =   0.0284444
        k(  103) = (  -0.2357023  -0.4242641   0.6128259), wk =   0.0284444
        k(  104) = (  -0.1885618  -0.3771236   0.5656854), wk =   0.0284444
        k(  105) = (   0.4714045   0.1885618  -0.0000000), wk =   0.0142222
        k(  106) = (  -0.1885618  -0.4714045   0.6599663), wk =   0.0284444
        k(  107) = (  -0.1414214  -0.4242641   0.6128259), wk =   0.0284444
        k(  108) = (  -0.0942809  -0.3771236   0.5656854), wk =   0.0284444
        k(  109) = (  -0.0471405  -0.3299832   0.5185450), wk =   0.0284444
        k(  110) = (   0.0000000  -0.2828427   0.4714045), wk =   0.0142222
        k(  111) = (  -0.1414214  -0.5185450   0.7071068), wk =   0.0142222
        k(  112) = (  -0.0942809  -0.4714045   0.6599663), wk =   0.0284444
        k(  113) = (  -0.0471405  -0.4242641   0.6128259), wk =   0.0284444
        k(  114) = (   0.0000000  -0.3771236   0.5656854), wk =   0.0142222
        k(  115) = (  -0.0471405  -0.5185450   0.7071068), wk =   0.0142222
        k(  116) = (   0.0000000  -0.4714045   0.6599663), wk =   0.0142222
        k(  117) = (  -0.1414214  -0.4242641   0.7071068), wk =   0.0142222
        k(  118) = (  -0.0942809  -0.3771236   0.6599663), wk =   0.0284444
        k(  119) = (  -0.0471405  -0.4242641   0.7071068), wk =   0.0142222
        k(  120) = (  -0.0000000  -0.3771236   0.6599663), wk =   0.0142222

                       cryst. coord.
        k(    1) = (   0.0000000   0.0000000   0.0000000), wk =   0.0005926
        k(    2) = (   0.0000000   0.0000000   0.0666667), wk =   0.0047407
        k(    3) = (   0.0000000   0.0000000   0.1333333), wk =   0.0047407
        k(    4) = (   0.0000000   0.0000000   0.2000000), wk =   0.0047407
        k(    5) = (   0.0000000   0.0000000   0.2666667), wk =   0.0047407
        k(    6) = (   0.0000000   0.0000000   0.3333333), wk =   0.0047407
        k(    7) = (   0.0000000   0.0000000   0.4000000), wk =   0.0047407
        k(    8) = (   0.0000000   0.0000000   0.4666667), wk =   0.0047407
        k(    9) = (   0.0000000   0.0666667   0.0666667), wk =   0.0035556
        k(   10) = (   0.0000000   0.0666667   0.1333333), wk =   0.0142222
        k(   11) = (   0.0000000   0.0666667   0.2000000), wk =   0.0142222
        k(   12) = (   0.0000000   0.0666667   0.2666667), wk =   0.0142222
        k(   13) = (   0.0000000   0.0666667   0.3333333), wk =   0.0142222
        k(   14) = (   0.0000000   0.0666667   0.4000000), wk =   0.0142222
        k(   15) = (   0.0000000   0.0666667   0.4666667), wk =   0.0142222
        k(   16) = (   0.0000000   0.0666667  -0.4666667), wk =   0.0142222
        k(   17) = (   0.0000000   0.0666667  -0.4000000), wk =   0.0142222
        k(   18) = (   0.0000000   0.0666667  -0.3333333), wk =   0.0142222
        k(   19) = (   0.0000000   0.0666667  -0.2666667), wk =   0.0142222
        k(   20) = (   0.0000000   0.0666667  -0.2000000), wk =   0.0142222
        k(   21) = (   0.0000000   0.0666667  -0.1333333), wk =   0.0142222
        k(   22) = (   0.0000000   0.0666667  -0.0666667), wk =   0.0071111
        k(   23) = (   0.0000000   0.1333333   0.1333333), wk =   0.0035556
        k(   24) = (   0.0000000   0.1333333   0.2000000), wk =   0.0142222
        k(   25) = (   0.0000000   0.1333333   0.2666667), wk =   0.0142222
        k(   26) = (   0.0000000   0.1333333   0.3333333), wk =   0.0142222
        k(   27) = (   0.0000000   0.1333333   0.4000000), wk =   0.0142222
        k(   28) = (   0.0000000   0.1333333   0.4666667), wk =   0.0142222
        k(   29) = (   0.0000000   0.1333333  -0.4666667), wk =   0.0142222
        k(   30) = (   0.0000000   0.1333333  -0.4000000), wk =   0.0142222
        k(   31) = (   0.0000000   0.1333333  -0.3333333), wk =   0.0142222
        k(   32) = (   0.0000000   0.1333333  -0.2666667), wk =   0.0142222
        k(   33) = (   0.0000000   0.1333333  -0.2000000), wk =   0.0142222
        k(   34) = (   0.0000000   0.1333333  -0.1333333), wk =   0.0071111
        k(   35) = (   0.0000000   0.2000000   0.2000000), wk =   0.0035556
        k(   36) = (   0.0000000   0.2000000   0.2666667), wk =   0.0142222
        k(   37) = (   0.0000000   0.2000000   0.3333333), wk =   0.0142222
        k(   38) = (   0.0000000   0.2000000   0.4000000), wk =   0.0142222
        k(   39) = (   0.0000000   0.2000000   0.4666667), wk =   0.0142222
        k(   40) = (   0.0000000   0.2000000  -0.4666667), wk =   0.0142222
        k(   41) = (   0.0000000   0.2000000  -0.4000000), wk =   0.0142222
        k(   42) = (   0.0000000   0.2000000  -0.3333333), wk =   0.0142222
        k(   43) = (   0.0000000   0.2000000  -0.2666667), wk =   0.0142222
        k(   44) = (   0.0000000   0.2000000  -0.2000000), wk =   0.0071111
        k(   45) = (   0.0000000   0.2666667   0.2666667), wk =   0.0035556
        k(   46) = (   0.0000000   0.2666667   0.3333333), wk =   0.0142222
        k(   47) = (   0.0000000   0.2666667   0.4000000), wk =   0.0142222
        k(   48) = (   0.0000000   0.2666667   0.4666667), wk =   0.0142222
        k(   49) = (   0.0000000   0.2666667  -0.4666667), wk =   0.0142222
        k(   50) = (   0.0000000   0.2666667  -0.4000000), wk =   0.0142222
        k(   51) = (   0.0000000   0.2666667  -0.3333333), wk =   0.0142222
        k(   52) = (   0.0000000   0.2666667  -0.2666667), wk =   0.0071111
        k(   53) = (   0.0000000   0.3333333   0.3333333), wk =   0.0035556
        k(   54) = (   0.0000000   0.3333333   0.4000000), wk =   0.0142222
        k(   55) = (   0.0000000   0.3333333   0.4666667), wk =   0.0142222
        k(   56) = (   0.0000000   0.3333333  -0.4666667), wk =   0.0142222
        k(   57) = (   0.0000000   0.3333333  -0.4000000), wk =   0.0142222
        k(   58) = (   0.0000000   0.3333333  -0.3333333), wk =   0.0071111
        k(   59) = (   0.0000000   0.4000000   0.4000000), wk =   0.0035556
        k(   60) = (   0.0000000   0.4000000   0.4666667), wk =   0.0142222
        k(   61) = (   0.0000000   0.4000000  -0.4666667), wk =   0.0142222
        k(   62) = (   0.0000000   0.4000000  -0.4000000), wk =   0.0071111
        k(   63) = (   0.0000000   0.4666667   0.4666667), wk =   0.0035556
        k(   64) = (   0.0000000   0.4666667  -0.4666667), wk =   0.0071111
        k(   65) = (   0.0666667   0.1333333   0.2000000), wk =   0.0142222
        k(   66) = (   0.0666667   0.1333333   0.2666667), wk =   0.0284444
        k(   67) = (   0.0666667   0.1333333   0.3333333), wk =   0.0284444
        k(   68) = (   0.0666667   0.1333333   0.4000000), wk =   0.0284444
        k(   69) = (   0.0666667   0.1333333   0.4666667), wk =   0.0284444
        k(   70) = (   0.0666667   0.1333333  -0.4666667), wk =   0.0284444
        k(   71) = (   0.0666667   0.2000000   0.2666667), wk =   0.0142222
        k(   72) = (   0.0666667   0.2000000   0.3333333), wk =   0.0284444
        k(   73) = (   0.0666667   0.2000000   0.4000000), wk =   0.0284444
        k(   74) = (   0.0666667   0.2000000   0.4666667), wk =   0.0284444
        k(   75) = (   0.0666667   0.2000000  -0.4666667), wk =   0.0284444
        k(   76) = (   0.0666667   0.2000000  -0.4000000), wk =   0.0284444
        k(   77) = (   0.0666667   0.2000000  -0.3333333), wk =   0.0284444
        k(   78) = (   0.0666667   0.2000000  -0.2666667), wk =   0.0284444
        k(   79) = (   0.0666667   0.2000000  -0.2000000), wk =   0.0284444
        k(   80) = (   0.0666667   0.2000000  -0.1333333), wk =   0.0142222
        k(   81) = (   0.0666667   0.2666667   0.3333333), wk =   0.0142222
        k(   82) = (   0.0666667   0.2666667   0.4000000), wk =   0.0284444
        k(   83) = (   0.0666667   0.2666667   0.4666667), wk =   0.0284444
        k(   84) = (   0.0666667   0.2666667  -0.4666667), wk =   0.0284444
        k(   85) = (   0.0666667   0.2666667  -0.4000000), wk =   0.0284444
        k(   86) = (   0.0666667   0.2666667  -0.3333333), wk =   0.0284444
        k(   87) = (   0.0666667   0.2666667  -0.2666667), wk =   0.0284444
        k(   88) = (   0.0666667   0.2666667  -0.2000000), wk =   0.0142222
        k(   89) = (   0.0666667   0.3333333   0.4000000), wk =   0.0142222
        k(   90) = (   0.0666667   0.3333333   0.4666667), wk =   0.0284444
        k(   91) = (   0.0666667   0.3333333  -0.4666667), wk =   0.0284444
        k(   92) = (   0.0666667   0.3333333  -0.4000000), wk =   0.0284444
        k(   93) = (   0.0666667   0.3333333  -0.3333333), wk =   0.0284444
        k(   94) = (   0.0666667   0.3333333  -0.2666667), wk =   0.0142222
        k(   95) = (   0.0666667   0.4000000   0.4666667), wk =   0.0142222
        k(   96) = (   0.0666667   0.4000000  -0.4666667), wk =   0.0284444
        k(   97) = (   0.0666667   0.4000000  -0.4000000), wk =   0.0284444
        k(   98) = (   0.0666667   0.4000000  -0.3333333), wk =   0.0142222
        k(   99) = (   0.0666667   0.4666667  -0.4666667), wk =   0.0142222
        k(  100) = (   0.0666667   0.4666667  -0.4000000), wk =   0.0142222
        k(  101) = (   0.1333333   0.2666667   0.4000000), wk =   0.0142222
        k(  102) = (   0.1333333   0.2666667   0.4666667), wk =   0.0284444
        k(  103) = (   0.1333333   0.2666667  -0.4666667), wk =   0.0284444
        k(  104) = (   0.1333333   0.2666667  -0.4000000), wk =   0.0284444
        k(  105) = (   0.1333333   0.3333333   0.4666667), wk =   0.0142222
        k(  106) = (   0.1333333   0.3333333  -0.4666667), wk =   0.0284444
        k(  107) = (   0.1333333   0.3333333  -0.4000000), wk =   0.0284444
        k(  108) = (   0.1333333   0.3333333  -0.3333333), wk =   0.0284444
        k(  109) = (   0.1333333   0.3333333  -0.2666667), wk =   0.0284444
        k(  110) = (   0.1333333   0.3333333  -0.2000000), wk =   0.0142222
        k(  111) = (   0.1333333   0.4000000  -0.4666667), wk =   0.0142222
        k(  112) = (   0.1333333   0.4000000  -0.4000000), wk =   0.0284444
        k(  113) = (   0.1333333   0.4000000  -0.3333333), wk =   0.0284444
        k(  114) = (   0.1333333   0.4000000  -0.2666667), wk =   0.0142222
        k(  115) = (   0.1333333   0.4666667  -0.4000000), wk =   0.0142222
        k(  116) = (   0.1333333   0.4666667  -0.3333333), wk =   0.0142222
        k(  117) = (   0.2000000   0.4000000  -0.4000000), wk =   0.0142222
        k(  118) = (   0.2000000   0.4000000  -0.3333333), wk =   0.0284444
        k(  119) = (   0.2000000   0.4666667  -0.3333333), wk =   0.0142222
        k(  120) = (   0.2000000   0.4666667  -0.2666667), wk =   0.0142222

     Dense  grid:    46367 G-vectors     FFT dimensions: (  54,  54,  54)

     Largest allocated arrays     est. size (Mb)     dimensions
        Kohn-Sham Wavefunctions         0.10 Mb     (     373,   18)
        NL pseudopotentials             0.20 Mb     (     373,   36)
        Each V/rho on FFT grid          0.18 Mb     (   11664)
        Each G-vector array             0.02 Mb     (    2898)
        G-vector shells                 0.00 Mb     (     394)
     Largest temporary arrays     est. size (Mb)     dimensions
        Auxiliary wavefunctions         0.41 Mb     (     373,   72)
        Each subspace H/S matrix        0.08 Mb     (      72,   72)
        Each <psi_i|beta_j> matrix      0.01 Mb     (      36,   18)
        Arrays for rho mixing           1.42 Mb     (   11664,    8)

     Initial potential from superposition of free atoms

     starting charge   27.82674, renormalised to   28.00000
     Starting wfc are random

     total cpu time spent up to now is        5.5 secs

     Self-consistent Calculation

     iteration #  1     ecut=    80.00 Ry     beta=0.70
     Davidson diagonalization with overlap
     ethr =  1.00E-02,  avg # of iterations =  7.9

     Threshold (ethr) on eigenvalues was too large:
     Diagonalizing with lowered threshold

     Davidson diagonalization with overlap
     ethr =  1.19E-04,  avg # of iterations =  5.8

     total cpu time spent up to now is       88.2 secs

     total energy              =    -256.21624192 Ry
     Harris-Foulkes estimate   =    -256.22941912 Ry
     estimated scf accuracy    <       0.03307431 Ry

     iteration #  2     ecut=    80.00 Ry     beta=0.70
     Davidson diagonalization with overlap
     ethr =  1.18E-04,  avg # of iterations =  2.0

     total cpu time spent up to now is      105.3 secs

     total energy              =    -256.22073793 Ry
     Harris-Foulkes estimate   =    -256.22097465 Ry
     estimated scf accuracy    <       0.00186927 Ry

     iteration #  3     ecut=    80.00 Ry     beta=0.70
     Davidson diagonalization with overlap
     ethr =  6.68E-06,  avg # of iterations =  2.9

     total cpu time spent up to now is      117.8 secs

     total energy              =    -256.22091572 Ry
     Harris-Foulkes estimate   =    -256.22089655 Ry
     estimated scf accuracy    <       0.00010715 Ry

     iteration #  4     ecut=    80.00 Ry     beta=0.70
     Davidson diagonalization with overlap
     ethr =  3.83E-07,  avg # of iterations =  2.8

     total cpu time spent up to now is      129.4 secs

     End of self-consistent calculation

          k = 0.0000 0.0000 0.0000 (  5817 PWs)   bands (ev):

   -13.6646 -13.6646 -13.6646 -13.6105 -13.6105 -13.3350 -13.3350 -13.3350
   -13.3306 -13.3306  -2.3469   7.0607   8.0733   8.0733   8.0733   9.8240
     9.8265  10.1482

     occupation numbers 
     1.0000   1.0000   1.0000   1.0000   1.0000   1.0000   1.0000   1.0000
     1.0000   1.0000   1.0000   1.0000   0.0000   0.0000   0.0000   0.0000
     0.0000   0.0000

          k = 0.0471 0.0471-0.0471 (  5847 PWs)   bands (ev):

   -13.6679 -13.6679 -13.6636 -13.6061 -13.6061 -13.3455 -13.3455 -13.3363
   -13.3208 -13.3208  -2.3056   6.5254   7.9860   7.9860   8.3436   9.8240
     9.8266  10.2615

     occupation numbers 
     1.0000   1.0000   1.0000   1.0000   1.0000   1.0000   1.0000   1.0000
     1.0000   1.0000   1.0000   1.0000   0.1842   0.1842   0.0000   0.0000
     0.0000   0.0000

          k = 0.0943 0.0943-0.0943 (  5841 PWs)   bands (ev):

   -13.6750 -13.6750 -13.6607 -13.5958 -13.5958 -13.3578 -13.3578 -13.3398
   -13.3105 -13.3105  -2.1828   5.6147   7.7785   7.7785   8.4781   9.8264
    10.5313  10.5323

     occupation numbers 
     1.0000   1.0000   1.0000   1.0000   1.0000   1.0000   1.0000   1.0000
     1.0000   1.0000   1.0000   1.0000   1.0000   1.0000   0.0000   0.0000
     0.0000   0.0000

          k = 0.1414 0.1414-0.1414 (  5829 PWs)   bands (ev):

   -13.6825 -13.6825 -13.6564 -13.5839 -13.5839 -13.3691 -13.3691 -13.3450
   -13.3019 -13.3019  -1.9824   4.6673   7.5366   7.5366   8.3805   9.8240
     9.8265  10.8331

     occupation numbers 
     1.0000   1.0000   1.0000   1.0000   1.0000   1.0000   1.0000   1.0000
     1.0000   1.0000   1.0000   1.0000   1.0000   1.0000   0.0000   0.0000
     0.0000   0.0000

          k = 0.1886 0.1886-0.1886 (  5816 PWs)   bands (ev):

   -13.6886 -13.6886 -13.6513 -13.5731 -13.5731 -13.3784 -13.3784 -13.3512
   -13.2952 -13.2952  -1.7131   3.7637   7.3124   7.3124   8.2189   9.8240
     9.8265  11.0602

     occupation numbers 
     1.0000   1.0000   1.0000   1.0000   1.0000   1.0000   1.0000   1.0000
     1.0000   1.0000   1.0000   1.0000   1.0000   1.0000   0.0000   0.0000
     0.0000   0.0000

          k = 0.2357 0.2357-0.2357 (  5810 PWs)   bands (ev):

   -13.6929 -13.6929 -13.6463 -13.5648 -13.5648 -13.3851 -13.3851 -13.3572
   -13.2906 -13.2906  -1.3945   2.9528   7.1314   7.1314   8.0705   9.8240
     9.8265  11.1738

     occupation numbers 
     1.0000   1.0000   1.0000   1.0000   1.0000   1.0000   1.0000   1.0000
     1.0000   1.0000   1.0000   1.0000   1.0000   1.0000   0.0000   0.0000
     0.0000   0.0000

          k = 0.2828 0.2828-0.2828 (  5828 PWs)   bands (ev):

   -13.6956 -13.6956 -13.6423 -13.5595 -13.5595 -13.3891 -13.3891 -13.3621
   -13.2877 -13.2877  -1.0711   2.2945   7.0059   7.0059   7.9635   9.8240
     9.8265  11.2047

     occupation numbers 
     1.0000   1.0000   1.0000   1.0000   1.0000   1.0000   1.0000   1.0000
     1.0000   1.0000   1.0000   1.0000   1.0000   1.0000   1.0000   0.0000
     0.0000   0.0000

          k = 0.3300 0.3300-0.3300 (  5798 PWs)   bands (ev):

   -13.6968 -13.6968 -13.6401 -13.5570 -13.5570 -13.3908 -13.3908 -13.3647
   -13.2864 -13.2864  -0.8417   1.8960   6.9420   6.9420   7.9083   9.8240
     9.8265  11.2048

     occupation numbers 
     1.0000   1.0000   1.0000   1.0000   1.0000   1.0000   1.0000   1.0000
     1.0000   1.0000   1.0000   1.0000   1.0000   1.0000   1.0000   0.0000
     0.0000   0.0000

          k = 0.0943 0.0000 0.0000 (  5841 PWs)   bands (ev):

   -13.6674 -13.6669 -13.6669 -13.6074 -13.6016 -13.3570 -13.3336 -13.3318
   -13.3318 -13.3157  -2.2917   6.4381   7.8271   7.8271   8.6714   9.8239
     9.8266   9.9768

     occupation numbers 
     1.0000   1.0000   1.0000   1.0000   1.0000   1.0000   1.0000   1.0000
     1.0000   1.0000   1.0000   1.0000   1.0000   1.0000   0.0000   0.0000
     0.0000   0.0000

          k = 0.1414 0.0471-0.0471 (  5836 PWs)   bands (ev):

   -13.6750 -13.6716 -13.6642 -13.6008 -13.5909 -13.3707 -13.3453 -13.3319
   -13.3206 -13.3078  -2.1959   5.7653   7.5871   7.6255   8.9495   9.8238
     9.8266   9.9843

     occupation numbers 
     1.0000   1.0000   1.0000   1.0000   1.0000   1.0000   1.0000   1.0000
     1.0000   1.0000   1.0000   1.0000   1.0000   1.0000   0.0000   0.0000
     0.0000   0.0000

          k = 0.1886 0.0943-0.0943 (  5830 PWs)   bands (ev):

   -13.6836 -13.6785 -13.6591 -13.5903 -13.5783 -13.3832 -13.3572 -13.3369
   -13.3103 -13.2990  -2.0207   4.8962   7.3399   7.3784   8.9292   9.8240
     9.8266  10.2593

     occupation numbers 
     1.0000   1.0000   1.0000   1.0000   1.0000   1.0000   1.0000   1.0000
     1.0000   1.0000   1.0000   1.0000   1.0000   1.0000   0.0000   0.0000
     0.0000   0.0000

          k = 0.2357 0.1414-0.1414 (  5837 PWs)   bands (ev):

   -13.6912 -13.6851 -13.6525 -13.5793 -13.5666 -13.3931 -13.3680 -13.3446
   -13.3019 -13.2913  -1.7730   4.0108   7.1114   7.1264   8.7798   9.8240
     9.8266  10.6037

     occupation numbers 
     1.0000   1.0000   1.0000   1.0000   1.0000   1.0000   1.0000   1.0000
     1.0000   1.0000   1.0000   1.0000   1.0000   1.0000   0.0000   0.0000
     0.0000   0.0000

          k = 0.2828 0.1886-0.1886 (  5805 PWs)   bands (ev):

   -13.6970 -13.6904 -13.6454 -13.5696 -13.5578 -13.3994 -13.3772 -13.3533
   -13.2952 -13.2855  -1.4675   3.1844   6.8692   6.9667   8.6172   9.8240
     9.8265  10.8586

     occupation numbers 
     1.0000   1.0000   1.0000   1.0000   1.0000   1.0000   1.0000   1.0000
     1.0000   1.0000   1.0000   1.0000   1.0000   1.0000   0.0000   0.0000
     0.0000   0.0000

          k = 0.3300 0.2357-0.2357 (  5806 PWs)   bands (ev):

   -13.7007 -13.6943 -13.6389 -13.5617 -13.5531 -13.4011 -13.3848 -13.3618
   -13.2901 -13.2818  -1.1377   2.4778   6.6748   6.8704   8.4847   9.8240
     9.8265  10.9951

     occupation numbers 
     1.0000   1.0000   1.0000   1.0000   1.0000   1.0000   1.0000   1.0000
     1.0000   1.0000   1.0000   1.0000   1.0000   1.0000   0.0000   0.0000
     0.0000   0.0000

          k = 0.3771 0.2828-0.2828 (  5793 PWs)   bands (ev):

   -13.7024 -13.6970 -13.6343 -13.5560 -13.5523 -13.3988 -13.3908 -13.3684
   -13.2865 -13.2803  -0.8608   1.9820   6.5394   6.8412   8.3991   9.8240
     9.8265  11.0704

     occupation numbers 
     1.0000   1.0000   1.0000   1.0000   1.0000   1.0000   1.0000   1.0000
     1.0000   1.0000   1.0000   1.0000   1.0000   1.0000   0.0000   0.0000
     0.0000   0.0000

          k =-0.2828-0.3771 0.3771 (  5796 PWs)   bands (ev):

   -13.7023 -13.6984 -13.6327 -13.5545 -13.5525 -13.3953 -13.3938 -13.3717
   -13.2842 -13.2809  -0.7734   1.8396   6.4694   6.8795   8.3667   9.8241
     9.8265  11.1370

     occupation numbers 
     1.0000   1.0000   1.0000   1.0000   1.0000   1.0000   1.0000   1.0000
     1.0000   1.0000   1.0000   1.0000   1.0000   1.0000   0.0000   0.0000
     0.0000   0.0000

          k =-0.2357-0.3300 0.3300 (  5797 PWs)   bands (ev):

   -13.7003 -13.6986 -13.6344 -13.5588 -13.5517 -13.3976 -13.3886 -13.3698
   -13.2837 -13.2835  -0.9402   2.1169   6.4687   6.9825   8.3891   9.8240
     9.8265  11.2105

     occupation numbers 
     1.0000   1.0000   1.0000   1.0000   1.0000   1.0000   1.0000   1.0000
     1.0000   1.0000   1.0000   1.0000   1.0000   1.0000   0.0000   0.0000
     0.0000   0.0000

          k =-0.1886-0.2828 0.2828 (  5815 PWs)   bands (ev):

   -13.6972 -13.6966 -13.6392 -13.5649 -13.5545 -13.3968 -13.3841 -13.3625
   -13.2886 -13.2846  -1.2476   2.6970   6.5400   7.1443   8.4632   9.8241
     9.8266  11.1608

     occupation numbers 
     1.0000   1.0000   1.0000   1.0000   1.0000   1.0000   1.0000   1.0000
     1.0000   1.0000   1.0000   1.0000   1.0000   1.0000   0.0000   0.0000
     0.0000   0.0000

          k =-0.1414-0.2357 0.2357 (  5817 PWs)   bands (ev):

   -13.6940 -13.6912 -13.6458 -13.5728 -13.5615 -13.3921 -13.3787 -13.3525
   -13.2955 -13.2876  -1.5750   3.4503   6.6851   7.3544   8.5791   9.8240
     9.8266  11.0050

     occupation numbers 
     1.0000   1.0000   1.0000   1.0000   1.0000   1.0000   1.0000   1.0000
     1.0000   1.0000   1.0000   1.0000   1.0000   1.0000   0.0000   0.0000
     0.0000   0.0000

          k =-0.0943-0.1886 0.1886 (  5836 PWs)   bands (ev):

   -13.6888 -13.6842 -13.6529 -13.5825 -13.5720 -13.3836 -13.3712 -13.3422
   -13.3044 -13.2929  -1.8635   4.2994   6.9051   7.5939   8.7100   9.8240
     9.8266  10.7639

     occupation numbers 
     1.0000   1.0000   1.0000   1.0000   1.0000   1.0000   1.0000   1.0000
     1.0000   1.0000   1.0000   1.0000   1.0000   1.0000   0.0000   0.0000
     0.0000   0.0000

          k =-0.0471-0.1414 0.1414 (  5823 PWs)   bands (ev):

   -13.6818 -13.6762 -13.6593 -13.5930 -13.5847 -13.3721 -13.3617 -13.3332
   -13.3151 -13.3003  -2.0880   5.1802   7.2023   7.8261   8.7841   9.8240
     9.8266  10.4825

     occupation numbers 
     1.0000   1.0000   1.0000   1.0000   1.0000   1.0000   1.0000   1.0000
     1.0000   1.0000   1.0000   1.0000   1.0000   1.0000   0.0000   0.0000
     0.0000   0.0000

          k = 0.0000-0.0943 0.0943 (  5825 PWs)   bands (ev):

   -13.6740 -13.6693 -13.6633 -13.6022 -13.5972 -13.3591 -13.3513 -13.3285
   -13.3248 -13.3098  -2.2370   5.9928   7.5836   7.9838   8.6511   9.8240
     9.8266  10.2746

     occupation numbers 
     1.0000   1.0000   1.0000   1.0000   1.0000   1.0000   1.0000   1.0000
     1.0000   1.0000   1.0000   1.0000   1.0000   0.9211   0.0000   0.0000
     0.0000   0.0000

          k = 0.1886 0.0000 0.0000 (  5817 PWs)   bands (ev):

   -13.6733 -13.6733 -13.6711 -13.5981 -13.5798 -13.3872 -13.3424 -13.3229
   -13.3229 -13.3068  -2.1268   5.4935   7.3327   7.3327   9.4884   9.6106
     9.8249   9.8279

     occupation numbers 
     1.0000   1.0000   1.0000   1.0000   1.0000   1.0000   1.0000   1.0000
     1.0000   1.0000   1.0000   1.0000   1.0000   1.0000   0.0000   0.0000
     0.0000   0.0000

          k = 0.2357 0.0471-0.0471 (  5830 PWs)   bands (ev):

   -13.6826 -13.6785 -13.6657 -13.5898 -13.5662 -13.4027 -13.3520 -13.3236
   -13.3143 -13.3005  -1.9775   4.8740   7.0581   7.0811   9.5461   9.7264
     9.8254   9.8311

     occupation numbers 
     1.0000   1.0000   1.0000   1.0000   1.0000   1.0000   1.0000   1.0000
     1.0000   1.0000   1.0000   1.0000   1.0000   1.0000   0.0000   0.0000
     0.0000   0.0000

          k = 0.2828 0.0943-0.0943 (  5827 PWs)   bands (ev):

   -13.6926 -13.6848 -13.6566 -13.5791 -13.5531 -13.4154 -13.3637 -13.3326
   -13.3048 -13.2906  -1.7528   4.1118   6.7416   6.8695   9.4683   9.8234
     9.8266  10.0484

     occupation numbers 
     1.0000   1.0000   1.0000   1.0000   1.0000   1.0000   1.0000   1.0000
     1.0000   1.0000   1.0000   1.0000   1.0000   1.0000   0.0000   0.0000
     0.0000   0.0000

          k = 0.3300 0.1414-0.1414 (  5816 PWs)   bands (ev):

   -13.7011 -13.6905 -13.6457 -13.5683 -13.5432 -13.4237 -13.3751 -13.3449
   -13.2966 -13.2815  -1.4639   3.3358   6.4295   6.7170   9.3165   9.8241
     9.8268  10.4626

     occupation numbers 
     1.0000   1.0000   1.0000   1.0000   1.0000   1.0000   1.0000   1.0000
     1.0000   1.0000   1.0000   1.0000   1.0000   1.0000   0.0000   0.0000
     0.0000   0.0000

          k = 0.3771 0.1886-0.1886 (  5827 PWs)   bands (ev):

   -13.7077 -13.6951 -13.6345 -13.5584 -13.5381 -13.4262 -13.3857 -13.3580
   -13.2898 -13.2745  -1.1356   2.6268   6.1617   6.6331   9.1699   9.8241
     9.8267  10.7793

     occupation numbers 
     1.0000   1.0000   1.0000   1.0000   1.0000   1.0000   1.0000   1.0000
     1.0000   1.0000   1.0000   1.0000   1.0000   1.0000   0.0000   0.0000
     0.0000   0.0000

          k = 0.4243 0.2357-0.2357 (  5799 PWs)   bands (ev):

   -13.7117 -13.6987 -13.6250 -13.5499 -13.5387 -13.4222 -13.3953 -13.3701
   -13.2845 -13.2703  -0.8262   2.0709   5.9568   6.6217   9.0611   9.8241
     9.8266  10.9495

     occupation numbers 
     1.0000   1.0000   1.0000   1.0000   1.0000   1.0000   1.0000   1.0000
     1.0000   1.0000   1.0000   1.0000   1.0000   1.0000   0.0000   0.0000
     0.0000   0.0000

          k =-0.2357-0.4243 0.4243 (  5797 PWs)   bands (ev):

   -13.7130 -13.7012 -13.6190 -13.5437 -13.5433 -13.4126 -13.4035 -13.3793
   -13.2807 -13.2693  -0.6590   1.8045   5.8249   6.6824   9.0023   9.8241
     9.8266  11.0591

     occupation numbers 
     1.0000   1.0000   1.0000   1.0000   1.0000   1.0000   1.0000   1.0000
     1.0000   1.0000   1.0000   1.0000   1.0000   1.0000   0.0000   0.0000
     0.0000   0.0000

          k =-0.1886-0.3771 0.3771 (  5800 PWs)   bands (ev):

   -13.7115 -13.7024 -13.6181 -13.5514 -13.5396 -13.4093 -13.3990 -13.3844
   -13.2787 -13.2716  -0.7510   1.9491   5.7736   6.8112   8.9954   9.8241
     9.8267  11.1696

     occupation numbers 
     1.0000   1.0000   1.0000   1.0000   1.0000   1.0000   1.0000   1.0000
     1.0000   1.0000   1.0000   1.0000   1.0000   1.0000   0.0000   0.0000
     0.0000   0.0000

          k =-0.1414-0.3300 0.3300 (  5807 PWs)   bands (ev):

   -13.7073 -13.7020 -13.6227 -13.5599 -13.5404 -13.4109 -13.3877 -13.3806
   -13.2786 -13.2773  -1.0321   2.4303   5.8111   6.9996   9.0350   9.8241
     9.8267  11.2847

     occupation numbers 
     1.0000   1.0000   1.0000   1.0000   1.0000   1.0000   1.0000   1.0000
     1.0000   1.0000   1.0000   1.0000   1.0000   1.0000   0.0000   0.0000
     0.0000   0.0000

          k =-0.0943-0.2828 0.2828 (  5810 PWs)   bands (ev):

   -13.7007 -13.6998 -13.6318 -13.5683 -13.5465 -13.4071 -13.3847 -13.3640
   -13.2862 -13.2807  -1.3630   3.0945   5.9492   7.2329   9.1034   9.8241
     9.8267  11.2211

     occupation numbers 
     1.0000   1.0000   1.0000   1.0000   1.0000   1.0000   1.0000   1.0000
     1.0000   1.0000   1.0000   1.0000   1.0000   1.0000   0.0000   0.0000
     0.0000   0.0000

          k =-0.0471-0.2357 0.2357 (  5833 PWs)   bands (ev):

   -13.6954 -13.6922 -13.6428 -13.5769 -13.5574 -13.3984 -13.3792 -13.3476
   -13.2976 -13.2850  -1.6677   3.8347   6.2080   7.4846   9.1559   9.8242
     9.8269  10.9374

     occupation numbers 
     1.0000   1.0000   1.0000   1.0000   1.0000   1.0000   1.0000   1.0000
     1.0000   1.0000   1.0000   1.0000   1.0000   1.0000   0.0000   0.0000
     0.0000   0.0000

          k = 0.0000-0.1886 0.1886 (  5841 PWs)   bands (ev):

   -13.6892 -13.6830 -13.6529 -13.5856 -13.5710 -13.3862 -13.3711 -13.3344
   -13.3102 -13.2917  -1.9141   4.5610   6.6196   7.7071   9.0856   9.8241
     9.8268  10.6508

     occupation numbers 
     1.0000   1.0000   1.0000   1.0000   1.0000   1.0000   1.0000   1.0000
     1.0000   1.0000   1.0000   1.0000   1.0000   1.0000   0.0000   0.0000
     0.0000   0.0000

          k = 0.2828 0.0000 0.0000 (  5826 PWs)   bands (ev):

   -13.6822 -13.6822 -13.6705 -13.5832 -13.5509 -13.4219 -13.3567 -13.3103
   -13.3103 -13.3062  -1.8536   4.5314   6.8243   6.8243   9.2392   9.8217
     9.8257  10.0310

     occupation numbers 
     1.0000   1.0000   1.0000   1.0000   1.0000   1.0000   1.0000   1.0000
     1.0000   1.0000   1.0000   1.0000   1.0000   1.0000   0.0000   0.0000
     0.0000   0.0000

          k = 0.3300 0.0471-0.0471 (  5830 PWs)   bands (ev):

   -13.6910 -13.6874 -13.6628 -13.5731 -13.5358 -13.4385 -13.3670 -13.3194
   -13.3024 -13.2947  -1.6526   3.9676   6.5330   6.6075   9.2431   9.8225
     9.8258  10.0818

     occupation numbers 
     1.0000   1.0000   1.0000   1.0000   1.0000   1.0000   1.0000   1.0000
     1.0000   1.0000   1.0000   1.0000   1.0000   1.0000   0.0000   0.0000
     0.0000   0.0000

          k = 0.3771 0.0943-0.0943 (  5814 PWs)   bands (ev):

   -13.7017 -13.6928 -13.6495 -13.5617 -13.5233 -13.4507 -13.3791 -13.3348
   -13.2942 -13.2819  -1.3827   3.3145   6.1702   6.4511   9.3790   9.8233
     9.8262  10.2275

     occupation numbers 
     1.0000   1.0000   1.0000   1.0000   1.0000   1.0000   1.0000   1.0000
     1.0000   1.0000   1.0000   1.0000   1.0000   1.0000   0.0000   0.0000
     0.0000   0.0000

          k = 0.4243 0.1414-0.1414 (  5823 PWs)   bands (ev):

   -13.7110 -13.6976 -13.6342 -13.5504 -13.5162 -13.4564 -13.3914 -13.3520
   -13.2870 -13.2712  -1.0620   2.6642   5.8181   6.3658   9.3774   9.8239
     9.8265  10.6685

     occupation numbers 
     1.0000   1.0000   1.0000   1.0000   1.0000   1.0000   1.0000   1.0000
     1.0000   1.0000   1.0000   1.0000   1.0000   1.0000   0.0000   0.0000
     0.0000   0.0000

          k = 0.4714 0.1886-0.1886 (  5802 PWs)   bands (ev):

   -13.7179 -13.7015 -13.6196 -13.5397 -13.5162 -13.4541 -13.4034 -13.3684
   -13.2811 -13.2635  -0.7333   2.1008   5.5275   6.3561   9.3249   9.8241
     9.8266  11.1208

     occupation numbers 
     1.0000   1.0000   1.0000   1.0000   1.0000   1.0000   1.0000   1.0000
     1.0000   1.0000   1.0000   1.0000   1.0000   1.0000   0.0000   0.0000
     0.0000   0.0000

          k =-0.1886-0.4714 0.4714 (  5806 PWs)   bands (ev):

   -13.7217 -13.7044 -13.6085 -13.5307 -13.5230 -13.4444 -13.4144 -13.3812
   -13.2768 -13.2594  -0.4994   1.7485   5.3215   6.4220   9.2992   9.8241
     9.8267  11.3411

     occupation numbers 
     1.0000   1.0000   1.0000   1.0000   1.0000   1.0000   1.0000   1.0000
     1.0000   1.0000   1.0000   1.0000   1.0000   1.0000   0.0000   0.0000
     0.0000   0.0000

          k =-0.1414-0.4243 0.4243 (  5799 PWs)   bands (ev):

   -13.7220 -13.7060 -13.6033 -13.5346 -13.5246 -13.4287 -13.4227 -13.3889
   -13.2742 -13.2596  -0.5105   1.7658   5.2145   6.5594   9.3165   9.8242
     9.8268  11.4510

     occupation numbers 
     1.0000   1.0000   1.0000   1.0000   1.0000   1.0000   1.0000   1.0000
     1.0000   1.0000   1.0000   1.0000   1.0000   1.0000   0.0000   0.0000
     0.0000   0.0000

          k =-0.0943-0.3771 0.3771 (  5810 PWs)   bands (ev):

   -13.7187 -13.7062 -13.6051 -13.5483 -13.5241 -13.4258 -13.4086 -13.3913
   -13.2736 -13.2641  -0.7567   2.1369   5.2224   6.7589   9.3673   9.8242
     9.8269  11.5626

     occupation numbers 
     1.0000   1.0000   1.0000   1.0000   1.0000   1.0000   1.0000   1.0000
     1.0000   1.0000   1.0000   1.0000   1.0000   1.0000   0.0000   0.0000
     0.0000   0.0000

          k =-0.0471-0.3300 0.3300 (  5813 PWs)   bands (ev):

   -13.7119 -13.7045 -13.6144 -13.5603 -13.5306 -13.4218 -13.3916 -13.3846
   -13.2752 -13.2728  -1.0859   2.6884   5.3684   7.0035   9.4182   9.8243
     9.8271  11.6303

     occupation numbers 
     1.0000   1.0000   1.0000   1.0000   1.0000   1.0000   1.0000   1.0000
     1.0000   1.0000   1.0000   1.0000   1.0000   1.0000   0.0000   0.0000
     0.0000   0.0000

          k = 0.0000-0.2828 0.2828 (  5821 PWs)   bands (ev):

   -13.7026 -13.7009 -13.6284 -13.5695 -13.5426 -13.4119 -13.3862 -13.3641
   -13.2848 -13.2790  -1.4029   3.2838   5.6872   7.2628   9.3904   9.8243
     9.8271  11.2681

     occupation numbers 
     1.0000   1.0000   1.0000   1.0000   1.0000   1.0000   1.0000   1.0000
     1.0000   1.0000   1.0000   1.0000   1.0000   1.0000   0.0000   0.0000
     0.0000   0.0000

          k = 0.3771 0.0000 0.0000 (  5818 PWs)   bands (ev):

   -13.6917 -13.6917 -13.6637 -13.5632 -13.5178 -13.4595 -13.3759 -13.3139
   -13.2964 -13.2964  -1.4747   3.5867   6.3816   6.3816   8.9447   9.8224
     9.8257  10.0338

     occupation numbers 
     1.0000   1.0000   1.0000   1.0000   1.0000   1.0000   1.0000   1.0000
     1.0000   1.0000   1.0000   1.0000   1.0000   1.0000   0.0000   0.0000
     0.0000   0.0000

          k = 0.4243 0.0471-0.0471 (  5804 PWs)   bands (ev):

   -13.6997 -13.6964 -13.6532 -13.5515 -13.5021 -13.4763 -13.3877 -13.3270
   -13.2893 -13.2850  -1.2249   3.0733   6.1022   6.2148   8.9938   9.8215
     9.8257   9.9523

     occupation numbers 
     1.0000   1.0000   1.0000   1.0000   1.0000   1.0000   1.0000   1.0000
     1.0000   1.0000   1.0000   1.0000   1.0000   1.0000   0.0000   0.0000
     0.0000   0.0000

          k = 0.4714 0.0943-0.0943 (  5799 PWs)   bands (ev):

   -13.7100 -13.7008 -13.6362 -13.5391 -13.4929 -13.4852 -13.4007 -13.3462
   -13.2827 -13.2722  -0.9161   2.5193   5.7199   6.1194   9.1617   9.8233
     9.8261  10.1388

     occupation numbers 
     1.0000   1.0000   1.0000   1.0000   1.0000   1.0000   1.0000   1.0000
     1.0000   1.0000   1.0000   1.0000   1.0000   1.0000   0.0000   0.0000
     0.0000   0.0000

          k = 0.5185 0.1414-0.1414 (  5791 PWs)   bands (ev):

   -13.7193 -13.7044 -13.6179 -13.5270 -13.4956 -13.4812 -13.4142 -13.3662
   -13.2772 -13.2616  -0.5788   1.9974   5.3475   6.1011   9.2118   9.8238
     9.8264  10.7259

     occupation numbers 
     1.0000   1.0000   1.0000   1.0000   1.0000   1.0000   1.0000   1.0000
     1.0000   1.0000   1.0000   1.0000   1.0000   1.0000   0.0000   0.0000
     0.0000   0.0000

          k =-0.1414-0.5185 0.5185 (  5796 PWs)   bands (ev):

   -13.7258 -13.7072 -13.6028 -13.5160 -13.4977 -13.4773 -13.4270 -13.3823
   -13.2731 -13.2545  -0.2935   1.6088   5.0547   6.1605   9.2358   9.8240
     9.8265  11.4895

     occupation numbers 
     1.0000   1.0000   1.0000   1.0000   1.0000   1.0000   1.0000   1.0000
     1.0000   1.0000   1.0000   1.0000   1.0000   1.0000   0.0000   0.0000
     0.0000   0.0000

          k =-0.0943-0.4714 0.4714 (  5805 PWs)   bands (ev):

   -13.7285 -13.7088 -13.5943 -13.5084 -13.5081 -13.4642 -13.4371 -13.3914
   -13.2707 -13.2518  -0.2271   1.5261   4.8791   6.2941   9.2943   9.8241
     9.8266  12.0399

     occupation numbers 
     1.0000   1.0000   1.0000   1.0000   1.0000   1.0000   1.0000   1.0000
     1.0000   1.0000   1.0000   1.0000   1.0000   1.0000   0.0000   0.0000
     0.0000   0.0000

          k =-0.0471-0.4243 0.4243 (  5822 PWs)   bands (ev):

   -13.7270 -13.7091 -13.5933 -13.5275 -13.5076 -13.4410 -13.4402 -13.3942
   -13.2702 -13.2541  -0.4377   1.7982   4.8504   6.4928   9.3854   9.8241
     9.8267  12.2039

     occupation numbers 
     1.0000   1.0000   1.0000   1.0000   1.0000   1.0000   1.0000   1.0000
     1.0000   1.0000   1.0000   1.0000   1.0000   1.0000   0.0000   0.0000
     0.0000   0.0000

          k =-0.0000-0.3771 0.3771 (  5806 PWs)   bands (ev):

   -13.7212 -13.7077 -13.6000 -13.5467 -13.5162 -13.4340 -13.4139 -13.3928
   -13.2717 -13.2614  -0.7625   2.2358   5.0027   6.7394   9.4639   9.8243
     9.8272  12.1096

     occupation numbers 
     1.0000   1.0000   1.0000   1.0000   1.0000   1.0000   1.0000   1.0000
     1.0000   1.0000   1.0000   1.0000   1.0000   1.0000   0.0000   0.0000
     0.0000   0.0000

          k = 0.4714 0.0000 0.0000 (  5766 PWs)   bands (ev):

   -13.7004 -13.7004 -13.6501 -13.5392 -13.4982 -13.4825 -13.3993 -13.3293
   -13.2836 -13.2836  -0.9943   2.6736   6.0344   6.0344   8.7603   9.6833
     9.8247   9.8280

     occupation numbers 
     1.0000   1.0000   1.0000   1.0000   1.0000   1.0000   1.0000   1.0000
     1.0000   1.0000   1.0000   1.0000   1.0000   1.0000   0.0000   0.0000
     0.0000   0.0000

          k = 0.5185 0.0471-0.0471 (  5793 PWs)   bands (ev):

   -13.7070 -13.7040 -13.6366 -13.5261 -13.5145 -13.4668 -13.4125 -13.3444
   -13.2781 -13.2748  -0.6996   2.2066   5.7858   5.9242   8.8557   9.5932
     9.8245   9.8272

     occupation numbers 
     1.0000   1.0000   1.0000   1.0000   1.0000   1.0000   1.0000   1.0000
     1.0000   1.0000   1.0000   1.0000   1.0000   1.0000   0.0000   0.0000
     0.0000   0.0000

          k = 0.5657 0.0943-0.0943 (  5797 PWs)   bands (ev):

   -13.7163 -13.7070 -13.6170 -13.5232 -13.5128 -13.4575 -13.4265 -13.3654
   -13.2735 -13.2640  -0.3615   1.7402   5.4126   5.8913   9.0117   9.8213
     9.8257   9.9082

     occupation numbers 
     1.0000   1.0000   1.0000   1.0000   1.0000   1.0000   1.0000   1.0000
     1.0000   1.0000   1.0000   1.0000   1.0000   1.0000   0.0000   0.0000
     0.0000   0.0000

          k =-0.0943-0.5657 0.5657 (  5796 PWs)   bands (ev):

   -13.7247 -13.7092 -13.5989 -13.5207 -13.5003 -13.4587 -13.4405 -13.3843
   -13.2703 -13.2549  -0.0397   1.3505   5.0539   5.9374   9.0742   9.8238
     9.8263  10.6281

     occupation numbers 
     1.0000   1.0000   1.0000   1.0000   1.0000   1.0000   1.0000   1.0000
     1.0000   1.0000   1.0000   1.0000   1.0000   1.0000   0.0000   0.0000
     0.0000   0.0000

          k =-0.0471-0.5185 0.5185 (  5805 PWs)   bands (ev):

   -13.7300 -13.7105 -13.5893 -13.5032 -13.4915 -13.4744 -13.4514 -13.3940
   -13.2685 -13.2495   0.0857   1.2142   4.8022   6.0598   9.1539   9.8240
     9.8264  11.5429

     occupation numbers 
     1.0000   1.0000   1.0000   1.0000   1.0000   1.0000   1.0000   1.0000
     1.0000   1.0000   1.0000   1.0000   1.0000   1.0000   0.0000   0.0000
     0.0000   0.0000

          k =-0.0000-0.4714 0.4714 (  5828 PWs)   bands (ev):

   -13.7309 -13.7105 -13.5883 -13.5007 -13.4942 -13.4740 -13.4511 -13.3958
   -13.2685 -13.2491  -0.1147   1.4413   4.7185   6.2502   9.2717   9.8241
     9.8266  12.4644

     occupation numbers 
     1.0000   1.0000   1.0000   1.0000   1.0000   1.0000   1.0000   1.0000
     1.0000   1.0000   1.0000   1.0000   1.0000   1.0000   0.0000   0.0000
     0.0000   0.0000

          k = 0.5657 0.0000 0.0000 (  5814 PWs)   bands (ev):

   -13.7068 -13.7068 -13.6298 -13.5362 -13.5122 -13.4466 -13.4257 -13.3516
   -13.2739 -13.2739  -0.4178   1.8045   5.7970   5.7970   8.7002   9.2888
     9.8242   9.8266

     occupation numbers 
     1.0000   1.0000   1.0000   1.0000   1.0000   1.0000   1.0000   1.0000
     1.0000   1.0000   1.0000   1.0000   1.0000   1.0000   0.0000   0.0000
     0.0000   0.0000

          k = 0.6128 0.0471-0.0471 (  5810 PWs)   bands (ev):

   -13.7119 -13.7090 -13.6135 -13.5509 -13.4982 -13.4400 -13.4319 -13.3688
   -13.2706 -13.2677  -0.0838   1.3825   5.5930   5.7463   8.8337   9.2640
     9.8242   9.8266

     occupation numbers 
     1.0000   1.0000   1.0000   1.0000   1.0000   1.0000   1.0000   1.0000
     1.0000   1.0000   1.0000   1.0000   1.0000   1.0000   0.0000   0.0000
     0.0000   0.0000

          k =-0.0471-0.6128 0.6128 (  5802 PWs)   bands (ev):

   -13.7198 -13.7104 -13.5942 -13.5544 -13.4846 -13.4546 -13.4275 -13.3887
   -13.2685 -13.2593   0.2619   1.0023   5.2575   5.7753   8.9408   9.7468
     9.8249   9.8287

     occupation numbers 
     1.0000   1.0000   1.0000   1.0000   1.0000   1.0000   1.0000   1.0000
     1.0000   1.0000   1.0000   1.0000   1.0000   1.0000   0.0000   0.0000
     0.0000   0.0000

          k = 0.0000-0.5657 0.5657 (  5830 PWs)   bands (ev):

   -13.7266 -13.7109 -13.5872 -13.5358 -13.4783 -13.4625 -13.4446 -13.3958
   -13.2678 -13.2525   0.3653   0.9096   4.9545   5.8821   9.0245   9.8238
     9.8263  10.5800

     occupation numbers 
     1.0000   1.0000   1.0000   1.0000   1.0000   1.0000   1.0000   1.0000
     1.0000   1.0000   1.0000   1.0000   1.0000   1.0000   0.0000   0.0000
     0.0000   0.0000

          k = 0.6600 0.0000 0.0000 (  5794 PWs)   bands (ev):

   -13.7102 -13.7102 -13.6034 -13.5717 -13.4835 -13.4542 -13.4117 -13.3795
   -13.2687 -13.2687   0.2472   0.9916   5.6766   5.6766   8.7702   8.9703
     9.8241   9.8265

     occupation numbers 
     1.0000   1.0000   1.0000   1.0000   1.0000   1.0000   1.0000   1.0000
     1.0000   1.0000   1.0000   1.0000   1.0000   1.0000   0.0000   0.0000
     0.0000   0.0000

          k = 0.0000-0.6600 0.6600 (  5796 PWs)   bands (ev):

   -13.7136 -13.7107 -13.5880 -13.5810 -13.4700 -13.4681 -13.4019 -13.3953
   -13.2680 -13.2652   0.5852   0.6434   5.5283   5.6865   8.8741   9.0997
     9.8242   9.8265

     occupation numbers 
     1.0000   1.0000   1.0000   1.0000   1.0000   1.0000   1.0000   1.0000
     1.0000   1.0000   1.0000   1.0000   1.0000   1.0000   0.0000   0.0000
     0.0000   0.0000

          k = 0.1886 0.0943-0.0000 (  5829 PWs)   bands (ev):

   -13.6815 -13.6759 -13.6623 -13.5941 -13.5787 -13.3852 -13.3531 -13.3264
   -13.3195 -13.3005  -2.0734   5.1891   7.0954   7.5624   9.2421   9.8236
     9.8268   9.9467

     occupation numbers 
     1.0000   1.0000   1.0000   1.0000   1.0000   1.0000   1.0000   1.0000
     1.0000   1.0000   1.0000   1.0000   1.0000   1.0000   0.0000   0.0000
     0.0000   0.0000

          k = 0.2357 0.1414-0.0471 (  5838 PWs)   bands (ev):

   -13.6894 -13.6834 -13.6550 -13.5843 -13.5655 -13.3981 -13.3638 -13.3349
   -13.3080 -13.2922  -1.8735   4.4361   6.6901   7.3968   9.2783   9.8240
     9.8270  10.2004

     occupation numbers 
     1.0000   1.0000   1.0000   1.0000   1.0000   1.0000   1.0000   1.0000
     1.0000   1.0000   1.0000   1.0000   1.0000   1.0000   0.0000   0.0000
     0.0000   0.0000

          k = 0.2828 0.1886-0.0943 (  5826 PWs)   bands (ev):

   -13.6968 -13.6906 -13.6455 -13.5742 -13.5538 -13.4079 -13.3734 -13.3472
   -13.2974 -13.2851  -1.6047   3.6379   6.3942   7.1797   9.1664   9.8241
     9.8268  10.5729

     occupation numbers 
     1.0000   1.0000   1.0000   1.0000   1.0000   1.0000   1.0000   1.0000
     1.0000   1.0000   1.0000   1.0000   1.0000   1.0000   0.0000   0.0000
     0.0000   0.0000

          k = 0.3300 0.2357-0.1414 (  5810 PWs)   bands (ev):

   -13.7029 -13.6958 -13.6357 -13.5650 -13.5459 -13.4130 -13.3817 -13.3605
   -13.2893 -13.2794  -1.2858   2.8843   6.1891   6.9767   9.0358   9.8241
     9.8267  10.8497

     occupation numbers 
     1.0000   1.0000   1.0000   1.0000   1.0000   1.0000   1.0000   1.0000
     1.0000   1.0000   1.0000   1.0000   1.0000   1.0000   0.0000   0.0000
     0.0000   0.0000

          k = 0.3771 0.2828-0.1886 (  5803 PWs)   bands (ev):

   -13.7073 -13.6991 -13.6275 -13.5569 -13.5429 -13.4128 -13.3894 -13.3720
   -13.2841 -13.2753  -0.9606   2.2551   6.0607   6.8246   8.9347   9.8241
     9.8267  10.9748

     occupation numbers 
     1.0000   1.0000   1.0000   1.0000   1.0000   1.0000   1.0000   1.0000
     1.0000   1.0000   1.0000   1.0000   1.0000   1.0000   0.0000   0.0000
     0.0000   0.0000

          k =-0.2828-0.3771 0.4714 (  5798 PWs)   bands (ev):

   -13.7096 -13.7006 -13.6228 -13.5505 -13.5441 -13.4079 -13.3976 -13.3783
   -13.2816 -13.2730  -0.7281   1.8670   5.9993   6.7436   8.8810   9.8241
     9.8266  11.0107

     occupation numbers 
     1.0000   1.0000   1.0000   1.0000   1.0000   1.0000   1.0000   1.0000
     1.0000   1.0000   1.0000   1.0000   1.0000   1.0000   0.0000   0.0000
     0.0000   0.0000

          k = 0.2828 0.0943 0.0000 (  5834 PWs)   bands (ev):

   -13.6887 -13.6850 -13.6606 -13.5811 -13.5518 -13.4187 -13.3609 -13.3258
   -13.3067 -13.2944  -1.8027   4.3255   6.5978   6.9885   9.5766   9.8134
     9.8257   9.8798

     occupation numbers 
     1.0000   1.0000   1.0000   1.0000   1.0000   1.0000   1.0000   1.0000
     1.0000   1.0000   1.0000   1.0000   1.0000   1.0000   0.0000   0.0000
     0.0000   0.0000

          k = 0.3300 0.1414-0.0471 (  5824 PWs)   bands (ev):

   -13.6976 -13.6919 -13.6493 -13.5706 -13.5387 -13.4316 -13.3719 -13.3381
   -13.2964 -13.2852  -1.5555   3.6597   6.2089   6.8189   9.6486   9.8233
     9.8271  10.0843

     occupation numbers 
     1.0000   1.0000   1.0000   1.0000   1.0000   1.0000   1.0000   1.0000
     1.0000   1.0000   1.0000   1.0000   1.0000   1.0000   0.0000   0.0000
     0.0000   0.0000

          k = 0.3771 0.1886-0.0943 (  5817 PWs)   bands (ev):

   -13.7065 -13.6972 -13.6358 -13.5600 -13.5291 -13.4394 -13.3831 -13.3536
   -13.2880 -13.2760  -1.2497   2.9711   5.9066   6.6411   9.5587   9.8242
     9.8273  10.5219

     occupation numbers 
     1.0000   1.0000   1.0000   1.0000   1.0000   1.0000   1.0000   1.0000
     1.0000   1.0000   1.0000   1.0000   1.0000   1.0000   0.0000   0.0000
     0.0000   0.0000

          k = 0.4243 0.2357-0.1414 (  5809 PWs)   bands (ev):

   -13.7135 -13.7010 -13.6227 -13.5500 -13.5253 -13.4406 -13.3942 -13.3688
   -13.2821 -13.2684  -0.9173   2.3443   5.6808   6.5171   9.4595   9.8242
     9.8271  10.8542

     occupation numbers 
     1.0000   1.0000   1.0000   1.0000   1.0000   1.0000   1.0000   1.0000
     1.0000   1.0000   1.0000   1.0000   1.0000   1.0000   0.0000   0.0000
     0.0000   0.0000

          k =-0.2357-0.4243 0.5185 (  5804 PWs)   bands (ev):

   -13.7178 -13.7036 -13.6126 -13.5414 -13.5274 -13.4350 -13.4052 -13.3803
   -13.2781 -13.2638  -0.6351   1.8863   5.5256   6.4739   9.3965   9.8242
     9.8270  10.9814

     occupation numbers 
     1.0000   1.0000   1.0000   1.0000   1.0000   1.0000   1.0000   1.0000
     1.0000   1.0000   1.0000   1.0000   1.0000   1.0000   0.0000   0.0000
     0.0000   0.0000

          k =-0.1886-0.3771 0.4714 (  5800 PWs)   bands (ev):

   -13.7189 -13.7050 -13.6080 -13.5392 -13.5299 -13.4268 -13.4118 -13.3864
   -13.2760 -13.2629  -0.5473   1.7556   5.4437   6.5174   9.3809   9.8243
     9.8270  11.0264

     occupation numbers 
     1.0000   1.0000   1.0000   1.0000   1.0000   1.0000   1.0000   1.0000
     1.0000   1.0000   1.0000   1.0000   1.0000   1.0000   0.0000   0.0000
     0.0000   0.0000

          k =-0.1414-0.3300 0.4243 (  5806 PWs)   bands (ev):

   -13.7166 -13.7050 -13.6101 -13.5476 -13.5280 -13.4275 -13.4018 -13.3873
   -13.2758 -13.2658  -0.7230   2.0233   5.4448   6.6406   9.4113   9.8243
     9.8271  11.0482

     occupation numbers 
     1.0000   1.0000   1.0000   1.0000   1.0000   1.0000   1.0000   1.0000
     1.0000   1.0000   1.0000   1.0000   1.0000   1.0000   0.0000   0.0000
     0.0000   0.0000

          k =-0.0943-0.2828 0.3771 (  5804 PWs)   bands (ev):

   -13.7111 -13.7035 -13.6186 -13.5575 -13.5305 -13.4278 -13.3884 -13.3797
   -13.2781 -13.2722  -1.0363   2.5533   5.5445   6.8282   9.4757   9.8243
     9.8274  10.9886

     occupation numbers 
     1.0000   1.0000   1.0000   1.0000   1.0000   1.0000   1.0000   1.0000
     1.0000   1.0000   1.0000   1.0000   1.0000   1.0000   0.0000   0.0000
     0.0000   0.0000

          k =-0.0471-0.2357 0.3300 (  5811 PWs)   bands (ev):

   -13.7031 -13.7001 -13.6312 -13.5669 -13.5388 -13.4222 -13.3813 -13.3618
   -13.2854 -13.2789  -1.3643   3.1967   5.7662   7.0537   9.5414   9.8243
     9.8277  10.7216

     occupation numbers 
     1.0000   1.0000   1.0000   1.0000   1.0000   1.0000   1.0000   1.0000
     1.0000   1.0000   1.0000   1.0000   1.0000   1.0000   0.0000   0.0000
     0.0000   0.0000

          k = 0.0000-0.1886 0.2828 (  5822 PWs)   bands (ev):

   -13.6958 -13.6926 -13.6445 -13.5760 -13.5514 -13.4117 -13.3731 -13.3449
   -13.2973 -13.2850  -1.6512   3.8514   6.1412   7.2697   9.5178   9.8243
     9.8277  10.3637

     occupation numbers 
     1.0000   1.0000   1.0000   1.0000   1.0000   1.0000   1.0000   1.0000
     1.0000   1.0000   1.0000   1.0000   1.0000   1.0000   0.0000   0.0000
     0.0000   0.0000

          k = 0.3771 0.0943 0.0000 (  5806 PWs)   bands (ev):

   -13.6963 -13.6948 -13.6543 -13.5625 -13.5203 -13.4553 -13.3776 -13.3282
   -13.2929 -13.2878  -1.4279   3.4559   6.1714   6.4712   9.2765   9.8226
     9.8259  10.0801

     occupation numbers 
     1.0000   1.0000   1.0000   1.0000   1.0000   1.0000   1.0000   1.0000
     1.0000   1.0000   1.0000   1.0000   1.0000   1.0000   0.0000   0.0000
     0.0000   0.0000

          k = 0.4243 0.1414-0.0471 (  5800 PWs)   bands (ev):

   -13.7061 -13.7001 -13.6391 -13.5509 -13.5080 -13.4673 -13.3898 -13.3452
   -13.2845 -13.2768  -1.1385   2.8784   5.8084   6.3137   9.4692   9.8233
     9.8262  10.2155

     occupation numbers 
     1.0000   1.0000   1.0000   1.0000   1.0000   1.0000   1.0000   1.0000
     1.0000   1.0000   1.0000   1.0000   1.0000   1.0000   0.0000   0.0000
     0.0000   0.0000

          k = 0.4714 0.1886-0.0943 (  5795 PWs)   bands (ev):

   -13.7155 -13.7040 -13.6219 -13.5394 -13.5020 -13.4718 -13.4027 -13.3639
   -13.2786 -13.2660  -0.8073   2.3079   5.4838   6.2023   9.5153   9.8240
     9.8267  10.7156

     occupation numbers 
     1.0000   1.0000   1.0000   1.0000   1.0000   1.0000   1.0000   1.0000
     1.0000   1.0000   1.0000   1.0000   1.0000   1.0000   0.0000   0.0000
     0.0000   0.0000

          k =-0.1886-0.4714 0.5657 (  5802 PWs)   bands (ev):

   -13.7224 -13.7069 -13.6067 -13.5288 -13.5036 -13.4678 -13.4155 -13.3800
   -13.2742 -13.2584  -0.4910   1.8332   5.2246   6.1758   9.5112   9.8241
     9.8269  11.2571

     occupation numbers 
     1.0000   1.0000   1.0000   1.0000   1.0000   1.0000   1.0000   1.0000
     1.0000   1.0000   1.0000   1.0000   1.0000   1.0000   0.0000   0.0000
     0.0000   0.0000

          k =-0.1414-0.4243 0.5185 (  5796 PWs)   bands (ev):

   -13.7258 -13.7087 -13.5971 -13.5224 -13.5095 -13.4577 -13.4262 -13.3902
   -13.2715 -13.2548  -0.3229   1.6043   5.0551   6.2379   9.5370   9.8243
     9.8271  11.4406

     occupation numbers 
     1.0000   1.0000   1.0000   1.0000   1.0000   1.0000   1.0000   1.0000
     1.0000   1.0000   1.0000   1.0000   1.0000   1.0000   0.0000   0.0000
     0.0000   0.0000

          k =-0.0943-0.3771 0.4714 (  5813 PWs)   bands (ev):

   -13.7251 -13.7092 -13.5951 -13.5305 -13.5108 -13.4472 -13.4260 -13.3938
   -13.2705 -13.2560  -0.4349   1.7562   4.9972   6.3801   9.6003   9.8244
     9.8276  11.4560

     occupation numbers 
     1.0000   1.0000   1.0000   1.0000   1.0000   1.0000   1.0000   1.0000
     1.0000   1.0000   1.0000   1.0000   1.0000   1.0000   0.0000   0.0000
     0.0000   0.0000

          k =-0.0471-0.3300 0.4243 (  5813 PWs)   bands (ev):

   -13.7205 -13.7083 -13.6012 -13.5452 -13.5142 -13.4426 -13.4075 -13.3925
   -13.2714 -13.2620  -0.7314   2.1794   5.0759   6.5860   9.6770   9.8246
     9.8289  11.3980

     occupation numbers 
     1.0000   1.0000   1.0000   1.0000   1.0000   1.0000   1.0000   1.0000
     1.0000   1.0000   1.0000   1.0000   1.0000   1.0000   0.0000   0.0000
     0.0000   0.0000

          k = 0.0000-0.2828 0.3771 (  5808 PWs)   bands (ev):

   -13.7124 -13.7056 -13.6146 -13.5577 -13.5246 -13.4345 -13.3883 -13.3834
   -13.2743 -13.2722  -1.0641   2.6950   5.3232   6.8274   9.7015   9.8247
     9.8300  11.0839

     occupation numbers 
     1.0000   1.0000   1.0000   1.0000   1.0000   1.0000   1.0000   1.0000
     1.0000   1.0000   1.0000   1.0000   1.0000   1.0000   0.0000   0.0000
     0.0000   0.0000

          k = 0.4714 0.0943-0.0000 (  5796 PWs)   bands (ev):

   -13.7038 -13.7035 -13.6414 -13.5392 -13.4931 -13.4863 -13.4001 -13.3400
   -13.2802 -13.2789  -0.9536   2.5997   5.8459   6.0555   9.0794   9.8141
     9.8254   9.8593

     occupation numbers 
     1.0000   1.0000   1.0000   1.0000   1.0000   1.0000   1.0000   1.0000
     1.0000   1.0000   1.0000   1.0000   1.0000   1.0000   0.0000   0.0000
     0.0000   0.0000

          k = 0.5185 0.1414-0.0471 (  5793 PWs)   bands (ev):

   -13.7135 -13.7071 -13.6228 -13.5265 -13.5038 -13.4750 -13.4136 -13.3600
   -13.2745 -13.2678  -0.6297   2.1042   5.5095   5.9350   9.2968   9.8230
     9.8260  10.0466

     occupation numbers 
     1.0000   1.0000   1.0000   1.0000   1.0000   1.0000   1.0000   1.0000
     1.0000   1.0000   1.0000   1.0000   1.0000   1.0000   0.0000   0.0000
     0.0000   0.0000

          k =-0.1414-0.5185 0.6128 (  5789 PWs)   bands (ev):

   -13.7223 -13.7097 -13.6037 -13.5144 -13.5062 -13.4710 -13.4276 -13.3799
   -13.2706 -13.2578  -0.2929   1.6524   5.1683   5.9088   9.3712   9.8239
     9.8265  10.6913

     occupation numbers 
     1.0000   1.0000   1.0000   1.0000   1.0000   1.0000   1.0000   1.0000
     1.0000   1.0000   1.0000   1.0000   1.0000   1.0000   0.0000   0.0000
     0.0000   0.0000

          k =-0.0943-0.4714 0.5657 (  5795 PWs)   bands (ev):

   -13.7282 -13.7114 -13.5903 -13.5055 -13.4966 -13.4775 -13.4403 -13.3934
   -13.2681 -13.2515  -0.0576   1.3682   4.9069   5.9743   9.4301   9.8241
     9.8267  11.5328

     occupation numbers 
     1.0000   1.0000   1.0000   1.0000   1.0000   1.0000   1.0000   1.0000
     1.0000   1.0000   1.0000   1.0000   1.0000   1.0000   0.0000   0.0000
     0.0000   0.0000

          k =-0.0471-0.4243 0.5185 (  5802 PWs)   bands (ev):

   -13.7300 -13.7119 -13.5860 -13.5069 -13.4916 -13.4755 -13.4459 -13.3978
   -13.2673 -13.2500  -0.1139   1.4370   4.7783   6.1213   9.5258   9.8242
     9.8269  12.1276

     occupation numbers 
     1.0000   1.0000   1.0000   1.0000   1.0000   1.0000   1.0000   1.0000
     1.0000   1.0000   1.0000   1.0000   1.0000   1.0000   0.0000   0.0000
     0.0000   0.0000

          k =-0.0000-0.3771 0.4714 (  5804 PWs)   bands (ev):

   -13.7273 -13.7109 -13.5898 -13.5264 -13.5001 -13.4575 -13.4333 -13.3966
   -13.2683 -13.2536  -0.3988   1.7770   4.8234   6.3340   9.6371   9.8245
     9.8278  12.0197

     occupation numbers 
     1.0000   1.0000   1.0000   1.0000   1.0000   1.0000   1.0000   1.0000
     1.0000   1.0000   1.0000   1.0000   1.0000   1.0000   0.0000   0.0000
     0.0000   0.0000

          k = 0.5657 0.0943 0.0000 (  5809 PWs)   bands (ev):

   -13.7099 -13.7098 -13.6217 -13.5301 -13.5125 -13.4516 -13.4262 -13.3602
   -13.2707 -13.2707  -0.3865   1.7722   5.6357   5.7590   9.0012   9.5048
     9.8244   9.8269

     occupation numbers 
     1.0000   1.0000   1.0000   1.0000   1.0000   1.0000   1.0000   1.0000
     1.0000   1.0000   1.0000   1.0000   1.0000   1.0000   0.0000   0.0000
     0.0000   0.0000

          k =-0.0943-0.5657 0.6600 (  5799 PWs)   bands (ev):

   -13.7184 -13.7119 -13.6009 -13.5381 -13.4990 -13.4430 -13.4408 -13.3816
   -13.2677 -13.2612  -0.0400   1.3521   5.3248   5.7036   9.2044   9.8127
     9.8255   9.8475

     occupation numbers 
     1.0000   1.0000   1.0000   1.0000   1.0000   1.0000   1.0000   1.0000
     1.0000   1.0000   1.0000   1.0000   1.0000   1.0000   0.0000   0.0000
     0.0000   0.0000

          k =-0.0471-0.5185 0.6128 (  5806 PWs)   bands (ev):

   -13.7259 -13.7130 -13.5850 -13.5317 -13.4871 -13.4549 -13.4476 -13.3975
   -13.2660 -13.2533   0.2453   1.0448   4.9998   5.7638   9.2835   9.8239
     9.8264  10.6119

     occupation numbers 
     1.0000   1.0000   1.0000   1.0000   1.0000   1.0000   1.0000   1.0000
     1.0000   1.0000   1.0000   1.0000   1.0000   1.0000   0.0000   0.0000
     0.0000   0.0000

          k = 0.0000-0.4714 0.5657 (  5812 PWs)   bands (ev):

   -13.7302 -13.7131 -13.5820 -13.5075 -13.4870 -13.4687 -13.4584 -13.4004
   -13.2658 -13.2491   0.1879   1.1158   4.7933   5.9080   9.3912   9.8241
     9.8266  11.5558

     occupation numbers 
     1.0000   1.0000   1.0000   1.0000   1.0000   1.0000   1.0000   1.0000
     1.0000   1.0000   1.0000   1.0000   1.0000   1.0000   0.0000   0.0000
     0.0000   0.0000

          k =-0.0471-0.6128 0.7071 (  5799 PWs)   bands (ev):

   -13.7132 -13.7131 -13.5959 -13.5649 -13.4839 -13.4546 -13.4178 -13.3868
   -13.2658 -13.2658   0.2647   0.9888   5.5487   5.5894   9.0487   9.2213
     9.8243   9.8266

     occupation numbers 
     1.0000   1.0000   1.0000   1.0000   1.0000   1.0000   1.0000   1.0000
     1.0000   1.0000   1.0000   1.0000   1.0000   1.0000   0.0000   0.0000
     0.0000   0.0000

          k = 0.0000-0.5657 0.6600 (  5797 PWs)   bands (ev):

   -13.7201 -13.7136 -13.5809 -13.5623 -13.4725 -13.4672 -13.4194 -13.4017
   -13.2652 -13.2588   0.5394   0.7179   5.2622   5.6262   9.1786   9.7464
     9.8250   9.8287

     occupation numbers 
     1.0000   1.0000   1.0000   1.0000   1.0000   1.0000   1.0000   1.0000
     1.0000   1.0000   1.0000   1.0000   1.0000   1.0000   0.0000   0.0000
     0.0000   0.0000

          k = 0.3771 0.1886-0.0000 (  5815 PWs)   bands (ev):

   -13.7026 -13.7023 -13.6350 -13.5607 -13.5247 -13.4450 -13.3822 -13.3535
   -13.2837 -13.2791  -1.2891   3.1243   5.7435   6.6713   9.8218   9.8249
    10.0461  10.0687

     occupation numbers 
     1.0000   1.0000   1.0000   1.0000   1.0000   1.0000   1.0000   1.0000
     1.0000   1.0000   1.0000   1.0000   1.0000   1.0000   0.0000   0.0000
     0.0000   0.0000

          k = 0.4243 0.2357-0.0471 (  5809 PWs)   bands (ev):

   -13.7126 -13.7061 -13.6187 -13.5502 -13.5141 -13.4537 -13.3936 -13.3719
   -13.2757 -13.2702  -0.9706   2.5557   5.4177   6.4723   9.8215   9.8252
     9.9831  10.5805

     occupation numbers 
     1.0000   1.0000   1.0000   1.0000   1.0000   1.0000   1.0000   1.0000
     1.0000   1.0000   1.0000   1.0000   1.0000   1.0000   0.0000   0.0000
     0.0000   0.0000

          k =-0.2357-0.4243 0.6128 (  5797 PWs)   bands (ev):

   -13.7200 -13.7085 -13.6044 -13.5394 -13.5095 -13.4558 -13.4073 -13.3862
   -13.2723 -13.2615  -0.6395   2.0320   5.2198   6.3027   9.8197   9.8252
     9.9229  10.8988

     occupation numbers 
     1.0000   1.0000   1.0000   1.0000   1.0000   1.0000   1.0000   1.0000
     1.0000   1.0000   1.0000   1.0000   1.0000   1.0000   0.0000   0.0000
     0.0000   0.0000

          k =-0.1886-0.3771 0.5657 (  5795 PWs)   bands (ev):

   -13.7240 -13.7097 -13.5962 -13.5303 -13.5106 -13.4526 -13.4203 -13.3927
   -13.2707 -13.2569  -0.3945   1.6828   5.1281   6.2078   9.8172   9.8251
     9.8915  10.9573

     occupation numbers 
     1.0000   1.0000   1.0000   1.0000   1.0000   1.0000   1.0000   1.0000
     1.0000   1.0000   1.0000   1.0000   1.0000   1.0000   0.0000   0.0000
     0.0000   0.0000

          k = 0.4714 0.1886-0.0000 (  5798 PWs)   bands (ev):

   -13.7112 -13.7089 -13.6215 -13.5393 -13.4946 -13.4801 -13.4024 -13.3638
   -13.2721 -13.2718  -0.8344   2.3962   5.4584   6.1267   9.8197   9.8243
     9.8638  10.2298

     occupation numbers 
     1.0000   1.0000   1.0000   1.0000   1.0000   1.0000   1.0000   1.0000
     1.0000   1.0000   1.0000   1.0000   1.0000   1.0000   0.0000   0.0000
     0.0000   0.0000

          k =-0.1886-0.4714 0.6600 (  5792 PWs)   bands (ev):

   -13.7199 -13.7122 -13.6024 -13.5275 -13.4902 -13.4828 -13.4166 -13.3832
   -13.2683 -13.2610  -0.4974   1.9180   5.1849   5.9549   9.8227   9.8254
    10.0207  10.7084

     occupation numbers 
     1.0000   1.0000   1.0000   1.0000   1.0000   1.0000   1.0000   1.0000
     1.0000   1.0000   1.0000   1.0000   1.0000   1.0000   0.0000   0.0000
     0.0000   0.0000

          k =-0.1414-0.4243 0.6128 (  5794 PWs)   bands (ev):

   -13.7261 -13.7139 -13.5876 -13.5173 -13.4910 -13.4795 -13.4310 -13.3969
   -13.2660 -13.2540  -0.2001   1.5356   4.9938   5.8733   9.8228   9.8256
    10.0544  11.2403

     occupation numbers 
     1.0000   1.0000   1.0000   1.0000   1.0000   1.0000   1.0000   1.0000
     1.0000   1.0000   1.0000   1.0000   1.0000   1.0000   0.0000   0.0000
     0.0000   0.0000

          k =-0.0943-0.3771 0.5657 (  5812 PWs)   bands (ev):

   -13.7283 -13.7144 -13.5819 -13.5146 -13.4900 -13.4770 -13.4380 -13.4019
   -13.2651 -13.2517  -0.1126   1.4301   4.8974   5.9038   9.8229   9.8256
    10.1157  11.3027

     occupation numbers 
     1.0000   1.0000   1.0000   1.0000   1.0000   1.0000   1.0000   1.0000
     1.0000   1.0000   1.0000   1.0000   1.0000   1.0000   0.0000   0.0000
     0.0000   0.0000

          k =-0.0471-0.3300 0.5185 (  5807 PWs)   bands (ev):

   -13.7261 -13.7137 -13.5868 -13.5244 -13.4926 -13.4723 -13.4283 -13.3990
   -13.2659 -13.2545  -0.3179   1.6827   4.9186   6.0363   9.8231   9.8257
    10.1964  11.2222

     occupation numbers 
     1.0000   1.0000   1.0000   1.0000   1.0000   1.0000   1.0000   1.0000
     1.0000   1.0000   1.0000   1.0000   1.0000   1.0000   0.0000   0.0000
     0.0000   0.0000

          k = 0.0000-0.2828 0.4714 (  5795 PWs)   bands (ev):

   -13.7202 -13.7113 -13.6004 -13.5384 -13.5005 -13.4655 -13.4087 -13.3895
   -13.2686 -13.2618  -0.6448   2.1064   5.0852   6.2425   9.8231   9.8257
    10.2339  10.8804

     occupation numbers 
     1.0000   1.0000   1.0000   1.0000   1.0000   1.0000   1.0000   1.0000
     1.0000   1.0000   1.0000   1.0000   1.0000   1.0000   0.0000   0.0000
     0.0000   0.0000

          k =-0.1414-0.5185 0.7071 (  5789 PWs)   bands (ev):

   -13.7172 -13.7149 -13.6023 -13.5150 -13.5136 -13.4632 -13.4280 -13.3808
   -13.2650 -13.2633  -0.2964   1.6757   5.3024   5.7007   9.7519   9.8234
     9.8283  10.0770

     occupation numbers 
     1.0000   1.0000   1.0000   1.0000   1.0000   1.0000   1.0000   1.0000
     1.0000   1.0000   1.0000   1.0000   1.0000   1.0000   0.0000   0.0000
     0.0000   0.0000

          k =-0.0943-0.4714 0.6600 (  5787 PWs)   bands (ev):

   -13.7243 -13.7171 -13.5818 -13.5190 -13.5010 -13.4580 -13.4431 -13.4005
   -13.2623 -13.2552   0.0366   1.2907   5.0721   5.5900   9.8220   9.8252
     9.9392  10.6932

     occupation numbers 
     1.0000   1.0000   1.0000   1.0000   1.0000   1.0000   1.0000   1.0000
     1.0000   1.0000   1.0000   1.0000   1.0000   1.0000   0.0000   0.0000
     0.0000   0.0000

          k =-0.0471-0.4243 0.6128 (  5810 PWs)   bands (ev):

   -13.7290 -13.7175 -13.5716 -13.5102 -13.4928 -13.4661 -13.4536 -13.4093
   -13.2616 -13.2503   0.2004   1.1163   4.8774   5.6378   9.8228   9.8256
    10.0287  11.5599

     occupation numbers 
     1.0000   1.0000   1.0000   1.0000   1.0000   1.0000   1.0000   1.0000
     1.0000   1.0000   1.0000   1.0000   1.0000   1.0000   0.0000   0.0000
     0.0000   0.0000

          k = 0.0000-0.3771 0.5657 (  5818 PWs)   bands (ev):

   -13.7295 -13.7165 -13.5749 -13.5051 -13.4911 -13.4766 -13.4492 -13.4068
   -13.2627 -13.2502   0.0088   1.3266   4.8095   5.7987   9.8232   9.8257
    10.1429  11.8579

     occupation numbers 
     1.0000   1.0000   1.0000   1.0000   1.0000   1.0000   1.0000   1.0000
     1.0000   1.0000   1.0000   1.0000   1.0000   1.0000   0.0000   0.0000
     0.0000   0.0000

          k =-0.0471-0.5185 0.7071 (  5803 PWs)   bands (ev):

   -13.7197 -13.7188 -13.5775 -13.5480 -13.4853 -13.4563 -13.4324 -13.4043
   -13.2602 -13.2594   0.3121   0.9754   5.2866   5.4184   9.7596   9.8201
     9.8289   9.8850

     occupation numbers 
     1.0000   1.0000   1.0000   1.0000   1.0000   1.0000   1.0000   1.0000
     1.0000   1.0000   1.0000   1.0000   1.0000   1.0000   0.0000   0.0000
     0.0000   0.0000

          k = 0.0000-0.4714 0.6600 (  5809 PWs)   bands (ev):

   -13.7257 -13.7191 -13.5651 -13.5392 -13.4773 -13.4674 -13.4393 -13.4154
   -13.2599 -13.2533   0.4948   0.8023   5.0485   5.4503   9.8212   9.8251
     9.9067  10.6569

     occupation numbers 
     1.0000   1.0000   1.0000   1.0000   1.0000   1.0000   1.0000   1.0000
     1.0000   1.0000   1.0000   1.0000   1.0000   1.0000   0.0000   0.0000
     0.0000   0.0000

          k =-0.1414-0.4243 0.7071 (  5774 PWs)   bands (ev):

   -13.7247 -13.7176 -13.5819 -13.5144 -13.4980 -13.4735 -13.4340 -13.4016
   -13.2619 -13.2554  -0.1589   1.5213   4.9940   5.7070   9.8235   9.8258
    10.6753  10.7609

     occupation numbers 
     1.0000   1.0000   1.0000   1.0000   1.0000   1.0000   1.0000   1.0000
     1.0000   1.0000   1.0000   1.0000   1.0000   1.0000   0.0000   0.0000
     0.0000   0.0000

          k =-0.0943-0.3771 0.6600 (  5801 PWs)   bands (ev):

   -13.7282 -13.7196 -13.5677 -13.5073 -13.4984 -13.4682 -13.4492 -13.4129
   -13.2596 -13.2513   0.1250   1.2057   4.9088   5.5555   9.8235   9.8259
    10.7054  11.2505

     occupation numbers 
     1.0000   1.0000   1.0000   1.0000   1.0000   1.0000   1.0000   1.0000
     1.0000   1.0000   1.0000   1.0000   1.0000   1.0000   0.0000   0.0000
     0.0000   0.0000

          k =-0.0471-0.4243 0.7071 (  5788 PWs)   bands (ev):

   -13.7255 -13.7228 -13.5579 -13.5295 -13.4880 -13.4608 -13.4462 -13.4213
   -13.2562 -13.2536   0.3762   0.9417   5.0641   5.3037   9.8235   9.8259
    10.7303  10.7585

     occupation numbers 
     1.0000   1.0000   1.0000   1.0000   1.0000   1.0000   1.0000   1.0000
     1.0000   1.0000   1.0000   1.0000   1.0000   1.0000   0.0000   0.0000
     0.0000   0.0000

          k =-0.0000-0.3771 0.6600 (  5809 PWs)   bands (ev):

   -13.7278 -13.7229 -13.5524 -13.5237 -13.4856 -13.4669 -13.4499 -13.4253
   -13.2561 -13.2513   0.4407   0.8819   4.9748   5.3159   9.8236   9.8260
    10.8281  11.5287

     occupation numbers 
     1.0000   1.0000   1.0000   1.0000   1.0000   1.0000   1.0000   1.0000
     1.0000   1.0000   1.0000   1.0000   1.0000   1.0000   0.0000   0.0000
     0.0000   0.0000

     the Fermi energy is     7.9851 ev

!    total energy              =    -256.22092525 Ry
     Harris-Foulkes estimate   =    -256.22092475 Ry
     estimated scf accuracy    <       0.00000095 Ry

     The total energy is the sum of the following terms:

     one-electron contribution =    -132.89505366 Ry
     hartree contribution      =      78.00196029 Ry
     xc contribution           =     -31.50659532 Ry
     ewald contribution        =    -169.82123630 Ry
     smearing contrib. (-TS)   =      -0.00000025 Ry

     convergence has been achieved in   4 iterations

     Writing output data file Sn.save
 
     init_run     :      2.06s CPU      4.53s WALL (       1 calls)
     electrons    :     61.72s CPU    124.53s WALL (       1 calls)

     Called by init_run:
     wfcinit      :      1.80s CPU      3.92s WALL (       1 calls)
     potinit      :      0.04s CPU      0.07s WALL (       1 calls)

     Called by electrons:
     c_bands      :     55.90s CPU    113.34s WALL (       5 calls)
     sum_band     :      5.42s CPU     10.35s WALL (       5 calls)
     v_of_rho     :      0.07s CPU      0.12s WALL (       5 calls)
     v_h          :      0.01s CPU      0.01s WALL (       5 calls)
     v_xc         :      0.06s CPU      0.11s WALL (       5 calls)
     mix_rho      :      0.03s CPU      0.04s WALL (       5 calls)

     Called by c_bands:
     init_us_2    :      0.16s CPU      0.21s WALL (    1320 calls)
     cegterg      :     54.76s CPU    111.29s WALL (     600 calls)

     Called by sum_band:

     Called by *egterg:
     h_psi        :     47.37s CPU     97.24s WALL (    3294 calls)
     g_psi        :      0.07s CPU      0.08s WALL (    2574 calls)
     cdiaghg      :      3.64s CPU      7.20s WALL (    3054 calls)
     cegterg:over :      2.53s CPU      5.06s WALL (    2574 calls)
     cegterg:upda :      0.29s CPU      0.38s WALL (    2574 calls)
     cegterg:last :      0.14s CPU      0.17s WALL (     840 calls)

     Called by h_psi:
     h_psi:vloc   :     45.47s CPU     93.47s WALL (    3294 calls)
     h_psi:vnl    :      1.84s CPU      3.71s WALL (    3294 calls)
     add_vuspsi   :      0.21s CPU      0.31s WALL (    3294 calls)

     General routines
     calbec       :      1.62s CPU      3.39s WALL (    3294 calls)
     fft          :      0.12s CPU      0.33s WALL (      56 calls)
     fftw         :     49.18s CPU    101.40s WALL (   90602 calls)
     davcio       :      0.01s CPU      0.09s WALL (     120 calls)
 
     Parallel routines
     fft_scatter  :     39.83s CPU     88.06s WALL (   90658 calls)
 
     PWSCF        :  1m 4.56s CPU     2m10.91s WALL

 
   This run was terminated on:  12:21:21   2Mar2020            

=------------------------------------------------------------------------------=
   JOB DONE.
=------------------------------------------------------------------------------=
